                         Program Version 4.2.0 -  RELEASE  -
|  1> # ORCA input file
|  2> # SCF done       -192.373712908845          0.000934720151
|  3> ! CAM-B3LYP def2-SVP def2/J RIJCOSX Grid4 TightSCF
|  4> %maxcore 5000
|  5> %tddft
|  6>     Mode sTDDFT
|  7>     Ethresh 5.0
|  8>     maxcore 5000
|  9> end
| 10>
| 11> %pal
| 12>   nprocs 6
| 13>   end
| 14> * xyz 0 1
| 15>    C        1.48391         1.99815        -2.09239
| 16>    C        1.38307         3.00276        -3.01876
| 17>    C        0.96014         2.80820        -4.35124
| 18>    N        0.63113         2.71999        -5.44662
| 19>    C        1.75773         4.33845        -2.78602
| 20>    N        2.03801         5.44353        -2.64830
| 21>    C        1.27097         0.58212        -2.37051
| 22>    C        1.87203        -0.18665        -1.33102
| 23>    C        1.84805        -1.55243        -1.34170
| 24>    C        1.19733        -2.22044        -2.40317
| 25>    C        0.57263        -1.45643        -3.43185
| 26>    C        0.62185        -0.04347        -3.39972
| 27>    C       -0.08729        -2.13542        -4.47587
| 28>    C       -0.12643        -3.50310        -4.50705
| 29>    C        0.49180        -4.25432        -3.49634
| 30>    C        1.13984        -3.62681        -2.46703
| 31>    C        2.44264         0.72155        -0.32781
| 32>    O        3.08794         0.45421         0.65688
| 33>    C        2.00775         2.09886        -0.75055
| 34>    C        2.10980         3.09444         0.17064
| 35>    C        1.52099         4.37826         0.23707
| 36>    C        0.36543         4.88840        -0.32587
| 37>    C        0.07691         6.23936         0.01230
| 38>    C        1.06849         6.89716         0.82456
| 39>    O        1.21093         8.03313         1.15939
| 40>    S        2.28067         5.58574         1.25740
| 41>    C       -1.06578         6.60384        -0.67878
| 42>    O       -1.49975         5.55521        -1.43247
| 43>    C       -0.68451         4.45457        -1.22692
| 44>    O       -0.90681         3.40038        -1.76342
| 45>    C       -1.75573         7.83756        -0.67065
| 46>    N       -2.50635         8.34416        -1.70252
| 47>    C       -2.76398         7.72285        -2.98149
| 48>    C       -3.98466         6.80963        -2.92769
| 49>    C       -2.99641         9.62522        -1.40256
| 50>    O       -3.66120        10.28862        -2.17267
| 51>    C       -2.52697         9.88594        -0.05713
| 52>    C       -1.77409         8.76956         0.36630
| 53>    C       -1.40856         8.97453         1.75739
| 54>    O       -0.87433         8.26216         2.57288
| 55>    N       -1.88850        10.27156         2.04590
| 56>    C       -1.71676        10.85306         3.35593
| 57>    C       -2.97806        10.72107         4.20559
| 58>    C       -2.56887        10.81413         0.99079
| 59>    C       -3.17259        12.09686         1.00992
| 60>    C       -3.86519        12.58578        -0.04968
| 61>    C       -4.46471        13.87156        -0.03319
| 62>    S       -5.36574        14.49748        -1.40464
| 63>    C       -5.60844        15.93596        -0.41983
| 64>    N       -5.04361        15.83484         0.75528
| 65>    N       -4.42526        14.71770         0.96539
| 66>    C       -6.34743        17.05346        -0.88974
| 67>    C       -6.53554        18.18264        -0.16290
| 68>    C       -7.29444        19.26273        -0.68241
| 69>    C       -7.53566        20.43765        -0.03687
| 70>    C       -8.31392        21.56058        -0.53654
| 71>    C       -9.01348        21.61759        -1.71371
| 72>    C       -9.76009        22.73824        -2.13768
| 73>    N      -10.39154        23.60835        -2.53991
| 74>    C       -9.11037        20.58431        -2.66968
| 75>    N       -9.24362        19.79802        -3.49616
| 76>    C       -8.24281        22.62673         0.45538
| 77>    C       -7.46758        22.17375         1.56110
| 78>    C       -7.00730        20.79785         1.31141
| 79>    O       -6.33814        20.11109         2.05103
| 80>    C       -7.23082        22.96352         2.64947
| 81>    C       -7.76712        24.26978         2.68306
| 82>    C       -8.54237        24.73218         1.58017
| 83>    C       -8.77141        23.89144         0.46758
| 84>    C       -9.07259        26.03803         1.62266
| 85>    C       -8.84864        26.84924         2.70148
| 86>    C       -8.08496        26.39302         3.78659
| 87>    C       -7.55586        25.13087         3.77780
| 88>    H        2.31509        -2.11662        -0.54814
| 89>    H        0.12790         0.51177        -4.18105
| 90>    H       -0.55946        -1.55269        -5.25292
| 91>    H       -0.63423        -4.01385        -5.31139
| 92>    H        0.45109        -5.33248        -3.53666
| 93>    H        1.61668        -4.20010        -1.68557
| 94>    H        2.72413         2.83658         1.03091
| 95>    H       -1.88063         7.16352        -3.29527
| 96>    H       -2.94545         8.53903        -3.68639
| 97>    H       -3.81865         5.98973        -2.23411
| 98>    H       -4.17155         6.39625        -3.91442
| 99>    H       -4.85950         7.37343        -2.61254
|100>    H       -1.42525        11.90115         3.25228
|101>    H       -0.89752        10.30166         3.82495
|102>    H       -3.81794        11.23298         3.74128
|103>    H       -2.80474        11.15381         5.18664
|104>    H       -3.23467         9.67192         4.32974
|105>    H       -3.07521        12.70980         1.89380
|106>    H       -3.98425        11.99970        -0.95110
|107>    H       -6.77056        16.96545        -1.88222
|108>    H       -6.10681        18.26332         0.82494
|109>    H       -7.70191        19.12016        -1.67562
|110>    H       -6.63929        22.59459         3.47421
|111>    H       -9.36057        24.27350        -0.35068
|112>    H       -9.66003        26.38443         0.78505
|113>    H       -9.25877        27.84768         2.72478
|114>    H       -7.91806        27.04693         4.62938
|115>    H       -6.96725        24.77421         4.61028
|116> *
|117>
|118>                          ****END OF INPUT****

CARTESIAN COORDINATES (ANGSTROEM)
---------------------------------
  C      1.483910    1.998150   -2.092390
  C      1.383070    3.002760   -3.018760
  C      0.960140    2.808200   -4.351240
  N      0.631130    2.719990   -5.446620
  C      1.757730    4.338450   -2.786020
  N      2.038010    5.443530   -2.648300
  C      1.270970    0.582120   -2.370510
  C      1.872030   -0.186650   -1.331020
  C      1.848050   -1.552430   -1.341700
  C      1.197330   -2.220440   -2.403170
  C      0.572630   -1.456430   -3.431850
  C      0.621850   -0.043470   -3.399720
  C     -0.087290   -2.135420   -4.475870
  C     -0.126430   -3.503100   -4.507050
  C      0.491800   -4.254320   -3.496340
  C      1.139840   -3.626810   -2.467030
  C      2.442640    0.721550   -0.327810
  O      3.087940    0.454210    0.656880
  C      2.007750    2.098860   -0.750550
  C      2.109800    3.094440    0.170640
  C      1.520990    4.378260    0.237070
  C      0.365430    4.888400   -0.325870
  C      0.076910    6.239360    0.012300
  C      1.068490    6.897160    0.824560
  O      1.210930    8.033130    1.159390
  S      2.280670    5.585740    1.257400
  C     -1.065780    6.603840   -0.678780
  O     -1.499750    5.555210   -1.432470
  C     -0.684510    4.454570   -1.226920
  O     -0.906810    3.400380   -1.763420
  C     -1.755730    7.837560   -0.670650
  N     -2.506350    8.344160   -1.702520
  C     -2.763980    7.722850   -2.981490
  C     -3.984660    6.809630   -2.927690
  C     -2.996410    9.625220   -1.402560
  O     -3.661200   10.288620   -2.172670
  C     -2.526970    9.885940   -0.057130
  C     -1.774090    8.769560    0.366300
  C     -1.408560    8.974530    1.757390
  O     -0.874330    8.262160    2.572880
  N     -1.888500   10.271560    2.045900
  C     -1.716760   10.853060    3.355930
  C     -2.978060   10.721070    4.205590
  C     -2.568870   10.814130    0.990790
  C     -3.172590   12.096860    1.009920
  C     -3.865190   12.585780   -0.049680
  C     -4.464710   13.871560   -0.033190
  S     -5.365740   14.497480   -1.404640
  C     -5.608440   15.935960   -0.419830
  N     -5.043610   15.834840    0.755280
  N     -4.425260   14.717700    0.965390
  C     -6.347430   17.053460   -0.889740
  C     -6.535540   18.182640   -0.162900
  C     -7.294440   19.262730   -0.682410
  C     -7.535660   20.437650   -0.036870
  C     -8.313920   21.560580   -0.536540
  C     -9.013480   21.617590   -1.713710
  C     -9.760090   22.738240   -2.137680
  N    -10.391540   23.608350   -2.539910
  C     -9.110370   20.584310   -2.669680
  N     -9.243620   19.798020   -3.496160
  C     -8.242810   22.626730    0.455380
  C     -7.467580   22.173750    1.561100
  C     -7.007300   20.797850    1.311410
  O     -6.338140   20.111090    2.051030
  C     -7.230820   22.963520    2.649470
  C     -7.767120   24.269780    2.683060
  C     -8.542370   24.732180    1.580170
  C     -8.771410   23.891440    0.467580
  C     -9.072590   26.038030    1.622660
  C     -8.848640   26.849240    2.701480
  C     -8.084960   26.393020    3.786590
  C     -7.555860   25.130870    3.777800
  H      2.315090   -2.116620   -0.548140
  H      0.127900    0.511770   -4.181050
  H     -0.559460   -1.552690   -5.252920
  H     -0.634230   -4.013850   -5.311390
  H      0.451090   -5.332480   -3.536660
  H      1.616680   -4.200100   -1.685570
  H      2.724130    2.836580    1.030910
  H     -1.880630    7.163520   -3.295270
  H     -2.945450    8.539030   -3.686390
  H     -3.818650    5.989730   -2.234110
  H     -4.171550    6.396250   -3.914420
  H     -4.859500    7.373430   -2.612540
  H     -1.425250   11.901150    3.252280
  H     -0.897520   10.301660    3.824950
  H     -3.817940   11.232980    3.741280
  H     -2.804740   11.153810    5.186640
  H     -3.234670    9.671920    4.329740
  H     -3.075210   12.709800    1.893800
  H     -3.984250   11.999700   -0.951100
  H     -6.770560   16.965450   -1.882220
  H     -6.106810   18.263320    0.824940
  H     -7.701910   19.120160   -1.675620
  H     -6.639290   22.594590    3.474210
  H     -9.360570   24.273500   -0.350680
  H     -9.660030   26.384430    0.785050
  H     -9.258770   27.847680    2.724780
  H     -7.918060   27.046930    4.629380
  H     -6.967250   24.774210    4.610280

 Total Charge           Charge          ....    0
 Multiplicity           Mult            ....    1
 Number of Electrons    NEL             ....  508
 Basis Dimension        Dim             .... 1170

ORBITAL ENERGIES
----------------

  NO   OCC          E(Eh)            E(eV)
   0   2.0000     -88.988915     -2421.5115
   1   2.0000     -88.950631     -2420.4697
   2   2.0000     -19.304752      -525.3090
   3   2.0000     -19.233786      -523.3779
   4   2.0000     -19.223956      -523.1104
   5   2.0000     -19.222387      -523.0678
   6   2.0000     -19.220824      -523.0252
   7   2.0000     -19.211361      -522.7677
   8   2.0000     -19.199074      -522.4334
   9   2.0000     -14.469556      -393.7366
  10   2.0000     -14.463798      -393.5800
  11   2.0000     -14.455567      -393.3560
  12   2.0000     -14.454141      -393.3172
  13   2.0000     -14.424118      -392.5002
  14   2.0000     -14.422034      -392.4435
  15   2.0000     -14.419189      -392.3661
  16   2.0000     -14.417191      -392.3117
  17   2.0000     -10.426816      -283.7281
  18   2.0000     -10.390211      -282.7320
  19   2.0000     -10.389295      -282.7071
  20   2.0000     -10.387287      -282.6525
  21   2.0000     -10.383875      -282.5596
  22   2.0000     -10.371676      -282.2277
  23   2.0000     -10.371454      -282.2216
  24   2.0000     -10.362524      -281.9786
  25   2.0000     -10.356843      -281.8240
  26   2.0000     -10.356383      -281.8115
  27   2.0000     -10.353438      -281.7314
  28   2.0000     -10.348876      -281.6072
  29   2.0000     -10.348113      -281.5865
  30   2.0000     -10.346721      -281.5486
  31   2.0000     -10.345663      -281.5198
  32   2.0000     -10.341288      -281.4008
  33   2.0000     -10.324560      -280.9455
  34   2.0000     -10.324469      -280.9431
  35   2.0000     -10.323813      -280.9252
  36   2.0000     -10.321771      -280.8697
  37   2.0000     -10.320051      -280.8229
  38   2.0000     -10.319215      -280.8001
  39   2.0000     -10.317066      -280.7416
  40   2.0000     -10.317047      -280.7411
  41   2.0000     -10.315092      -280.6879
  42   2.0000     -10.314213      -280.6640
  43   2.0000     -10.310431      -280.5611
  44   2.0000     -10.309806      -280.5441
  45   2.0000     -10.307166      -280.4722
  46   2.0000     -10.306686      -280.4592
  47   2.0000     -10.305994      -280.4403
  48   2.0000     -10.303690      -280.3777
  49   2.0000     -10.302146      -280.3357
  50   2.0000     -10.301057      -280.3060
  51   2.0000     -10.300815      -280.2994
  52   2.0000     -10.300249      -280.2840
  53   2.0000     -10.299783      -280.2713
  54   2.0000     -10.299321      -280.2588
  55   2.0000     -10.299053      -280.2515
  56   2.0000     -10.298322      -280.2316
  57   2.0000     -10.297929      -280.2209
  58   2.0000     -10.295934      -280.1666
  59   2.0000     -10.291808      -280.0543
  60   2.0000     -10.291156      -280.0366
  61   2.0000     -10.289681      -279.9965
  62   2.0000     -10.289573      -279.9935
  63   2.0000     -10.289023      -279.9786
  64   2.0000     -10.288798      -279.9724
  65   2.0000     -10.288320      -279.9594
  66   2.0000     -10.286871      -279.9200
  67   2.0000     -10.286404      -279.9073
  68   2.0000     -10.286104      -279.8991
  69   2.0000     -10.285307      -279.8774
  70   2.0000     -10.277510      -279.6653
  71   2.0000     -10.269855      -279.4570
  72   2.0000     -10.255121      -279.0560
  73   2.0000      -8.085141      -220.0079
  74   2.0000      -8.047978      -218.9966
  75   2.0000      -6.053641      -164.7279
  76   2.0000      -6.050353      -164.6385
  77   2.0000      -6.047735      -164.5672
  78   2.0000      -6.017409      -163.7420
  79   2.0000      -6.013396      -163.6328
  80   2.0000      -6.009093      -163.5157
  81   2.0000      -1.236925       -33.6584
  82   2.0000      -1.159431       -31.5497
  83   2.0000      -1.152619       -31.3644
  84   2.0000      -1.143860       -31.1260
  85   2.0000      -1.142076       -31.0775
  86   2.0000      -1.137849       -30.9624
  87   2.0000      -1.137500       -30.9530
  88   2.0000      -1.135771       -30.9059
  89   2.0000      -1.080095       -29.3909
  90   2.0000      -1.067877       -29.0584
  91   2.0000      -1.023023       -27.8379
  92   2.0000      -1.023001       -27.8373
  93   2.0000      -1.002818       -27.2881
  94   2.0000      -1.002565       -27.2812
  95   2.0000      -0.998596       -27.1732
  96   2.0000      -0.998532       -27.1714
  97   2.0000      -0.991048       -26.9678
  98   2.0000      -0.975669       -26.5493
  99   2.0000      -0.972231       -26.4557
 100   2.0000      -0.964756       -26.2523
 101   2.0000      -0.947144       -25.7731
 102   2.0000      -0.940370       -25.5888
 103   2.0000      -0.928971       -25.2786
 104   2.0000      -0.926875       -25.2215
 105   2.0000      -0.916229       -24.9318
 106   2.0000      -0.914976       -24.8978
 107   2.0000      -0.903863       -24.5954
 108   2.0000      -0.896018       -24.3819
 109   2.0000      -0.888513       -24.1777
 110   2.0000      -0.883952       -24.0535
 111   2.0000      -0.882445       -24.0126
 112   2.0000      -0.880706       -23.9652
 113   2.0000      -0.872323       -23.7371
 114   2.0000      -0.863684       -23.5020
 115   2.0000      -0.850457       -23.1421
 116   2.0000      -0.831558       -22.6278
 117   2.0000      -0.829379       -22.5685
 118   2.0000      -0.826775       -22.4977
 119   2.0000      -0.821986       -22.3674
 120   2.0000      -0.815029       -22.1781
 121   2.0000      -0.798686       -21.7333
 122   2.0000      -0.787610       -21.4319
 123   2.0000      -0.769180       -20.9304
 124   2.0000      -0.765984       -20.8435
 125   2.0000      -0.765864       -20.8402
 126   2.0000      -0.760403       -20.6916
 127   2.0000      -0.745857       -20.2958
 128   2.0000      -0.733027       -19.9467
 129   2.0000      -0.727071       -19.7846
 130   2.0000      -0.724550       -19.7160
 131   2.0000      -0.714837       -19.4517
 132   2.0000      -0.711169       -19.3519
 133   2.0000      -0.707462       -19.2510
 134   2.0000      -0.705832       -19.2067
 135   2.0000      -0.702272       -19.1098
 136   2.0000      -0.699842       -19.0437
 137   2.0000      -0.692152       -18.8344
 138   2.0000      -0.685557       -18.6550
 139   2.0000      -0.679138       -18.4803
 140   2.0000      -0.674228       -18.3467
 141   2.0000      -0.671865       -18.2824
 142   2.0000      -0.659848       -17.9554
 143   2.0000      -0.650522       -17.7016
 144   2.0000      -0.645336       -17.5605
 145   2.0000      -0.638853       -17.3841
 146   2.0000      -0.630269       -17.1505
 147   2.0000      -0.627922       -17.0866
 148   2.0000      -0.620293       -16.8790
 149   2.0000      -0.614724       -16.7275
 150   2.0000      -0.610054       -16.6004
 151   2.0000      -0.608325       -16.5534
 152   2.0000      -0.605645       -16.4804
 153   2.0000      -0.600268       -16.3341
 154   2.0000      -0.597246       -16.2519
 155   2.0000      -0.593416       -16.1477
 156   2.0000      -0.585519       -15.9328
 157   2.0000      -0.583601       -15.8806
 158   2.0000      -0.577435       -15.7128
 159   2.0000      -0.569890       -15.5075
 160   2.0000      -0.562696       -15.3117
 161   2.0000      -0.560561       -15.2536
 162   2.0000      -0.558063       -15.1857
 163   2.0000      -0.556330       -15.1385
 164   2.0000      -0.554141       -15.0789
 165   2.0000      -0.550515       -14.9803
 166   2.0000      -0.549886       -14.9632
 167   2.0000      -0.548161       -14.9162
 168   2.0000      -0.547154       -14.8888
 169   2.0000      -0.543582       -14.7916
 170   2.0000      -0.541398       -14.7322
 171   2.0000      -0.540637       -14.7115
 172   2.0000      -0.539577       -14.6826
 173   2.0000      -0.537594       -14.6287
 174   2.0000      -0.532822       -14.4988
 175   2.0000      -0.528980       -14.3943
 176   2.0000      -0.527789       -14.3619
 177   2.0000      -0.523799       -14.2533
 178   2.0000      -0.523235       -14.2380
 179   2.0000      -0.521628       -14.1942
 180   2.0000      -0.519163       -14.1272
 181   2.0000      -0.518483       -14.1087
 182   2.0000      -0.515487       -14.0271
 183   2.0000      -0.514986       -14.0135
 184   2.0000      -0.512750       -13.9526
 185   2.0000      -0.509874       -13.8744
 186   2.0000      -0.507926       -13.8214
 187   2.0000      -0.507031       -13.7970
 188   2.0000      -0.506001       -13.7690
 189   2.0000      -0.503176       -13.6921
 190   2.0000      -0.501346       -13.6423
 191   2.0000      -0.493233       -13.4216
 192   2.0000      -0.490216       -13.3395
 193   2.0000      -0.488645       -13.2967
 194   2.0000      -0.488194       -13.2844
 195   2.0000      -0.486408       -13.2358
 196   2.0000      -0.483772       -13.1641
 197   2.0000      -0.480325       -13.0703
 198   2.0000      -0.479540       -13.0490
 199   2.0000      -0.476447       -12.9648
 200   2.0000      -0.471101       -12.8193
 201   2.0000      -0.467132       -12.7113
 202   2.0000      -0.466488       -12.6938
 203   2.0000      -0.464530       -12.6405
 204   2.0000      -0.459130       -12.4936
 205   2.0000      -0.458210       -12.4685
 206   2.0000      -0.455371       -12.3913
 207   2.0000      -0.453866       -12.3503
 208   2.0000      -0.453282       -12.3344
 209   2.0000      -0.448774       -12.2118
 210   2.0000      -0.447759       -12.1841
 211   2.0000      -0.445802       -12.1309
 212   2.0000      -0.444026       -12.0826
 213   2.0000      -0.443512       -12.0686
 214   2.0000      -0.441450       -12.0125
 215   2.0000      -0.440508       -11.9868
 216   2.0000      -0.437460       -11.9039
 217   2.0000      -0.436609       -11.8807
 218   2.0000      -0.434985       -11.8365
 219   2.0000      -0.434062       -11.8114
 220   2.0000      -0.431961       -11.7543
 221   2.0000      -0.430370       -11.7110
 222   2.0000      -0.429593       -11.6898
 223   2.0000      -0.424460       -11.5501
 224   2.0000      -0.423707       -11.5296
 225   2.0000      -0.420674       -11.4471
 226   2.0000      -0.417552       -11.3622
 227   2.0000      -0.411558       -11.1991
 228   2.0000      -0.410510       -11.1705
 229   2.0000      -0.410169       -11.1613
 230   2.0000      -0.406329       -11.0568
 231   2.0000      -0.398251       -10.8370
 232   2.0000      -0.394645       -10.7388
 233   2.0000      -0.383230       -10.4282
 234   2.0000      -0.379954       -10.3391
 235   2.0000      -0.375196       -10.2096
 236   2.0000      -0.372224       -10.1287
 237   2.0000      -0.362383        -9.8609
 238   2.0000      -0.361125        -9.8267
 239   2.0000      -0.346990        -9.4421
 240   2.0000      -0.345530        -9.4024
 241   2.0000      -0.344266        -9.3680
 242   2.0000      -0.340749        -9.2723
 243   2.0000      -0.340376        -9.2621
 244   2.0000      -0.335885        -9.1399
 245   2.0000      -0.333065        -9.0632
 246   2.0000      -0.328008        -8.9256
 247   2.0000      -0.320873        -8.7314
 248   2.0000      -0.315279        -8.5792
 249   2.0000      -0.302756        -8.2384
 250   2.0000      -0.298079        -8.1112
 251   2.0000      -0.293227        -7.9791
 252   2.0000      -0.291884        -7.9426
 253   2.0000      -0.253952        -6.9104
 254   0.0000      -0.125915        -3.4263
 255   0.0000      -0.107404        -2.9226
 256   0.0000      -0.084961        -2.3119
 257   0.0000      -0.065533        -1.7832
 258   0.0000      -0.060473        -1.6456

MULLIKEN ATOMIC CHARGES
-----------------------
   0 C :    0.330634
   1 C :   -0.308584
   2 C :   -0.180686
   3 N :    0.165217
   4 C :   -0.229201
   5 N :    0.178095
   6 C :    0.030388
   7 C :    0.017301
   8 C :   -0.078908
   9 C :    0.093293
  10 C :    0.095150
  11 C :   -0.077162
  12 C :   -0.017325
  13 C :    0.037288
  14 C :    0.033377
  15 C :   -0.014728
  16 C :    0.131489
  17 O :   -0.132530
  18 C :   -0.113074
  19 C :    0.045701
  20 C :   -0.127271
  21 C :   -0.009726
  22 C :    0.030815
  23 C :    0.055293
  24 O :   -0.117318
  25 S :    0.061290
  26 C :    0.083502
  27 O :   -0.236113
  28 C :    0.240933
  29 O :   -0.132271
  30 C :    0.100279
  31 N :   -0.252065
  32 C :    0.112655
  33 C :    0.006042
  34 C :    0.171970
  35 O :   -0.213446
  36 C :   -0.083709
  37 C :   -0.013699
  38 C :    0.154067
  39 O :   -0.152245
  40 N :   -0.256934
  41 C :    0.093891
  42 C :    0.004237
  43 C :    0.157146
  44 C :   -0.029927
  45 C :    0.094476
  46 C :   -0.115479
  47 S :    0.146964
  48 C :   -0.102687
  49 N :   -0.028454
  50 N :   -0.035766
  51 C :    0.082985
  52 C :    0.021545
  53 C :   -0.055023
  54 C :   -0.048146
  55 C :    0.337025
  56 C :   -0.353920
  57 C :   -0.181387
  58 N :    0.150640
  59 C :   -0.188582
  60 N :    0.150360
  61 C :    0.044930
  62 C :   -0.001154
  63 C :    0.144584
  64 O :   -0.137988
  65 C :   -0.079773
  66 C :    0.100330
  67 C :    0.096480
  68 C :   -0.085677
  69 C :   -0.018995
  70 C :    0.038412
  71 C :    0.037575
  72 C :   -0.016794
  73 H :   -0.010571
  74 H :   -0.001346
  75 H :   -0.009159
  76 H :   -0.004132
  77 H :   -0.003417
  78 H :   -0.016882
  79 H :    0.033222
  80 H :    0.034323
  81 H :    0.038957
  82 H :    0.024856
  83 H :    0.023456
  84 H :    0.020368
  85 H :    0.033689
  86 H :    0.051476
  87 H :    0.019473
  88 H :    0.029027
  89 H :    0.030500
  90 H :    0.009613
  91 H :    0.017693
  92 H :    0.012330
  93 H :    0.053852
  94 H :    0.013450
  95 H :   -0.011217
  96 H :   -0.007232
  97 H :   -0.008373
  98 H :   -0.004066
  99 H :   -0.003264
 100 H :   -0.016245
Sum of atomic charges:   -0.0000000

LOEWDIN ATOMIC CHARGES
----------------------
   0 C :    0.068362
   1 C :   -0.115742
   2 C :   -0.014797
   3 N :   -0.044877
   4 C :   -0.017077
   5 N :   -0.042143
   6 C :   -0.017604
   7 C :   -0.060317
   8 C :    0.036179
   9 C :   -0.009939
  10 C :   -0.003006
  11 C :    0.019431
  12 C :   -0.005860
  13 C :   -0.011318
  14 C :   -0.013464
  15 C :   -0.008449
  16 C :    0.086800
  17 O :   -0.130455
  18 C :   -0.046933
  19 C :    0.023472
  20 C :   -0.112671
  21 C :   -0.095799
  22 C :   -0.109199
  23 C :   -0.036644
  24 O :   -0.111805
  25 S :    0.352366
  26 C :    0.097696
  27 O :   -0.029830
  28 C :    0.102175
  29 O :   -0.124342
  30 C :    0.033992
  31 N :    0.009639
  32 C :    0.038813
  33 C :   -0.060641
  34 C :    0.078429
  35 O :   -0.202930
  36 C :   -0.123553
  37 C :   -0.070365
  38 C :    0.087251
  39 O :   -0.144912
  40 N :    0.006727
  41 C :    0.038422
  42 C :   -0.059453
  43 C :    0.097155
  44 C :   -0.016429
  45 C :    0.010515
  46 C :   -0.153314
  47 S :    0.425760
  48 C :   -0.150134
  49 N :   -0.057171
  50 N :   -0.063356
  51 C :   -0.014275
  52 C :    0.014778
  53 C :    0.060792
  54 C :   -0.076238
  55 C :    0.074557
  56 C :   -0.133604
  57 C :   -0.016653
  58 N :   -0.049696
  59 C :   -0.020070
  60 N :   -0.050158
  61 C :   -0.026592
  62 C :   -0.056329
  63 C :    0.083847
  64 O :   -0.132818
  65 C :    0.033958
  66 C :   -0.007310
  67 C :   -0.005617
  68 C :    0.020311
  69 C :   -0.004887
  70 C :   -0.011983
  71 C :   -0.010742
  72 C :   -0.008976
  73 H :    0.039850
  74 H :    0.040456
  75 H :    0.034953
  76 H :    0.033456
  77 H :    0.033162
  78 H :    0.032004
  79 H :    0.050603
  80 H :    0.028230
  81 H :    0.035493
  82 H :    0.022143
  83 H :    0.032008
  84 H :    0.027154
  85 H :    0.028222
  86 H :    0.041387
  87 H :    0.023855
  88 H :    0.033804
  89 H :    0.032378
  90 H :    0.040251
  91 H :    0.040058
  92 H :    0.039099
  93 H :    0.044506
  94 H :    0.042097
  95 H :    0.039839
  96 H :    0.039275
  97 H :    0.035080
  98 H :    0.033756
  99 H :    0.033458
 100 H :    0.032471

  Mayer bond orders larger than 0.100000
B(  0-C ,  1-C ) :   1.6251 B(  0-C ,  6-C ) :   0.9991 B(  0-C , 18-C ) :   1.0467
B(  1-C ,  2-C ) :   1.1376 B(  1-C ,  4-C ) :   1.1741 B(  2-C ,  3-N ) :   2.9925
B(  4-C ,  5-N ) :   2.9892 B(  6-C ,  7-C ) :   1.2088 B(  6-C , 11-C ) :   1.4655
B(  7-C ,  8-C ) :   1.4688 B(  7-C , 16-C ) :   0.9272 B(  8-C ,  9-C ) :   1.1877
B(  8-C , 73-H ) :   1.0155 B(  9-C , 10-C ) :   1.2545 B(  9-C , 15-C ) :   1.2447
B( 10-C , 11-C ) :   1.2039 B( 10-C , 12-C ) :   1.2429 B( 11-C , 74-H ) :   0.9923
B( 12-C , 13-C ) :   1.4893 B( 12-C , 75-H ) :   0.9973 B( 13-C , 14-C ) :   1.2606
B( 13-C , 76-H ) :   0.9880 B( 14-C , 15-C ) :   1.4896 B( 14-C , 77-H ) :   0.9890
B( 15-C , 78-H ) :   0.9972 B( 16-C , 17-O ) :   2.2698 B( 16-C , 18-C ) :   0.9174
B( 18-C , 19-C ) :   1.6788 B( 19-C , 20-C ) :   1.1515 B( 19-C , 79-H ) :   0.9176
B( 20-C , 21-C ) :   1.4369 B( 20-C , 25-S ) :   1.1058 B( 21-C , 22-C ) :   1.1621
B( 21-C , 28-C ) :   0.9683 B( 22-C , 23-C ) :   0.9350 B( 22-C , 26-C ) :   1.4462
B( 23-C , 24-O ) :   2.1805 B( 23-C , 25-S ) :   0.9665 B( 24-O , 25-S ) :   0.1111
B( 26-C , 27-O ) :   1.1322 B( 26-C , 30-C ) :   1.1058 B( 27-O , 28-C ) :   1.0180
B( 28-C , 29-O ) :   2.1723 B( 30-C , 31-N ) :   1.1814 B( 30-C , 37-C ) :   1.3874
B( 31-N , 32-C ) :   0.9323 B( 31-N , 34-C ) :   1.0679 B( 32-C , 33-C ) :   1.1238
B( 32-C , 80-H ) :   0.9485 B( 32-C , 81-H ) :   0.9307 B( 33-C , 82-H ) :   0.9650
B( 33-C , 83-H ) :   0.9671 B( 33-C , 84-H ) :   0.9657 B( 34-C , 35-O ) :   2.0170
B( 34-C , 36-C ) :   0.9872 B( 35-O , 91-H ) :   0.1205 B( 36-C , 37-C ) :   1.2813
B( 36-C , 43-C ) :   1.2882 B( 37-C , 38-C ) :   0.9511 B( 38-C , 39-O ) :   2.1498
B( 38-C , 40-N ) :   1.0145 B( 40-N , 41-C ) :   0.9379 B( 40-N , 43-C ) :   1.2029
B( 41-C , 42-C ) :   1.1209 B( 41-C , 85-H ) :   0.9498 B( 41-C , 86-H ) :   0.9296
B( 42-C , 87-H ) :   0.9684 B( 42-C , 88-H ) :   0.9677 B( 42-C , 89-H ) :   0.9637
B( 43-C , 44-C ) :   1.1370 B( 44-C , 45-C ) :   1.6454 B( 44-C , 90-H ) :   0.9737
B( 45-C , 46-C ) :   1.1144 B( 45-C , 91-H ) :   0.9185 B( 46-C , 47-S ) :   1.1152
B( 46-C , 50-N ) :   1.6373 B( 47-S , 48-C ) :   1.1060 B( 48-C , 49-N ) :   1.6429
B( 48-C , 51-C ) :   1.0888 B( 49-N , 50-N ) :   1.2617 B( 51-C , 52-C ) :   1.6342
B( 51-C , 92-H ) :   0.9581 B( 52-C , 53-C ) :   1.1195 B( 52-C , 93-H ) :   0.9854
B( 53-C , 54-C ) :   1.5762 B( 53-C , 94-H ) :   0.9595 B( 54-C , 55-C ) :   1.0543
B( 54-C , 63-C ) :   0.9295 B( 55-C , 56-C ) :   1.6339 B( 55-C , 61-C ) :   0.9913
B( 56-C , 57-C ) :   1.1453 B( 56-C , 59-C ) :   1.1454 B( 57-C , 58-N ) :   2.9628
B( 59-C , 60-N ) :   2.9621 B( 61-C , 62-C ) :   1.2157 B( 61-C , 68-C ) :   1.4442
B( 62-C , 63-C ) :   0.9424 B( 62-C , 65-C ) :   1.4687 B( 63-C , 64-O ) :   2.2245
B( 65-C , 66-C ) :   1.1808 B( 65-C , 95-H ) :   1.0161 B( 66-C , 67-C ) :   1.2548
B( 66-C , 72-C ) :   1.2425 B( 67-C , 68-C ) :   1.2102 B( 67-C , 69-C ) :   1.2395
B( 68-C , 96-H ) :   0.9882 B( 69-C , 70-C ) :   1.4900 B( 69-C , 97-H ) :   0.9970
B( 70-C , 71-C ) :   1.2595 B( 70-C , 98-H ) :   0.9880 B( 71-C , 72-C ) :   1.4900
B( 71-C , 99-H ) :   0.9882 B( 72-C ,100-H ) :   0.9977

-----------------------------------------------------------------------------
         ABSORPTION SPECTRUM VIA TRANSITION ELECTRIC DIPOLE MOMENTS
-----------------------------------------------------------------------------
State   Energy  Wavelength   fosc         T2         TX        TY        TZ
        (cm-1)    (nm)                  (au**2)     (au)      (au)      (au)
-----------------------------------------------------------------------------
   0   12571.4    795.5   1.171159793  30.66970  -2.53910   4.81027   1.04116
   1   19111.5    523.2   0.078334762   1.34938   0.29387  -1.11635   0.12956
   2   20273.4    493.3   0.085686719   1.39143   0.78973  -0.65293   0.58434
   3   22148.3    451.5   0.029694029   0.44137  -0.58379  -0.12914   0.28963
   4   22925.6    436.2   0.501447818   7.20079  -1.23016   2.35293  -0.38889
   5   23637.1    423.1   0.304687728   4.24361  -1.07132   1.68147  -0.51820
   6   24151.2    414.1   0.001829774   0.02494  -0.08060   0.08981   0.10188
   7   24943.8    400.9   0.378229136   4.99193  -0.83734   2.06628   0.14592
   8   25300.4    395.3   0.000302917   0.00394   0.00661  -0.05719   0.02505
   9   25390.0    393.9   0.013174118   0.17082  -0.10242  -0.36396   0.16692
  10   25771.2    388.0   0.037218721   0.47545  -0.32187   0.50397   0.34331
  11   26254.4    380.9   0.004592083   0.05758  -0.00924  -0.23948  -0.01200
  12   26359.1    379.4   0.007402819   0.09246   0.11175   0.27903   0.04595
  13   26914.4    371.5   0.106317183   1.30045   0.57406   0.22092   0.96026
  14   27447.1    364.3   0.002679082   0.03213  -0.01509   0.07808  -0.16065
  15   28106.0    355.8   0.070408501   0.82471  -0.03041  -0.73854  -0.52759
  16   28370.1    352.5   0.031622648   0.36696   0.30494  -0.49053  -0.18260
  17   28817.5    347.0   0.010084698   0.11521  -0.17627   0.28620   0.04720
  18   29192.6    342.6   0.272218351   3.06987   0.37248  -1.64839  -0.46252
  19   29649.0    337.3   0.047027753   0.52218  -0.14513   0.68088   0.19370
  20   30164.2    331.5   0.002661289   0.02905   0.08701   0.12048   0.08343
  21   31058.4    322.0   0.322758282   3.42116   0.27301   1.82824   0.06448
  22   31510.2    317.4   0.258836443   2.70427  -0.16601   1.36867   0.89636
  23   31557.4    316.9   0.010112192   0.10549   0.03538   0.17828   0.26918
  24   32051.3    312.0   0.328230664   3.37139  -0.08829  -1.40316  -1.18099
  25   32222.3    310.3   0.005219060   0.05332   0.16085  -0.04709  -0.15885
  26   32553.3    307.2   0.109534629   1.10772   0.36240   0.98570   0.06922
  27   32801.7    304.9   0.000899366   0.00903  -0.06917  -0.03105   0.05725
  28   33125.7    301.9   0.142805525   1.41924  -0.25662  -0.84028  -0.80456
  29   33671.9    297.0   0.001204527   0.01178  -0.00187  -0.07012  -0.08280
  30   33740.0    296.4   0.080661516   0.78704  -0.04655   0.68983   0.55588
  31   34012.1    294.0   0.181330951   1.75515  -0.11748  -1.05052  -0.79859
  32   34241.9    292.0   0.103780220   0.99777   0.04881  -0.99677   0.04291
  33   34727.3    288.0   0.154567285   1.46529   0.41926   1.02868   0.48095
  34   34811.5    287.3   0.256005965   2.42105   0.43229  -0.59493   1.37121
  35   35201.7    284.1   0.092200449   0.86227   0.31192   0.60578   0.63088
  36   35678.6    280.3   0.034597372   0.31924  -0.29117  -0.37503  -0.30628
  37   35897.0    278.6   0.069271301   0.63529   0.21956   0.58685   0.49264
  38   36039.1    277.5   0.003212784   0.02935   0.07125   0.09681   0.12206
  39   36221.8    276.1   0.025126746   0.22837  -0.25508   0.09415  -0.39299
  40   36245.8    275.9   0.066388379   0.60299   0.21414  -0.32335   0.67274
  41   36742.2    272.2   0.018977164   0.17004  -0.03173  -0.40477   0.07204
  42   36821.1    271.6   0.097279413   0.86976  -0.15817  -0.58008  -0.71291
  43   37412.2    267.3   0.139622649   1.22862   0.19372   1.08975  -0.05950
  44   37671.6    265.5   0.195315681   1.70686  -0.68554   0.73053  -0.83858
  45   37893.6    263.9   0.043659934   0.37931   0.14268   0.05662   0.59644
  46   38136.8    262.2   0.096983818   0.83720  -0.48152   0.25355  -0.73557
  47   38436.2    260.2   0.000274243   0.00235  -0.02859  -0.03903  -0.00287
  48   38694.6    258.4   0.001957874   0.01666  -0.05238   0.00704  -0.11775
  49   39130.5    255.6   0.033167854   0.27905  -0.11464  -0.25191  -0.44994
  50   39241.0    254.8   0.278547039   2.33687   0.63261   0.32815   1.35240
  51   39705.9    251.9   0.024322560   0.20166  -0.25460  -0.05396  -0.36597
  52   39868.4    250.8   0.063633435   0.52545  -0.57214   0.31708  -0.31235
  53   39885.2    250.7   0.344018916   2.83953   0.37064  -1.60618   0.34976

FINAL SINGLE POINT ENERGY     -3907.579276669752

DIPOLE MOMENT
-------------
                                X             Y             Z
Electronic contribution:     18.77348      -8.51638     -10.06627
Nuclear contribution   :    -19.50126       8.36125      11.91287
                        -----------------------------------------
Total Dipole Moment    :     -0.72778      -0.15513       1.84661
                        -----------------------------------------
Magnitude (a.u.)       :      1.99090
Magnitude (Debye)      :      5.06047

Rotational constants in cm-1:     0.003159     0.000186     0.000178
Rotational constants in MHz :    94.691854     5.573941     5.343465

                             ****ORCA TERMINATED NORMALLY****
TOTAL RUN TIME: 0 days 0 hours 12 minutes 40 seconds 146 msec
