                         Program Version 4.2.0 -  RELEASE  -
|  1> # ORCA input file
|  2> # SCF done       -214.445621377136          0.000850448213
|  3> ! CAM-B3LYP def2-SVP def2/J RIJCOSX Grid4 TightSCF
|  4> %maxcore 5000
|  5> %tddft
|  6>     Mode sTDDFT
|  7>     Ethresh 5.0
|  8>     maxcore 5000
|  9> end
| 10>
| 11> %pal
| 12>   nprocs 6
| 13>   end
| 14> * xyz 0 1
| 15>    C        8.06209         5.19380        -4.72359
| 16>    C        9.10471         5.78208        -5.38108
| 17>    C       10.23135         5.08495        -5.86822
| 18>    N       11.16692         4.56835        -6.28556
| 19>    C        9.16046         7.15916        -5.68683
| 20>    N        9.22688         8.26495        -5.98558
| 21>    C        7.89783         3.77493        -4.43952
| 22>    C        6.62125         3.56022        -3.83661
| 23>    C        6.20031         2.31378        -3.46807
| 24>    C        7.05003         1.20658        -3.68417
| 25>    C        8.32846         1.41344        -4.28033
| 26>    C        8.73763         2.71309        -4.65431
| 27>    C        9.16994         0.30100        -4.48611
| 28>    C        8.76972        -0.95579        -4.12190
| 29>    C        7.51098        -1.15845        -3.53593
| 30>    C        6.66938        -0.10066        -3.32178
| 31>    C        5.92981         4.84591        -3.69096
| 32>    O        4.82566         5.07556        -3.24712
| 33>    C        6.88234         5.86943        -4.20423
| 34>    C        6.62149         7.18188        -4.05486
| 35>    C        5.41162         7.65069        -3.40297
| 36>    C        5.35556         7.95925        -2.06782
| 37>    N        6.43680         7.81210        -1.18852
| 38>    O        6.26228         8.05935        -0.01138
| 39>    O        7.50076         7.44227        -1.67095
| 40>    C        4.01832         8.38513        -1.71382
| 41>    C        3.27616         8.39515        -2.84037
| 42>    C        4.09503         7.97331        -3.96131
| 43>    C        3.74837         7.87310        -5.28569
| 44>    C        4.45871         7.14233        -6.29099
| 45>    C        3.64716         6.99057        -7.36636
| 46>    C        2.40604         7.68497        -7.13921
| 47>    N        1.41642         7.66006        -8.13472
| 48>    O        1.75450         7.27516        -9.24015
| 49>    O        0.26684         7.98099        -7.85932
| 50>    C        2.46823         8.32470        -5.89856
| 51>    C        1.72789         9.37939        -5.33485
| 52>    C        0.51877         9.85979        -5.75658
| 53>    C       -0.13855        10.95497        -5.17479
| 54>    S        0.42811        11.71875        -3.71143
| 55>    C       -0.94450        12.78557        -3.67052
| 56>    C       -1.78666        12.55946        -4.75803
| 57>    C       -1.32593        11.55296        -5.60755
| 58>    C       -1.99817        11.22560        -6.91010
| 59>    C       -1.19053        11.88649        -8.03204
| 60>    F        0.07961        11.46745        -8.09260
| 61>    F       -1.72817        11.66131        -9.23581
| 62>    F       -1.13414        13.22214        -7.88322
| 63>    C       -3.45320        11.73916        -7.00374
| 64>    C       -4.01886        12.16794        -5.65462
| 65>    C       -3.10551        13.20925        -5.00685
| 66>    C       -1.11424        13.74270        -2.64308
| 67>    C       -0.22992        13.96066        -1.63987
| 68>    C       -0.45358        14.94136        -0.63861
| 69>    S        0.71490        15.28615         0.62778
| 70>    C       -0.44039        16.49052         1.18405
| 71>    N       -1.51447        16.52648         0.44325
| 72>    N       -1.52376        15.68818        -0.54682
| 73>    C       -0.17709        17.32650         2.30459
| 74>    C       -1.06925        18.24768         2.73445
| 75>    C       -0.89138        19.14080         3.82978
| 76>    C        0.26174        19.70927         4.27793
| 77>    C        0.35395        20.60908         5.42006
| 78>    C       -0.52689        20.67235         6.46599
| 79>    C       -0.37790        21.53986         7.56902
| 80>    N       -0.31154        22.22791         8.48525
| 81>    C       -1.66821        19.85372         6.60743
| 82>    N       -2.59786        19.20779         6.79875
| 83>    C        1.59639        21.35782         5.30187
| 84>    C        2.31799        20.85824         4.18043
| 85>    C        1.55964        19.76931         3.54264
| 86>    O        1.91950        19.10291         2.59748
| 87>    C        3.53448        21.36440         3.82152
| 88>    C        4.09366        22.41570         4.58117
| 89>    C        3.37373        22.92736         5.70001
| 90>    C        2.11695        22.38223         6.04833
| 91>    C        3.94005        23.98017         6.44740
| 92>    C        5.15910        24.50171         6.10929
| 93>    C        5.86753        23.99611         5.00879
| 94>    C        5.34642        22.97514         4.26117
| 95>    H        5.23064         2.17529        -3.01330
| 96>    H        9.71227         2.83946        -5.09877
| 97>    H       10.13771         0.46203        -4.93765
| 98>    H        9.42126        -1.80134        -4.28309
| 99>    H        7.21195        -2.15691        -3.25446
|100>    H        5.69971        -0.25076        -2.87033
|101>    H        7.33366         7.93972        -4.35850
|102>    H        3.71702         8.62051        -0.71155
|103>    H        2.22607         8.60060        -2.89640
|104>    H        5.43430         6.71858        -6.16850
|105>    H        3.85151         6.44572        -8.26915
|106>    H        2.20415         9.89483        -4.51111
|107>    H        0.01665         9.36539        -6.57480
|108>    H       -1.95139        10.14822        -7.09699
|109>    H       -4.07898        10.96083        -7.43968
|110>    H       -3.48694        12.59953        -7.67570
|111>    H       -4.10592        11.30377        -4.99282
|112>    H       -5.01497        12.58449        -5.80309
|113>    H       -3.53872        13.57446        -4.07607
|114>    H       -2.97942        14.06139        -5.68050
|115>    H       -2.00796        14.34953        -2.67112
|116>    H        0.68835        13.39372        -1.57767
|117>    H        0.76738        17.17867         2.80284
|118>    H       -2.03331        18.27932         2.24286
|119>    H       -1.81406        19.44272         4.31340
|120>    H        4.06352        20.96636         2.96832
|121>    H        1.59224        22.79496         6.89545
|122>    H        3.39197        24.36493         7.29483
|123>    H        5.58486        25.30711         6.68860
|124>    H        6.82800        24.41972         4.75636
|125>    H        5.88707        22.58169         3.41287
|126> *
|127>
|128>                          ****END OF INPUT****

CARTESIAN COORDINATES (ANGSTROEM)
---------------------------------
  C      8.062090    5.193800   -4.723590
  C      9.104710    5.782080   -5.381080
  C     10.231350    5.084950   -5.868220
  N     11.166920    4.568350   -6.285560
  C      9.160460    7.159160   -5.686830
  N      9.226880    8.264950   -5.985580
  C      7.897830    3.774930   -4.439520
  C      6.621250    3.560220   -3.836610
  C      6.200310    2.313780   -3.468070
  C      7.050030    1.206580   -3.684170
  C      8.328460    1.413440   -4.280330
  C      8.737630    2.713090   -4.654310
  C      9.169940    0.301000   -4.486110
  C      8.769720   -0.955790   -4.121900
  C      7.510980   -1.158450   -3.535930
  C      6.669380   -0.100660   -3.321780
  C      5.929810    4.845910   -3.690960
  O      4.825660    5.075560   -3.247120
  C      6.882340    5.869430   -4.204230
  C      6.621490    7.181880   -4.054860
  C      5.411620    7.650690   -3.402970
  C      5.355560    7.959250   -2.067820
  N      6.436800    7.812100   -1.188520
  O      6.262280    8.059350   -0.011380
  O      7.500760    7.442270   -1.670950
  C      4.018320    8.385130   -1.713820
  C      3.276160    8.395150   -2.840370
  C      4.095030    7.973310   -3.961310
  C      3.748370    7.873100   -5.285690
  C      4.458710    7.142330   -6.290990
  C      3.647160    6.990570   -7.366360
  C      2.406040    7.684970   -7.139210
  N      1.416420    7.660060   -8.134720
  O      1.754500    7.275160   -9.240150
  O      0.266840    7.980990   -7.859320
  C      2.468230    8.324700   -5.898560
  C      1.727890    9.379390   -5.334850
  C      0.518770    9.859790   -5.756580
  C     -0.138550   10.954970   -5.174790
  S      0.428110   11.718750   -3.711430
  C     -0.944500   12.785570   -3.670520
  C     -1.786660   12.559460   -4.758030
  C     -1.325930   11.552960   -5.607550
  C     -1.998170   11.225600   -6.910100
  C     -1.190530   11.886490   -8.032040
  F      0.079610   11.467450   -8.092600
  F     -1.728170   11.661310   -9.235810
  F     -1.134140   13.222140   -7.883220
  C     -3.453200   11.739160   -7.003740
  C     -4.018860   12.167940   -5.654620
  C     -3.105510   13.209250   -5.006850
  C     -1.114240   13.742700   -2.643080
  C     -0.229920   13.960660   -1.639870
  C     -0.453580   14.941360   -0.638610
  S      0.714900   15.286150    0.627780
  C     -0.440390   16.490520    1.184050
  N     -1.514470   16.526480    0.443250
  N     -1.523760   15.688180   -0.546820
  C     -0.177090   17.326500    2.304590
  C     -1.069250   18.247680    2.734450
  C     -0.891380   19.140800    3.829780
  C      0.261740   19.709270    4.277930
  C      0.353950   20.609080    5.420060
  C     -0.526890   20.672350    6.465990
  C     -0.377900   21.539860    7.569020
  N     -0.311540   22.227910    8.485250
  C     -1.668210   19.853720    6.607430
  N     -2.597860   19.207790    6.798750
  C      1.596390   21.357820    5.301870
  C      2.317990   20.858240    4.180430
  C      1.559640   19.769310    3.542640
  O      1.919500   19.102910    2.597480
  C      3.534480   21.364400    3.821520
  C      4.093660   22.415700    4.581170
  C      3.373730   22.927360    5.700010
  C      2.116950   22.382230    6.048330
  C      3.940050   23.980170    6.447400
  C      5.159100   24.501710    6.109290
  C      5.867530   23.996110    5.008790
  C      5.346420   22.975140    4.261170
  H      5.230640    2.175290   -3.013300
  H      9.712270    2.839460   -5.098770
  H     10.137710    0.462030   -4.937650
  H      9.421260   -1.801340   -4.283090
  H      7.211950   -2.156910   -3.254460
  H      5.699710   -0.250760   -2.870330
  H      7.333660    7.939720   -4.358500
  H      3.717020    8.620510   -0.711550
  H      2.226070    8.600600   -2.896400
  H      5.434300    6.718580   -6.168500
  H      3.851510    6.445720   -8.269150
  H      2.204150    9.894830   -4.511110
  H      0.016650    9.365390   -6.574800
  H     -1.951390   10.148220   -7.096990
  H     -4.078980   10.960830   -7.439680
  H     -3.486940   12.599530   -7.675700
  H     -4.105920   11.303770   -4.992820
  H     -5.014970   12.584490   -5.803090
  H     -3.538720   13.574460   -4.076070
  H     -2.979420   14.061390   -5.680500
  H     -2.007960   14.349530   -2.671120
  H      0.688350   13.393720   -1.577670
  H      0.767380   17.178670    2.802840
  H     -2.033310   18.279320    2.242860
  H     -1.814060   19.442720    4.313400
  H      4.063520   20.966360    2.968320
  H      1.592240   22.794960    6.895450
  H      3.391970   24.364930    7.294830
  H      5.584860   25.307110    6.688600
  H      6.828000   24.419720    4.756360
  H      5.887070   22.581690    3.412870

 Total Charge           Charge          ....    0
 Multiplicity           Mult            ....    1
 Number of Electrons    NEL             ....  560
 Basis Dimension        Dim             .... 1283

ORBITAL ENERGIES
----------------

  NO   OCC          E(Eh)            E(eV)
   0   2.0000     -88.980877     -2421.2927
   1   2.0000     -88.975020     -2421.1334
   2   2.0000     -24.802872      -674.9205
   3   2.0000     -24.801600      -674.8858
   4   2.0000     -24.800921      -674.8674
   5   2.0000     -19.245635      -523.7004
   6   2.0000     -19.243055      -523.6301
   7   2.0000     -19.238299      -523.5007
   8   2.0000     -19.236661      -523.4562
   9   2.0000     -19.228933      -523.2459
  10   2.0000     -19.220951      -523.0287
  11   2.0000     -14.651691      -398.6928
  12   2.0000     -14.646807      -398.5599
  13   2.0000     -14.447375      -393.1331
  14   2.0000     -14.444490      -393.0545
  15   2.0000     -14.424289      -392.5049
  16   2.0000     -14.423342      -392.4791
  17   2.0000     -14.416576      -392.2950
  18   2.0000     -14.415773      -392.2731
  19   2.0000     -10.516083      -286.1572
  20   2.0000     -10.376251      -282.3521
  21   2.0000     -10.372666      -282.2546
  22   2.0000     -10.353020      -281.7200
  23   2.0000     -10.351281      -281.6727
  24   2.0000     -10.349472      -281.6234
  25   2.0000     -10.346752      -281.5494
  26   2.0000     -10.344521      -281.4887
  27   2.0000     -10.341708      -281.4122
  28   2.0000     -10.335363      -281.2395
  29   2.0000     -10.331483      -281.1339
  30   2.0000     -10.330980      -281.1203
  31   2.0000     -10.329483      -281.0795
  32   2.0000     -10.328278      -281.0467
  33   2.0000     -10.327926      -281.0372
  34   2.0000     -10.327675      -281.0303
  35   2.0000     -10.325921      -280.9826
  36   2.0000     -10.325218      -280.9635
  37   2.0000     -10.324887      -280.9545
  38   2.0000     -10.324118      -280.9335
  39   2.0000     -10.319478      -280.8073
  40   2.0000     -10.319093      -280.7968
  41   2.0000     -10.318320      -280.7758
  42   2.0000     -10.315097      -280.6880
  43   2.0000     -10.311771      -280.5975
  44   2.0000     -10.308335      -280.5041
  45   2.0000     -10.308307      -280.5033
  46   2.0000     -10.308182      -280.4999
  47   2.0000     -10.307158      -280.4720
  48   2.0000     -10.306542      -280.4553
  49   2.0000     -10.305655      -280.4311
  50   2.0000     -10.305334      -280.4224
  51   2.0000     -10.305091      -280.4158
  52   2.0000     -10.305054      -280.4148
  53   2.0000     -10.304761      -280.4068
  54   2.0000     -10.304628      -280.4032
  55   2.0000     -10.303942      -280.3845
  56   2.0000     -10.301847      -280.3275
  57   2.0000     -10.300907      -280.3019
  58   2.0000     -10.300607      -280.2938
  59   2.0000     -10.300153      -280.2814
  60   2.0000     -10.299913      -280.2749
  61   2.0000     -10.299364      -280.2599
  62   2.0000     -10.299294      -280.2580
  63   2.0000     -10.299134      -280.2537
  64   2.0000     -10.297938      -280.2211
  65   2.0000     -10.294492      -280.1274
  66   2.0000     -10.293204      -280.0923
  67   2.0000     -10.292657      -280.0774
  68   2.0000     -10.292315      -280.0681
  69   2.0000     -10.291809      -280.0544
  70   2.0000     -10.291477      -280.0453
  71   2.0000     -10.289173      -279.9826
  72   2.0000     -10.288718      -279.9702
  73   2.0000     -10.288183      -279.9557
  74   2.0000     -10.287886      -279.9476
  75   2.0000     -10.287690      -279.9423
  76   2.0000     -10.287541      -279.9382
  77   2.0000     -10.287390      -279.9341
  78   2.0000     -10.283005      -279.8148
  79   2.0000     -10.282481      -279.8005
  80   2.0000      -8.077310      -219.7948
  81   2.0000      -8.070279      -219.6034
  82   2.0000      -6.045864      -164.5163
  83   2.0000      -6.042611      -164.4278
  84   2.0000      -6.039767      -164.3504
  85   2.0000      -6.039365      -164.3395
  86   2.0000      -6.035594      -164.2369
  87   2.0000      -6.032474      -164.1520
  88   2.0000      -1.392688       -37.8970
  89   2.0000      -1.322433       -35.9852
  90   2.0000      -1.316225       -35.8163
  91   2.0000      -1.295196       -35.2441
  92   2.0000      -1.293114       -35.1874
  93   2.0000      -1.150454       -31.3054
  94   2.0000      -1.143578       -31.1183
  95   2.0000      -1.140617       -31.0378
  96   2.0000      -1.136610       -30.9287
  97   2.0000      -1.132556       -30.8184
  98   2.0000      -1.026668       -27.9371
  99   2.0000      -1.019863       -27.7519
 100   2.0000      -1.019536       -27.7430
 101   2.0000      -1.015035       -27.6205
 102   2.0000      -1.006451       -27.3869
 103   2.0000      -1.002184       -27.2708
 104   2.0000      -1.000142       -27.2152
 105   2.0000      -0.999530       -27.1986
 106   2.0000      -0.994643       -27.0656
 107   2.0000      -0.978718       -26.6323
 108   2.0000      -0.974007       -26.5041
 109   2.0000      -0.958996       -26.0956
 110   2.0000      -0.946343       -25.7513
 111   2.0000      -0.938841       -25.5472
 112   2.0000      -0.933009       -25.3885
 113   2.0000      -0.926710       -25.2171
 114   2.0000      -0.924059       -25.1449
 115   2.0000      -0.915265       -24.9056
 116   2.0000      -0.913286       -24.8518
 117   2.0000      -0.909358       -24.7449
 118   2.0000      -0.892715       -24.2920
 119   2.0000      -0.889649       -24.2086
 120   2.0000      -0.887609       -24.1531
 121   2.0000      -0.885959       -24.1082
 122   2.0000      -0.882858       -24.0238
 123   2.0000      -0.880187       -23.9511
 124   2.0000      -0.877870       -23.8881
 125   2.0000      -0.848626       -23.0923
 126   2.0000      -0.846229       -23.0270
 127   2.0000      -0.838804       -22.8250
 128   2.0000      -0.836040       -22.7498
 129   2.0000      -0.833246       -22.6738
 130   2.0000      -0.830404       -22.5964
 131   2.0000      -0.813150       -22.1269
 132   2.0000      -0.799545       -21.7567
 133   2.0000      -0.793574       -21.5943
 134   2.0000      -0.779186       -21.2027
 135   2.0000      -0.775623       -21.1058
 136   2.0000      -0.769863       -20.9490
 137   2.0000      -0.763550       -20.7773
 138   2.0000      -0.751524       -20.4500
 139   2.0000      -0.743676       -20.2365
 140   2.0000      -0.738040       -20.0831
 141   2.0000      -0.730538       -19.8790
 142   2.0000      -0.721061       -19.6211
 143   2.0000      -0.717254       -19.5175
 144   2.0000      -0.711219       -19.3533
 145   2.0000      -0.706417       -19.2226
 146   2.0000      -0.703799       -19.1513
 147   2.0000      -0.702331       -19.1114
 148   2.0000      -0.700210       -19.0537
 149   2.0000      -0.691758       -18.8237
 150   2.0000      -0.685103       -18.6426
 151   2.0000      -0.683385       -18.5959
 152   2.0000      -0.678476       -18.4623
 153   2.0000      -0.674992       -18.3675
 154   2.0000      -0.673160       -18.3176
 155   2.0000      -0.669783       -18.2257
 156   2.0000      -0.664944       -18.0941
 157   2.0000      -0.654266       -17.8035
 158   2.0000      -0.651268       -17.7219
 159   2.0000      -0.648300       -17.6411
 160   2.0000      -0.643551       -17.5119
 161   2.0000      -0.639861       -17.4115
 162   2.0000      -0.638389       -17.3714
 163   2.0000      -0.635513       -17.2932
 164   2.0000      -0.628241       -17.0953
 165   2.0000      -0.627281       -17.0692
 166   2.0000      -0.624592       -16.9960
 167   2.0000      -0.622135       -16.9292
 168   2.0000      -0.619786       -16.8652
 169   2.0000      -0.614264       -16.7150
 170   2.0000      -0.609060       -16.5734
 171   2.0000      -0.604840       -16.4585
 172   2.0000      -0.600906       -16.3515
 173   2.0000      -0.599215       -16.3055
 174   2.0000      -0.594582       -16.1794
 175   2.0000      -0.591589       -16.0980
 176   2.0000      -0.586142       -15.9497
 177   2.0000      -0.581934       -15.8352
 178   2.0000      -0.578156       -15.7324
 179   2.0000      -0.564239       -15.3537
 180   2.0000      -0.563924       -15.3451
 181   2.0000      -0.555863       -15.1258
 182   2.0000      -0.553963       -15.0741
 183   2.0000      -0.553826       -15.0704
 184   2.0000      -0.551812       -15.0156
 185   2.0000      -0.550581       -14.9821
 186   2.0000      -0.549589       -14.9551
 187   2.0000      -0.548863       -14.9353
 188   2.0000      -0.548120       -14.9151
 189   2.0000      -0.546410       -14.8686
 190   2.0000      -0.543608       -14.7923
 191   2.0000      -0.540893       -14.7184
 192   2.0000      -0.539084       -14.6692
 193   2.0000      -0.538305       -14.6480
 194   2.0000      -0.537100       -14.6152
 195   2.0000      -0.533849       -14.5268
 196   2.0000      -0.530584       -14.4379
 197   2.0000      -0.528805       -14.3895
 198   2.0000      -0.524349       -14.2683
 199   2.0000      -0.522827       -14.2268
 200   2.0000      -0.520511       -14.1638
 201   2.0000      -0.518732       -14.1154
 202   2.0000      -0.517580       -14.0841
 203   2.0000      -0.515829       -14.0364
 204   2.0000      -0.513691       -13.9782
 205   2.0000      -0.512262       -13.9394
 206   2.0000      -0.509292       -13.8586
 207   2.0000      -0.506996       -13.7961
 208   2.0000      -0.505815       -13.7639
 209   2.0000      -0.505209       -13.7474
 210   2.0000      -0.502474       -13.6730
 211   2.0000      -0.499684       -13.5971
 212   2.0000      -0.498443       -13.5633
 213   2.0000      -0.497670       -13.5423
 214   2.0000      -0.495430       -13.4813
 215   2.0000      -0.491836       -13.3835
 216   2.0000      -0.490300       -13.3417
 217   2.0000      -0.489991       -13.3333
 218   2.0000      -0.487828       -13.2745
 219   2.0000      -0.487252       -13.2588
 220   2.0000      -0.486553       -13.2398
 221   2.0000      -0.482636       -13.1332
 222   2.0000      -0.480849       -13.0846
 223   2.0000      -0.473042       -12.8721
 224   2.0000      -0.469451       -12.7744
 225   2.0000      -0.468836       -12.7577
 226   2.0000      -0.466294       -12.6885
 227   2.0000      -0.459655       -12.5078
 228   2.0000      -0.457611       -12.4522
 229   2.0000      -0.456603       -12.4248
 230   2.0000      -0.455810       -12.4032
 231   2.0000      -0.451787       -12.2938
 232   2.0000      -0.449452       -12.2302
 233   2.0000      -0.447037       -12.1645
 234   2.0000      -0.445378       -12.1193
 235   2.0000      -0.444930       -12.1071
 236   2.0000      -0.441475       -12.0131
 237   2.0000      -0.440996       -12.0001
 238   2.0000      -0.440299       -11.9811
 239   2.0000      -0.435473       -11.8498
 240   2.0000      -0.434639       -11.8271
 241   2.0000      -0.434371       -11.8198
 242   2.0000      -0.431235       -11.7345
 243   2.0000      -0.427878       -11.6431
 244   2.0000      -0.427475       -11.6322
 245   2.0000      -0.424804       -11.5595
 246   2.0000      -0.421220       -11.4620
 247   2.0000      -0.419617       -11.4184
 248   2.0000      -0.419306       -11.4099
 249   2.0000      -0.416950       -11.3458
 250   2.0000      -0.414856       -11.2888
 251   2.0000      -0.410861       -11.1801
 252   2.0000      -0.409975       -11.1560
 253   2.0000      -0.403019       -10.9667
 254   2.0000      -0.398916       -10.8550
 255   2.0000      -0.392908       -10.6916
 256   2.0000      -0.390560       -10.6277
 257   2.0000      -0.387328       -10.5397
 258   2.0000      -0.384171       -10.4538
 259   2.0000      -0.382210       -10.4005
 260   2.0000      -0.379953       -10.3390
 261   2.0000      -0.377294       -10.2667
 262   2.0000      -0.372883       -10.1467
 263   2.0000      -0.370879       -10.0921
 264   2.0000      -0.363591        -9.8938
 265   2.0000      -0.355996        -9.6872
 266   2.0000      -0.354749        -9.6532
 267   2.0000      -0.344031        -9.3616
 268   2.0000      -0.342202        -9.3118
 269   2.0000      -0.335851        -9.1390
 270   2.0000      -0.334732        -9.1085
 271   2.0000      -0.331075        -9.0090
 272   2.0000      -0.323075        -8.7913
 273   2.0000      -0.321640        -8.7523
 274   2.0000      -0.316397        -8.6096
 275   2.0000      -0.309706        -8.4275
 276   2.0000      -0.300486        -8.1766
 277   2.0000      -0.298405        -8.1200
 278   2.0000      -0.288007        -7.8371
 279   2.0000      -0.256488        -6.9794
 280   0.0000      -0.132380        -3.6022
 281   0.0000      -0.101052        -2.7498
 282   0.0000      -0.093313        -2.5392
 283   0.0000      -0.074266        -2.0209
 284   0.0000      -0.063527        -1.7287

MULLIKEN ATOMIC CHARGES
-----------------------
   0 C :    0.336209
   1 C :   -0.331543
   2 C :   -0.183580
   3 N :    0.158454
   4 C :   -0.207707
   5 N :    0.171344
   6 C :    0.042455
   7 C :   -0.008782
   8 C :   -0.067513
   9 C :    0.094944
  10 C :    0.093793
  11 C :   -0.077153
  12 C :   -0.014044
  13 C :    0.036128
  14 C :    0.038141
  15 C :   -0.013220
  16 C :    0.151376
  17 O :   -0.137389
  18 C :   -0.055169
  19 C :   -0.072021
  20 C :    0.009001
  21 C :    0.096060
  22 N :    0.273141
  23 O :   -0.238576
  24 O :   -0.249327
  25 C :    0.019916
  26 C :   -0.004452
  27 C :    0.087220
  28 C :    0.017342
  29 C :    0.007621
  30 C :    0.039845
  31 C :    0.047174
  32 N :    0.283713
  33 O :   -0.246742
  34 O :   -0.265697
  35 C :    0.082947
  36 C :   -0.093832
  37 C :    0.026408
  38 C :   -0.081757
  39 S :    0.109678
  40 C :   -0.074947
  41 C :   -0.066697
  42 C :   -0.008294
  43 C :   -0.099656
  44 C :    0.488271
  45 F :   -0.152619
  46 F :   -0.156722
  47 F :   -0.173153
  48 C :    0.065888
  49 C :    0.006500
  50 C :    0.140991
  51 C :    0.000620
  52 C :    0.051205
  53 C :   -0.101491
  54 S :    0.121124
  55 C :   -0.129689
  56 N :   -0.032188
  57 N :   -0.056539
  58 C :    0.139674
  59 C :   -0.001435
  60 C :    0.002048
  61 C :   -0.089833
  62 C :    0.289315
  63 C :   -0.333686
  64 C :   -0.180668
  65 N :    0.151039
  66 C :   -0.209742
  67 N :    0.164346
  68 C :    0.052134
  69 C :   -0.007118
  70 C :    0.152357
  71 O :   -0.151799
  72 C :   -0.076806
  73 C :    0.096658
  74 C :    0.095010
  75 C :   -0.080811
  76 C :   -0.017231
  77 C :    0.035510
  78 C :    0.037723
  79 C :   -0.015489
  80 H :   -0.011758
  81 H :   -0.006774
  82 H :   -0.007774
  83 H :   -0.001003
  84 H :   -0.002336
  85 H :   -0.015288
  86 H :    0.059410
  87 H :   -0.003815
  88 H :   -0.004846
  89 H :   -0.014027
  90 H :    0.008244
  91 H :    0.008446
  92 H :    0.015857
  93 H :    0.055828
  94 H :    0.024524
  95 H :    0.024284
  96 H :    0.017160
  97 H :    0.014723
  98 H :    0.016308
  99 H :    0.026648
 100 H :    0.023695
 101 H :   -0.002012
 102 H :    0.011382
 103 H :    0.030827
 104 H :    0.037795
 105 H :   -0.013261
 106 H :   -0.007016
 107 H :   -0.008777
 108 H :   -0.003364
 109 H :   -0.004364
 110 H :   -0.016926
Sum of atomic charges:    0.0000000

LOEWDIN ATOMIC CHARGES
----------------------
   0 C :    0.076226
   1 C :   -0.125171
   2 C :   -0.017325
   3 N :   -0.043531
   4 C :   -0.018409
   5 N :   -0.042184
   6 C :   -0.024347
   7 C :   -0.057857
   8 C :    0.037657
   9 C :   -0.007396
  10 C :   -0.004444
  11 C :    0.023481
  12 C :   -0.003734
  13 C :   -0.009950
  14 C :   -0.009106
  15 C :   -0.007734
  16 C :    0.086097
  17 O :   -0.130677
  18 C :   -0.076305
  19 C :    0.084094
  20 C :    0.023249
  21 C :   -0.040259
  22 N :    0.288058
  23 O :   -0.201980
  24 O :   -0.212433
  25 C :    0.010538
  26 C :   -0.037002
  27 C :    0.027996
  28 C :    0.055374
  29 C :   -0.054448
  30 C :    0.034395
  31 C :   -0.062651
  32 N :    0.289058
  33 O :   -0.210214
  34 O :   -0.225783
  35 C :    0.027298
  36 C :   -0.048525
  37 C :    0.019351
  38 C :   -0.162165
  39 S :    0.441718
  40 C :   -0.160097
  41 C :   -0.035326
  42 C :   -0.039264
  43 C :   -0.056654
  44 C :    0.161834
  45 F :   -0.049460
  46 F :   -0.054485
  47 F :   -0.066806
  48 C :   -0.019949
  49 C :   -0.022964
  50 C :   -0.022981
  51 C :    0.005490
  52 C :   -0.061062
  53 C :   -0.143685
  54 S :    0.405064
  55 C :   -0.155118
  56 N :   -0.061124
  57 N :   -0.079759
  58 C :    0.013051
  59 C :   -0.013608
  60 C :    0.066056
  61 C :   -0.084270
  62 C :    0.074250
  63 C :   -0.135090
  64 C :   -0.017203
  65 N :   -0.050854
  66 C :   -0.026198
  67 N :   -0.047077
  68 C :   -0.026344
  69 C :   -0.056015
  70 C :    0.084419
  71 O :   -0.138747
  72 C :    0.032994
  73 C :   -0.008151
  74 C :   -0.005776
  75 C :    0.020163
  76 C :   -0.004981
  77 C :   -0.012373
  78 C :   -0.011303
  79 C :   -0.009165
  80 H :    0.040406
  81 H :    0.040016
  82 H :    0.035619
  83 H :    0.034719
  84 H :    0.034035
  85 H :    0.032887
  86 H :    0.055519
  87 H :    0.037914
  88 H :    0.029966
  89 H :    0.027169
  90 H :    0.039340
  91 H :    0.026777
  92 H :    0.027549
  93 H :    0.053237
  94 H :    0.035001
  95 H :    0.029270
  96 H :    0.026051
  97 H :    0.030223
  98 H :    0.034183
  99 H :    0.039429
 100 H :    0.044061
 101 H :    0.026494
 102 H :    0.036661
 103 H :    0.044152
 104 H :    0.048944
 105 H :    0.038843
 106 H :    0.039213
 107 H :    0.034956
 108 H :    0.033683
 109 H :    0.033179
 110 H :    0.032112

  Mayer bond orders larger than 0.100000
B(  0-C ,  1-C ) :   1.6825 B(  0-C ,  6-C ) :   1.0031 B(  0-C , 18-C ) :   0.9990
B(  1-C ,  2-C ) :   1.1324 B(  1-C ,  4-C ) :   1.1560 B(  2-C ,  3-N ) :   2.9716
B(  4-C ,  5-N ) :   2.9770 B(  6-C ,  7-C ) :   1.2084 B(  6-C , 11-C ) :   1.4483
B(  7-C ,  8-C ) :   1.4669 B(  7-C , 16-C ) :   0.9520 B(  8-C ,  9-C ) :   1.1859
B(  8-C , 80-H ) :   1.0155 B(  9-C , 10-C ) :   1.2530 B(  9-C , 15-C ) :   1.2400
B( 10-C , 11-C ) :   1.2096 B( 10-C , 12-C ) :   1.2410 B( 11-C , 81-H ) :   0.9889
B( 12-C , 13-C ) :   1.4887 B( 12-C , 82-H ) :   0.9968 B( 13-C , 14-C ) :   1.2590
B( 13-C , 83-H ) :   0.9891 B( 14-C , 15-C ) :   1.4908 B( 14-C , 84-H ) :   0.9887
B( 15-C , 85-H ) :   0.9974 B( 16-C , 17-O ) :   2.2159 B( 16-C , 18-C ) :   0.9210
B( 18-C , 19-C ) :   1.7563 B( 19-C , 20-C ) :   0.9800 B( 19-C , 24-O ) :   0.1130
B( 19-C , 86-H ) :   0.9298 B( 20-C , 21-C ) :   1.6372 B( 20-C , 27-C ) :   1.0565
B( 21-C , 22-N ) :   0.9423 B( 21-C , 25-C ) :   1.1063 B( 22-N , 23-O ) :   1.5362
B( 22-N , 24-O ) :   1.4913 B( 23-O , 24-O ) :   0.2605 B( 25-C , 26-C ) :   1.6376
B( 25-C , 87-H ) :   1.0145 B( 26-C , 27-C ) :   1.0832 B( 26-C , 88-H ) :   0.9939
B( 27-C , 28-C ) :   1.5424 B( 28-C , 29-C ) :   1.1248 B( 28-C , 35-C ) :   0.9902
B( 29-C , 30-C ) :   1.5759 B( 29-C , 89-H ) :   1.0005 B( 30-C , 31-C ) :   1.1350
B( 30-C , 90-H ) :   1.0048 B( 31-C , 32-N ) :   0.9716 B( 31-C , 35-C ) :   1.4637
B( 32-N , 33-O ) :   1.5385 B( 32-N , 34-O ) :   1.4488 B( 33-O , 34-O ) :   0.2422
B( 34-O , 92-H ) :   0.1184 B( 35-C , 36-C ) :   1.2192 B( 36-C , 37-C ) :   1.5501
B( 36-C , 91-H ) :   0.9616 B( 37-C , 38-C ) :   1.2071 B( 37-C , 92-H ) :   0.9341
B( 38-C , 39-S ) :   1.0981 B( 38-C , 42-C ) :   1.4208 B( 39-S , 40-C ) :   1.1107
B( 40-C , 41-C ) :   1.4556 B( 40-C , 51-C ) :   1.1571 B( 41-C , 42-C ) :   1.3556
B( 41-C , 50-C ) :   1.0641 B( 42-C , 43-C ) :   1.0106 B( 43-C , 44-C ) :   0.9981
B( 43-C , 48-C ) :   1.0062 B( 43-C , 93-H ) :   0.8721 B( 44-C , 45-F ) :   1.1538
B( 44-C , 46-F ) :   1.1593 B( 44-C , 47-F ) :   1.1301 B( 48-C , 49-C ) :   1.1192
B( 48-C , 94-H ) :   0.9289 B( 48-C , 95-H ) :   0.9270 B( 49-C , 50-C ) :   1.0815
B( 49-C , 96-H ) :   0.9410 B( 49-C , 97-H ) :   0.9375 B( 50-C , 98-H ) :   0.9131
B( 50-C , 99-H ) :   0.9022 B( 51-C , 52-C ) :   1.6772 B( 51-C ,100-H ) :   0.9727
B( 52-C , 53-C ) :   1.1222 B( 52-C ,101-H ) :   0.9503 B( 53-C , 54-S ) :   1.1079
B( 53-C , 57-N ) :   1.6474 B( 54-S , 55-C ) :   1.0895 B( 55-C , 56-N ) :   1.6672
B( 55-C , 58-C ) :   1.1266 B( 56-N , 57-N ) :   1.2461 B( 58-C , 59-C ) :   1.7232
B( 58-C ,102-H ) :   0.9313 B( 59-C , 60-C ) :   1.1458 B( 59-C ,103-H ) :   0.9525
B( 60-C , 61-C ) :   1.6354 B( 60-C ,104-H ) :   0.9474 B( 61-C , 62-C ) :   1.0472
B( 61-C , 70-C ) :   0.9321 B( 62-C , 63-C ) :   1.6552 B( 62-C , 68-C ) :   0.9953
B( 63-C , 64-C ) :   1.1408 B( 63-C , 66-C ) :   1.1357 B( 64-C , 65-N ) :   2.9721
B( 66-C , 67-N ) :   3.0075 B( 68-C , 69-C ) :   1.2126 B( 68-C , 75-C ) :   1.4492
B( 69-C , 70-C ) :   0.9519 B( 69-C , 72-C ) :   1.4692 B( 70-C , 71-O ) :   2.2059
B( 72-C , 73-C ) :   1.1825 B( 72-C ,105-H ) :   1.0162 B( 73-C , 74-C ) :   1.2575
B( 73-C , 79-C ) :   1.2416 B( 74-C , 75-C ) :   1.2054 B( 74-C , 76-C ) :   1.2403
B( 75-C ,106-H ) :   0.9915 B( 76-C , 77-C ) :   1.4886 B( 76-C ,107-H ) :   0.9977
B( 77-C , 78-C ) :   1.2600 B( 77-C ,108-H ) :   0.9891 B( 78-C , 79-C ) :   1.4898
B( 78-C ,109-H ) :   0.9884 B( 79-C ,110-H ) :   0.9981

-----------------------------------------------------------------------------
         ABSORPTION SPECTRUM VIA TRANSITION ELECTRIC DIPOLE MOMENTS
-----------------------------------------------------------------------------
State   Energy  Wavelength   fosc         T2         TX        TY        TZ
        (cm-1)    (nm)                  (au**2)     (au)      (au)      (au)
-----------------------------------------------------------------------------
   0   10751.9    930.1   0.411419403  12.59719   1.88528  -2.79923  -1.09873
   1   18449.5    542.0   0.018794445   0.33537   0.34393  -0.46117  -0.06631
   2   19797.8    505.1   1.443294392  24.00015   0.16909   3.34052   3.57945
   3   21354.2    468.3   0.056402447   0.86954  -0.28665  -0.55535  -0.69207
   4   22528.2    443.9   0.002556055   0.03735   0.15147  -0.03163  -0.11580
   5   22644.6    441.6   0.006225314   0.09050   0.21675   0.02077   0.20759
   6   24147.1    414.1   0.079206365   1.07987  -0.79633   0.66761   0.00421
   7   25321.5    394.9   0.004654050   0.06051   0.15142  -0.17106   0.09122
   8   25609.4    390.5   0.031381542   0.40341   0.62102   0.13018  -0.02819
   9   25951.1    385.3   0.004028976   0.05111   0.21660  -0.06446  -0.00629
  10   26427.3    378.4   0.055058225   0.68588   0.31572   0.12750   0.75495
  11   26457.3    378.0   0.038703859   0.48160  -0.40742  -0.50060  -0.25496
  12   26950.8    371.0   0.002052076   0.02507   0.04067   0.13771   0.06670
  13   27284.3    366.5   0.055518891   0.66989   0.07369  -0.38524  -0.71836
  14   27659.2    361.5   0.034082804   0.40567   0.57655  -0.12788   0.23854
  15   27765.3    360.2   0.087458808   1.03699  -0.18899  -0.96988   0.24619
  16   28137.3    355.4   0.022062147   0.25813  -0.39598   0.07463  -0.30946
  17   28487.0    351.0   0.012569922   0.14526  -0.11111   0.19979   0.30496
  18   28802.8    347.2   0.030900240   0.35319   0.05356  -0.58873  -0.06095
  19   29056.3    344.2   0.004335730   0.04912  -0.09473   0.18983   0.06415
  20   29354.5    340.7   0.127485843   1.42976   0.24335  -0.41992  -1.09280
  21   29817.5    335.4   0.006026677   0.06654  -0.20813  -0.08227  -0.12827
  22   29841.3    335.1   0.032524884   0.35882   0.50361   0.32433   0.00119
  23   30077.7    332.5   0.609994417   6.67661   1.28534   1.11569   1.94416
  24   30828.2    324.4   0.145018203   1.54864  -0.63594  -0.73441   0.77773
  25   30996.8    322.6   0.037231072   0.39542   0.52534   0.19936  -0.28231
  26   31044.8    322.1   0.091188739   0.96700   0.72440  -0.37969   0.54597
  27   31166.5    320.9   0.164544483   1.73808  -1.07447   0.54365  -0.53670
  28   31652.0    315.9   0.009211736   0.09581   0.11806  -0.13933   0.24992
  29   32635.9    306.4   0.005663792   0.05713  -0.03288   0.17850  -0.15553
  30   32788.4    305.0   0.009361666   0.09400  -0.17162   0.15911   0.19806
  31   33006.4    303.0   0.288591824   2.87847  -1.51353  -0.71290   0.28190
  32   33302.8    300.3   0.028291625   0.27967   0.47961   0.06314  -0.21369
  33   33429.6    299.1   0.136863131   1.34782  -0.97830  -0.52999   0.33145
  34   33762.0    296.2   0.427891275   4.17235  -0.88630  -1.11512   1.46401
  35   33819.3    295.7   0.073658887   0.71703  -0.39686  -0.26253  -0.70044
  36   34193.7    292.5   0.126179497   1.21484  -0.45538   0.95753   0.30101
  37   34304.2    291.5   0.225330205   2.16246  -1.20971  -0.77296   0.31874
  38   34470.9    290.1   0.033879256   0.32356   0.31987   0.43219   0.18563
  39   34837.5    287.0   0.719531388   6.79952  -0.19368  -2.51893   0.64576
  40   34948.1    286.1   0.082164250   0.77399   0.17700  -0.72678  -0.46309
  41   35139.3    284.6   0.219393047   2.05544   0.66707   0.89386   0.90082
  42   35672.7    280.3   0.126849482   1.17065  -0.78758  -0.72453  -0.15942
  43   35842.3    279.0   0.006700144   0.06154   0.20220   0.14371  -0.00184
  44   36595.0    273.3   0.013983909   0.12580   0.22818  -0.08133   0.25907
  45   36697.3    272.5   0.050137963   0.44979  -0.46618   0.04567  -0.47998
  46   36931.2    270.8   0.005191495   0.04628  -0.06047  -0.17911   0.10267
  47   37005.0    270.2   0.034310820   0.30524   0.31006   0.40021   0.22122
  48   37239.0    268.5   0.011109478   0.09821   0.03444   0.31127  -0.01178
  49   37456.6    267.0   0.004649400   0.04086   0.16065   0.12001   0.02557
  50   37615.2    265.8   0.008429526   0.07378   0.26394   0.02806   0.05766
  51   37768.3    264.8   0.044201515   0.38529  -0.17823   0.27196   0.52874
  52   37846.8    264.2   0.103042845   0.89632   0.60624   0.02367   0.72679
  53   38380.0    260.6   0.014765267   0.12665  -0.21515  -0.06819  -0.27516
  54   38552.9    259.4   0.032124752   0.27432  -0.41589   0.19877  -0.24868
  55   38613.4    259.0   0.092394064   0.78774   0.04941   0.23726   0.85382
  56   38719.9    258.3   0.117963146   1.00297  -0.13999  -0.99022   0.05331
  57   39041.9    256.1   0.001035263   0.00873  -0.08300   0.01353   0.04071
  58   39087.3    255.8   0.206229791   1.73697  -0.62198   0.12633   1.15505
  59   39328.5    254.3   0.099084496   0.82942   0.05731  -0.79107  -0.44760
  60   39514.2    253.1   0.037885755   0.31564  -0.48233   0.25419   0.13560
  61   39866.5    250.8   0.217313450   1.79454   1.08884  -0.61044  -0.48615
  62   39989.5    250.1   0.022743481   0.18723   0.15174   0.17139   0.36720
  63   40123.4    249.2   0.126365406   1.03683   0.35372  -0.75080  -0.58992

FINAL SINGLE POINT ENERGY     -4323.463567248946

DIPOLE MOMENT
-------------
                                X             Y             Z
Electronic contribution:      3.44416      -0.91094     -16.29065
Nuclear contribution   :     -3.57730      -0.25049      16.16745
                        -----------------------------------------
Total Dipole Moment    :     -0.13315      -1.16143      -0.12320
                        -----------------------------------------
Magnitude (a.u.)       :      1.17551
Magnitude (Debye)      :      2.98792

Rotational constants in cm-1:     0.000854     0.000227     0.000194
Rotational constants in MHz :    25.588284     6.818559     5.821492

                             ****ORCA TERMINATED NORMALLY****
TOTAL RUN TIME: 0 days 0 hours 11 minutes 21 seconds 515 msec
