                         Program Version 4.2.0 -  RELEASE  -
|  1> # ORCA input file
|  2> # SCF done       -218.619792692302          0.000633995437
|  3> ! CAM-B3LYP def2-SVP def2/J RIJCOSX Grid4 TightSCF
|  4> %maxcore 5000
|  5> %tddft
|  6>     Mode sTDDFT
|  7>     Ethresh 5.0
|  8>     maxcore 5000
|  9> end
| 10>
| 11> %pal
| 12>   nprocs 6
| 13>   end
| 14> * xyz 0 1
| 15>    C        0.55640        -1.19982         3.22276
| 16>    N        1.41882        -0.32241         2.64100
| 17>    C        2.76660        -0.61640         2.22340
| 18>    C        2.79006        -1.45454         0.94789
| 19>    C        0.80772         0.92978         2.42184
| 20>    O        1.38542         1.87558         1.91259
| 21>    C       -0.52928         0.76190         2.93104
| 22>    C       -0.64399        -0.57800         3.42064
| 23>    C       -1.98714        -0.74824         3.94314
| 24>    O       -2.54681        -1.68963         4.45801
| 25>    N       -2.59407         0.50619         3.73907
| 26>    C       -3.97623         0.73555         4.08727
| 27>    C       -4.89018         0.65608         2.86759
| 28>    C       -1.74397         1.40613         3.13869
| 29>    C       -2.10675         2.74377         2.83860
| 30>    C       -1.24285         3.60742         2.24215
| 31>    C       -1.58901         4.95008         1.95509
| 32>    N       -0.71260         5.84009         1.37770
| 33>    C        0.64568         5.55584         1.00017
| 34>    C       -1.28396         7.10796         1.19732
| 35>    O       -0.68242         8.06014         0.73812
| 36>    C       -2.63186         6.96621         1.70117
| 37>    C       -2.78462         5.62811         2.16915
| 38>    C       -4.12742         5.48479         2.66675
| 39>    O       -4.71491         4.56259         3.20306
| 40>    N       -4.72116         6.74182         2.43285
| 41>    C       -6.04053         7.03745         2.92263
| 42>    C       -3.83905         7.62465         1.86084
| 43>    C       -4.18766         8.96937         1.48071
| 44>    N       -3.42028        10.04631         1.80537
| 45>    C       -2.25845        10.10660         2.65290
| 46>    C       -2.55835         9.65311         4.07793
| 47>    N       -3.90280        11.15624         1.28652
| 48>    C       -4.97397        10.83142         0.57555
| 49>    C       -5.21930         9.44885         0.66705
| 50>    C       -6.26946         8.65324        -0.03855
| 51>    C       -7.69171         8.97378         0.42715
| 52>    C       -5.67624        11.87309        -0.22351
| 53>    C       -5.15492        11.87258        -1.67613
| 54>    C       -5.77707        12.99146        -2.43064
| 55>    C       -6.71033        12.82045        -3.37008
| 56>    C       -7.39328        13.84487        -4.11621
| 57>    S       -8.00496        13.43232        -5.67831
| 58>    C       -8.64963        15.02526        -5.93097
| 59>    C       -8.37793        15.83623        -4.83718
| 60>    C       -7.68188        15.16428        -3.81176
| 61>    C       -7.38301        15.81425        -2.49521
| 62>    N       -7.80381        14.93761        -1.36481
| 63>    O       -7.12298        14.97419        -0.37057
| 64>    O       -8.81711        14.30170        -1.50029
| 65>    C       -8.16585        17.12322        -2.34160
| 66>    C       -7.95903        17.96937        -3.58964
| 67>    C       -8.66759        17.30434        -4.77673
| 68>    N       -8.14195        17.99222        -5.99740
| 69>    O       -7.18363        17.50356        -6.54083
| 70>    O       -8.67778        19.02336        -6.31025
| 71>    C       -9.32653        15.28701        -7.15419
| 72>    C      -10.19527        16.30313        -7.38210
| 73>    C      -10.78182        16.54096        -8.64680
| 74>    C      -11.65212        17.56509        -8.88554
| 75>    C      -12.22899        17.93931       -10.16392
| 76>    C      -12.21345        17.20102       -11.31851
| 77>    C      -12.80900        17.61452       -12.52851
| 78>    N      -13.27464        17.89061       -13.54097
| 79>    C      -11.63931        15.92027       -11.45836
| 80>    N      -11.21200        14.87027       -11.64251
| 81>    C      -12.87720        19.23471        -9.99405
| 82>    C      -12.79807        19.60728        -8.62159
| 83>    C      -12.08671        18.56168        -7.86936
| 84>    O      -11.91294        18.52497        -6.66794
| 85>    C      -13.32135        20.78069        -8.16074
| 86>    C      -13.95358        21.65722        -9.07043
| 87>    C      -14.03272        21.29475       -10.44608
| 88>    C      -13.48645        20.06977       -10.89298
| 89>    C      -14.66114        22.17952       -11.34597
| 90>    C      -15.18585        23.36566       -10.91025
| 91>    C      -15.10707        23.72164        -9.55558
| 92>    C      -14.50485        22.88525        -8.65527
| 93>    H        0.86379        -2.20100         3.46158
| 94>    H        3.28760        -1.13825         3.03174
| 95>    H        3.25249         0.34691         2.04623
| 96>    H        2.28809        -2.40677         1.10460
| 97>    H        3.81712        -1.64596         0.65016
| 98>    H        2.28654        -0.92445         0.14314
| 99>    H       -4.07732         1.70842         4.57447
|100>    H       -4.24133        -0.05133         4.79899
|101>    H       -4.64557         1.43535         2.15005
|102>    H       -5.92283         0.78525         3.17823
|103>    H       -4.78768        -0.31319         2.38515
|104>    H       -3.09937         3.07897         3.10298
|105>    H       -0.24914         3.27547         1.97697
|106>    H        0.68483         4.77852         0.23542
|107>    H        1.23244         5.23350         1.86158
|108>    H        1.06364         6.47947         0.59986
|109>    H       -6.80525         6.74384         2.20126
|110>    H       -6.12508         8.10190         3.13452
|111>    H       -6.19677         6.46027         3.83525
|112>    H       -1.95229        11.15455         2.64845
|113>    H       -1.45965         9.50658         2.20897
|114>    H       -3.36141        10.25061         4.50449
|115>    H       -1.67094         9.77622         4.69211
|116>    H       -2.84897         8.60551         4.10326
|117>    H       -6.06421         7.59058         0.10360
|118>    H       -6.20234         8.85469        -1.11130
|119>    H       -7.78847         8.86260         1.50390
|120>    H       -8.39894         8.30265        -0.05512
|121>    H       -7.96421         9.99314         0.16963
|122>    H       -5.48102        12.84592         0.22939
|123>    H       -6.75275        11.70405        -0.22988
|124>    H       -5.38441        10.91625        -2.14802
|125>    H       -4.07089        11.99973        -1.64855
|126>    H       -5.43421        13.97458        -2.14491
|127>    H       -6.97339        11.81150        -3.66234
|128>    H       -6.31324        16.01003        -2.36491
|129>    H       -7.81745        17.65715        -1.45654
|130>    H       -9.22865        16.90010        -2.22043
|131>    H       -6.88902        18.05126        -3.79881
|132>    H       -8.36067        18.97263        -3.44475
|133>    H       -9.74010        17.51799        -4.72399
|134>    H       -9.14058        14.57433        -7.94861
|135>    H      -10.49352        16.97205        -6.59301
|136>    H      -10.47266        15.89994        -9.46199
|137>    H      -13.24715        21.03990        -7.11512
|138>    H      -13.55810        19.82701       -11.94128
|139>    H      -14.71927        21.90105       -12.38801
|140>    H      -15.66384        24.03724       -11.60762
|141>    H      -15.52603        24.66179        -9.22915
|142>    H      -14.44136        23.15374        -7.61083
|143> *
|144>
|145>                          ****END OF INPUT****

CARTESIAN COORDINATES (ANGSTROEM)
---------------------------------
  C      0.556400   -1.199820    3.222760
  N      1.418820   -0.322410    2.641000
  C      2.766600   -0.616400    2.223400
  C      2.790060   -1.454540    0.947890
  C      0.807720    0.929780    2.421840
  O      1.385420    1.875580    1.912590
  C     -0.529280    0.761900    2.931040
  C     -0.643990   -0.578000    3.420640
  C     -1.987140   -0.748240    3.943140
  O     -2.546810   -1.689630    4.458010
  N     -2.594070    0.506190    3.739070
  C     -3.976230    0.735550    4.087270
  C     -4.890180    0.656080    2.867590
  C     -1.743970    1.406130    3.138690
  C     -2.106750    2.743770    2.838600
  C     -1.242850    3.607420    2.242150
  C     -1.589010    4.950080    1.955090
  N     -0.712600    5.840090    1.377700
  C      0.645680    5.555840    1.000170
  C     -1.283960    7.107960    1.197320
  O     -0.682420    8.060140    0.738120
  C     -2.631860    6.966210    1.701170
  C     -2.784620    5.628110    2.169150
  C     -4.127420    5.484790    2.666750
  O     -4.714910    4.562590    3.203060
  N     -4.721160    6.741820    2.432850
  C     -6.040530    7.037450    2.922630
  C     -3.839050    7.624650    1.860840
  C     -4.187660    8.969370    1.480710
  N     -3.420280   10.046310    1.805370
  C     -2.258450   10.106600    2.652900
  C     -2.558350    9.653110    4.077930
  N     -3.902800   11.156240    1.286520
  C     -4.973970   10.831420    0.575550
  C     -5.219300    9.448850    0.667050
  C     -6.269460    8.653240   -0.038550
  C     -7.691710    8.973780    0.427150
  C     -5.676240   11.873090   -0.223510
  C     -5.154920   11.872580   -1.676130
  C     -5.777070   12.991460   -2.430640
  C     -6.710330   12.820450   -3.370080
  C     -7.393280   13.844870   -4.116210
  S     -8.004960   13.432320   -5.678310
  C     -8.649630   15.025260   -5.930970
  C     -8.377930   15.836230   -4.837180
  C     -7.681880   15.164280   -3.811760
  C     -7.383010   15.814250   -2.495210
  N     -7.803810   14.937610   -1.364810
  O     -7.122980   14.974190   -0.370570
  O     -8.817110   14.301700   -1.500290
  C     -8.165850   17.123220   -2.341600
  C     -7.959030   17.969370   -3.589640
  C     -8.667590   17.304340   -4.776730
  N     -8.141950   17.992220   -5.997400
  O     -7.183630   17.503560   -6.540830
  O     -8.677780   19.023360   -6.310250
  C     -9.326530   15.287010   -7.154190
  C    -10.195270   16.303130   -7.382100
  C    -10.781820   16.540960   -8.646800
  C    -11.652120   17.565090   -8.885540
  C    -12.228990   17.939310  -10.163920
  C    -12.213450   17.201020  -11.318510
  C    -12.809000   17.614520  -12.528510
  N    -13.274640   17.890610  -13.540970
  C    -11.639310   15.920270  -11.458360
  N    -11.212000   14.870270  -11.642510
  C    -12.877200   19.234710   -9.994050
  C    -12.798070   19.607280   -8.621590
  C    -12.086710   18.561680   -7.869360
  O    -11.912940   18.524970   -6.667940
  C    -13.321350   20.780690   -8.160740
  C    -13.953580   21.657220   -9.070430
  C    -14.032720   21.294750  -10.446080
  C    -13.486450   20.069770  -10.892980
  C    -14.661140   22.179520  -11.345970
  C    -15.185850   23.365660  -10.910250
  C    -15.107070   23.721640   -9.555580
  C    -14.504850   22.885250   -8.655270
  H      0.863790   -2.201000    3.461580
  H      3.287600   -1.138250    3.031740
  H      3.252490    0.346910    2.046230
  H      2.288090   -2.406770    1.104600
  H      3.817120   -1.645960    0.650160
  H      2.286540   -0.924450    0.143140
  H     -4.077320    1.708420    4.574470
  H     -4.241330   -0.051330    4.798990
  H     -4.645570    1.435350    2.150050
  H     -5.922830    0.785250    3.178230
  H     -4.787680   -0.313190    2.385150
  H     -3.099370    3.078970    3.102980
  H     -0.249140    3.275470    1.976970
  H      0.684830    4.778520    0.235420
  H      1.232440    5.233500    1.861580
  H      1.063640    6.479470    0.599860
  H     -6.805250    6.743840    2.201260
  H     -6.125080    8.101900    3.134520
  H     -6.196770    6.460270    3.835250
  H     -1.952290   11.154550    2.648450
  H     -1.459650    9.506580    2.208970
  H     -3.361410   10.250610    4.504490
  H     -1.670940    9.776220    4.692110
  H     -2.848970    8.605510    4.103260
  H     -6.064210    7.590580    0.103600
  H     -6.202340    8.854690   -1.111300
  H     -7.788470    8.862600    1.503900
  H     -8.398940    8.302650   -0.055120
  H     -7.964210    9.993140    0.169630
  H     -5.481020   12.845920    0.229390
  H     -6.752750   11.704050   -0.229880
  H     -5.384410   10.916250   -2.148020
  H     -4.070890   11.999730   -1.648550
  H     -5.434210   13.974580   -2.144910
  H     -6.973390   11.811500   -3.662340
  H     -6.313240   16.010030   -2.364910
  H     -7.817450   17.657150   -1.456540
  H     -9.228650   16.900100   -2.220430
  H     -6.889020   18.051260   -3.798810
  H     -8.360670   18.972630   -3.444750
  H     -9.740100   17.517990   -4.723990
  H     -9.140580   14.574330   -7.948610
  H    -10.493520   16.972050   -6.593010
  H    -10.472660   15.899940   -9.461990
  H    -13.247150   21.039900   -7.115120
  H    -13.558100   19.827010  -11.941280
  H    -14.719270   21.901050  -12.388010
  H    -15.663840   24.037240  -11.607620
  H    -15.526030   24.661790   -9.229150
  H    -14.441360   23.153740   -7.610830

 Total Charge           Charge          ....    0
 Multiplicity           Mult            ....    1
 Number of Electrons    NEL             ....  556
 Basis Dimension        Dim             .... 1346

ORBITAL ENERGIES
----------------

  NO   OCC          E(Eh)            E(eV)
   0   2.0000     -88.973182     -2421.0834
   1   2.0000     -19.255376      -523.9654
   2   2.0000     -19.254928      -523.9532
   3   2.0000     -19.249493      -523.8053
   4   2.0000     -19.248478      -523.7777
   5   2.0000     -19.214730      -522.8594
   6   2.0000     -19.198673      -522.4224
   7   2.0000     -19.193883      -522.2921
   8   2.0000     -19.189060      -522.1609
   9   2.0000     -19.184357      -522.0329
  10   2.0000     -14.652251      -398.7080
  11   2.0000     -14.647407      -398.5762
  12   2.0000     -14.482109      -394.0782
  13   2.0000     -14.463346      -393.5676
  14   2.0000     -14.455602      -393.3569
  15   2.0000     -14.455304      -393.3488
  16   2.0000     -14.448883      -393.1741
  17   2.0000     -14.413400      -392.2086
  18   2.0000     -14.412437      -392.1824
  19   2.0000     -14.410490      -392.1294
  20   2.0000     -10.379077      -282.4291
  21   2.0000     -10.374717      -282.3104
  22   2.0000     -10.374706      -282.3101
  23   2.0000     -10.370854      -282.2053
  24   2.0000     -10.364903      -282.0434
  25   2.0000     -10.348357      -281.5931
  26   2.0000     -10.347328      -281.5651
  27   2.0000     -10.345783      -281.5231
  28   2.0000     -10.340328      -281.3746
  29   2.0000     -10.339966      -281.3648
  30   2.0000     -10.337605      -281.3005
  31   2.0000     -10.336406      -281.2679
  32   2.0000     -10.330500      -281.1072
  33   2.0000     -10.323081      -280.9053
  34   2.0000     -10.318185      -280.7721
  35   2.0000     -10.315320      -280.6941
  36   2.0000     -10.313499      -280.6446
  37   2.0000     -10.312220      -280.6098
  38   2.0000     -10.311569      -280.5921
  39   2.0000     -10.310704      -280.5685
  40   2.0000     -10.308455      -280.5073
  41   2.0000     -10.307515      -280.4817
  42   2.0000     -10.307418      -280.4791
  43   2.0000     -10.307310      -280.4762
  44   2.0000     -10.306766      -280.4614
  45   2.0000     -10.302357      -280.3414
  46   2.0000     -10.299431      -280.2618
  47   2.0000     -10.299377      -280.2603
  48   2.0000     -10.299046      -280.2513
  49   2.0000     -10.295066      -280.1430
  50   2.0000     -10.294905      -280.1386
  51   2.0000     -10.294631      -280.1312
  52   2.0000     -10.294486      -280.1272
  53   2.0000     -10.293945      -280.1125
  54   2.0000     -10.293525      -280.1010
  55   2.0000     -10.293325      -280.0956
  56   2.0000     -10.293316      -280.0954
  57   2.0000     -10.288044      -279.9519
  58   2.0000     -10.287122      -279.9268
  59   2.0000     -10.285222      -279.8751
  60   2.0000     -10.284874      -279.8657
  61   2.0000     -10.284353      -279.8515
  62   2.0000     -10.283746      -279.8350
  63   2.0000     -10.283369      -279.8247
  64   2.0000     -10.282803      -279.8093
  65   2.0000     -10.277921      -279.6764
  66   2.0000     -10.274281      -279.5774
  67   2.0000     -10.271528      -279.5025
  68   2.0000     -10.266867      -279.3757
  69   2.0000     -10.266595      -279.3682
  70   2.0000     -10.265386      -279.3354
  71   2.0000     -10.264712      -279.3170
  72   2.0000     -10.264249      -279.3044
  73   2.0000     -10.261019      -279.2165
  74   2.0000     -10.260516      -279.2028
  75   2.0000     -10.260018      -279.1893
  76   2.0000     -10.259522      -279.1758
  77   2.0000     -10.253854      -279.0215
  78   2.0000      -8.069147      -219.5726
  79   2.0000      -6.038151      -164.3064
  80   2.0000      -6.034202      -164.1990
  81   2.0000      -6.031546      -164.1267
  82   2.0000      -1.336378       -36.3647
  83   2.0000      -1.331183       -36.2233
  84   2.0000      -1.157070       -31.4855
  85   2.0000      -1.151714       -31.3397
  86   2.0000      -1.145634       -31.1743
  87   2.0000      -1.136799       -30.9339
  88   2.0000      -1.132024       -30.8039
  89   2.0000      -1.128512       -30.7084
  90   2.0000      -1.127913       -30.6921
  91   2.0000      -1.123717       -30.5779
  92   2.0000      -1.067303       -29.0428
  93   2.0000      -1.062471       -28.9113
  94   2.0000      -1.057319       -28.7711
  95   2.0000      -1.052875       -28.6502
  96   2.0000      -1.018551       -27.7162
  97   2.0000      -1.014120       -27.5956
  98   2.0000      -0.995066       -27.0771
  99   2.0000      -0.989852       -26.9352
 100   2.0000      -0.968853       -26.3638
 101   2.0000      -0.967315       -26.3220
 102   2.0000      -0.945396       -25.7255
 103   2.0000      -0.942350       -25.6427
 104   2.0000      -0.927087       -25.2273
 105   2.0000      -0.926822       -25.2201
 106   2.0000      -0.923463       -25.1287
 107   2.0000      -0.915621       -24.9153
 108   2.0000      -0.911746       -24.8099
 109   2.0000      -0.907737       -24.7008
 110   2.0000      -0.904204       -24.6046
 111   2.0000      -0.888714       -24.1831
 112   2.0000      -0.878094       -23.8942
 113   2.0000      -0.870983       -23.7006
 114   2.0000      -0.868621       -23.6364
 115   2.0000      -0.860317       -23.4104
 116   2.0000      -0.859012       -23.3749
 117   2.0000      -0.849951       -23.1283
 118   2.0000      -0.842584       -22.9279
 119   2.0000      -0.832159       -22.6442
 120   2.0000      -0.829583       -22.5741
 121   2.0000      -0.825409       -22.4605
 122   2.0000      -0.819834       -22.3088
 123   2.0000      -0.817664       -22.2498
 124   2.0000      -0.801384       -21.8068
 125   2.0000      -0.800171       -21.7738
 126   2.0000      -0.790142       -21.5009
 127   2.0000      -0.778218       -21.1764
 128   2.0000      -0.765837       -20.8395
 129   2.0000      -0.758340       -20.6355
 130   2.0000      -0.758182       -20.6312
 131   2.0000      -0.748655       -20.3719
 132   2.0000      -0.745169       -20.2771
 133   2.0000      -0.739690       -20.1280
 134   2.0000      -0.733688       -19.9647
 135   2.0000      -0.728264       -19.8171
 136   2.0000      -0.707502       -19.2521
 137   2.0000      -0.706500       -19.2249
 138   2.0000      -0.704152       -19.1609
 139   2.0000      -0.701155       -19.0794
 140   2.0000      -0.699160       -19.0251
 141   2.0000      -0.693408       -18.8686
 142   2.0000      -0.686109       -18.6700
 143   2.0000      -0.684494       -18.6260
 144   2.0000      -0.677398       -18.4329
 145   2.0000      -0.673451       -18.3255
 146   2.0000      -0.666029       -18.1236
 147   2.0000      -0.663477       -18.0541
 148   2.0000      -0.661575       -18.0024
 149   2.0000      -0.658545       -17.9199
 150   2.0000      -0.654907       -17.8209
 151   2.0000      -0.647112       -17.6088
 152   2.0000      -0.645426       -17.5629
 153   2.0000      -0.639455       -17.4004
 154   2.0000      -0.637058       -17.3352
 155   2.0000      -0.635134       -17.2829
 156   2.0000      -0.626553       -17.0494
 157   2.0000      -0.622870       -16.9491
 158   2.0000      -0.619237       -16.8503
 159   2.0000      -0.612514       -16.6673
 160   2.0000      -0.609524       -16.5860
 161   2.0000      -0.604249       -16.4425
 162   2.0000      -0.602938       -16.4068
 163   2.0000      -0.599999       -16.3268
 164   2.0000      -0.595226       -16.1969
 165   2.0000      -0.593005       -16.1365
 166   2.0000      -0.591057       -16.0835
 167   2.0000      -0.586000       -15.9459
 168   2.0000      -0.581198       -15.8152
 169   2.0000      -0.577017       -15.7014
 170   2.0000      -0.575900       -15.6710
 171   2.0000      -0.575552       -15.6616
 172   2.0000      -0.569871       -15.5070
 173   2.0000      -0.561039       -15.2666
 174   2.0000      -0.558740       -15.2041
 175   2.0000      -0.557835       -15.1795
 176   2.0000      -0.554745       -15.0954
 177   2.0000      -0.552915       -15.0456
 178   2.0000      -0.548654       -14.9296
 179   2.0000      -0.546744       -14.8777
 180   2.0000      -0.545162       -14.8346
 181   2.0000      -0.543745       -14.7960
 182   2.0000      -0.542890       -14.7728
 183   2.0000      -0.539098       -14.6696
 184   2.0000      -0.537284       -14.6203
 185   2.0000      -0.535176       -14.5629
 186   2.0000      -0.531468       -14.4620
 187   2.0000      -0.529117       -14.3980
 188   2.0000      -0.526286       -14.3210
 189   2.0000      -0.524286       -14.2665
 190   2.0000      -0.521831       -14.1998
 191   2.0000      -0.520995       -14.1770
 192   2.0000      -0.517647       -14.0859
 193   2.0000      -0.516489       -14.0544
 194   2.0000      -0.513375       -13.9697
 195   2.0000      -0.512310       -13.9407
 196   2.0000      -0.511077       -13.9071
 197   2.0000      -0.510213       -13.8836
 198   2.0000      -0.507766       -13.8170
 199   2.0000      -0.504837       -13.7373
 200   2.0000      -0.504027       -13.7153
 201   2.0000      -0.501485       -13.6461
 202   2.0000      -0.499838       -13.6013
 203   2.0000      -0.495712       -13.4890
 204   2.0000      -0.494941       -13.4680
 205   2.0000      -0.492928       -13.4133
 206   2.0000      -0.490304       -13.3419
 207   2.0000      -0.486707       -13.2440
 208   2.0000      -0.484657       -13.1882
 209   2.0000      -0.483621       -13.1600
 210   2.0000      -0.481929       -13.1140
 211   2.0000      -0.479352       -13.0438
 212   2.0000      -0.475414       -12.9367
 213   2.0000      -0.475058       -12.9270
 214   2.0000      -0.472802       -12.8656
 215   2.0000      -0.471153       -12.8207
 216   2.0000      -0.470190       -12.7945
 217   2.0000      -0.466224       -12.6866
 218   2.0000      -0.465472       -12.6661
 219   2.0000      -0.461627       -12.5615
 220   2.0000      -0.461231       -12.5507
 221   2.0000      -0.459310       -12.4985
 222   2.0000      -0.457824       -12.4580
 223   2.0000      -0.457427       -12.4472
 224   2.0000      -0.450969       -12.2715
 225   2.0000      -0.449904       -12.2425
 226   2.0000      -0.446997       -12.1634
 227   2.0000      -0.445215       -12.1149
 228   2.0000      -0.444860       -12.1053
 229   2.0000      -0.441187       -12.0053
 230   2.0000      -0.440831       -11.9956
 231   2.0000      -0.439273       -11.9532
 232   2.0000      -0.438474       -11.9315
 233   2.0000      -0.437550       -11.9063
 234   2.0000      -0.434702       -11.8288
 235   2.0000      -0.433805       -11.8044
 236   2.0000      -0.433431       -11.7943
 237   2.0000      -0.430776       -11.7220
 238   2.0000      -0.430545       -11.7157
 239   2.0000      -0.429335       -11.6828
 240   2.0000      -0.427535       -11.6338
 241   2.0000      -0.426598       -11.6083
 242   2.0000      -0.423203       -11.5159
 243   2.0000      -0.421649       -11.4737
 244   2.0000      -0.420323       -11.4376
 245   2.0000      -0.416437       -11.3318
 246   2.0000      -0.408679       -11.1207
 247   2.0000      -0.408239       -11.1088
 248   2.0000      -0.405953       -11.0465
 249   2.0000      -0.405249       -11.0274
 250   2.0000      -0.403362       -10.9760
 251   2.0000      -0.396719       -10.7953
 252   2.0000      -0.391252       -10.6465
 253   2.0000      -0.388715       -10.5775
 254   2.0000      -0.385763       -10.4971
 255   2.0000      -0.381593       -10.3837
 256   2.0000      -0.378737       -10.3060
 257   2.0000      -0.376530       -10.2459
 258   2.0000      -0.373481       -10.1629
 259   2.0000      -0.363296        -9.8858
 260   2.0000      -0.353894        -9.6300
 261   2.0000      -0.352059        -9.5800
 262   2.0000      -0.346949        -9.4410
 263   2.0000      -0.344872        -9.3844
 264   2.0000      -0.337642        -9.1877
 265   2.0000      -0.334978        -9.1152
 266   2.0000      -0.333119        -9.0646
 267   2.0000      -0.328669        -8.9435
 268   2.0000      -0.323746        -8.8096
 269   2.0000      -0.319011        -8.6807
 270   2.0000      -0.313879        -8.5411
 271   2.0000      -0.312885        -8.5140
 272   2.0000      -0.312408        -8.5011
 273   2.0000      -0.300273        -8.1708
 274   2.0000      -0.291624        -7.9355
 275   2.0000      -0.267008        -7.2656
 276   2.0000      -0.266092        -7.2407
 277   2.0000      -0.239685        -6.5221
 278   0.0000      -0.096172        -2.6170
 279   0.0000      -0.092722        -2.5231
 280   0.0000      -0.055879        -1.5206
 281   0.0000      -0.035603        -0.9688
 282   0.0000      -0.030679        -0.8348

MULLIKEN ATOMIC CHARGES
-----------------------
   0 C :    0.036924
   1 N :   -0.254141
   2 C :    0.112023
   3 C :   -0.002862
   4 C :    0.172094
   5 O :   -0.221790
   6 C :   -0.094425
   7 C :    0.010810
   8 C :    0.159980
   9 O :   -0.182865
  10 N :   -0.264583
  11 C :    0.099301
  12 C :    0.010427
  13 C :    0.148059
  14 C :   -0.015606
  15 C :   -0.013278
  16 C :    0.136836
  17 N :   -0.265304
  18 C :    0.122430
  19 C :    0.128545
  20 O :   -0.201486
  21 C :   -0.012588
  22 C :   -0.070223
  23 C :    0.153846
  24 O :   -0.209249
  25 N :   -0.255021
  26 C :    0.132600
  27 C :    0.013018
  28 C :    0.067668
  29 N :   -0.146833
  30 C :    0.125637
  31 C :   -0.023634
  32 N :   -0.074219
  33 C :   -0.158187
  34 C :   -0.148267
  35 C :    0.094924
  36 C :    0.009571
  37 C :    0.139882
  38 C :    0.062954
  39 C :   -0.056298
  40 C :    0.026969
  41 C :   -0.112871
  42 S :    0.168483
  43 C :   -0.124423
  44 C :    0.004515
  45 C :   -0.015095
  46 C :    0.089280
  47 N :    0.194068
  48 O :   -0.226590
  49 O :   -0.207733
  50 C :    0.074321
  51 C :    0.084984
  52 C :    0.068595
  53 N :    0.186160
  54 O :   -0.213178
  55 O :   -0.220150
  56 C :    0.071624
  57 C :   -0.029494
  58 C :   -0.026796
  59 C :   -0.076581
  60 C :    0.323863
  61 C :   -0.352212
  62 C :   -0.180286
  63 N :    0.146472
  64 C :   -0.197614
  65 N :    0.150349
  66 C :    0.049387
  67 C :    0.007487
  68 C :    0.160568
  69 O :   -0.161107
  70 C :   -0.082872
  71 C :    0.099381
  72 C :    0.098762
  73 C :   -0.087600
  74 C :   -0.020824
  75 C :    0.037290
  76 C :    0.036671
  77 C :   -0.018135
  78 H :    0.015843
  79 H :    0.020496
  80 H :    0.040970
  81 H :    0.015547
  82 H :    0.024544
  83 H :    0.029612
  84 H :    0.036748
  85 H :    0.038810
  86 H :    0.018307
  87 H :    0.023605
  88 H :    0.021082
  89 H :   -0.000691
  90 H :   -0.009822
  91 H :    0.044487
  92 H :    0.044189
  93 H :    0.056112
  94 H :    0.037968
  95 H :    0.049910
  96 H :    0.046248
  97 H :    0.028288
  98 H :    0.044640
  99 H :    0.023379
 100 H :    0.024527
 101 H :    0.028936
 102 H :   -0.004582
 103 H :    0.007516
 104 H :    0.006076
 105 H :    0.014766
 106 H :    0.019999
 107 H :    0.013863
 108 H :   -0.007319
 109 H :    0.001418
 110 H :    0.023394
 111 H :    0.007238
 112 H :   -0.008931
 113 H :    0.045372
 114 H :    0.032777
 115 H :    0.032999
 116 H :    0.026195
 117 H :    0.036750
 118 H :    0.068521
 119 H :    0.007565
 120 H :    0.028469
 121 H :    0.014220
 122 H :   -0.015001
 123 H :   -0.007803
 124 H :   -0.009050
 125 H :   -0.004947
 126 H :   -0.006850
 127 H :   -0.018724
Sum of atomic charges:   -0.0000000

LOEWDIN ATOMIC CHARGES
----------------------
   0 C :    0.091195
   1 N :    0.001350
   2 C :    0.038310
   3 C :   -0.060377
   4 C :    0.077570
   5 O :   -0.210521
   6 C :   -0.125286
   7 C :   -0.125592
   8 C :    0.081479
   9 O :   -0.187713
  10 N :   -0.003765
  11 C :    0.036917
  12 C :   -0.058691
  13 C :    0.080406
  14 C :   -0.002141
  15 C :   -0.000260
  16 C :    0.072959
  17 N :   -0.002796
  18 C :    0.030514
  19 C :    0.078732
  20 O :   -0.198930
  21 C :   -0.128465
  22 C :   -0.120089
  23 C :    0.078218
  24 O :   -0.203044
  25 N :    0.002815
  26 C :    0.031948
  27 C :    0.070056
  28 C :   -0.041158
  29 N :    0.112294
  30 C :    0.031744
  31 C :   -0.063378
  32 N :   -0.083836
  33 C :   -0.053465
  34 C :   -0.073517
  35 C :   -0.031629
  36 C :   -0.051659
  37 C :   -0.023677
  38 C :   -0.021642
  39 C :    0.004450
  40 C :   -0.071610
  41 C :   -0.145445
  42 S :    0.483395
  43 C :   -0.174794
  44 C :   -0.051095
  45 C :   -0.077042
  46 C :    0.014823
  47 N :    0.275510
  48 O :   -0.195391
  49 O :   -0.187216
  50 C :   -0.015034
  51 C :   -0.014538
  52 C :    0.014007
  53 N :    0.272351
  54 O :   -0.193238
  55 O :   -0.190495
  56 C :    0.009878
  57 C :   -0.042101
  58 C :    0.072669
  59 C :   -0.089364
  60 C :    0.076379
  61 C :   -0.140020
  62 C :   -0.017139
  63 N :   -0.055668
  64 C :   -0.020301
  65 N :   -0.054645
  66 C :   -0.024235
  67 C :   -0.053439
  68 C :    0.090419
  69 O :   -0.149491
  70 C :    0.032168
  71 C :   -0.008278
  72 C :   -0.006021
  73 C :    0.018999
  74 C :   -0.005490
  75 C :   -0.014032
  76 C :   -0.012997
  77 C :   -0.010037
  78 H :    0.033072
  79 H :    0.025164
  80 H :    0.035770
  81 H :    0.022689
  82 H :    0.030628
  83 H :    0.031395
  84 H :    0.028938
  85 H :    0.036061
  86 H :    0.023498
  87 H :    0.031915
  88 H :    0.028176
  89 H :    0.036128
  90 H :    0.037056
  91 H :    0.031668
  92 H :    0.031761
  93 H :    0.040354
  94 H :    0.027845
  95 H :    0.032893
  96 H :    0.037483
  97 H :    0.035514
  98 H :    0.029567
  99 H :    0.026630
 100 H :    0.032920
 101 H :    0.023110
 102 H :    0.026010
 103 H :    0.031015
 104 H :    0.020633
 105 H :    0.025727
 106 H :    0.024386
 107 H :    0.037157
 108 H :    0.027152
 109 H :    0.024190
 110 H :    0.037334
 111 H :    0.022217
 112 H :    0.029174
 113 H :    0.040513
 114 H :    0.038756
 115 H :    0.035255
 116 H :    0.033459
 117 H :    0.040828
 118 H :    0.049335
 119 H :    0.037354
 120 H :    0.027134
 121 H :    0.042688
 122 H :    0.038307
 123 H :    0.039004
 124 H :    0.034750
 125 H :    0.033009
 126 H :    0.032227
 127 H :    0.031386

  Mayer bond orders larger than 0.100000
B(  0-C ,  1-N ) :   1.1867 B(  0-C ,  7-C ) :   1.4551 B(  0-C , 78-H ) :   0.9905
B(  1-N ,  2-C ) :   0.9417 B(  1-N ,  4-C ) :   1.0654 B(  2-C ,  3-C ) :   1.1192
B(  2-C , 79-H ) :   0.9540 B(  2-C , 80-H ) :   0.9345 B(  3-C , 81-H ) :   0.9692
B(  3-C , 82-H ) :   0.9687 B(  3-C , 83-H ) :   0.9674 B(  4-C ,  5-O ) :   2.0019
B(  4-C ,  6-C ) :   1.0067 B(  5-O , 90-H ) :   0.1131 B(  6-C ,  7-C ) :   1.2086
B(  6-C , 13-C ) :   1.3598 B(  7-C ,  8-C ) :   0.9425 B(  8-C ,  9-O ) :   2.1807
B(  8-C , 10-N ) :   1.0223 B( 10-N , 11-C ) :   0.9389 B( 10-N , 13-C ) :   1.1680
B( 11-C , 12-C ) :   1.1244 B( 11-C , 84-H ) :   0.9477 B( 11-C , 85-H ) :   0.9280
B( 12-C , 86-H ) :   0.9668 B( 12-C , 87-H ) :   0.9674 B( 12-C , 88-H ) :   0.9645
B( 13-C , 14-C ) :   1.1436 B( 14-C , 15-C ) :   1.5559 B( 14-C , 89-H ) :   0.9510
B( 15-C , 16-C ) :   1.1471 B( 15-C , 90-H ) :   0.9449 B( 16-C , 17-N ) :   1.1677
B( 16-C , 22-C ) :   1.3414 B( 17-N , 18-C ) :   0.9576 B( 17-N , 19-C ) :   1.0604
B( 18-C , 91-H ) :   0.9720 B( 18-C , 92-H ) :   0.9711 B( 18-C , 93-H ) :   0.9505
B( 19-C , 20-O ) :   2.0805 B( 19-C , 21-C ) :   0.9633 B( 21-C , 22-C ) :   1.1963
B( 21-C , 27-C ) :   1.4414 B( 22-C , 23-C ) :   1.0010 B( 23-C , 24-O ) :   2.0397
B( 23-C , 25-N ) :   1.0432 B( 24-O , 89-H ) :   0.1003 B( 25-N , 26-C ) :   0.9610
B( 25-N , 27-C ) :   1.2260 B( 26-C , 94-H ) :   0.9702 B( 26-C , 95-H ) :   0.9660
B( 26-C , 96-H ) :   0.9548 B( 27-C , 28-C ) :   0.9488 B( 28-C , 29-N ) :   1.2104
B( 28-C , 34-C ) :   1.4517 B( 29-N , 30-C ) :   0.9415 B( 29-N , 32-N ) :   1.1910
B( 30-C , 31-C ) :   1.1069 B( 30-C , 97-H ) :   0.9392 B( 30-C , 98-H ) :   0.9301
B( 31-C , 99-H ) :   0.9646 B( 31-C ,100-H ) :   0.9648 B( 31-C ,101-H ) :   0.9691
B( 32-N , 33-C ) :   1.5885 B( 33-C , 34-C ) :   1.3261 B( 33-C , 37-C ) :   1.0686
B( 34-C , 35-C ) :   1.0829 B( 35-C , 36-C ) :   1.1030 B( 35-C ,102-H ) :   0.9133
B( 35-C ,103-H ) :   0.9175 B( 36-C ,104-H ) :   0.9658 B( 36-C ,105-H ) :   0.9632
B( 36-C ,106-H ) :   0.9700 B( 37-C , 38-C ) :   1.0848 B( 37-C ,107-H ) :   0.9036
B( 37-C ,108-H ) :   0.9101 B( 38-C , 39-C ) :   1.0576 B( 38-C ,109-H ) :   0.9433
B( 38-C ,110-H ) :   0.9150 B( 39-C , 40-C ) :   1.8416 B( 39-C ,111-H ) :   0.9599
B( 40-C , 41-C ) :   1.0587 B( 40-C ,112-H ) :   0.9466 B( 41-C , 42-S ) :   1.1688
B( 41-C , 45-C ) :   1.5252 B( 42-S , 43-C ) :   1.1275 B( 43-C , 44-C ) :   1.5021
B( 43-C , 56-C ) :   1.1089 B( 44-C , 45-C ) :   1.3459 B( 44-C , 52-C ) :   0.9637
B( 45-C , 46-C ) :   0.9560 B( 46-C , 47-N ) :   0.8372 B( 46-C , 50-C ) :   1.0710
B( 46-C ,113-H ) :   0.8986 B( 47-N , 48-O ) :   1.5285 B( 47-N , 49-O ) :   1.5949
B( 48-O , 49-O ) :   0.2697 B( 50-C , 51-C ) :   1.0986 B( 50-C ,114-H ) :   0.9264
B( 50-C ,115-H ) :   0.9249 B( 51-C , 52-C ) :   1.0749 B( 51-C ,116-H ) :   0.9213
B( 51-C ,117-H ) :   0.9244 B( 52-C , 53-N ) :   0.8352 B( 52-C ,118-H ) :   0.8933
B( 53-N , 54-O ) :   1.5914 B( 53-N , 55-O ) :   1.5506 B( 54-O , 55-O ) :   0.2727
B( 56-C , 57-C ) :   1.5964 B( 56-C ,119-H ) :   0.9594 B( 57-C , 58-C ) :   1.1698
B( 57-C ,120-H ) :   0.9629 B( 58-C , 59-C ) :   1.5524 B( 58-C ,121-H ) :   0.9676
B( 59-C , 60-C ) :   1.0543 B( 59-C , 68-C ) :   0.9440 B( 60-C , 61-C ) :   1.6342
B( 60-C , 66-C ) :   0.9891 B( 61-C , 62-C ) :   1.1440 B( 61-C , 64-C ) :   1.1468
B( 62-C , 63-N ) :   2.9657 B( 64-C , 65-N ) :   2.9760 B( 66-C , 67-C ) :   1.2166
B( 66-C , 73-C ) :   1.4483 B( 67-C , 68-C ) :   0.9495 B( 67-C , 70-C ) :   1.4690
B( 68-C , 69-O ) :   2.1712 B( 70-C , 71-C ) :   1.1780 B( 70-C ,122-H ) :   1.0166
B( 71-C , 72-C ) :   1.2585 B( 71-C , 77-C ) :   1.2431 B( 72-C , 73-C ) :   1.2049
B( 72-C , 74-C ) :   1.2385 B( 73-C ,123-H ) :   0.9905 B( 74-C , 75-C ) :   1.4886
B( 74-C ,124-H ) :   0.9978 B( 75-C , 76-C ) :   1.2607 B( 75-C ,125-H ) :   0.9884
B( 76-C , 77-C ) :   1.4888 B( 76-C ,126-H ) :   0.9882 B( 77-C ,127-H ) :   0.9980

-----------------------------------------------------------------------------
         ABSORPTION SPECTRUM VIA TRANSITION ELECTRIC DIPOLE MOMENTS
-----------------------------------------------------------------------------
State   Energy  Wavelength   fosc         T2         TX        TY        TZ
        (cm-1)    (nm)                  (au**2)     (au)      (au)      (au)
-----------------------------------------------------------------------------
   0   16196.9    617.4   0.693540540  14.09664   2.45662  -2.82906   0.24095
   1   20371.7    490.9   0.010778347   0.17418   0.13560  -0.32249   0.22758
   2   21390.8    467.5   1.250758828  19.24964  -2.47284   1.94517  -3.05794
   3   25083.2    398.7   0.000015969   0.00021  -0.00230  -0.01423   0.00129
   4   26349.7    379.5   0.088421997   1.10474  -0.51581   0.88337  -0.24153
   5   26704.7    374.5   0.003207690   0.03954   0.15745   0.07613  -0.09464
   6   27054.6    369.6   0.002883915   0.03509  -0.16744  -0.04129   0.07315
   7   27536.9    363.1   0.003402088   0.04067   0.09710  -0.15447   0.08593
   8   28388.0    352.3   0.002232410   0.02589  -0.06911   0.08603  -0.11710
   9   28601.8    349.6   0.018151288   0.20892  -0.27520   0.36225  -0.04436
  10   28758.8    347.7   0.007666612   0.08776  -0.19309   0.04618  -0.21988
  11   28861.4    346.5   0.021948108   0.25035  -0.07620  -0.49441   0.01047
  12   29385.4    340.3   0.013260611   0.14856   0.01852   0.36227  -0.13029
  13   30014.6    333.2   0.244000084   2.67629  -0.74199   1.42459   0.31029
  14   31024.8    322.3   0.005274116   0.05596  -0.15686   0.02760  -0.17492
  15   31113.1    321.4   0.006134464   0.06491   0.12371  -0.10455   0.19666
  16   31273.4    319.8   0.000004176   0.00004   0.00195  -0.00262  -0.00577
  17   31790.9    314.6   0.000664446   0.00688  -0.00387   0.07789  -0.02827
  18   32050.9    312.0   0.115545950   1.18683   0.15824  -1.02080   0.34607
  19   32268.1    309.9   0.001422856   0.01452   0.00422   0.11124  -0.04608
  20   33093.9    302.2   0.139689236   1.38960  -0.35127   1.05062   0.40300
  21   33237.6    300.9   0.015008818   0.14866  -0.00782   0.36145  -0.13398
  22   33650.5    297.2   0.115131454   1.12636   0.38711  -0.96166  -0.22741
  23   34102.1    293.2   0.672378626   6.49095  -1.17430   2.25531   0.15989
  24   34619.9    288.9   0.000683436   0.00650   0.06871   0.01337  -0.04000
  25   34892.7    286.6   0.308570266   2.91136   1.35880   0.77910  -0.67676
  26   35527.7    281.5   0.204917820   1.89884   0.50299  -1.18601   0.48911
  27   35731.4    279.9   0.445777667   4.10718   0.21030   1.87196  -0.74747
  28   35886.6    278.7   0.024016481   0.22032   0.38852  -0.03051   0.26162
  29   36540.7    273.7   0.002664128   0.02400  -0.08651  -0.00815  -0.12827
  30   36642.4    272.9   0.156541114   1.40643   0.50712  -0.01929   1.07186
  31   38499.1    259.7   0.000579421   0.00495  -0.02706  -0.06271   0.01702
  32   38591.8    259.1   0.003254235   0.02776  -0.04161  -0.14251   0.07563
  33   38942.9    256.8   0.071782845   0.60683  -0.29849  -0.65238   0.30354
  34   39043.8    256.1   0.159910083   1.34834  -0.32066  -0.29026  -1.07762
  35   39080.3    255.9   0.151917767   1.27975   0.21256   0.00414   1.11110
  36   39879.9    250.8   0.002607300   0.02152   0.05690   0.04591   0.12719
  37   40304.5    248.1   0.001617209   0.01321   0.09899  -0.05825  -0.00419

FINAL SINGLE POINT ENERGY     -3858.409202857640

DIPOLE MOMENT
-------------
                                X             Y             Z
Electronic contribution:    -43.99048      63.93637     -69.17552
Nuclear contribution   :     44.61960     -63.01606      71.32170
                        -----------------------------------------
Total Dipole Moment    :      0.62912       0.92031       2.14618
                        -----------------------------------------
Magnitude (a.u.)       :      2.41844
Magnitude (Debye)      :      6.14718

Rotational constants in cm-1:     0.002216     0.000163     0.000159
Rotational constants in MHz :    66.430117     4.875586     4.757611

                             ****ORCA TERMINATED NORMALLY****
TOTAL RUN TIME: 0 days 0 hours 12 minutes 32 seconds 883 msec
