                         Program Version 4.2.0 -  RELEASE  -
|  1> # ORCA input file
|  2> # SCF done       -179.018907759147          0.000222034380
|  3> ! CAM-B3LYP def2-SVP def2/J RIJCOSX Grid4 TightSCF
|  4> %maxcore 5000
|  5> %tddft
|  6>     Mode sTDDFT
|  7>     Ethresh 5.0
|  8>     maxcore 5000
|  9> end
| 10>
| 11> %pal
| 12>   nprocs 6
| 13>   end
| 14> * xyz 0 1
| 15>    C       -2.35851         0.24508        -1.35677
| 16>    S       -3.03633        -1.22527        -1.87123
| 17>    C       -1.47523        -1.96755        -2.08196
| 18>    C       -0.46474        -1.05585        -1.79009
| 19>    C       -0.97926         0.21045        -1.36038
| 20>    C       -0.07569         1.24846        -0.99413
| 21>    C       -0.58669         2.48894        -0.55654
| 22>    N       -1.01072         3.49467        -0.20534
| 23>    C        1.28133         1.02645        -1.07989
| 24>    C        1.78304        -0.18816        -1.56585
| 25>    C        0.94037        -1.21555        -1.93534
| 26>    C        1.47034        -2.38557        -2.52073
| 27>    N        1.89390        -3.31359        -3.04441
| 28>    C       -1.40578        -3.35146        -2.43069
| 29>    C       -0.72792        -4.38149        -1.79952
| 30>    N        0.08084        -4.31147        -0.65571
| 31>    O        0.45742        -5.36065        -0.16690
| 32>    O        0.33109        -3.20853        -0.18709
| 33>    C       -1.10201        -5.63599        -2.40646
| 34>    C       -2.03724        -5.39899        -3.35650
| 35>    C       -2.25850        -3.97877        -3.44217
| 36>    C       -2.97488        -3.29792        -4.40878
| 37>    C       -2.64983        -2.01562        -4.94711
| 38>    C       -3.40945        -1.79655        -6.05892
| 39>    C       -4.31072        -2.89169        -6.22558
| 40>    N       -5.31815        -2.90855        -7.20689
| 41>    O       -5.25526        -2.06171        -8.08183
| 42>    O       -6.19913        -3.74802        -7.12563
| 43>    C       -4.08443        -3.83474        -5.22116
| 44>    C       -4.83906        -4.98976        -4.95725
| 45>    C       -4.96761        -5.55538        -3.71526
| 46>    C       -5.67692        -6.74379        -3.48093
| 47>    N       -5.95287        -7.24130        -2.22724
| 48>    C       -5.62193        -6.61910        -0.96731
| 49>    C       -6.54574        -5.44636        -0.64967
| 50>    C       -6.67570        -8.44114        -2.28109
| 51>    O       -7.03705        -9.05689        -1.29890
| 52>    C       -6.83009        -8.70276        -3.69956
| 53>    C       -6.20841        -7.65647        -4.40467
| 54>    C       -6.31531        -7.94365        -5.82297
| 55>    O       -5.89252        -7.37280        -6.80179
| 56>    N       -7.03688        -9.15540        -5.87453
| 57>    C       -7.41092        -9.74544        -7.13813
| 58>    C       -8.86560        -9.44624        -7.49005
| 59>    C       -7.34669        -9.62326        -4.62627
| 60>    C       -8.03681       -10.83218        -4.38424
| 61>    C       -8.30556       -11.28486        -3.13019
| 62>    C       -8.98098       -12.50953        -2.90983
| 63>    S       -9.29215       -13.14075        -1.29486
| 64>    C      -10.05048       -14.49816        -2.11636
| 65>    N      -10.01481       -14.37651        -3.41970
| 66>    N       -9.43570       -13.30183        -3.84690
| 67>    C      -10.62227       -15.58829        -1.41331
| 68>    C      -11.22465       -16.62338        -2.04819
| 69>    C      -11.79914       -17.73560        -1.38801
| 70>    S      -11.73889       -17.88188         0.34514
| 71>    C      -12.56699       -19.36372         0.33685
| 72>    C      -12.89891       -19.76743        -0.93935
| 73>    C      -12.46266       -18.83847        -1.94291
| 74>    C      -12.74719       -19.13549        -3.30284
| 75>    C      -12.37257       -18.29190        -4.37332
| 76>    N      -12.10644       -17.66153        -5.29354
| 77>    C      -13.42511       -20.29670        -3.62494
| 78>    C      -13.84586       -21.20051        -2.64239
| 79>    C      -13.59419       -20.95351        -1.31181
| 80>    C      -14.01361       -21.85387        -0.30916
| 81>    N      -14.35139       -22.58078         0.51056
| 82>    H       -2.98847         1.06203        -1.06445
| 83>    H        1.96881         1.80722        -0.79112
| 84>    H        2.85020        -0.31922        -1.66222
| 85>    H       -0.67661        -6.57706        -2.11587
| 86>    H       -2.47004        -6.11876        -4.02284
| 87>    H       -1.84164        -1.39785        -4.60604
| 88>    H       -3.37193        -0.95095        -6.71954
| 89>    H       -5.40769        -5.39716        -5.78612
| 90>    H       -4.53977        -5.05103        -2.86010
| 91>    H       -4.57560        -6.29999        -0.98302
| 92>    H       -5.74040        -7.39632        -0.20735
| 93>    H       -6.47917        -4.67584        -1.41463
| 94>    H       -6.27189        -5.01348         0.30825
| 95>    H       -7.57585        -5.78936        -0.59350
| 96>    H       -7.23089       -10.82298        -7.10589
| 97>    H       -6.75229        -9.29718        -7.88710
| 98>    H       -9.54080        -9.85361        -6.74097
| 99>    H       -9.10610        -9.88674        -8.45323
|100>    H       -9.01964        -8.37175        -7.55193
|101>    H       -8.35694       -11.42992        -5.22485
|102>    H       -8.00194       -10.72072        -2.25885
|103>    H      -10.55682       -15.56010        -0.33430
|104>    H      -11.27054       -16.60098        -3.12727
|105>    H      -12.77689       -19.87687         1.25465
|106>    H      -13.63508       -20.50953        -4.66248
|107>    H      -14.37255       -22.09684        -2.93258
|108> *
|109>
|110>                          ****END OF INPUT****

CARTESIAN COORDINATES (ANGSTROEM)
---------------------------------
  C     -2.358510    0.245080   -1.356770
  S     -3.036330   -1.225270   -1.871230
  C     -1.475230   -1.967550   -2.081960
  C     -0.464740   -1.055850   -1.790090
  C     -0.979260    0.210450   -1.360380
  C     -0.075690    1.248460   -0.994130
  C     -0.586690    2.488940   -0.556540
  N     -1.010720    3.494670   -0.205340
  C      1.281330    1.026450   -1.079890
  C      1.783040   -0.188160   -1.565850
  C      0.940370   -1.215550   -1.935340
  C      1.470340   -2.385570   -2.520730
  N      1.893900   -3.313590   -3.044410
  C     -1.405780   -3.351460   -2.430690
  C     -0.727920   -4.381490   -1.799520
  N      0.080840   -4.311470   -0.655710
  O      0.457420   -5.360650   -0.166900
  O      0.331090   -3.208530   -0.187090
  C     -1.102010   -5.635990   -2.406460
  C     -2.037240   -5.398990   -3.356500
  C     -2.258500   -3.978770   -3.442170
  C     -2.974880   -3.297920   -4.408780
  C     -2.649830   -2.015620   -4.947110
  C     -3.409450   -1.796550   -6.058920
  C     -4.310720   -2.891690   -6.225580
  N     -5.318150   -2.908550   -7.206890
  O     -5.255260   -2.061710   -8.081830
  O     -6.199130   -3.748020   -7.125630
  C     -4.084430   -3.834740   -5.221160
  C     -4.839060   -4.989760   -4.957250
  C     -4.967610   -5.555380   -3.715260
  C     -5.676920   -6.743790   -3.480930
  N     -5.952870   -7.241300   -2.227240
  C     -5.621930   -6.619100   -0.967310
  C     -6.545740   -5.446360   -0.649670
  C     -6.675700   -8.441140   -2.281090
  O     -7.037050   -9.056890   -1.298900
  C     -6.830090   -8.702760   -3.699560
  C     -6.208410   -7.656470   -4.404670
  C     -6.315310   -7.943650   -5.822970
  O     -5.892520   -7.372800   -6.801790
  N     -7.036880   -9.155400   -5.874530
  C     -7.410920   -9.745440   -7.138130
  C     -8.865600   -9.446240   -7.490050
  C     -7.346690   -9.623260   -4.626270
  C     -8.036810  -10.832180   -4.384240
  C     -8.305560  -11.284860   -3.130190
  C     -8.980980  -12.509530   -2.909830
  S     -9.292150  -13.140750   -1.294860
  C    -10.050480  -14.498160   -2.116360
  N    -10.014810  -14.376510   -3.419700
  N     -9.435700  -13.301830   -3.846900
  C    -10.622270  -15.588290   -1.413310
  C    -11.224650  -16.623380   -2.048190
  C    -11.799140  -17.735600   -1.388010
  S    -11.738890  -17.881880    0.345140
  C    -12.566990  -19.363720    0.336850
  C    -12.898910  -19.767430   -0.939350
  C    -12.462660  -18.838470   -1.942910
  C    -12.747190  -19.135490   -3.302840
  C    -12.372570  -18.291900   -4.373320
  N    -12.106440  -17.661530   -5.293540
  C    -13.425110  -20.296700   -3.624940
  C    -13.845860  -21.200510   -2.642390
  C    -13.594190  -20.953510   -1.311810
  C    -14.013610  -21.853870   -0.309160
  N    -14.351390  -22.580780    0.510560
  H     -2.988470    1.062030   -1.064450
  H      1.968810    1.807220   -0.791120
  H      2.850200   -0.319220   -1.662220
  H     -0.676610   -6.577060   -2.115870
  H     -2.470040   -6.118760   -4.022840
  H     -1.841640   -1.397850   -4.606040
  H     -3.371930   -0.950950   -6.719540
  H     -5.407690   -5.397160   -5.786120
  H     -4.539770   -5.051030   -2.860100
  H     -4.575600   -6.299990   -0.983020
  H     -5.740400   -7.396320   -0.207350
  H     -6.479170   -4.675840   -1.414630
  H     -6.271890   -5.013480    0.308250
  H     -7.575850   -5.789360   -0.593500
  H     -7.230890  -10.822980   -7.105890
  H     -6.752290   -9.297180   -7.887100
  H     -9.540800   -9.853610   -6.740970
  H     -9.106100   -9.886740   -8.453230
  H     -9.019640   -8.371750   -7.551930
  H     -8.356940  -11.429920   -5.224850
  H     -8.001940  -10.720720   -2.258850
  H    -10.556820  -15.560100   -0.334300
  H    -11.270540  -16.600980   -3.127270
  H    -12.776890  -19.876870    1.254650
  H    -13.635080  -20.509530   -4.662480
  H    -14.372550  -22.096840   -2.932580

 Total Charge           Charge          ....    0
 Multiplicity           Mult            ....    1
 Number of Electrons    NEL             ....  480
 Basis Dimension        Dim             .... 1080

ORBITAL ENERGIES
----------------

  NO   OCC          E(Eh)            E(eV)
   0   2.0000     -89.000989     -2421.8400
   1   2.0000     -88.999263     -2421.7931
   2   2.0000     -88.980760     -2421.2896
   3   2.0000     -19.241264      -523.5814
   4   2.0000     -19.239270      -523.5272
   5   2.0000     -19.231599      -523.3184
   6   2.0000     -19.231543      -523.3169
   7   2.0000     -19.207096      -522.6517
   8   2.0000     -19.199174      -522.4361
   9   2.0000     -14.648128      -398.5958
  10   2.0000     -14.641054      -398.4033
  11   2.0000     -14.465578      -393.6284
  12   2.0000     -14.462300      -393.5392
  13   2.0000     -14.448146      -393.1540
  14   2.0000     -14.443504      -393.0277
  15   2.0000     -14.425534      -392.5387
  16   2.0000     -14.423294      -392.4778
  17   2.0000     -14.421588      -392.4314
  18   2.0000     -14.416147      -392.2833
  19   2.0000     -10.387760      -282.6653
  20   2.0000     -10.383161      -282.5402
  21   2.0000     -10.354985      -281.7735
  22   2.0000     -10.351084      -281.6673
  23   2.0000     -10.346750      -281.5494
  24   2.0000     -10.346126      -281.5324
  25   2.0000     -10.344066      -281.4763
  26   2.0000     -10.343213      -281.4531
  27   2.0000     -10.339247      -281.3452
  28   2.0000     -10.337061      -281.2857
  29   2.0000     -10.336198      -281.2622
  30   2.0000     -10.335534      -281.2442
  31   2.0000     -10.335420      -281.2411
  32   2.0000     -10.334736      -281.2225
  33   2.0000     -10.332912      -281.1728
  34   2.0000     -10.329313      -281.0749
  35   2.0000     -10.328432      -281.0509
  36   2.0000     -10.327731      -281.0318
  37   2.0000     -10.326799      -281.0065
  38   2.0000     -10.325207      -280.9632
  39   2.0000     -10.323328      -280.9120
  40   2.0000     -10.322056      -280.8774
  41   2.0000     -10.321765      -280.8695
  42   2.0000     -10.321386      -280.8592
  43   2.0000     -10.320983      -280.8482
  44   2.0000     -10.320609      -280.8380
  45   2.0000     -10.319565      -280.8096
  46   2.0000     -10.318928      -280.7923
  47   2.0000     -10.318464      -280.7797
  48   2.0000     -10.316960      -280.7387
  49   2.0000     -10.316534      -280.7272
  50   2.0000     -10.316281      -280.7203
  51   2.0000     -10.315706      -280.7046
  52   2.0000     -10.313681      -280.6495
  53   2.0000     -10.309524      -280.5364
  54   2.0000     -10.309215      -280.5280
  55   2.0000     -10.308593      -280.5111
  56   2.0000     -10.304250      -280.3929
  57   2.0000     -10.302797      -280.3534
  58   2.0000     -10.302635      -280.3490
  59   2.0000     -10.302042      -280.3328
  60   2.0000     -10.297315      -280.2042
  61   2.0000     -10.290454      -280.0175
  62   2.0000     -10.289033      -279.9788
  63   2.0000     -10.279820      -279.7281
  64   2.0000     -10.274202      -279.5753
  65   2.0000     -10.271705      -279.5073
  66   2.0000     -10.266008      -279.3523
  67   2.0000      -8.095418      -220.2875
  68   2.0000      -8.094481      -220.2620
  69   2.0000      -8.077045      -219.7876
  70   2.0000      -6.064333      -165.0189
  71   2.0000      -6.063245      -164.9893
  72   2.0000      -6.059887      -164.8979
  73   2.0000      -6.059006      -164.8739
  74   2.0000      -6.058791      -164.8681
  75   2.0000      -6.057807      -164.8413
  76   2.0000      -6.045629      -164.5099
  77   2.0000      -6.042346      -164.4206
  78   2.0000      -6.039489      -164.3429
  79   2.0000      -1.318716       -35.8841
  80   2.0000      -1.311107       -35.6770
  81   2.0000      -1.150912       -31.3179
  82   2.0000      -1.147059       -31.2131
  83   2.0000      -1.138433       -30.9783
  84   2.0000      -1.136267       -30.9194
  85   2.0000      -1.128450       -30.7067
  86   2.0000      -1.076737       -29.2995
  87   2.0000      -1.066909       -29.0321
  88   2.0000      -1.037603       -28.2346
  89   2.0000      -1.036781       -28.2123
  90   2.0000      -1.019755       -27.7490
  91   2.0000      -1.010181       -27.4884
  92   2.0000      -1.006610       -27.3913
  93   2.0000      -1.006062       -27.3763
  94   2.0000      -1.001425       -27.2502
  95   2.0000      -0.998338       -27.1662
  96   2.0000      -0.973067       -26.4785
  97   2.0000      -0.966247       -26.2929
  98   2.0000      -0.956846       -26.0371
  99   2.0000      -0.940445       -25.5908
 100   2.0000      -0.936573       -25.4854
 101   2.0000      -0.922090       -25.0913
 102   2.0000      -0.921767       -25.0825
 103   2.0000      -0.916961       -24.9518
 104   2.0000      -0.912890       -24.8410
 105   2.0000      -0.899038       -24.4641
 106   2.0000      -0.886914       -24.1342
 107   2.0000      -0.883146       -24.0316
 108   2.0000      -0.876753       -23.8577
 109   2.0000      -0.869649       -23.6644
 110   2.0000      -0.868516       -23.6335
 111   2.0000      -0.863677       -23.5019
 112   2.0000      -0.849490       -23.1158
 113   2.0000      -0.829109       -22.5612
 114   2.0000      -0.828034       -22.5320
 115   2.0000      -0.819616       -22.3029
 116   2.0000      -0.805526       -21.9195
 117   2.0000      -0.793292       -21.5866
 118   2.0000      -0.791958       -21.5503
 119   2.0000      -0.785104       -21.3638
 120   2.0000      -0.769524       -20.9398
 121   2.0000      -0.768265       -20.9056
 122   2.0000      -0.755258       -20.5516
 123   2.0000      -0.733250       -19.9527
 124   2.0000      -0.732546       -19.9336
 125   2.0000      -0.719049       -19.5663
 126   2.0000      -0.716879       -19.5073
 127   2.0000      -0.715847       -19.4792
 128   2.0000      -0.712503       -19.3882
 129   2.0000      -0.709897       -19.3173
 130   2.0000      -0.704135       -19.1605
 131   2.0000      -0.692518       -18.8444
 132   2.0000      -0.682777       -18.5793
 133   2.0000      -0.677107       -18.4250
 134   2.0000      -0.671177       -18.2637
 135   2.0000      -0.659829       -17.9549
 136   2.0000      -0.659033       -17.9332
 137   2.0000      -0.656319       -17.8594
 138   2.0000      -0.651122       -17.7179
 139   2.0000      -0.641891       -17.4667
 140   2.0000      -0.636783       -17.3278
 141   2.0000      -0.631401       -17.1813
 142   2.0000      -0.626560       -17.0496
 143   2.0000      -0.623016       -16.9531
 144   2.0000      -0.617883       -16.8135
 145   2.0000      -0.616443       -16.7743
 146   2.0000      -0.606380       -16.5004
 147   2.0000      -0.604561       -16.4509
 148   2.0000      -0.603141       -16.4123
 149   2.0000      -0.598609       -16.2890
 150   2.0000      -0.594006       -16.1637
 151   2.0000      -0.593407       -16.1474
 152   2.0000      -0.590999       -16.0819
 153   2.0000      -0.586059       -15.9475
 154   2.0000      -0.580715       -15.8021
 155   2.0000      -0.573456       -15.6045
 156   2.0000      -0.566946       -15.4274
 157   2.0000      -0.565047       -15.3757
 158   2.0000      -0.559461       -15.2237
 159   2.0000      -0.558005       -15.1841
 160   2.0000      -0.551690       -15.0123
 161   2.0000      -0.549578       -14.9548
 162   2.0000      -0.549149       -14.9431
 163   2.0000      -0.541421       -14.7328
 164   2.0000      -0.541352       -14.7309
 165   2.0000      -0.539546       -14.6818
 166   2.0000      -0.538848       -14.6628
 167   2.0000      -0.537551       -14.6275
 168   2.0000      -0.536565       -14.6007
 169   2.0000      -0.531550       -14.4642
 170   2.0000      -0.526136       -14.3169
 171   2.0000      -0.522169       -14.2089
 172   2.0000      -0.518947       -14.1213
 173   2.0000      -0.513782       -13.9807
 174   2.0000      -0.510572       -13.8934
 175   2.0000      -0.508144       -13.8273
 176   2.0000      -0.506340       -13.7782
 177   2.0000      -0.503942       -13.7130
 178   2.0000      -0.496199       -13.5023
 179   2.0000      -0.495976       -13.4962
 180   2.0000      -0.494719       -13.4620
 181   2.0000      -0.488640       -13.2966
 182   2.0000      -0.487103       -13.2547
 183   2.0000      -0.485576       -13.2132
 184   2.0000      -0.485080       -13.1997
 185   2.0000      -0.484494       -13.1837
 186   2.0000      -0.483448       -13.1553
 187   2.0000      -0.482972       -13.1423
 188   2.0000      -0.481858       -13.1120
 189   2.0000      -0.478206       -13.0127
 190   2.0000      -0.475480       -12.9385
 191   2.0000      -0.471678       -12.8350
 192   2.0000      -0.471045       -12.8178
 193   2.0000      -0.469434       -12.7739
 194   2.0000      -0.464947       -12.6518
 195   2.0000      -0.460575       -12.5329
 196   2.0000      -0.457312       -12.4441
 197   2.0000      -0.455054       -12.3827
 198   2.0000      -0.454376       -12.3642
 199   2.0000      -0.452484       -12.3127
 200   2.0000      -0.451813       -12.2945
 201   2.0000      -0.448862       -12.2142
 202   2.0000      -0.447676       -12.1819
 203   2.0000      -0.446497       -12.1498
 204   2.0000      -0.443308       -12.0630
 205   2.0000      -0.442453       -12.0398
 206   2.0000      -0.435016       -11.8374
 207   2.0000      -0.431347       -11.7375
 208   2.0000      -0.428940       -11.6720
 209   2.0000      -0.427511       -11.6332
 210   2.0000      -0.425198       -11.5702
 211   2.0000      -0.421232       -11.4623
 212   2.0000      -0.418963       -11.4006
 213   2.0000      -0.418751       -11.3948
 214   2.0000      -0.415665       -11.3108
 215   2.0000      -0.399302       -10.8656
 216   2.0000      -0.397514       -10.8169
 217   2.0000      -0.393082       -10.6963
 218   2.0000      -0.385200       -10.4818
 219   2.0000      -0.382103       -10.3975
 220   2.0000      -0.380187       -10.3454
 221   2.0000      -0.375019       -10.2048
 222   2.0000      -0.373888       -10.1740
 223   2.0000      -0.370006       -10.0684
 224   2.0000      -0.361476        -9.8363
 225   2.0000      -0.359931        -9.7942
 226   2.0000      -0.358542        -9.7564
 227   2.0000      -0.356869        -9.7109
 228   2.0000      -0.352267        -9.5857
 229   2.0000      -0.347944        -9.4680
 230   2.0000      -0.343671        -9.3518
 231   2.0000      -0.339325        -9.2335
 232   2.0000      -0.329536        -8.9671
 233   2.0000      -0.328558        -8.9405
 234   2.0000      -0.327845        -8.9211
 235   2.0000      -0.325362        -8.8536
 236   2.0000      -0.306441        -8.3387
 237   2.0000      -0.282056        -7.6751
 238   2.0000      -0.274204        -7.4615
 239   2.0000      -0.240819        -6.5530
 240   0.0000      -0.140605        -3.8261
 241   0.0000      -0.102915        -2.8005
 242   0.0000      -0.090958        -2.4751
 243   0.0000      -0.082593        -2.2475
 244   0.0000      -0.055879        -1.5205

MULLIKEN ATOMIC CHARGES
-----------------------
   0 C :   -0.122301
   1 S :    0.226405
   2 C :   -0.327594
   3 C :    0.280461
   4 C :    0.078160
   5 C :   -0.056552
   6 C :   -0.191391
   7 N :    0.133776
   8 C :    0.027409
   9 C :    0.021629
  10 C :   -0.066525
  11 C :   -0.225018
  12 N :    0.147048
  13 C :    0.062078
  14 C :    0.074083
  15 N :    0.277252
  16 O :   -0.236471
  17 O :   -0.260072
  18 C :    0.019177
  19 C :    0.003078
  20 C :   -0.004121
  21 C :    0.013957
  22 C :    0.003495
  23 C :    0.022273
  24 C :    0.088198
  25 N :    0.272803
  26 O :   -0.253087
  27 O :   -0.244223
  28 C :    0.048577
  29 C :   -0.027722
  30 C :   -0.042754
  31 C :    0.122872
  32 N :   -0.254116
  33 C :    0.094914
  34 C :    0.002108
  35 C :    0.169256
  36 O :   -0.213119
  37 C :   -0.075925
  38 C :   -0.044506
  39 C :    0.159265
  40 O :   -0.171561
  41 N :   -0.254988
  42 C :    0.090890
  43 C :    0.003542
  44 C :    0.156953
  45 C :   -0.035668
  46 C :    0.085037
  47 C :   -0.116332
  48 S :    0.124005
  49 C :   -0.097672
  50 N :   -0.044498
  51 N :   -0.033469
  52 C :    0.043663
  53 C :    0.005841
  54 C :   -0.153537
  55 S :    0.186066
  56 C :   -0.111129
  57 C :    0.083807
  58 C :    0.179544
  59 C :   -0.084325
  60 C :   -0.184555
  61 N :    0.127393
  62 C :    0.016574
  63 C :    0.019045
  64 C :   -0.048921
  65 C :   -0.187653
  66 N :    0.131379
  67 H :    0.046100
  68 H :    0.005660
  69 H :    0.006423
  70 H :    0.004440
  71 H :    0.011099
  72 H :    0.001998
  73 H :    0.007602
  74 H :    0.048130
  75 H :    0.001764
  76 H :    0.026728
  77 H :    0.046350
  78 H :    0.017446
  79 H :    0.025452
  80 H :    0.030841
  81 H :    0.032827
  82 H :    0.048562
  83 H :    0.021257
  84 H :    0.029207
  85 H :    0.032890
  86 H :    0.007435
  87 H :    0.014635
  88 H :   -0.006321
  89 H :    0.043548
  90 H :    0.047133
  91 H :    0.010359
  92 H :    0.006223
Sum of atomic charges:   -0.0000000

LOEWDIN ATOMIC CHARGES
----------------------
   0 C :   -0.173390
   1 S :    0.540909
   2 C :   -0.179301
   3 C :   -0.021226
   4 C :   -0.038361
   5 C :   -0.044764
   6 C :   -0.028412
   7 N :   -0.041654
   8 C :    0.014702
   9 C :    0.021862
  10 C :   -0.038396
  11 C :   -0.031223
  12 N :   -0.052101
  13 C :   -0.027946
  14 C :   -0.028742
  15 N :    0.287640
  16 O :   -0.200311
  17 O :   -0.211295
  18 C :    0.006293
  19 C :   -0.035851
  20 C :    0.025609
  21 C :    0.041121
  22 C :   -0.056665
  23 C :    0.026748
  24 C :   -0.050003
  25 N :    0.283404
  26 O :   -0.217664
  27 O :   -0.208508
  28 C :    0.003916
  29 C :    0.023547
  30 C :   -0.017433
  31 C :    0.056831
  32 N :    0.001641
  33 C :    0.036723
  34 C :   -0.060857
  35 C :    0.077324
  36 O :   -0.204216
  37 C :   -0.121011
  38 C :   -0.094509
  39 C :    0.083542
  40 O :   -0.165334
  41 N :    0.004763
  42 C :    0.037265
  43 C :   -0.059212
  44 C :    0.087866
  45 C :   -0.022094
  46 C :    0.007988
  47 C :   -0.160237
  48 S :    0.404294
  49 C :   -0.142241
  50 N :   -0.072726
  51 N :   -0.061430
  52 C :   -0.068610
  53 C :    0.005406
  54 C :   -0.177030
  55 S :    0.523668
  56 C :   -0.173855
  57 C :   -0.039823
  58 C :   -0.026894
  59 C :   -0.045231
  60 C :   -0.030493
  61 N :   -0.034369
  62 C :    0.017974
  63 C :    0.011697
  64 C :   -0.043685
  65 C :   -0.027979
  66 N :   -0.040092
  67 H :    0.037081
  68 H :    0.046118
  69 H :    0.047146
  70 H :    0.039417
  71 H :    0.034832
  72 H :    0.029479
  73 H :    0.040517
  74 H :    0.045786
  75 H :    0.031710
  76 H :    0.023872
  77 H :    0.038935
  78 H :    0.022091
  79 H :    0.031809
  80 H :    0.032901
  81 H :    0.027273
  82 H :    0.039365
  83 H :    0.024594
  84 H :    0.033736
  85 H :    0.033265
  86 H :    0.039295
  87 H :    0.038749
  88 H :    0.023517
  89 H :    0.050678
  90 H :    0.036893
  91 H :    0.047169
  92 H :    0.046212

  Mayer bond orders larger than 0.100000
B(  0-C ,  1-S ) :   1.2343 B(  0-C ,  2-C ) :   0.1195 B(  0-C ,  4-C ) :   1.4240
B(  0-C , 67-H ) :   0.9490 B(  1-S ,  2-C ) :   1.1899 B(  2-C ,  3-C ) :   1.3822
B(  2-C , 13-C ) :   1.0480 B(  3-C ,  4-C ) :   1.1891 B(  3-C , 10-C ) :   1.2020
B(  4-C ,  5-C ) :   1.1841 B(  5-C ,  6-C ) :   1.0765 B(  5-C ,  8-C ) :   1.5418
B(  6-C ,  7-N ) :   3.0415 B(  8-C ,  9-C ) :   1.1783 B(  8-C , 68-H ) :   0.9942
B(  9-C , 10-C ) :   1.5401 B(  9-C , 69-H ) :   0.9940 B( 10-C , 11-C ) :   1.0992
B( 11-C , 12-N ) :   3.0211 B( 13-C , 14-C ) :   1.5736 B( 13-C , 20-C ) :   1.0831
B( 14-C , 15-N ) :   0.9510 B( 14-C , 18-C ) :   1.1185 B( 15-N , 16-O ) :   1.5411
B( 15-N , 17-O ) :   1.4724 B( 16-O , 17-O ) :   0.2565 B( 18-C , 19-C ) :   1.5920
B( 18-C , 70-H ) :   1.0124 B( 19-C , 20-C ) :   1.1231 B( 19-C , 71-H ) :   0.9962
B( 20-C , 21-C ) :   1.4553 B( 21-C , 22-C ) :   1.1627 B( 21-C , 28-C ) :   1.0007
B( 22-C , 23-C ) :   1.5291 B( 22-C , 72-H ) :   1.0063 B( 23-C , 24-C ) :   1.1526
B( 23-C , 73-H ) :   1.0138 B( 24-C , 25-N ) :   0.9505 B( 24-C , 28-C ) :   1.4662
B( 25-N , 26-O ) :   1.5209 B( 25-N , 27-O ) :   1.5004 B( 26-O , 27-O ) :   0.2609
B( 28-C , 29-C ) :   1.2213 B( 29-C , 30-C ) :   1.4909 B( 29-C , 74-H ) :   0.9328
B( 30-C , 31-C ) :   1.2106 B( 30-C , 75-H ) :   0.9445 B( 31-C , 32-N ) :   1.1527
B( 31-C , 38-C ) :   1.3146 B( 32-N , 33-C ) :   0.9442 B( 32-N , 35-C ) :   1.0700
B( 33-C , 34-C ) :   1.1184 B( 33-C , 76-H ) :   0.9486 B( 33-C , 77-H ) :   0.9283
B( 34-C , 78-H ) :   0.9686 B( 34-C , 79-H ) :   0.9681 B( 34-C , 80-H ) :   0.9633
B( 35-C , 36-O ) :   2.0227 B( 35-C , 37-C ) :   0.9881 B( 36-O , 87-H ) :   0.1141
B( 37-C , 38-C ) :   1.2953 B( 37-C , 44-C ) :   1.2842 B( 38-C , 39-C ) :   0.9642
B( 39-C , 40-O ) :   2.0949 B( 39-C , 41-N ) :   1.0374 B( 41-N , 42-C ) :   0.9374
B( 41-N , 44-C ) :   1.1881 B( 42-C , 43-C ) :   1.1224 B( 42-C , 81-H ) :   0.9500
B( 42-C , 82-H ) :   0.9284 B( 43-C , 83-H ) :   0.9685 B( 43-C , 84-H ) :   0.9679
B( 43-C , 85-H ) :   0.9636 B( 44-C , 45-C ) :   1.1492 B( 45-C , 46-C ) :   1.6317
B( 45-C , 86-H ) :   0.9723 B( 46-C , 47-C ) :   1.1206 B( 46-C , 87-H ) :   0.9241
B( 47-C , 48-S ) :   1.0916 B( 47-C , 51-N ) :   1.6450 B( 48-S , 49-C ) :   1.1030
B( 49-C , 50-N ) :   1.6345 B( 49-C , 52-C ) :   1.1247 B( 50-N , 51-N ) :   1.2548
B( 52-C , 53-C ) :   1.6766 B( 52-C , 88-H ) :   0.9505 B( 53-C , 54-C ) :   1.1516
B( 53-C , 89-H ) :   0.9603 B( 54-C , 55-S ) :   1.1602 B( 54-C , 56-C ) :   0.1026
B( 54-C , 58-C ) :   1.3488 B( 55-S , 56-C ) :   1.2199 B( 56-C , 57-C ) :   1.4457
B( 56-C , 90-H ) :   0.9485 B( 57-C , 58-C ) :   1.1814 B( 57-C , 64-C ) :   1.1891
B( 58-C , 59-C ) :   1.2093 B( 59-C , 60-C ) :   1.0857 B( 59-C , 62-C ) :   1.5478
B( 60-C , 61-N ) :   2.9789 B( 62-C , 63-C ) :   1.1865 B( 62-C , 91-H ) :   0.9924
B( 63-C , 64-C ) :   1.5408 B( 63-C , 92-H ) :   0.9968 B( 64-C , 65-C ) :   1.0755
B( 65-C , 66-N ) :   3.0385

-----------------------------------------------------------------------------
         ABSORPTION SPECTRUM VIA TRANSITION ELECTRIC DIPOLE MOMENTS
-----------------------------------------------------------------------------
State   Energy  Wavelength   fosc         T2         TX        TY        TZ
        (cm-1)    (nm)                  (au**2)     (au)      (au)      (au)
-----------------------------------------------------------------------------
   0    6399.9   1562.5   0.329863826  16.96832  -2.35824  -3.37235  -0.18518
   1   12602.9    793.5   0.010959499   0.28628  -0.26496   0.00512   0.46481
   2   15645.1    639.2   0.671983801  14.14019   1.59774   3.38205  -0.38620
   3   17256.2    579.5   0.007370965   0.14062   0.23426   0.19485  -0.21858
   4   19707.3    507.4   0.421783369   7.04591   1.18776   2.19722  -0.89854
   5   20396.7    490.3   0.020981743   0.33866  -0.12437  -0.56748  -0.03394
   6   21293.7    469.6   0.046894430   0.72501  -0.30427  -0.03740   0.79438
   7   21785.1    459.0   0.045167534   0.68256  -0.24145  -0.69009  -0.38477
   8   23077.8    433.3   0.013074158   0.18651  -0.06426  -0.41486   0.10134
   9   23810.8    420.0   0.112410830   1.55421   0.14414   1.23829  -0.00867
  10   24142.0    414.2   0.035988531   0.49076   0.34569  -0.13950  -0.59312
  11   24940.3    401.0   0.046573853   0.61477  -0.21693   0.66087  -0.36189
  12   25169.6    397.3   0.042454928   0.55530  -0.21433  -0.70870   0.08426
  13   25425.1    393.3   0.018195072   0.23559   0.17009  -0.36113  -0.27613
  14   25644.8    389.9   0.050610624   0.64971  -0.78503  -0.04448  -0.17735
  15   25893.7    386.2   0.001130379   0.01437   0.06361   0.10121   0.00906
  16   26344.1    379.6   0.181298915   2.26563  -1.12074  -0.99372  -0.14863
  17   27082.6    369.2   0.062113778   0.75505  -0.52438  -0.59335   0.35778
  18   27466.1    364.1   0.132236342   1.58500  -0.88582   0.63081  -0.63435
  19   28414.2    351.9   0.053710065   0.62229  -0.58458  -0.12946  -0.51361
  20   29039.2    344.4   0.142554421   1.61611  -0.48157  -1.09153   0.43906
  21   29242.7    342.0   0.013695434   0.15418  -0.25381  -0.29960   0.00046
  22   29962.8    333.7   0.004044874   0.04444  -0.11106   0.03635  -0.17546
  23   30207.8    331.0   0.115629801   1.26016   0.48208  -0.64997   0.77801
  24   30483.8    328.0   0.314359604   3.39495   0.02482   1.23958  -1.36300
  25   30643.4    326.3   0.076067877   0.81722  -0.23184  -0.64525   0.58917
  26   30764.6    325.0   0.003354698   0.03590   0.16089   0.09982  -0.00689
  27   31288.9    319.6   0.015894657   0.16724   0.20938   0.30933  -0.16648
  28   31805.3    314.4   0.000870341   0.00901   0.07641  -0.05629   0.00111
  29   31981.1    312.7   0.087272474   0.89838   0.43333  -0.67311   0.50747
  30   32582.3    306.9   0.227236208   2.29600  -0.36701   0.71886  -1.28240
  31   32919.1    303.8   0.040983480   0.40986   0.25922  -0.15135   0.56547
  32   32992.9    303.1   0.019356401   0.19314  -0.13400  -0.01604  -0.41825
  33   33140.7    301.7   0.130867727   1.30001  -0.69840   0.00465  -0.90124
  34   33253.2    300.7   0.021978086   0.21759   0.27333  -0.28222  -0.25145
  35   33584.4    297.8   0.043443899   0.42586   0.36636  -0.31418  -0.43924
  36   33769.0    296.1   0.004047716   0.03946  -0.07852  -0.17895  -0.03568
  37   33909.1    294.9   0.077520672   0.75262   0.50481   0.57274   0.41201
  38   34355.5    291.1   0.032161709   0.30819   0.25290  -0.24739   0.42782
  39   34510.8    289.8   0.012786911   0.12198   0.32483  -0.05803  -0.11445
  40   35162.2    284.4   0.093192712   0.87253  -0.46863   0.40509  -0.69916
  41   35399.3    282.5   0.034200934   0.31807   0.23687   0.24998   0.44662
  42   35710.6    280.0   0.001649819   0.01521   0.12164  -0.01721  -0.01087
  43   36189.3    276.3   0.051092950   0.46479  -0.55231  -0.28872  -0.27638
  44   36453.7    274.3   0.023238500   0.20987   0.42760  -0.12037  -0.11196
  45   36996.6    270.3   0.024765012   0.22037   0.04820   0.44046  -0.15505
  46   37305.9    268.1   0.063827165   0.56325   0.62391   0.26754   0.32002
  47   37450.9    267.0   0.034064585   0.29944  -0.34769  -0.20562   0.36916
  48   37475.5    266.8   0.052930427   0.46498   0.18722  -0.55905   0.34262
  49   37645.6    265.6   0.248805704   2.17581   0.61940   0.61074   1.19128
  50   38069.7    262.7   0.036572307   0.31626  -0.05820   0.48220  -0.28347
  51   38373.9    260.6   0.040569220   0.34805  -0.30150  -0.44336  -0.24613
  52   38612.1    259.0   0.058573383   0.49940  -0.01033   0.34937   0.61420
  53   38759.9    258.0   0.056554481   0.48035   0.05481  -0.50280   0.47386
  54   39060.3    256.0   0.084342118   0.71086   0.42120   0.64233  -0.34766
  55   39161.2    255.4   0.152364800   1.28087   0.51101   0.83316  -0.57060
  56   39739.0    251.6   0.037318800   0.30916   0.30124   0.45395   0.11111
  57   39833.2    251.0   0.076918640   0.63571  -0.64664  -0.35113  -0.30706
  58   40104.8    249.3   0.039322358   0.32279  -0.54106   0.11211   0.13218

FINAL SINGLE POINT ENERGY     -4033.938233609501

DIPOLE MOMENT
-------------
                                X             Y             Z
Electronic contribution:      7.55436      -4.89387      13.72152
Nuclear contribution   :     -8.74920       3.46903     -12.49091
                        -----------------------------------------
Total Dipole Moment    :     -1.19484      -1.42485       1.23061
                        -----------------------------------------
Magnitude (a.u.)       :      2.22985
Magnitude (Debye)      :      5.66784

Rotational constants in cm-1:     0.002592     0.000258     0.000244
Rotational constants in MHz :    77.716807     7.739935     7.318434

                             ****ORCA TERMINATED NORMALLY****
TOTAL RUN TIME: 0 days 0 hours 13 minutes 32 seconds 676 msec
