                         Program Version 4.2.0 -  RELEASE  -
|  1> # ORCA input file
|  2> # SCF done       -206.489697451176          0.000235930795
|  3> ! CAM-B3LYP def2-SVP def2/J RIJCOSX Grid4 TightSCF
|  4> %maxcore 5000
|  5> %tddft
|  6>     Mode sTDDFT
|  7>     Ethresh 5.0
|  8>     maxcore 5000
|  9> end
| 10>
| 11> %pal
| 12>   nprocs 6
| 13>   end
| 14> * xyz 0 1
| 15>    C       -8.73582        -0.67384        -4.41356
| 16>    C       -9.08720         0.41399        -5.19564
| 17>    C       -8.89084         1.69531        -4.67726
| 18>    C       -9.24282         2.82368        -5.45979
| 19>    N       -9.53052         3.72964        -6.09733
| 20>    C       -8.34869         1.88874        -3.39186
| 21>    C       -8.16685         3.20115        -2.89216
| 22>    N       -8.01425         4.25441        -2.47003
| 23>    C       -7.98870         0.78968        -2.61047
| 24>    C       -8.18877        -0.47126        -3.13150
| 25>    C       -7.87180        -1.77600        -2.50891
| 26>    O       -7.33187        -1.95385        -1.44134
| 27>    C       -8.24767        -2.79412        -3.52191
| 28>    C       -8.82941        -2.11011        -4.66217
| 29>    C       -9.45673        -2.70776        -5.72127
| 30>    C      -10.03653        -2.00159        -6.79754
| 31>    N      -10.51720        -1.47015        -7.69307
| 32>    C       -9.66072        -4.10152        -5.83355
| 33>    N       -9.90084        -5.21704        -5.95127
| 34>    C       -7.86653        -4.10365        -3.48792
| 35>    C       -7.39271        -4.86655        -2.38956
| 36>    C       -6.39954        -5.84604        -2.49006
| 37>    C       -6.19033        -6.40154        -1.21674
| 38>    C       -7.14021        -5.80612        -0.30551
| 39>    O       -7.39449        -6.03347         0.85902
| 40>    N       -7.83096        -4.86157        -1.09189
| 41>    C       -8.94413        -4.13896        -0.54221
| 42>    C       -5.21670        -7.40678        -1.31933
| 43>    N       -4.80578        -7.44988        -2.62038
| 44>    C       -5.47975        -6.48128        -3.41202
| 45>    O       -5.25670        -6.30371        -4.58499
| 46>    C       -3.74274        -8.22679        -3.20162
| 47>    C       -4.80770        -8.19873        -0.21721
| 48>    C       -4.18992        -9.46287        -0.14454
| 49>    C       -4.03877        -9.93042         1.20902
| 50>    N       -3.45486       -11.09967         1.46125
| 51>    C       -3.06118       -11.82328         0.43392
| 52>    C       -2.41860       -13.13005         0.73497
| 53>    O       -2.25856       -13.52900         1.86727
| 54>    C       -2.00529       -13.90494        -0.44957
| 55>    C       -2.19572       -13.49464        -1.70783
| 56>    C       -2.83120       -12.21227        -2.06205
| 57>    O       -2.98848       -11.85289        -3.20810
| 58>    C       -3.25604       -11.38414        -0.90271
| 59>    N       -3.81050       -10.22011        -1.17124
| 60>    C       -4.52620        -9.01194         2.16018
| 61>    S       -5.16799        -7.60888         1.37096
| 62>    C       -4.53153        -9.02664         3.57767
| 63>    C       -4.69245        -7.86600         4.34799
| 64>    C       -4.62259        -8.21058         5.70941
| 65>    C       -4.44121        -9.64916         5.79324
| 66>    O       -4.36947       -10.40241         6.73182
| 67>    N       -4.39286       -10.07534         4.43926
| 68>    C       -4.30384       -11.48056         4.14200
| 69>    C       -4.62642        -7.03819         6.46440
| 70>    N       -4.73715        -5.98540         5.58250
| 71>    C       -4.79421        -6.43208         4.24617
| 72>    O       -4.92044        -5.69128         3.29393
| 73>    C       -5.00989        -4.60706         5.88962
| 74>    C       -4.54248        -6.96745         7.87557
| 75>    C       -4.00266        -6.00450         8.67470
| 76>    C       -4.37973        -5.93830        10.11597
| 77>    O       -5.01294        -6.75175        10.74073
| 78>    C       -3.86497        -4.62997        10.58559
| 79>    C       -4.04616        -4.02620        11.81168
| 80>    C       -3.48539        -2.76327        12.01235
| 81>    C       -2.76286        -2.13654        10.97903
| 82>    C       -2.57521        -2.76189         9.74443
| 83>    C       -3.12674        -4.01661         9.55336
| 84>    C       -3.08370        -4.92264         8.40463
| 85>    C       -2.16037        -4.88041         7.39307
| 86>    C       -1.97889        -5.91961         6.45488
| 87>    N       -1.75932        -6.75770         5.70305
| 88>    C       -1.22260        -3.83777         7.23196
| 89>    N       -0.45995        -2.99976         7.05433
| 90>    C       -2.22016        -0.84470        11.19340
| 91>    N       -1.78371         0.20099        11.35488
| 92>    C       -3.64988        -2.10669        13.25641
| 93>    N       -3.79545        -1.58979        14.26749
| 94>    H       -9.49834         0.30337        -6.18649
| 95>    H       -7.56622         0.92219        -1.62598
| 96>    H       -7.82583        -4.64815        -4.42543
| 97>    H       -9.33690        -4.72663         0.28815
| 98>    H       -9.71438        -3.99686        -1.29977
| 99>    H       -8.62230        -3.16784        -0.16079
|100>    H       -4.00298        -9.28247        -3.26038
|101>    H       -2.82873        -8.12184        -2.61787
|102>    H       -3.58370        -7.83589        -4.20664
|103>    H       -1.53214       -14.85306        -0.23274
|104>    H       -1.88192       -14.09697        -2.54959
|105>    H       -5.10534       -11.78029         3.46779
|106>    H       -4.40518       -12.00777         5.09068
|107>    H       -3.34844       -11.73592         3.68666
|108>    H       -5.51814        -4.52295         6.84948
|109>    H       -5.64937        -4.21497         5.09704
|110>    H       -4.09504        -4.00915         5.90508
|111>    H       -4.99640        -7.80502         8.39803
|112>    H       -4.60639        -4.51599        12.59354
|113>    H       -2.01950        -2.25222         8.97303
|114> *
|115>
|116>                          ****END OF INPUT****

CARTESIAN COORDINATES (ANGSTROEM)
---------------------------------
  C     -8.735820   -0.673840   -4.413560
  C     -9.087200    0.413990   -5.195640
  C     -8.890840    1.695310   -4.677260
  C     -9.242820    2.823680   -5.459790
  N     -9.530520    3.729640   -6.097330
  C     -8.348690    1.888740   -3.391860
  C     -8.166850    3.201150   -2.892160
  N     -8.014250    4.254410   -2.470030
  C     -7.988700    0.789680   -2.610470
  C     -8.188770   -0.471260   -3.131500
  C     -7.871800   -1.776000   -2.508910
  O     -7.331870   -1.953850   -1.441340
  C     -8.247670   -2.794120   -3.521910
  C     -8.829410   -2.110110   -4.662170
  C     -9.456730   -2.707760   -5.721270
  C    -10.036530   -2.001590   -6.797540
  N    -10.517200   -1.470150   -7.693070
  C     -9.660720   -4.101520   -5.833550
  N     -9.900840   -5.217040   -5.951270
  C     -7.866530   -4.103650   -3.487920
  C     -7.392710   -4.866550   -2.389560
  C     -6.399540   -5.846040   -2.490060
  C     -6.190330   -6.401540   -1.216740
  C     -7.140210   -5.806120   -0.305510
  O     -7.394490   -6.033470    0.859020
  N     -7.830960   -4.861570   -1.091890
  C     -8.944130   -4.138960   -0.542210
  C     -5.216700   -7.406780   -1.319330
  N     -4.805780   -7.449880   -2.620380
  C     -5.479750   -6.481280   -3.412020
  O     -5.256700   -6.303710   -4.584990
  C     -3.742740   -8.226790   -3.201620
  C     -4.807700   -8.198730   -0.217210
  C     -4.189920   -9.462870   -0.144540
  C     -4.038770   -9.930420    1.209020
  N     -3.454860  -11.099670    1.461250
  C     -3.061180  -11.823280    0.433920
  C     -2.418600  -13.130050    0.734970
  O     -2.258560  -13.529000    1.867270
  C     -2.005290  -13.904940   -0.449570
  C     -2.195720  -13.494640   -1.707830
  C     -2.831200  -12.212270   -2.062050
  O     -2.988480  -11.852890   -3.208100
  C     -3.256040  -11.384140   -0.902710
  N     -3.810500  -10.220110   -1.171240
  C     -4.526200   -9.011940    2.160180
  S     -5.167990   -7.608880    1.370960
  C     -4.531530   -9.026640    3.577670
  C     -4.692450   -7.866000    4.347990
  C     -4.622590   -8.210580    5.709410
  C     -4.441210   -9.649160    5.793240
  O     -4.369470  -10.402410    6.731820
  N     -4.392860  -10.075340    4.439260
  C     -4.303840  -11.480560    4.142000
  C     -4.626420   -7.038190    6.464400
  N     -4.737150   -5.985400    5.582500
  C     -4.794210   -6.432080    4.246170
  O     -4.920440   -5.691280    3.293930
  C     -5.009890   -4.607060    5.889620
  C     -4.542480   -6.967450    7.875570
  C     -4.002660   -6.004500    8.674700
  C     -4.379730   -5.938300   10.115970
  O     -5.012940   -6.751750   10.740730
  C     -3.864970   -4.629970   10.585590
  C     -4.046160   -4.026200   11.811680
  C     -3.485390   -2.763270   12.012350
  C     -2.762860   -2.136540   10.979030
  C     -2.575210   -2.761890    9.744430
  C     -3.126740   -4.016610    9.553360
  C     -3.083700   -4.922640    8.404630
  C     -2.160370   -4.880410    7.393070
  C     -1.978890   -5.919610    6.454880
  N     -1.759320   -6.757700    5.703050
  C     -1.222600   -3.837770    7.231960
  N     -0.459950   -2.999760    7.054330
  C     -2.220160   -0.844700   11.193400
  N     -1.783710    0.200990   11.354880
  C     -3.649880   -2.106690   13.256410
  N     -3.795450   -1.589790   14.267490
  H     -9.498340    0.303370   -6.186490
  H     -7.566220    0.922190   -1.625980
  H     -7.825830   -4.648150   -4.425430
  H     -9.336900   -4.726630    0.288150
  H     -9.714380   -3.996860   -1.299770
  H     -8.622300   -3.167840   -0.160790
  H     -4.002980   -9.282470   -3.260380
  H     -2.828730   -8.121840   -2.617870
  H     -3.583700   -7.835890   -4.206640
  H     -1.532140  -14.853060   -0.232740
  H     -1.881920  -14.096970   -2.549590
  H     -5.105340  -11.780290    3.467790
  H     -4.405180  -12.007770    5.090680
  H     -3.348440  -11.735920    3.686660
  H     -5.518140   -4.522950    6.849480
  H     -5.649370   -4.214970    5.097040
  H     -4.095040   -4.009150    5.905080
  H     -4.996400   -7.805020    8.398030
  H     -4.606390   -4.515990   12.593540
  H     -2.019500   -2.252220    8.973030

 Total Charge           Charge          ....    0
 Multiplicity           Mult            ....    1
 Number of Electrons    NEL             ....  534
 Basis Dimension        Dim             .... 1210

ORBITAL ENERGIES
----------------

  NO   OCC          E(Eh)            E(eV)
   0   2.0000     -89.022746     -2422.4321
   1   2.0000     -19.252698      -523.8925
   2   2.0000     -19.252505      -523.8873
   3   2.0000     -19.251339      -523.8556
   4   2.0000     -19.248963      -523.7909
   5   2.0000     -19.223290      -523.0923
   6   2.0000     -19.223145      -523.0884
   7   2.0000     -19.213892      -522.8366
   8   2.0000     -19.212419      -522.7965
   9   2.0000     -14.484565      -394.1450
  10   2.0000     -14.484072      -394.1316
  11   2.0000     -14.482525      -394.0895
  12   2.0000     -14.479028      -393.9944
  13   2.0000     -14.471750      -393.7963
  14   2.0000     -14.471555      -393.7910
  15   2.0000     -14.444390      -393.0518
  16   2.0000     -14.442007      -392.9870
  17   2.0000     -14.441191      -392.9648
  18   2.0000     -14.439760      -392.9258
  19   2.0000     -14.435771      -392.8173
  20   2.0000     -14.435514      -392.8103
  21   2.0000     -14.435089      -392.7987
  22   2.0000     -14.434027      -392.7698
  23   2.0000     -10.404880      -283.1312
  24   2.0000     -10.404749      -283.1276
  25   2.0000     -10.401999      -283.0528
  26   2.0000     -10.400462      -283.0109
  27   2.0000     -10.400301      -283.0066
  28   2.0000     -10.399520      -282.9853
  29   2.0000     -10.397471      -282.9296
  30   2.0000     -10.396452      -282.9018
  31   2.0000     -10.384969      -282.5894
  32   2.0000     -10.384720      -282.5826
  33   2.0000     -10.379086      -282.4293
  34   2.0000     -10.376217      -282.3512
  35   2.0000     -10.372852      -282.2597
  36   2.0000     -10.369854      -282.1781
  37   2.0000     -10.369314      -282.1634
  38   2.0000     -10.368611      -282.1442
  39   2.0000     -10.368355      -282.1373
  40   2.0000     -10.367961      -282.1266
  41   2.0000     -10.367698      -282.1194
  42   2.0000     -10.367535      -282.1150
  43   2.0000     -10.366501      -282.0868
  44   2.0000     -10.366450      -282.0855
  45   2.0000     -10.366146      -282.0772
  46   2.0000     -10.365812      -282.0681
  47   2.0000     -10.360821      -281.9323
  48   2.0000     -10.360110      -281.9129
  49   2.0000     -10.351382      -281.6754
  50   2.0000     -10.349346      -281.6200
  51   2.0000     -10.348502      -281.5970
  52   2.0000     -10.346420      -281.5404
  53   2.0000     -10.344828      -281.4971
  54   2.0000     -10.344138      -281.4783
  55   2.0000     -10.343799      -281.4691
  56   2.0000     -10.342768      -281.4410
  57   2.0000     -10.342745      -281.4404
  58   2.0000     -10.342102      -281.4229
  59   2.0000     -10.341799      -281.4147
  60   2.0000     -10.340466      -281.3784
  61   2.0000     -10.335978      -281.2563
  62   2.0000     -10.334698      -281.2214
  63   2.0000     -10.333213      -281.1810
  64   2.0000     -10.332450      -281.1603
  65   2.0000     -10.332048      -281.1493
  66   2.0000     -10.331523      -281.1350
  67   2.0000     -10.331384      -281.1313
  68   2.0000     -10.330811      -281.1157
  69   2.0000     -10.330113      -281.0967
  70   2.0000     -10.330029      -281.0944
  71   2.0000     -10.327833      -281.0346
  72   2.0000     -10.314075      -280.6602
  73   2.0000     -10.304904      -280.4107
  74   2.0000     -10.304621      -280.4030
  75   2.0000     -10.300188      -280.2824
  76   2.0000     -10.298762      -280.2436
  77   2.0000     -10.293058      -280.0883
  78   2.0000     -10.292461      -280.0721
  79   2.0000      -8.114962      -220.8194
  80   2.0000      -6.083650      -165.5445
  81   2.0000      -6.079172      -165.4227
  82   2.0000      -6.078556      -165.4059
  83   2.0000      -1.169792       -31.8316
  84   2.0000      -1.167343       -31.7650
  85   2.0000      -1.165270       -31.7086
  86   2.0000      -1.164840       -31.6969
  87   2.0000      -1.163124       -31.6502
  88   2.0000      -1.162257       -31.6266
  89   2.0000      -1.154028       -31.4027
  90   2.0000      -1.151664       -31.3384
  91   2.0000      -1.127259       -30.6743
  92   2.0000      -1.093339       -29.7513
  93   2.0000      -1.092661       -29.7328
  94   2.0000      -1.083577       -29.4856
  95   2.0000      -1.080917       -29.4132
  96   2.0000      -1.053607       -28.6701
  97   2.0000      -1.052215       -28.6322
  98   2.0000      -1.050885       -28.5960
  99   2.0000      -1.038167       -28.2500
 100   2.0000      -1.036406       -28.2020
 101   2.0000      -1.027069       -27.9480
 102   2.0000      -1.021344       -27.7922
 103   2.0000      -1.020512       -27.7695
 104   2.0000      -1.019673       -27.7467
 105   2.0000      -1.018162       -27.7056
 106   2.0000      -1.014856       -27.6156
 107   2.0000      -1.013715       -27.5846
 108   2.0000      -0.989642       -26.9295
 109   2.0000      -0.988420       -26.8963
 110   2.0000      -0.963411       -26.2157
 111   2.0000      -0.950154       -25.8550
 112   2.0000      -0.947565       -25.7846
 113   2.0000      -0.938122       -25.5276
 114   2.0000      -0.936461       -25.4824
 115   2.0000      -0.930562       -25.3219
 116   2.0000      -0.929130       -25.2829
 117   2.0000      -0.918203       -24.9856
 118   2.0000      -0.913963       -24.8702
 119   2.0000      -0.912542       -24.8315
 120   2.0000      -0.900604       -24.5067
 121   2.0000      -0.876304       -23.8454
 122   2.0000      -0.871051       -23.7025
 123   2.0000      -0.858094       -23.3499
 124   2.0000      -0.855884       -23.2898
 125   2.0000      -0.845046       -22.9949
 126   2.0000      -0.831039       -22.6137
 127   2.0000      -0.820450       -22.3256
 128   2.0000      -0.818973       -22.2854
 129   2.0000      -0.815878       -22.2012
 130   2.0000      -0.805972       -21.9316
 131   2.0000      -0.799692       -21.7607
 132   2.0000      -0.788176       -21.4473
 133   2.0000      -0.785129       -21.3645
 134   2.0000      -0.781663       -21.2701
 135   2.0000      -0.765198       -20.8221
 136   2.0000      -0.761259       -20.7149
 137   2.0000      -0.750216       -20.4144
 138   2.0000      -0.736331       -20.0366
 139   2.0000      -0.731348       -19.9010
 140   2.0000      -0.724245       -19.7077
 141   2.0000      -0.722481       -19.6597
 142   2.0000      -0.717328       -19.5195
 143   2.0000      -0.711835       -19.3700
 144   2.0000      -0.706688       -19.2300
 145   2.0000      -0.697997       -18.9935
 146   2.0000      -0.697210       -18.9721
 147   2.0000      -0.694470       -18.8975
 148   2.0000      -0.691692       -18.8219
 149   2.0000      -0.688889       -18.7456
 150   2.0000      -0.680755       -18.5243
 151   2.0000      -0.673640       -18.3307
 152   2.0000      -0.668745       -18.1975
 153   2.0000      -0.668206       -18.1828
 154   2.0000      -0.654118       -17.7994
 155   2.0000      -0.649735       -17.6802
 156   2.0000      -0.632294       -17.2056
 157   2.0000      -0.630166       -17.1477
 158   2.0000      -0.628419       -17.1002
 159   2.0000      -0.612979       -16.6800
 160   2.0000      -0.612512       -16.6673
 161   2.0000      -0.610592       -16.6151
 162   2.0000      -0.607927       -16.5425
 163   2.0000      -0.606924       -16.5152
 164   2.0000      -0.605298       -16.4710
 165   2.0000      -0.602475       -16.3942
 166   2.0000      -0.597352       -16.2548
 167   2.0000      -0.590970       -16.0811
 168   2.0000      -0.584609       -15.9080
 169   2.0000      -0.583139       -15.8680
 170   2.0000      -0.580966       -15.8089
 171   2.0000      -0.578813       -15.7503
 172   2.0000      -0.578439       -15.7401
 173   2.0000      -0.576845       -15.6967
 174   2.0000      -0.575618       -15.6634
 175   2.0000      -0.574696       -15.6383
 176   2.0000      -0.571817       -15.5599
 177   2.0000      -0.569757       -15.5039
 178   2.0000      -0.569197       -15.4886
 179   2.0000      -0.566044       -15.4028
 180   2.0000      -0.555928       -15.1276
 181   2.0000      -0.555473       -15.1152
 182   2.0000      -0.548834       -14.9345
 183   2.0000      -0.547332       -14.8937
 184   2.0000      -0.545041       -14.8313
 185   2.0000      -0.541873       -14.7451
 186   2.0000      -0.540788       -14.7156
 187   2.0000      -0.538852       -14.6629
 188   2.0000      -0.538242       -14.6463
 189   2.0000      -0.535358       -14.5678
 190   2.0000      -0.534011       -14.5312
 191   2.0000      -0.533411       -14.5148
 192   2.0000      -0.531786       -14.4706
 193   2.0000      -0.528809       -14.3896
 194   2.0000      -0.527326       -14.3493
 195   2.0000      -0.523825       -14.2540
 196   2.0000      -0.522906       -14.2290
 197   2.0000      -0.522156       -14.2086
 198   2.0000      -0.519922       -14.1478
 199   2.0000      -0.517414       -14.0795
 200   2.0000      -0.515247       -14.0206
 201   2.0000      -0.509767       -13.8715
 202   2.0000      -0.505850       -13.7649
 203   2.0000      -0.503634       -13.7046
 204   2.0000      -0.502041       -13.6612
 205   2.0000      -0.499968       -13.6048
 206   2.0000      -0.497561       -13.5393
 207   2.0000      -0.493213       -13.4210
 208   2.0000      -0.490858       -13.3569
 209   2.0000      -0.489100       -13.3091
 210   2.0000      -0.486196       -13.2301
 211   2.0000      -0.484093       -13.1728
 212   2.0000      -0.480843       -13.0844
 213   2.0000      -0.477517       -12.9939
 214   2.0000      -0.474903       -12.9228
 215   2.0000      -0.471116       -12.8197
 216   2.0000      -0.470400       -12.8002
 217   2.0000      -0.469378       -12.7724
 218   2.0000      -0.468457       -12.7474
 219   2.0000      -0.467543       -12.7225
 220   2.0000      -0.465848       -12.6764
 221   2.0000      -0.464821       -12.6484
 222   2.0000      -0.462804       -12.5935
 223   2.0000      -0.461304       -12.5527
 224   2.0000      -0.460517       -12.5313
 225   2.0000      -0.460121       -12.5205
 226   2.0000      -0.459028       -12.4908
 227   2.0000      -0.458889       -12.4870
 228   2.0000      -0.457728       -12.4554
 229   2.0000      -0.453465       -12.3394
 230   2.0000      -0.453375       -12.3370
 231   2.0000      -0.449988       -12.2448
 232   2.0000      -0.449737       -12.2380
 233   2.0000      -0.444566       -12.0973
 234   2.0000      -0.441932       -12.0256
 235   2.0000      -0.441568       -12.0157
 236   2.0000      -0.441235       -12.0066
 237   2.0000      -0.435426       -11.8485
 238   2.0000      -0.435044       -11.8381
 239   2.0000      -0.434222       -11.8158
 240   2.0000      -0.432423       -11.7668
 241   2.0000      -0.428658       -11.6644
 242   2.0000      -0.421614       -11.4727
 243   2.0000      -0.418178       -11.3792
 244   2.0000      -0.412677       -11.2295
 245   2.0000      -0.395410       -10.7597
 246   2.0000      -0.389773       -10.6063
 247   2.0000      -0.383914       -10.4468
 248   2.0000      -0.382235       -10.4011
 249   2.0000      -0.380527       -10.3547
 250   2.0000      -0.375776       -10.2254
 251   2.0000      -0.374370       -10.1871
 252   2.0000      -0.372331       -10.1316
 253   2.0000      -0.371604       -10.1119
 254   2.0000      -0.368443       -10.0258
 255   2.0000      -0.367283        -9.9943
 256   2.0000      -0.365744        -9.9524
 257   2.0000      -0.359100        -9.7716
 258   2.0000      -0.354517        -9.6469
 259   2.0000      -0.351949        -9.5770
 260   2.0000      -0.347696        -9.4613
 261   2.0000      -0.342255        -9.3132
 262   2.0000      -0.341769        -9.3000
 263   2.0000      -0.340568        -9.2673
 264   2.0000      -0.339482        -9.2378
 265   2.0000      -0.279392        -7.6026
 266   2.0000      -0.260942        -7.1006
 267   0.0000      -0.149241        -4.0611
 268   0.0000      -0.128306        -3.4914
 269   0.0000      -0.113715        -3.0944
 270   0.0000      -0.111648        -3.0381
 271   0.0000      -0.103677        -2.8212

MULLIKEN ATOMIC CHARGES
-----------------------
   0 C :    0.055905
   1 C :   -0.036390
   2 C :   -0.060380
   3 C :   -0.172567
   4 N :    0.205670
   5 C :   -0.069994
   6 C :   -0.171412
   7 N :    0.202516
   8 C :   -0.024645
   9 C :   -0.014257
  10 C :    0.143950
  11 O :   -0.129522
  12 C :   -0.080817
  13 C :    0.282715
  14 C :   -0.306380
  15 C :   -0.186093
  16 N :    0.177258
  17 C :   -0.205899
  18 N :    0.184410
  19 C :   -0.065177
  20 C :    0.105714
  21 C :   -0.022471
  22 C :   -0.129691
  23 C :    0.168008
  24 O :   -0.191687
  25 N :   -0.245311
  26 C :    0.121347
  27 C :    0.202246
  28 N :   -0.272697
  29 C :    0.156919
  30 O :   -0.152550
  31 C :    0.135537
  32 C :   -0.260978
  33 C :    0.071025
  34 C :    0.059825
  35 N :    0.050207
  36 C :   -0.109038
  37 C :    0.148042
  38 O :   -0.099166
  39 C :   -0.010021
  40 C :   -0.013636
  41 C :    0.151765
  42 O :   -0.099878
  43 C :   -0.110102
  44 N :    0.050662
  45 C :   -0.258316
  46 S :    0.379904
  47 C :    0.213982
  48 C :   -0.118701
  49 C :    0.020352
  50 C :    0.157156
  51 O :   -0.145044
  52 N :   -0.274601
  53 C :    0.139776
  54 C :    0.038780
  55 N :   -0.268409
  56 C :    0.164163
  57 O :   -0.188518
  58 C :    0.130286
  59 C :    0.010039
  60 C :   -0.134871
  61 C :    0.145252
  62 O :   -0.110660
  63 C :    0.010793
  64 C :   -0.034799
  65 C :   -0.066936
  66 C :   -0.063705
  67 C :   -0.042413
  68 C :    0.040361
  69 C :    0.262945
  70 C :   -0.331990
  71 C :   -0.181123
  72 N :    0.182431
  73 C :   -0.182954
  74 N :    0.183563
  75 C :   -0.171625
  76 N :    0.209018
  77 C :   -0.173256
  78 N :    0.201851
  79 H :    0.022158
  80 H :    0.018192
  81 H :    0.063784
  82 H :    0.051847
  83 H :    0.029849
  84 H :    0.061272
  85 H :    0.067084
  86 H :    0.019209
  87 H :    0.053662
  88 H :    0.025730
  89 H :    0.026159
  90 H :    0.017512
  91 H :    0.053633
  92 H :    0.066421
  93 H :    0.037487
  94 H :    0.062351
  95 H :    0.047844
  96 H :    0.053905
  97 H :    0.021728
  98 H :    0.024478
Sum of atomic charges:   -0.0000000

LOEWDIN ATOMIC CHARGES
----------------------
   0 C :    0.003473
   1 C :    0.034901
   2 C :   -0.020857
   3 C :   -0.031948
   4 N :   -0.006705
   5 C :   -0.027106
   6 C :   -0.032659
   7 N :   -0.009734
   8 C :    0.050354
   9 C :   -0.031140
  10 C :    0.083471
  11 O :   -0.118912
  12 C :   -0.083163
  13 C :    0.061489
  14 C :   -0.110612
  15 C :   -0.021982
  16 N :   -0.026234
  17 C :   -0.026480
  18 N :   -0.024754
  19 C :    0.064046
  20 C :    0.054946
  21 C :   -0.082935
  22 C :   -0.127690
  23 C :    0.071271
  24 O :   -0.191496
  25 N :    0.013057
  26 C :    0.026769
  27 C :    0.075499
  28 N :    0.003295
  29 C :    0.089341
  30 O :   -0.154041
  31 C :    0.025691
  32 C :   -0.193994
  33 C :   -0.030108
  34 C :   -0.030048
  35 N :    0.012518
  36 C :   -0.036551
  37 C :    0.060465
  38 O :   -0.092464
  39 C :   -0.008214
  40 C :   -0.008636
  41 C :    0.060575
  42 O :   -0.092829
  43 C :   -0.036197
  44 N :    0.011208
  45 C :   -0.190977
  46 S :    0.696660
  47 C :    0.078686
  48 C :   -0.123931
  49 C :   -0.072728
  50 C :    0.092971
  51 O :   -0.148576
  52 N :    0.003855
  53 C :    0.026442
  54 C :    0.042756
  55 N :    0.000039
  56 C :    0.070530
  57 O :   -0.190387
  58 C :    0.030384
  59 C :    0.063044
  60 C :   -0.083363
  61 C :    0.082657
  62 O :   -0.113533
  63 C :   -0.032255
  64 C :    0.051291
  65 C :   -0.027125
  66 C :   -0.020782
  67 C :    0.031478
  68 C :    0.003279
  69 C :    0.056048
  70 C :   -0.115152
  71 C :   -0.019759
  72 N :   -0.027846
  73 C :   -0.024676
  74 N :   -0.025388
  75 C :   -0.032221
  76 N :   -0.006341
  77 C :   -0.032754
  78 N :   -0.009200
  79 H :    0.053138
  80 H :    0.054937
  81 H :    0.062795
  82 H :    0.037968
  83 H :    0.027662
  84 H :    0.029770
  85 H :    0.029296
  86 H :    0.024763
  87 H :    0.037450
  88 H :    0.049288
  89 H :    0.049393
  90 H :    0.024154
  91 H :    0.037255
  92 H :    0.029990
  93 H :    0.030357
  94 H :    0.043610
  95 H :    0.026331
  96 H :    0.064823
  97 H :    0.056143
  98 H :    0.052876

  Mayer bond orders larger than 0.100000
B(  0-C ,  1-C ) :   1.3595 B(  0-C ,  9-C ) :   1.3297 B(  0-C , 13-C ) :   0.9669
B(  1-C ,  2-C ) :   1.3923 B(  1-C , 79-H ) :   0.9864 B(  2-C ,  3-C ) :   1.0869
B(  2-C ,  5-C ) :   1.4014 B(  3-C ,  4-N ) :   3.0427 B(  5-C ,  6-C ) :   1.0845
B(  5-C ,  8-C ) :   1.3653 B(  6-C ,  7-N ) :   3.0448 B(  8-C ,  9-C ) :   1.3691
B(  8-C , 80-H ) :   1.0137 B(  9-C , 10-C ) :   0.9279 B( 10-C , 11-O ) :   2.2119
B( 10-C , 12-C ) :   0.9478 B( 12-C , 13-C ) :   1.0538 B( 12-C , 19-C ) :   1.5736
B( 13-C , 14-C ) :   1.6786 B( 14-C , 15-C ) :   1.1413 B( 14-C , 17-C ) :   1.1373
B( 15-C , 16-N ) :   2.9682 B( 17-C , 18-N ) :   3.0015 B( 19-C , 20-C ) :   1.1730
B( 19-C , 81-H ) :   0.9330 B( 20-C , 21-C ) :   1.3361 B( 20-C , 25-N ) :   1.1971
B( 21-C , 22-C ) :   1.2855 B( 21-C , 29-C ) :   0.9563 B( 22-C , 23-C ) :   0.9811
B( 22-C , 27-C ) :   1.2860 B( 23-C , 24-O ) :   2.1031 B( 23-C , 25-N ) :   1.0512
B( 25-N , 26-C ) :   0.9552 B( 26-C , 82-H ) :   0.9540 B( 26-C , 83-H ) :   0.9702
B( 26-C , 84-H ) :   0.9603 B( 27-C , 28-N ) :   1.2621 B( 27-C , 32-C ) :   1.1791
B( 28-N , 29-C ) :   1.0050 B( 28-N , 31-C ) :   0.9380 B( 29-C , 30-O ) :   2.1752
B( 31-C , 85-H ) :   0.9568 B( 31-C , 86-H ) :   0.9737 B( 31-C , 87-H ) :   0.9456
B( 32-C , 33-C ) :   1.2328 B( 32-C , 45-C ) :   0.1651 B( 32-C , 46-S ) :   1.2387
B( 33-C , 34-C ) :   1.2127 B( 33-C , 44-N ) :   1.4783 B( 34-C , 35-N ) :   1.4795
B( 34-C , 45-C ) :   1.2346 B( 35-N , 36-C ) :   1.6690 B( 36-C , 37-C ) :   0.8895
B( 36-C , 43-C ) :   1.1225 B( 37-C , 38-O ) :   2.2173 B( 37-C , 39-C ) :   1.0316
B( 39-C , 40-C ) :   1.6886 B( 39-C , 88-H ) :   0.9985 B( 40-C , 41-C ) :   1.0302
B( 40-C , 89-H ) :   0.9996 B( 41-C , 42-O ) :   2.2147 B( 41-C , 43-C ) :   0.8883
B( 43-C , 44-N ) :   1.6701 B( 45-C , 46-S ) :   1.2426 B( 45-C , 47-C ) :   1.1811
B( 47-C , 48-C ) :   1.2816 B( 47-C , 52-N ) :   1.2610 B( 48-C , 49-C ) :   1.2834
B( 48-C , 56-C ) :   0.9873 B( 49-C , 50-C ) :   0.9471 B( 49-C , 54-C ) :   1.3730
B( 50-C , 51-O ) :   2.1912 B( 50-C , 52-N ) :   1.0053 B( 52-N , 53-C ) :   0.9381
B( 53-C , 90-H ) :   0.9732 B( 53-C , 91-H ) :   0.9457 B( 53-C , 92-H ) :   0.9587
B( 54-C , 55-N ) :   1.1715 B( 54-C , 59-C ) :   1.1209 B( 55-N , 56-C ) :   1.0440
B( 55-N , 58-C ) :   0.9630 B( 56-C , 57-O ) :   2.1055 B( 58-C , 93-H ) :   0.9669
B( 58-C , 94-H ) :   0.9551 B( 58-C , 95-H ) :   0.9639 B( 59-C , 60-C ) :   1.6047
B( 59-C , 96-H ) :   0.9397 B( 60-C , 61-C ) :   0.9339 B( 60-C , 69-C ) :   1.0555
B( 61-C , 62-O ) :   2.2988 B( 61-C , 63-C ) :   0.8972 B( 63-C , 64-C ) :   1.3693
B( 63-C , 68-C ) :   1.3327 B( 64-C , 65-C ) :   1.3648 B( 64-C , 97-H ) :   1.0146
B( 65-C , 66-C ) :   1.4040 B( 65-C , 77-C ) :   1.0871 B( 66-C , 67-C ) :   1.3857
B( 66-C , 75-C ) :   1.0866 B( 67-C , 68-C ) :   1.3638 B( 67-C , 98-H ) :   0.9906
B( 68-C , 69-C ) :   0.9738 B( 69-C , 70-C ) :   1.6661 B( 70-C , 71-C ) :   1.1653
B( 70-C , 73-C ) :   1.1321 B( 71-C , 72-N ) :   2.9896 B( 73-C , 74-N ) :   2.9852
B( 75-C , 76-N ) :   3.0447 B( 77-C , 78-N ) :   3.0446

-----------------------------------------------------------------------------
         ABSORPTION SPECTRUM VIA TRANSITION ELECTRIC DIPOLE MOMENTS
-----------------------------------------------------------------------------
State   Energy  Wavelength   fosc         T2         TX        TY        TZ
        (cm-1)    (nm)                  (au**2)     (au)      (au)      (au)
-----------------------------------------------------------------------------
   0    8552.4   1169.3   0.464343725  17.87412  -1.88933   0.66430  -3.72334
   1   12447.4    803.4   0.421196167  11.13993   0.93717  -3.11849  -0.73256
   2   14397.9    694.5   0.126155975   2.88460  -0.24111   1.67565   0.13656
   3   16383.5    610.4   0.105021698   2.11032  -1.14847   0.87218  -0.17501
   4   18395.0    543.6   0.110386724   1.97557  -0.25745   0.87361   1.07056
   5   18997.6    526.4   0.018844921   0.32657   0.03557  -0.07505  -0.56539
   6   19669.5    508.4   0.038909029   0.65123  -0.05889  -0.35838   0.72064
   7   20059.3    498.5   0.029885354   0.49048  -0.13663  -0.39266  -0.56358
   8   21954.7    455.5   0.000211973   0.00318   0.00493   0.00501   0.05594
   9   22359.0    447.2   0.000814537   0.01199  -0.10070   0.04097   0.01320
  10   22495.7    444.5   0.001957561   0.02865  -0.08656   0.02175   0.14381
  11   23161.5    431.8   0.008124705   0.11548  -0.25716  -0.09655   0.20007
  12   23470.1    426.1   0.000405821   0.00569  -0.05228  -0.01464   0.05239
  13   23703.2    421.9   0.029587737   0.41094  -0.00163   0.56272   0.30705
  14   24366.0    410.4   0.058030497   0.78406   0.29119  -0.16287   0.82021
  15   25497.3    392.2   0.003722310   0.04806  -0.09370   0.19772   0.01368
  16   26023.2    384.3   0.031373428   0.39690  -0.27773   0.00317  -0.56547
  17   26190.1    381.8   0.214901735   2.70134  -0.10688   0.60235  -1.52548
  18   26381.7    379.1   0.001798982   0.02245  -0.01680  -0.03751  -0.14408
  19   26565.0    376.4   0.046661987   0.57827  -0.02649   0.24496  -0.71942
  20   26768.3    373.6   0.023434304   0.28821  -0.47798  -0.15119   0.19205
  21   26877.0    372.1   0.000382372   0.00468  -0.00852   0.03105  -0.06039
  22   27176.3    368.0   0.050658972   0.61368   0.26382  -0.51394   0.52910
  23   27472.0    364.0   0.000105331   0.00126   0.01766   0.00045   0.03082
  24   27576.5    362.6   0.000955139   0.01140   0.03044  -0.09562  -0.03651
  25   28555.4    350.2   0.068293100   0.78734  -0.68342   0.53630   0.18075
  26   28825.6    346.9   0.063363778   0.72367  -0.02885   0.58572   0.61625
  27   29495.8    339.0   0.039522260   0.44112   0.42640  -0.27555  -0.42822
  28   29947.9    333.9   0.047919972   0.52678   0.39876  -0.59251  -0.12921
  29   30042.2    332.9   0.044085503   0.48310   0.27150  -0.44854  -0.45629
  30   30583.8    327.0   0.012596341   0.13559   0.08597   0.34696  -0.08841
  31   30961.6    323.0   0.039551853   0.42055   0.29173   0.53090  -0.23150
  32   31042.8    322.1   0.060753641   0.64430   0.61866  -0.49371  -0.13344
  33   31207.5    320.4   0.062459784   0.65890  -0.18127  -0.34040  -0.71426
  34   31557.0    316.9   0.038870611   0.40551  -0.05186   0.46391   0.43313
  35   31778.4    314.7   0.065635033   0.67995  -0.15163   0.29779   0.75385
  36   32049.7    312.0   0.168058418   1.72628  -0.57891   0.87197  -0.79423
  37   32711.5    305.7   0.029222880   0.29410   0.17196  -0.37445   0.35258
  38   32967.3    303.3   0.152073174   1.51861   0.30632   0.41443   1.11938
  39   33225.2    301.0   0.038007237   0.37659   0.29788   0.44644  -0.29758
  40   33453.0    298.9   0.031287479   0.30790   0.00470  -0.31947   0.45367
  41   33459.7    298.9   0.012929437   0.12721   0.08177   0.12842   0.32254
  42   33639.0    297.3   0.022912492   0.22424  -0.03042  -0.46031   0.10691
  43   33894.4    295.0   0.182614697   1.77371   0.45436  -1.11979  -0.55976
  44   34088.6    293.4   0.058194764   0.56202  -0.00989   0.74878  -0.03540
  45   34220.9    292.2   0.568592829   5.46998  -0.57920  -2.09218  -0.87024
  46   34455.7    290.2   0.042730027   0.40827  -0.39157  -0.45123  -0.22659
  47   34644.3    288.6   0.047168463   0.44822   0.42983  -0.17303  -0.48325
  48   34827.9    287.1   0.336276844   3.17867  -0.51457  -0.21869   1.69294
  49   34891.6    286.6   0.112784505   1.06415   0.32670  -0.71124  -0.67198
  50   35108.6    284.8   0.333492656   3.12715  -0.26890   1.07976   1.37440
  51   35278.5    283.5   0.033354038   0.31125   0.19184   0.48695   0.19321
  52   35411.5    282.4   0.000250119   0.00233   0.01925  -0.04230   0.01284
  53   35422.4    282.3   0.011148778   0.10362  -0.10070  -0.30297  -0.04105
  54   35757.8    279.7   0.143015138   1.31670   0.66081  -0.69147   0.63395
  55   35878.0    278.7   0.062983780   0.57793  -0.17496   0.27992   0.68481
  56   35941.2    278.2   0.042461359   0.38893   0.08396   0.45025   0.42328
  57   36069.8    277.2   0.028507382   0.26019   0.18155  -0.47169   0.06879
  58   36124.8    276.8   0.079599801   0.72541   0.08222   0.29812  -0.79358
  59   36526.4    273.8   0.000653675   0.00589  -0.00972  -0.05387  -0.05381
  60   36651.9    272.8   0.077783065   0.69866  -0.36725   0.61238   0.43449
  61   36834.9    271.5   0.014164801   0.12660   0.21726  -0.27577  -0.05783
  62   37190.6    268.9   0.015234813   0.13486   0.21967  -0.28462  -0.07483
  63   37260.0    268.4   0.046817141   0.41365  -0.47595   0.42669   0.07115
  64   37621.5    265.8   0.098480887   0.86177  -0.19540   0.06152  -0.90543
  65   37721.6    265.1   0.024508894   0.21390   0.18173  -0.12110   0.40769
  66   37945.0    263.5   0.006392409   0.05546   0.11940   0.19823  -0.04368
  67   38101.0    262.5   0.099453804   0.85933  -0.47531   0.43154   0.66872
  68   38199.5    261.8   0.028742859   0.24771  -0.19916  -0.45286   0.05445
  69   38216.1    261.7   0.107634223   0.92721   0.38838  -0.37085  -0.79928
  70   38420.1    260.3   0.024840638   0.21285   0.35306  -0.10853  -0.27645
  71   38634.6    258.8   0.172965424   1.47387  -0.38267  -0.75276  -0.87223
  72   38772.7    257.9   0.019489202   0.16548  -0.25654   0.17118  -0.26526
  73   38897.3    257.1   0.012579221   0.10647  -0.09380   0.09422   0.29798
  74   39008.2    256.4   0.028265387   0.23855  -0.12685   0.19401  -0.42991
  75   39072.1    255.9   0.110485475   0.93092   0.15876   0.57233   0.76036
  76   39351.2    254.1   0.015507845   0.12974   0.25485  -0.18064  -0.17932
  77   39521.1    253.0   0.037021050   0.30839  -0.17224   0.44574  -0.28290
  78   39719.6    251.8   0.023390367   0.19387  -0.36423   0.04416  -0.24342
  79   39855.6    250.9   0.021056523   0.17393  -0.10013  -0.09366  -0.39387
  80   40033.9    249.8   0.004009029   0.03297   0.06018  -0.16986   0.02220
  81   40270.3    248.3   0.040128214   0.32805   0.08590  -0.49826   0.26909

FINAL SINGLE POINT ENERGY     -3907.865336965142

DIPOLE MOMENT
-------------
                                X             Y             Z
Electronic contribution:      0.48402      16.26537       2.00338
Nuclear contribution   :     -0.45937     -20.75113      -2.11967
                        -----------------------------------------
Total Dipole Moment    :      0.02466      -4.48576      -0.11629
                        -----------------------------------------
Magnitude (a.u.)       :      4.48733
Magnitude (Debye)      :     11.40589

Rotational constants in cm-1:     0.000792     0.000427     0.000293
Rotational constants in MHz :    23.732851    12.789189     8.782502

                             ****ORCA TERMINATED NORMALLY****
TOTAL RUN TIME: 0 days 0 hours 10 minutes 41 seconds 252 msec
