                         Program Version 4.2.0 -  RELEASE  -
|  1> # ORCA input file
|  2> # SCF done       -181.957348427592          0.000686777539
|  3> ! CAM-B3LYP def2-SVP def2/J RIJCOSX Grid4 TightSCF
|  4> %maxcore 5000
|  5> %tddft
|  6>     Mode sTDDFT
|  7>     Ethresh 5.0
|  8>     maxcore 5000
|  9> end
| 10>
| 11> %pal
| 12>   nprocs 6
| 13>   end
| 14> * xyz 0 1
| 15>    C        5.59666        -1.64101        -8.59180
| 16>    C        6.30269        -1.82611        -9.74951
| 17>    C        7.67558        -1.54255        -9.79404
| 18>    C        8.32283        -1.07916        -8.68109
| 19>    C        7.62620        -0.87580        -7.47274
| 20>    C        8.28778        -0.38751        -6.32202
| 21>    C        7.57818        -0.20194        -5.16703
| 22>    C        6.18518        -0.50468        -5.12489
| 23>    C        5.52068        -0.96929        -6.22204
| 24>    C        6.23195        -1.16496        -7.42824
| 25>    C        5.66811        -0.24484        -3.76562
| 26>    O        4.52803        -0.34706        -3.37161
| 27>    C        6.86639         0.10522        -2.96053
| 28>    C        7.97260         0.32197        -3.86475
| 29>    C        9.07118         1.10694        -3.61700
| 30>    C        9.21196         1.87451        -2.44229
| 31>    N        9.31424         2.56618        -1.53129
| 32>    C       10.14544         1.26186        -4.50841
| 33>    N       11.07856         1.37704        -5.16977
| 34>    C        6.82035         0.04490        -1.59828
| 35>    C        7.89555        -0.10925        -0.70037
| 36>    C        7.87988         0.17423         0.66527
| 37>    C        9.08454        -0.15813         1.31387
| 38>    S        9.50315         0.18653         2.97945
| 39>    C        7.87940         0.61532         3.69383
| 40>    C        7.15952         1.65591         2.87020
| 41>    S        6.45872         0.92301         1.35801
| 42>    C       10.02815        -0.69663         0.44045
| 43>    S        9.44277        -0.74257        -1.18644
| 44>    C       11.36105        -1.14363         0.68183
| 45>    C       12.32842        -1.04347        -0.34918
| 46>    C       13.69993        -1.39353        -0.14421
| 47>    N       14.57506        -1.22691        -1.14662
| 48>    C       14.16401        -0.80282        -2.30620
| 49>    C       12.80416        -0.49318        -2.52136
| 50>    N       11.93488        -0.59984        -1.55695
| 51>    C       14.18017        -1.92424         1.08206
| 52>    C       13.18637        -2.15719         2.05408
| 53>    C       11.80554        -1.76561         1.86362
| 54>    N       11.03764        -2.17330         2.87634
| 55>    S       11.93909        -2.94889         3.94737
| 56>    N       13.34742        -2.82995         3.19327
| 57>    C       15.55429        -2.26456         1.21869
| 58>    C       16.31393        -2.45222         2.38269
| 59>    C       17.63275        -2.82518         2.09727
| 60>    S       18.94267        -3.15885         3.21075
| 61>    C       18.16557        -2.93428         4.84145
| 62>    C       17.25754        -1.72873         4.84251
| 63>    S       15.68801        -2.12258         3.98905
| 64>    C       17.89800        -2.91146         0.71538
| 65>    S       16.50018        -2.45974        -0.22308
| 66>    C       19.13742        -3.32293         0.21302
| 67>    C       19.60528        -3.34543        -1.07760
| 68>    C       20.92158        -3.79664        -1.48125
| 69>    C       21.83952        -4.47136        -0.71607
| 70>    C       23.10030        -4.89146        -1.18756
| 71>    N       24.14148        -5.25860        -1.50400
| 72>    C       21.66815        -4.87215         0.62530
| 73>    N       21.61788        -5.25284         1.70819
| 74>    C       21.09633        -3.44480        -2.88794
| 75>    C       19.89080        -2.84899        -3.35647
| 76>    C       19.75172        -2.41011        -4.64082
| 77>    C       20.83687        -2.54646        -5.53598
| 78>    C       20.75597        -2.10815        -6.87200
| 79>    C       21.82105        -2.24859        -7.72012
| 80>    C       23.01270        -2.83454        -7.26894
| 81>    C       23.12352        -3.27053        -5.97639
| 82>    C       22.04687        -3.14050        -5.07632
| 83>    C       22.15912        -3.58795        -3.73890
| 84>    C       18.91276        -2.80783        -2.25674
| 85>    O       17.76643        -2.40090        -2.32878
| 86>    H        4.53908        -1.85769        -8.55150
| 87>    H        5.80730        -2.19176       -10.63659
| 88>    H        8.21818        -1.69263       -10.71553
| 89>    H        9.37956        -0.85696        -8.71139
| 90>    H        9.34542        -0.18055        -6.37827
| 91>    H        4.46348        -1.18421        -6.17348
| 92>    H        5.82625         0.02570        -1.16065
| 93>    H        8.11722         0.99723         4.68680
| 94>    H        7.28843        -0.29613         3.78819
| 95>    H        7.82556         2.46872         2.57988
| 96>    H        6.30181         2.06009         3.40776
| 97>    H       14.91328        -0.68600        -3.07482
| 98>    H       12.44264        -0.13040        -3.47350
| 99>    H       19.00518        -2.80970         5.52607
|100>    H       17.61723        -3.84014         5.10096
|101>    H       17.72700        -0.86872         4.36549
|102>    H       16.95882        -1.46592         5.85662
|103>    H       19.82758        -3.65681         0.98032
|104>    H       18.82620        -1.96205        -4.97079
|105>    H       19.83560        -1.65749        -7.21393
|106>    H       21.75088        -1.90876        -8.74268
|107>    H       23.84349        -2.93884        -7.95069
|108>    H       24.03910        -3.72274        -5.62423
|109>    H       23.09085        -4.02876        -3.42242
|110> *
|111>
|112>                          ****END OF INPUT****

CARTESIAN COORDINATES (ANGSTROEM)
---------------------------------
  C      5.596660   -1.641010   -8.591800
  C      6.302690   -1.826110   -9.749510
  C      7.675580   -1.542550   -9.794040
  C      8.322830   -1.079160   -8.681090
  C      7.626200   -0.875800   -7.472740
  C      8.287780   -0.387510   -6.322020
  C      7.578180   -0.201940   -5.167030
  C      6.185180   -0.504680   -5.124890
  C      5.520680   -0.969290   -6.222040
  C      6.231950   -1.164960   -7.428240
  C      5.668110   -0.244840   -3.765620
  O      4.528030   -0.347060   -3.371610
  C      6.866390    0.105220   -2.960530
  C      7.972600    0.321970   -3.864750
  C      9.071180    1.106940   -3.617000
  C      9.211960    1.874510   -2.442290
  N      9.314240    2.566180   -1.531290
  C     10.145440    1.261860   -4.508410
  N     11.078560    1.377040   -5.169770
  C      6.820350    0.044900   -1.598280
  C      7.895550   -0.109250   -0.700370
  C      7.879880    0.174230    0.665270
  C      9.084540   -0.158130    1.313870
  S      9.503150    0.186530    2.979450
  C      7.879400    0.615320    3.693830
  C      7.159520    1.655910    2.870200
  S      6.458720    0.923010    1.358010
  C     10.028150   -0.696630    0.440450
  S      9.442770   -0.742570   -1.186440
  C     11.361050   -1.143630    0.681830
  C     12.328420   -1.043470   -0.349180
  C     13.699930   -1.393530   -0.144210
  N     14.575060   -1.226910   -1.146620
  C     14.164010   -0.802820   -2.306200
  C     12.804160   -0.493180   -2.521360
  N     11.934880   -0.599840   -1.556950
  C     14.180170   -1.924240    1.082060
  C     13.186370   -2.157190    2.054080
  C     11.805540   -1.765610    1.863620
  N     11.037640   -2.173300    2.876340
  S     11.939090   -2.948890    3.947370
  N     13.347420   -2.829950    3.193270
  C     15.554290   -2.264560    1.218690
  C     16.313930   -2.452220    2.382690
  C     17.632750   -2.825180    2.097270
  S     18.942670   -3.158850    3.210750
  C     18.165570   -2.934280    4.841450
  C     17.257540   -1.728730    4.842510
  S     15.688010   -2.122580    3.989050
  C     17.898000   -2.911460    0.715380
  S     16.500180   -2.459740   -0.223080
  C     19.137420   -3.322930    0.213020
  C     19.605280   -3.345430   -1.077600
  C     20.921580   -3.796640   -1.481250
  C     21.839520   -4.471360   -0.716070
  C     23.100300   -4.891460   -1.187560
  N     24.141480   -5.258600   -1.504000
  C     21.668150   -4.872150    0.625300
  N     21.617880   -5.252840    1.708190
  C     21.096330   -3.444800   -2.887940
  C     19.890800   -2.848990   -3.356470
  C     19.751720   -2.410110   -4.640820
  C     20.836870   -2.546460   -5.535980
  C     20.755970   -2.108150   -6.872000
  C     21.821050   -2.248590   -7.720120
  C     23.012700   -2.834540   -7.268940
  C     23.123520   -3.270530   -5.976390
  C     22.046870   -3.140500   -5.076320
  C     22.159120   -3.587950   -3.738900
  C     18.912760   -2.807830   -2.256740
  O     17.766430   -2.400900   -2.328780
  H      4.539080   -1.857690   -8.551500
  H      5.807300   -2.191760  -10.636590
  H      8.218180   -1.692630  -10.715530
  H      9.379560   -0.856960   -8.711390
  H      9.345420   -0.180550   -6.378270
  H      4.463480   -1.184210   -6.173480
  H      5.826250    0.025700   -1.160650
  H      8.117220    0.997230    4.686800
  H      7.288430   -0.296130    3.788190
  H      7.825560    2.468720    2.579880
  H      6.301810    2.060090    3.407760
  H     14.913280   -0.686000   -3.074820
  H     12.442640   -0.130400   -3.473500
  H     19.005180   -2.809700    5.526070
  H     17.617230   -3.840140    5.100960
  H     17.727000   -0.868720    4.365490
  H     16.958820   -1.465920    5.856620
  H     19.827580   -3.656810    0.980320
  H     18.826200   -1.962050   -4.970790
  H     19.835600   -1.657490   -7.213930
  H     21.750880   -1.908760   -8.742680
  H     23.843490   -2.938840   -7.950690
  H     24.039100   -3.722740   -5.624230
  H     23.090850   -4.028760   -3.422420

 Total Charge           Charge          ....    0
 Multiplicity           Mult            ....    1
 Number of Electrons    NEL             ....  532
 Basis Dimension        Dim             .... 1142

ORBITAL ENERGIES
----------------

  NO   OCC          E(Eh)            E(eV)
   0   2.0000     -89.040044     -2422.9028
   1   2.0000     -88.958235     -2420.6766
   2   2.0000     -88.952276     -2420.5145
   3   2.0000     -88.936025     -2420.0723
   4   2.0000     -88.934385     -2420.0277
   5   2.0000     -88.930128     -2419.9118
   6   2.0000     -88.927486     -2419.8399
   7   2.0000     -19.211416      -522.7692
   8   2.0000     -19.204789      -522.5889
   9   2.0000     -14.446580      -393.1114
  10   2.0000     -14.443622      -393.0309
  11   2.0000     -14.439121      -392.9085
  12   2.0000     -14.437393      -392.8614
  13   2.0000     -14.415186      -392.2571
  14   2.0000     -14.405444      -391.9921
  15   2.0000     -14.404142      -391.9566
  16   2.0000     -14.403486      -391.9388
  17   2.0000     -10.360098      -281.9126
  18   2.0000     -10.356777      -281.8222
  19   2.0000     -10.338027      -281.3120
  20   2.0000     -10.336536      -281.2714
  21   2.0000     -10.336056      -281.2584
  22   2.0000     -10.334490      -281.2158
  23   2.0000     -10.333741      -281.1954
  24   2.0000     -10.333047      -281.1765
  25   2.0000     -10.332495      -281.1615
  26   2.0000     -10.332188      -281.1531
  27   2.0000     -10.330523      -281.1078
  28   2.0000     -10.329765      -281.0872
  29   2.0000     -10.319029      -280.7951
  30   2.0000     -10.317508      -280.7537
  31   2.0000     -10.316647      -280.7302
  32   2.0000     -10.315723      -280.7051
  33   2.0000     -10.314731      -280.6781
  34   2.0000     -10.313963      -280.6572
  35   2.0000     -10.313309      -280.6394
  36   2.0000     -10.312933      -280.6292
  37   2.0000     -10.312914      -280.6287
  38   2.0000     -10.311940      -280.6022
  39   2.0000     -10.310595      -280.5656
  40   2.0000     -10.310591      -280.5654
  41   2.0000     -10.309815      -280.5443
  42   2.0000     -10.308044      -280.4961
  43   2.0000     -10.307782      -280.4890
  44   2.0000     -10.306526      -280.4548
  45   2.0000     -10.306341      -280.4498
  46   2.0000     -10.302281      -280.3393
  47   2.0000     -10.300410      -280.2884
  48   2.0000     -10.300047      -280.2785
  49   2.0000     -10.297734      -280.2156
  50   2.0000     -10.294634      -280.1312
  51   2.0000     -10.293296      -280.0948
  52   2.0000     -10.292677      -280.0780
  53   2.0000     -10.291736      -280.0524
  54   2.0000     -10.291205      -280.0379
  55   2.0000     -10.291043      -280.0335
  56   2.0000     -10.290736      -280.0252
  57   2.0000     -10.290031      -280.0060
  58   2.0000     -10.288826      -279.9732
  59   2.0000     -10.287659      -279.9414
  60   2.0000     -10.286873      -279.9201
  61   2.0000     -10.283181      -279.8196
  62   2.0000     -10.282555      -279.8025
  63   2.0000     -10.282324      -279.7963
  64   2.0000     -10.281946      -279.7860
  65   2.0000     -10.281744      -279.7805
  66   2.0000     -10.281322      -279.7690
  67   2.0000     -10.281167      -279.7648
  68   2.0000     -10.280671      -279.7513
  69   2.0000     -10.280207      -279.7387
  70   2.0000     -10.279640      -279.7232
  71   2.0000      -8.131288      -221.2636
  72   2.0000      -8.051718      -219.0984
  73   2.0000      -8.044553      -218.9034
  74   2.0000      -8.031809      -218.5566
  75   2.0000      -8.029807      -218.5022
  76   2.0000      -8.025680      -218.3899
  77   2.0000      -8.021932      -218.2879
  78   2.0000      -6.102300      -166.0520
  79   2.0000      -6.094539      -165.8408
  80   2.0000      -6.094235      -165.8326
  81   2.0000      -6.021315      -163.8483
  82   2.0000      -6.016813      -163.7258
  83   2.0000      -6.014052      -163.6507
  84   2.0000      -6.013574      -163.6377
  85   2.0000      -6.009589      -163.5292
  86   2.0000      -6.006282      -163.4392
  87   2.0000      -6.002181      -163.3276
  88   2.0000      -6.000225      -163.2744
  89   2.0000      -5.998154      -163.2181
  90   2.0000      -5.996204      -163.1650
  91   2.0000      -5.995882      -163.1563
  92   2.0000      -5.992447      -163.0628
  93   2.0000      -5.991992      -163.0504
  94   2.0000      -5.991426      -163.0350
  95   2.0000      -5.989659      -162.9869
  96   2.0000      -5.988371      -162.9519
  97   2.0000      -5.985089      -162.8625
  98   2.0000      -5.981289      -162.7592
  99   2.0000      -1.136749       -30.9325
 100   2.0000      -1.126510       -30.6539
 101   2.0000      -1.119619       -30.4664
 102   2.0000      -1.099242       -29.9119
 103   2.0000      -1.027541       -27.9608
 104   2.0000      -1.013933       -27.5905
 105   2.0000      -1.008695       -27.4480
 106   2.0000      -1.004175       -27.3250
 107   2.0000      -1.000561       -27.2266
 108   2.0000      -0.993628       -27.0380
 109   2.0000      -0.990339       -26.9485
 110   2.0000      -0.987594       -26.8738
 111   2.0000      -0.985079       -26.8054
 112   2.0000      -0.983244       -26.7554
 113   2.0000      -0.967412       -26.3246
 114   2.0000      -0.965112       -26.2620
 115   2.0000      -0.963373       -26.2147
 116   2.0000      -0.936151       -25.4740
 117   2.0000      -0.931603       -25.3502
 118   2.0000      -0.920816       -25.0567
 119   2.0000      -0.917505       -24.9666
 120   2.0000      -0.908727       -24.7277
 121   2.0000      -0.901259       -24.5245
 122   2.0000      -0.887289       -24.1444
 123   2.0000      -0.883570       -24.0432
 124   2.0000      -0.880403       -23.9570
 125   2.0000      -0.876169       -23.8418
 126   2.0000      -0.874058       -23.7843
 127   2.0000      -0.869129       -23.6502
 128   2.0000      -0.861069       -23.4309
 129   2.0000      -0.857007       -23.3203
 130   2.0000      -0.847945       -23.0738
 131   2.0000      -0.842339       -22.9212
 132   2.0000      -0.823327       -22.4039
 133   2.0000      -0.821719       -22.3601
 134   2.0000      -0.819973       -22.3126
 135   2.0000      -0.807622       -21.9765
 136   2.0000      -0.799657       -21.7598
 137   2.0000      -0.781171       -21.2567
 138   2.0000      -0.770161       -20.9571
 139   2.0000      -0.756184       -20.5768
 140   2.0000      -0.754429       -20.5290
 141   2.0000      -0.752405       -20.4740
 142   2.0000      -0.745393       -20.2832
 143   2.0000      -0.740365       -20.1463
 144   2.0000      -0.734348       -19.9826
 145   2.0000      -0.713548       -19.4166
 146   2.0000      -0.712020       -19.3751
 147   2.0000      -0.705931       -19.2094
 148   2.0000      -0.702263       -19.1096
 149   2.0000      -0.698362       -19.0034
 150   2.0000      -0.696491       -18.9525
 151   2.0000      -0.693928       -18.8827
 152   2.0000      -0.690439       -18.7878
 153   2.0000      -0.673361       -18.3231
 154   2.0000      -0.669929       -18.2297
 155   2.0000      -0.664053       -18.0698
 156   2.0000      -0.659151       -17.9364
 157   2.0000      -0.653589       -17.7851
 158   2.0000      -0.650044       -17.6886
 159   2.0000      -0.638960       -17.3870
 160   2.0000      -0.626573       -17.0499
 161   2.0000      -0.625631       -17.0243
 162   2.0000      -0.615353       -16.7446
 163   2.0000      -0.612769       -16.6743
 164   2.0000      -0.606174       -16.4948
 165   2.0000      -0.602067       -16.3831
 166   2.0000      -0.600315       -16.3354
 167   2.0000      -0.596898       -16.2424
 168   2.0000      -0.594462       -16.1761
 169   2.0000      -0.588696       -16.0192
 170   2.0000      -0.583422       -15.8757
 171   2.0000      -0.569173       -15.4880
 172   2.0000      -0.568070       -15.4580
 173   2.0000      -0.565033       -15.3753
 174   2.0000      -0.563638       -15.3374
 175   2.0000      -0.556279       -15.1371
 176   2.0000      -0.551412       -15.0047
 177   2.0000      -0.547868       -14.9082
 178   2.0000      -0.545027       -14.8309
 179   2.0000      -0.542096       -14.7512
 180   2.0000      -0.541087       -14.7237
 181   2.0000      -0.539719       -14.6865
 182   2.0000      -0.537852       -14.6357
 183   2.0000      -0.536547       -14.6002
 184   2.0000      -0.535247       -14.5648
 185   2.0000      -0.532197       -14.4818
 186   2.0000      -0.531148       -14.4533
 187   2.0000      -0.527017       -14.3409
 188   2.0000      -0.525408       -14.2971
 189   2.0000      -0.520274       -14.1574
 190   2.0000      -0.516765       -14.0619
 191   2.0000      -0.514883       -14.0107
 192   2.0000      -0.513600       -13.9758
 193   2.0000      -0.510886       -13.9019
 194   2.0000      -0.508669       -13.8416
 195   2.0000      -0.507068       -13.7980
 196   2.0000      -0.505101       -13.7445
 197   2.0000      -0.504400       -13.7254
 198   2.0000      -0.498314       -13.5598
 199   2.0000      -0.495841       -13.4925
 200   2.0000      -0.495148       -13.4737
 201   2.0000      -0.493044       -13.4164
 202   2.0000      -0.487983       -13.2787
 203   2.0000      -0.487189       -13.2571
 204   2.0000      -0.485718       -13.2171
 205   2.0000      -0.482261       -13.1230
 206   2.0000      -0.479832       -13.0569
 207   2.0000      -0.479053       -13.0357
 208   2.0000      -0.475508       -12.9392
 209   2.0000      -0.475263       -12.9326
 210   2.0000      -0.473530       -12.8854
 211   2.0000      -0.459740       -12.5102
 212   2.0000      -0.458454       -12.4752
 213   2.0000      -0.455692       -12.4000
 214   2.0000      -0.449285       -12.2257
 215   2.0000      -0.446260       -12.1433
 216   2.0000      -0.440704       -11.9922
 217   2.0000      -0.440165       -11.9775
 218   2.0000      -0.437603       -11.9078
 219   2.0000      -0.436969       -11.8905
 220   2.0000      -0.436870       -11.8878
 221   2.0000      -0.435432       -11.8487
 222   2.0000      -0.433332       -11.7916
 223   2.0000      -0.432121       -11.7586
 224   2.0000      -0.430411       -11.7121
 225   2.0000      -0.429140       -11.6775
 226   2.0000      -0.427395       -11.6300
 227   2.0000      -0.425740       -11.5850
 228   2.0000      -0.425114       -11.5679
 229   2.0000      -0.424354       -11.5473
 230   2.0000      -0.420914       -11.4537
 231   2.0000      -0.418735       -11.3943
 232   2.0000      -0.416621       -11.3368
 233   2.0000      -0.415012       -11.2931
 234   2.0000      -0.411019       -11.1844
 235   2.0000      -0.410951       -11.1825
 236   2.0000      -0.408081       -11.1044
 237   2.0000      -0.400441       -10.8966
 238   2.0000      -0.397980       -10.8296
 239   2.0000      -0.396499       -10.7893
 240   2.0000      -0.394065       -10.7231
 241   2.0000      -0.392811       -10.6889
 242   2.0000      -0.383757       -10.4426
 243   2.0000      -0.376759       -10.2521
 244   2.0000      -0.374117       -10.1802
 245   2.0000      -0.372304       -10.1309
 246   2.0000      -0.365658        -9.9500
 247   2.0000      -0.362659        -9.8684
 248   2.0000      -0.360232        -9.8024
 249   2.0000      -0.355609        -9.6766
 250   2.0000      -0.347087        -9.4447
 251   2.0000      -0.343651        -9.3512
 252   2.0000      -0.335140        -9.1196
 253   2.0000      -0.328357        -8.9350
 254   2.0000      -0.327565        -8.9135
 255   2.0000      -0.320323        -8.7164
 256   2.0000      -0.313313        -8.5257
 257   2.0000      -0.310705        -8.4547
 258   2.0000      -0.308023        -8.3817
 259   2.0000      -0.304134        -8.2759
 260   2.0000      -0.290113        -7.8944
 261   2.0000      -0.287247        -7.8164
 262   2.0000      -0.271022        -7.3749
 263   2.0000      -0.263854        -7.1798
 264   2.0000      -0.261376        -7.1124
 265   2.0000      -0.238790        -6.4978
 266   0.0000      -0.118603        -3.2273
 267   0.0000      -0.083495        -2.2720
 268   0.0000      -0.074482        -2.0268
 269   0.0000      -0.049670        -1.3516
 270   0.0000      -0.047845        -1.3019

MULLIKEN ATOMIC CHARGES
-----------------------
   0 C :   -0.016863
   1 C :    0.034926
   2 C :    0.035808
   3 C :   -0.020248
   4 C :    0.099267
   5 C :   -0.089375
   6 C :    0.044257
   7 C :    0.009102
   8 C :   -0.085272
   9 C :    0.094818
  10 C :    0.139945
  11 O :   -0.146009
  12 C :   -0.143686
  13 C :    0.254264
  14 C :   -0.326922
  15 C :   -0.203343
  16 N :    0.163553
  17 C :   -0.126796
  18 N :    0.099717
  19 C :    0.049451
  20 C :   -0.139327
  21 C :    0.008406
  22 C :    0.015850
  23 S :    0.028184
  24 C :   -0.052599
  25 C :   -0.053642
  26 S :    0.010399
  27 C :   -0.186059
  28 S :    0.196349
  29 C :    0.098884
  30 C :   -0.030644
  31 C :   -0.048076
  32 N :   -0.056304
  33 C :    0.048967
  34 C :    0.046015
  35 N :   -0.059993
  36 C :    0.141952
  37 C :   -0.001273
  38 C :   -0.019491
  39 N :   -0.261772
  40 S :    0.542624
  41 N :   -0.302838
  42 C :   -0.183119
  43 C :   -0.002941
  44 C :   -0.017438
  45 S :    0.003147
  46 C :   -0.011757
  47 C :   -0.072265
  48 S :    0.024531
  49 C :   -0.063398
  50 S :    0.229871
  51 C :   -0.056851
  52 C :   -0.100627
  53 C :    0.326072
  54 C :   -0.361059
  55 C :   -0.183503
  56 N :    0.141824
  57 C :   -0.204371
  58 N :    0.155652
  59 C :    0.046652
  60 C :    0.002573
  61 C :   -0.088237
  62 C :    0.100368
  63 C :   -0.017429
  64 C :    0.036106
  65 C :    0.033981
  66 C :   -0.019670
  67 C :    0.096974
  68 C :   -0.087207
  69 C :    0.155068
  70 O :   -0.176478
  71 H :   -0.018037
  72 H :   -0.007613
  73 H :   -0.007530
  74 H :   -0.014243
  75 H :   -0.012062
  76 H :   -0.013082
  77 H :    0.031614
  78 H :    0.058200
  79 H :    0.071361
  80 H :    0.084413
  81 H :    0.060529
  82 H :    0.029062
  83 H :    0.021617
  84 H :    0.061304
  85 H :    0.071695
  86 H :    0.067788
  87 H :    0.053723
  88 H :    0.039338
  89 H :   -0.020618
  90 H :   -0.021226
  91 H :   -0.007752
  92 H :   -0.006293
  93 H :   -0.010678
  94 H :   -0.010185
Sum of atomic charges:   -0.0000000

LOEWDIN ATOMIC CHARGES
----------------------
   0 C :   -0.009690
   1 C :   -0.015240
   2 C :   -0.015282
   3 C :   -0.008550
   4 C :   -0.006424
   5 C :    0.010787
   6 C :   -0.021172
   7 C :   -0.054399
   8 C :    0.029871
   9 C :   -0.009623
  10 C :    0.081583
  11 O :   -0.148013
  12 C :   -0.102930
  13 C :    0.064913
  14 C :   -0.153547
  15 C :   -0.035046
  16 N :   -0.054109
  17 C :   -0.008177
  18 N :   -0.075850
  19 C :    0.055003
  20 C :   -0.216300
  21 C :   -0.176704
  22 C :   -0.197502
  23 S :    0.327600
  24 C :   -0.146164
  25 C :   -0.139543
  26 S :    0.313459
  27 C :   -0.164700
  28 S :    0.526539
  29 C :   -0.050860
  30 C :   -0.005898
  31 C :   -0.010913
  32 N :   -0.037806
  33 C :    0.029155
  34 C :    0.029657
  35 N :   -0.047464
  36 C :   -0.039924
  37 C :   -0.044286
  38 C :   -0.050868
  39 N :   -0.284230
  40 S :    0.678190
  41 N :   -0.289802
  42 C :   -0.170096
  43 C :   -0.206539
  44 C :   -0.176984
  45 S :    0.332372
  46 C :   -0.142160
  47 C :   -0.155782
  48 S :    0.326362
  49 C :   -0.218254
  50 S :    0.559483
  51 C :    0.048677
  52 C :   -0.107572
  53 C :    0.075613
  54 C :   -0.146708
  55 C :   -0.016646
  56 N :   -0.062263
  57 C :   -0.026986
  58 N :   -0.052811
  59 C :   -0.024006
  60 C :   -0.053208
  61 C :    0.027126
  62 C :   -0.009518
  63 C :   -0.011378
  64 C :   -0.014685
  65 C :   -0.015858
  66 C :   -0.005798
  67 C :   -0.007112
  68 C :    0.017543
  69 C :    0.081922
  70 O :   -0.169397
  71 H :    0.031511
  72 H :    0.031821
  73 H :    0.032017
  74 H :    0.032693
  75 H :    0.036440
  76 H :    0.038767
  77 H :    0.045508
  78 H :    0.033326
  79 H :    0.027097
  80 H :    0.032922
  81 H :    0.033842
  82 H :    0.034828
  83 H :    0.030453
  84 H :    0.033691
  85 H :    0.026182
  86 H :    0.025638
  87 H :    0.030704
  88 H :    0.038488
  89 H :    0.035853
  90 H :    0.030351
  91 H :    0.031724
  92 H :    0.032330
  93 H :    0.034231
  94 H :    0.038503

  Mayer bond orders larger than 0.100000
B(  0-C ,  1-C ) :   1.4886 B(  0-C ,  9-C ) :   1.2469 B(  0-C , 71-H ) :   0.9972
B(  1-C ,  2-C ) :   1.2614 B(  1-C , 72-H ) :   0.9884 B(  2-C ,  3-C ) :   1.4903
B(  2-C , 73-H ) :   0.9882 B(  3-C ,  4-C ) :   1.2408 B(  3-C , 74-H ) :   0.9966
B(  4-C ,  5-C ) :   1.2004 B(  4-C ,  9-C ) :   1.2602 B(  5-C ,  6-C ) :   1.4601
B(  5-C , 75-H ) :   0.9931 B(  6-C ,  7-C ) :   1.2133 B(  6-C , 13-C ) :   1.0097
B(  7-C ,  8-C ) :   1.4825 B(  7-C , 10-C ) :   0.9162 B(  8-C ,  9-C ) :   1.1805
B(  8-C , 76-H ) :   1.0149 B( 10-C , 11-O ) :   2.2708 B( 10-C , 12-C ) :   0.9470
B( 12-C , 13-C ) :   1.0514 B( 12-C , 19-C ) :   1.6234 B( 13-C , 14-C ) :   1.6310
B( 14-C , 15-C ) :   1.1492 B( 14-C , 17-C ) :   1.1542 B( 15-C , 16-N ) :   3.0220
B( 17-C , 18-N ) :   2.8695 B( 19-C , 20-C ) :   1.1631 B( 19-C , 77-H ) :   0.9386
B( 20-C , 21-C ) :   1.4684 B( 20-C , 27-C ) :   0.1066 B( 20-C , 28-S ) :   1.0847
B( 21-C , 22-C ) :   1.3111 B( 21-C , 26-S ) :   1.0331 B( 22-C , 23-S ) :   1.0289
B( 22-C , 27-C ) :   1.5038 B( 23-S , 24-C ) :   1.0280 B( 24-C , 25-C ) :   1.0136
B( 24-C , 78-H ) :   0.9463 B( 24-C , 79-H ) :   0.9485 B( 25-C , 26-S ) :   1.0154
B( 25-C , 80-H ) :   0.9482 B( 25-C , 81-H ) :   0.9461 B( 27-C , 28-S ) :   1.1589
B( 27-C , 29-C ) :   1.1095 B( 29-C , 30-C ) :   1.2982 B( 29-C , 36-C ) :   0.1280
B( 29-C , 38-C ) :   1.2307 B( 30-C , 31-C ) :   1.1543 B( 30-C , 35-N ) :   1.4009
B( 31-C , 32-N ) :   1.4058 B( 31-C , 36-C ) :   1.2700 B( 32-N , 33-C ) :   1.6645
B( 33-C , 34-C ) :   1.1914 B( 33-C , 82-H ) :   0.9755 B( 34-C , 35-N ) :   1.6618
B( 34-C , 83-H ) :   0.9621 B( 36-C , 37-C ) :   1.2105 B( 36-C , 42-C ) :   1.1733
B( 37-C , 38-C ) :   1.0852 B( 37-C , 41-N ) :   1.4642 B( 38-C , 39-N ) :   1.5092
B( 39-N , 40-S ) :   1.2939 B( 39-N , 41-N ) :   0.1552 B( 40-S , 41-N ) :   1.2820
B( 42-C , 43-C ) :   1.4369 B( 42-C , 49-C ) :   0.1021 B( 42-C , 50-S ) :   1.1310
B( 43-C , 44-C ) :   1.3572 B( 43-C , 48-S ) :   1.0166 B( 44-C , 45-S ) :   1.0520
B( 44-C , 49-C ) :   1.3985 B( 45-S , 46-C ) :   1.0055 B( 46-C , 47-C ) :   1.0179
B( 46-C , 84-H ) :   0.9447 B( 46-C , 85-H ) :   0.9467 B( 47-C , 48-S ) :   0.9940
B( 47-C , 86-H ) :   0.9483 B( 47-C , 87-H ) :   0.9490 B( 49-C , 50-S ) :   1.0520
B( 49-C , 51-C ) :   1.2830 B( 51-C , 52-C ) :   1.5186 B( 51-C , 88-H ) :   0.9255
B( 52-C , 53-C ) :   1.0845 B( 52-C , 69-C ) :   0.9689 B( 53-C , 54-C ) :   1.6124
B( 53-C , 59-C ) :   0.9798 B( 54-C , 55-C ) :   1.1526 B( 54-C , 57-C ) :   1.1457
B( 55-C , 56-N ) :   2.9610 B( 57-C , 58-N ) :   2.9783 B( 59-C , 60-C ) :   1.2176
B( 59-C , 68-C ) :   1.4587 B( 60-C , 61-C ) :   1.4722 B( 60-C , 69-C ) :   0.9554
B( 61-C , 62-C ) :   1.1752 B( 61-C , 89-H ) :   1.0156 B( 62-C , 63-C ) :   1.2459
B( 62-C , 67-C ) :   1.2606 B( 63-C , 64-C ) :   1.4870 B( 63-C , 90-H ) :   0.9969
B( 64-C , 65-C ) :   1.2632 B( 64-C , 91-H ) :   0.9881 B( 65-C , 66-C ) :   1.4864
B( 65-C , 92-H ) :   0.9883 B( 66-C , 67-C ) :   1.2439 B( 66-C , 93-H ) :   0.9966
B( 67-C , 68-C ) :   1.1989 B( 68-C , 94-H ) :   0.9895 B( 69-C , 70-O ) :   2.1427

-----------------------------------------------------------------------------
         ABSORPTION SPECTRUM VIA TRANSITION ELECTRIC DIPOLE MOMENTS
-----------------------------------------------------------------------------
State   Energy  Wavelength   fosc         T2         TX        TY        TZ
        (cm-1)    (nm)                  (au**2)     (au)      (au)      (au)
-----------------------------------------------------------------------------
   0   10272.7    973.5   0.616585526  19.75982  -4.22973   1.24385  -0.56753
   1   14265.4    701.0   0.055962822   1.29149  -0.46408  -0.00707  -1.03734
   2   14488.9    690.2   0.055053189   1.25090   1.10676  -0.15976  -0.02162
   3   17450.7    573.0   0.211036108   3.98125   0.85684  -0.05089  -1.80125
   4   18269.8    547.4   0.150764852   2.71671   0.48060  -0.38738   1.52829
   5   20296.0    492.7   0.065978654   1.07021   0.51397  -0.24102  -0.86484
   6   20468.3    488.6   0.357427452   5.74886  -1.91999   0.55263   1.32556
   7   21362.9    468.1   0.037333992   0.57533   0.36545  -0.23905  -0.62019
   8   22875.3    437.2   0.067524474   0.97179   0.95667  -0.07720   0.22494
   9   23291.3    429.3   0.009751884   0.13784  -0.03350  -0.36855   0.02973
  10   24490.0    408.3   0.008186146   0.11004  -0.22700   0.04925   0.23683
  11   25093.1    398.5   0.014684625   0.19266  -0.37232   0.08228   0.21741
  12   25338.6    394.7   0.014263221   0.18531   0.16898  -0.01031   0.39580
  13   25947.3    385.4   0.062167360   0.78876   0.31747  -0.34284   0.75527
  14   26162.6    382.2   0.084429690   1.06241   0.84551  -0.05158  -0.58725
  15   26943.4    371.1   0.027987544   0.34197   0.14293   0.04337   0.56538
  16   27078.5    369.3   0.094913167   1.15393  -0.73762  -0.00192  -0.78093
  17   27858.1    359.0   0.100919752   1.19261  -0.84258  -0.14914  -0.67855
  18   28053.4    356.5   0.003104246   0.03643   0.14366   0.04371   0.11781
  19   28222.3    354.3   0.020299986   0.23680  -0.16976   0.35577   0.28532
  20   28781.7    347.4   0.016950224   0.19388  -0.30355   0.12112   0.29508
  21   28797.7    347.3   0.004275717   0.04888   0.02423  -0.11110  -0.18960
  22   29044.8    344.3   0.008793871   0.09968   0.16874   0.02427  -0.26573
  23   29505.1    338.9   0.220095954   2.45579  -0.57277  -0.07576   1.45670
  24   30031.5    333.0   0.086718763   0.95063   0.64139   0.30757  -0.66682
  25   30191.4    331.2   0.064152811   0.69953  -0.35432   0.14946   0.74273
  26   30198.0    331.1   0.171175812   1.86612   0.50484   0.58679   1.12558
  27   30409.2    328.8   0.027665595   0.29951  -0.31483   0.14227  -0.42444
  28   30742.8    325.3   0.049954733   0.53494  -0.19331  -0.38359   0.59197
  29   31170.1    320.8   0.067629321   0.71429  -0.53599   0.33044  -0.56375
  30   31396.9    318.5   0.281558218   2.95227   0.35541   0.23812  -1.66411
  31   31624.5    316.2   0.057808161   0.60178   0.13883  -0.36721  -0.66908
  32   31924.4    313.2   0.087943882   0.90690  -0.61628   0.08450  -0.72108
  33   32366.8    309.0   0.069139864   0.70324  -0.05876   0.25427  -0.79695
  34   32467.8    308.0   0.005301624   0.05376   0.21939  -0.02525   0.07060
  35   32641.3    306.4   0.033690432   0.33979  -0.48314   0.24942   0.21014
  36   32978.6    303.2   0.014214932   0.14190   0.24029  -0.15877   0.24280
  37   33261.1    300.7   0.124745393   1.23471  -1.06071   0.33087  -0.01153
  38   33579.6    297.8   0.170723128   1.67376   0.64260   0.58678   0.95735
  39   34222.7    292.2   0.018735551   0.18023   0.06098  -0.03963   0.41826
  40   34381.8    290.9   0.039807610   0.38116  -0.00132   0.29691   0.54130
  41   34522.6    289.7   0.046923772   0.44747  -0.20943   0.06070  -0.63240
  42   34874.2    286.7   0.127503766   1.20364  -0.74500  -0.43940  -0.67493
  43   35015.5    285.6   0.072473377   0.68139   0.01344   0.53088   0.63196
  44   35728.6    279.9   0.190777468   1.75787   0.08724   0.66921   1.14124
  45   35811.9    279.2   0.054041957   0.49680   0.44599   0.38060   0.39120
  46   35956.7    278.1   0.661399931   6.05563  -0.66140   0.51910  -2.31273
  47   36065.3    277.3   0.110092529   1.00495  -0.41422  -0.55176  -0.72728
  48   36175.2    276.4   0.006834779   0.06220  -0.19278   0.13400  -0.08416
  49   36285.5    275.6   0.109625050   0.99461   0.59263   0.10684   0.79497
  50   36316.2    275.4   0.111067359   1.00684   0.24497  -0.48020   0.84631
  51   36448.6    274.4   0.145793391   1.31684   0.29867  -0.56815   0.95123
  52   36742.5    272.2   0.075127921   0.67314   0.05810   0.22876  -0.78577
  53   36979.8    270.4   0.062459731   0.55605   0.12892  -0.01150  -0.73437
  54   37127.2    269.3   0.027580099   0.24456   0.13536   0.38705  -0.27645
  55   37489.0    266.7   0.377796681   3.31764   0.80261   0.48775  -1.56063
  56   37659.1    265.5   0.008636446   0.07550  -0.01433  -0.09115   0.25882
  57   37950.9    263.5   0.130570239   1.13266  -0.38018  -0.17831   0.97792
  58   38072.0    262.7   0.019022063   0.16449   0.14770   0.09401  -0.36583
  59   38273.8    261.3   0.030895484   0.26575   0.00932   0.20287  -0.47382
  60   38365.8    260.6   0.050005137   0.42909  -0.50615   0.02930   0.41478
  61   38617.5    258.9   0.001024046   0.00873  -0.00879  -0.05929  -0.07167
  62   38848.8    257.4   0.046409307   0.39328   0.04018  -0.11400  -0.61536
  63   38876.0    257.2   0.010710463   0.09070  -0.16503   0.08354  -0.23767
  64   39348.6    254.1   0.076440460   0.63954   0.73081  -0.10962  -0.30567
  65   39583.8    252.6   0.017128760   0.14246  -0.25596  -0.11462   0.25259
  66   39717.8    251.8   0.064414800   0.53392  -0.54246   0.01455   0.48933
  67   40102.0    249.4   0.125391883   1.02939   0.90681  -0.21464  -0.40126
  68   40316.2    248.0   0.016688475   0.13627   0.03477  -0.26175   0.25798

FINAL SINGLE POINT ENERGY     -5443.673452329635

DIPOLE MOMENT
-------------
                                X             Y             Z
Electronic contribution:     -4.61393      -4.44699      28.51492
Nuclear contribution   :      2.83263       4.81576     -28.79912
                        -----------------------------------------
Total Dipole Moment    :     -1.78130       0.36877      -0.28420
                        -----------------------------------------
Magnitude (a.u.)       :      1.84114
Magnitude (Debye)      :      4.67980

Rotational constants in cm-1:     0.001070     0.000461     0.000335
Rotational constants in MHz :    32.074025    13.808553    10.042675

                             ****ORCA TERMINATED NORMALLY****
TOTAL RUN TIME: 0 days 0 hours 19 minutes 39 seconds 402 msec
