                         Program Version 4.2.0 -  RELEASE  -
|  1> # ORCA input file
|  2> # SCF done       -205.256168758630          0.000883755161
|  3> ! CAM-B3LYP def2-SVP def2/J RIJCOSX Grid4 TightSCF
|  4> %maxcore 5000
|  5> %tddft
|  6>     Mode sTDDFT
|  7>     Ethresh 5.0
|  8>     maxcore 5000
|  9> end
| 10>
| 11> %pal
| 12>   nprocs 6
| 13>   end
| 14> * xyz 0 1
| 15>    C       -0.11366        -1.14619         2.47938
| 16>    O       -0.20103        -1.88529         3.42774
| 17>    C       -0.81360         0.13592         2.27368
| 18>    C       -0.17382         0.86449         1.25387
| 19>    C       -0.65589         2.11451         0.89832
| 20>    C       -1.76940         2.61188         1.56447
| 21>    C       -2.39599         1.88064         2.57779
| 22>    C       -1.91169         0.63196         2.94399
| 23>   Br       -3.90597         2.58465         3.46268
| 24>   Br       -2.43232         4.31220         1.07929
| 25>    C        0.94609         0.08472         0.73350
| 26>    C        1.86523         0.51371        -0.18616
| 27>    C        1.86564         1.80243        -0.76348
| 28>    N        1.91992         2.83605        -1.25768
| 29>    C        2.95360        -0.25677        -0.64778
| 30>    N        3.85474        -0.83969        -1.05523
| 31>    C        0.88581        -1.22139         1.36497
| 32>    C        1.60672        -2.33145         1.05888
| 33>    C        1.24273        -3.63578         1.49446
| 34>    C       -0.03734        -4.13241         1.71510
| 35>    C       -1.44136        -3.78817         1.64242
| 36>    O       -2.01123        -2.74080         1.42544
| 37>    N       -2.10936        -5.00886         1.88772
| 38>    C       -3.54033        -5.04980         2.02171
| 39>    C       -1.22809        -6.02483         2.10890
| 40>    C        0.06296        -5.51241         2.00120
| 41>    C        1.46295        -5.88816         1.93473
| 42>    O        2.04098        -6.94244         2.07690
| 43>    N        2.11911        -4.68055         1.60764
| 44>    C        3.54704        -4.59718         1.46584
| 45>    C       -1.51854        -7.39936         2.41134
| 46>    C       -2.47096        -8.19936         1.74630
| 47>    C       -2.63546        -9.60188         2.05926
| 48>    N       -3.61949       -10.30024         1.47015
| 49>    C       -4.35977        -9.72570         0.55623
| 50>    C       -4.11149        -8.37231         0.15642
| 51>    N       -3.19996        -7.65119         0.76052
| 52>    C       -4.86043        -7.79014        -0.89784
| 53>    N       -5.48299        -7.33951        -1.74654
| 54>    C       -5.39788       -10.46977        -0.06099
| 55>    N       -6.23316       -11.04742        -0.58930
| 56>    C       -1.82021       -10.24566         3.01288
| 57>    C       -0.83282        -9.45791         3.62897
| 58>    C       -0.70840        -8.04617         3.36039
| 59>    N        0.22915        -7.48196         4.12497
| 60>    S        0.92713        -8.61417         5.00377
| 61>    N        0.08230        -9.87394         4.50777
| 62>    C       -2.02821       -11.57521         3.51890
| 63>    C       -1.99574       -11.89161         4.87396
| 64>    C       -1.88999       -11.30510         6.19590
| 65>    O       -1.69092       -10.17349         6.57943
| 66>    N       -2.09093       -12.39581         7.06066
| 67>    C       -2.09618       -12.23040         8.48870
| 68>    C       -2.36600       -13.56007         6.38258
| 69>    C       -2.30152       -13.26454         5.01762
| 70>    C       -2.45957       -13.81368         3.68909
| 71>    O       -2.67662       -14.94546         3.30130
| 72>    N       -2.31370       -12.71197         2.82564
| 73>    C       -2.33026       -12.89101         1.39860
| 74>    C       -2.53525       -14.78407         7.06703
| 75>    C       -3.02971       -15.98407         6.64762
| 76>    C       -2.67621       -17.19601         7.45549
| 77>    O       -2.18083       -17.20289         8.55597
| 78>    C       -3.02074       -18.34344         6.59562
| 79>    C       -3.64707       -17.87634         5.42472
| 80>    C       -3.78796       -16.42286         5.50411
| 81>    C       -4.63682       -15.67045         4.73497
| 82>    C       -4.94308       -14.32396         5.01171
| 83>    N       -5.22903       -13.23240         5.21954
| 84>    C       -5.40633       -16.18595         3.66902
| 85>    N       -6.05288       -16.55350         2.79663
| 86>    C       -4.02396       -18.77241         4.44049
| 87>    C       -3.78075       -20.12639         4.64685
| 88>    C       -3.17701       -20.58449         5.82062
| 89>    C       -2.78866       -19.68721         6.80734
| 90>   Br       -2.87129       -22.43043         6.08010
| 91>   Br       -4.28367       -21.35193         3.30179
| 92>    H       -0.19941         2.70745         0.12222
| 93>    H       -2.38574         0.05652         3.72335
| 94>    H        2.46137        -2.26548         0.39860
| 95>    H       -3.88410        -4.01913         2.10952
| 96>    H       -3.82322        -5.61074         2.91270
| 97>    H       -4.00122        -5.50467         1.14374
| 98>    H        3.94626        -5.59207         1.66171
| 99>    H        3.96827        -3.88892         2.18099
|100>    H        3.82317        -4.29291         0.45409
|101>    H       -1.95516       -11.16715         8.68304
|102>    H       -1.28001       -12.78797         8.95301
|103>    H       -3.04702       -12.55289         8.91537
|104>    H       -2.19983       -13.95575         1.20399
|105>    H       -1.52010       -12.32771         0.93622
|106>    H       -3.28400       -12.56939         0.97889
|107>    H       -2.12692       -14.81267         8.07402
|108>    H       -4.48266       -18.44941         3.52008
|109>    H       -2.31550       -20.03085         7.71408
|110> *
|111>
|112>                          ****END OF INPUT****

CARTESIAN COORDINATES (ANGSTROEM)
---------------------------------
  C     -0.113660   -1.146190    2.479380
  O     -0.201030   -1.885290    3.427740
  C     -0.813600    0.135920    2.273680
  C     -0.173820    0.864490    1.253870
  C     -0.655890    2.114510    0.898320
  C     -1.769400    2.611880    1.564470
  C     -2.395990    1.880640    2.577790
  C     -1.911690    0.631960    2.943990
  Br    -3.905970    2.584650    3.462680
  Br    -2.432320    4.312200    1.079290
  C      0.946090    0.084720    0.733500
  C      1.865230    0.513710   -0.186160
  C      1.865640    1.802430   -0.763480
  N      1.919920    2.836050   -1.257680
  C      2.953600   -0.256770   -0.647780
  N      3.854740   -0.839690   -1.055230
  C      0.885810   -1.221390    1.364970
  C      1.606720   -2.331450    1.058880
  C      1.242730   -3.635780    1.494460
  C     -0.037340   -4.132410    1.715100
  C     -1.441360   -3.788170    1.642420
  O     -2.011230   -2.740800    1.425440
  N     -2.109360   -5.008860    1.887720
  C     -3.540330   -5.049800    2.021710
  C     -1.228090   -6.024830    2.108900
  C      0.062960   -5.512410    2.001200
  C      1.462950   -5.888160    1.934730
  O      2.040980   -6.942440    2.076900
  N      2.119110   -4.680550    1.607640
  C      3.547040   -4.597180    1.465840
  C     -1.518540   -7.399360    2.411340
  C     -2.470960   -8.199360    1.746300
  C     -2.635460   -9.601880    2.059260
  N     -3.619490  -10.300240    1.470150
  C     -4.359770   -9.725700    0.556230
  C     -4.111490   -8.372310    0.156420
  N     -3.199960   -7.651190    0.760520
  C     -4.860430   -7.790140   -0.897840
  N     -5.482990   -7.339510   -1.746540
  C     -5.397880  -10.469770   -0.060990
  N     -6.233160  -11.047420   -0.589300
  C     -1.820210  -10.245660    3.012880
  C     -0.832820   -9.457910    3.628970
  C     -0.708400   -8.046170    3.360390
  N      0.229150   -7.481960    4.124970
  S      0.927130   -8.614170    5.003770
  N      0.082300   -9.873940    4.507770
  C     -2.028210  -11.575210    3.518900
  C     -1.995740  -11.891610    4.873960
  C     -1.889990  -11.305100    6.195900
  O     -1.690920  -10.173490    6.579430
  N     -2.090930  -12.395810    7.060660
  C     -2.096180  -12.230400    8.488700
  C     -2.366000  -13.560070    6.382580
  C     -2.301520  -13.264540    5.017620
  C     -2.459570  -13.813680    3.689090
  O     -2.676620  -14.945460    3.301300
  N     -2.313700  -12.711970    2.825640
  C     -2.330260  -12.891010    1.398600
  C     -2.535250  -14.784070    7.067030
  C     -3.029710  -15.984070    6.647620
  C     -2.676210  -17.196010    7.455490
  O     -2.180830  -17.202890    8.555970
  C     -3.020740  -18.343440    6.595620
  C     -3.647070  -17.876340    5.424720
  C     -3.787960  -16.422860    5.504110
  C     -4.636820  -15.670450    4.734970
  C     -4.943080  -14.323960    5.011710
  N     -5.229030  -13.232400    5.219540
  C     -5.406330  -16.185950    3.669020
  N     -6.052880  -16.553500    2.796630
  C     -4.023960  -18.772410    4.440490
  C     -3.780750  -20.126390    4.646850
  C     -3.177010  -20.584490    5.820620
  C     -2.788660  -19.687210    6.807340
  Br    -2.871290  -22.430430    6.080100
  Br    -4.283670  -21.351930    3.301790
  H     -0.199410    2.707450    0.122220
  H     -2.385740    0.056520    3.723350
  H      2.461370   -2.265480    0.398600
  H     -3.884100   -4.019130    2.109520
  H     -3.823220   -5.610740    2.912700
  H     -4.001220   -5.504670    1.143740
  H      3.946260   -5.592070    1.661710
  H      3.968270   -3.888920    2.180990
  H      3.823170   -4.292910    0.454090
  H     -1.955160  -11.167150    8.683040
  H     -1.280010  -12.787970    8.953010
  H     -3.047020  -12.552890    8.915370
  H     -2.199830  -13.955750    1.203990
  H     -1.520100  -12.327710    0.936220
  H     -3.284000  -12.569390    0.978890
  H     -2.126920  -14.812670    8.074020
  H     -4.482660  -18.449410    3.520080
  H     -2.315500  -20.030850    7.714080

 Total Charge           Charge          ....    0
 Multiplicity           Mult            ....    1
 Number of Electrons    NEL             ....  632
 Basis Dimension        Dim             .... 1244

ORBITAL ENERGIES
----------------

  NO   OCC          E(Eh)            E(eV)
   0   2.0000    -482.881101    -13139.8628
   1   2.0000    -482.879651    -13139.8233
   2   2.0000    -482.879000    -13139.8056
   3   2.0000    -482.877960    -13139.7773
   4   2.0000     -89.058559     -2423.4066
   5   2.0000     -62.558747     -1702.3101
   6   2.0000     -62.557267     -1702.2698
   7   2.0000     -62.556593     -1702.2514
   8   2.0000     -62.555601     -1702.2244
   9   2.0000     -56.392695     -1534.5232
  10   2.0000     -56.391235     -1534.4835
  11   2.0000     -56.390546     -1534.4648
  12   2.0000     -56.390051     -1534.4513
  13   2.0000     -56.389940     -1534.4483
  14   2.0000     -56.389560     -1534.4379
  15   2.0000     -56.388558     -1534.4107
  16   2.0000     -56.388456     -1534.4079
  17   2.0000     -56.387889     -1534.3925
  18   2.0000     -56.387798     -1534.3900
  19   2.0000     -56.386894     -1534.3654
  20   2.0000     -56.386793     -1534.3626
  21   2.0000     -19.236042      -523.4393
  22   2.0000     -19.229110      -523.2507
  23   2.0000     -19.223184      -523.0894
  24   2.0000     -19.217862      -522.9446
  25   2.0000     -19.209237      -522.7099
  26   2.0000     -19.208517      -522.6903
  27   2.0000     -14.482258      -394.0823
  28   2.0000     -14.481717      -394.0676
  29   2.0000     -14.480888      -394.0450
  30   2.0000     -14.478212      -393.9722
  31   2.0000     -14.473555      -393.8455
  32   2.0000     -14.472897      -393.8275
  33   2.0000     -14.460436      -393.4885
  34   2.0000     -14.460312      -393.4851
  35   2.0000     -14.444754      -393.0617
  36   2.0000     -14.443783      -393.0353
  37   2.0000     -14.434078      -392.7712
  38   2.0000     -14.430236      -392.6667
  39   2.0000     -14.429242      -392.6396
  40   2.0000     -14.422583      -392.4584
  41   2.0000     -10.400433      -283.0102
  42   2.0000     -10.400092      -283.0009
  43   2.0000     -10.399581      -282.9870
  44   2.0000     -10.396446      -282.9017
  45   2.0000     -10.393711      -282.8273
  46   2.0000     -10.393134      -282.8115
  47   2.0000     -10.384489      -282.5763
  48   2.0000     -10.383392      -282.5465
  49   2.0000     -10.373824      -282.2861
  50   2.0000     -10.373478      -282.2767
  51   2.0000     -10.369292      -282.1628
  52   2.0000     -10.367898      -282.1249
  53   2.0000     -10.364337      -282.0279
  54   2.0000     -10.362209      -281.9700
  55   2.0000     -10.360921      -281.9350
  56   2.0000     -10.359697      -281.9017
  57   2.0000     -10.359224      -281.8888
  58   2.0000     -10.359024      -281.8834
  59   2.0000     -10.358662      -281.8735
  60   2.0000     -10.357945      -281.8540
  61   2.0000     -10.357686      -281.8470
  62   2.0000     -10.357284      -281.8360
  63   2.0000     -10.355420      -281.7853
  64   2.0000     -10.345899      -281.5262
  65   2.0000     -10.343368      -281.4573
  66   2.0000     -10.343106      -281.4502
  67   2.0000     -10.337289      -281.2919
  68   2.0000     -10.336014      -281.2573
  69   2.0000     -10.335882      -281.2536
  70   2.0000     -10.333536      -281.1898
  71   2.0000     -10.330897      -281.1180
  72   2.0000     -10.329561      -281.0817
  73   2.0000     -10.329540      -281.0811
  74   2.0000     -10.325471      -280.9703
  75   2.0000     -10.325432      -280.9693
  76   2.0000     -10.324077      -280.9324
  77   2.0000     -10.323724      -280.9228
  78   2.0000     -10.322310      -280.8843
  79   2.0000     -10.319123      -280.7976
  80   2.0000     -10.318864      -280.7906
  81   2.0000     -10.317183      -280.7448
  82   2.0000     -10.316699      -280.7316
  83   2.0000     -10.315899      -280.7099
  84   2.0000     -10.314532      -280.6727
  85   2.0000     -10.313595      -280.6472
  86   2.0000     -10.312936      -280.6293
  87   2.0000     -10.309835      -280.5449
  88   2.0000     -10.308066      -280.4967
  89   2.0000     -10.295144      -280.1451
  90   2.0000     -10.288718      -279.9703
  91   2.0000     -10.287618      -279.9403
  92   2.0000     -10.287293      -279.9315
  93   2.0000      -8.788100      -239.1364
  94   2.0000      -8.786603      -239.0956
  95   2.0000      -8.785905      -239.0766
  96   2.0000      -8.784943      -239.0505
  97   2.0000      -8.149287      -221.7534
  98   2.0000      -6.624230      -180.2545
  99   2.0000      -6.622762      -180.2145
 100   2.0000      -6.622036      -180.1948
 101   2.0000      -6.621122      -180.1699
 102   2.0000      -6.610238      -179.8737
 103   2.0000      -6.609420      -179.8515
 104   2.0000      -6.608713      -179.8322
 105   2.0000      -6.608015      -179.8132
 106   2.0000      -6.607916      -179.8105
 107   2.0000      -6.607255      -179.7926
 108   2.0000      -6.607067      -179.7874
 109   2.0000      -6.606236      -179.7648
 110   2.0000      -6.120044      -166.5349
 111   2.0000      -6.112833      -166.3386
 112   2.0000      -6.112218      -166.3219
 113   2.0000      -2.740140       -74.5630
 114   2.0000      -2.738694       -74.5237
 115   2.0000      -2.737953       -74.5035
 116   2.0000      -2.736979       -74.4770
 117   2.0000      -2.736417       -74.4617
 118   2.0000      -2.735730       -74.4430
 119   2.0000      -2.734875       -74.4197
 120   2.0000      -2.734264       -74.4031
 121   2.0000      -2.734135       -74.3996
 122   2.0000      -2.733608       -74.3853
 123   2.0000      -2.733290       -74.3766
 124   2.0000      -2.732608       -74.3581
 125   2.0000      -2.724621       -74.1407
 126   2.0000      -2.724606       -74.1403
 127   2.0000      -2.723077       -74.0987
 128   2.0000      -2.723069       -74.0985
 129   2.0000      -2.722422       -74.0809
 130   2.0000      -2.722416       -74.0807
 131   2.0000      -2.721443       -74.0542
 132   2.0000      -2.721413       -74.0534
 133   2.0000      -1.161354       -31.6021
 134   2.0000      -1.158328       -31.5197
 135   2.0000      -1.155093       -31.4317
 136   2.0000      -1.151222       -31.3263
 137   2.0000      -1.147878       -31.2353
 138   2.0000      -1.147122       -31.2148
 139   2.0000      -1.144968       -31.1562
 140   2.0000      -1.140598       -31.0372
 141   2.0000      -1.090648       -29.6780
 142   2.0000      -1.087449       -29.5910
 143   2.0000      -1.078340       -29.3431
 144   2.0000      -1.077053       -29.3081
 145   2.0000      -1.064853       -28.9761
 146   2.0000      -1.035915       -28.1887
 147   2.0000      -1.031051       -28.0563
 148   2.0000      -1.028791       -27.9948
 149   2.0000      -1.018870       -27.7249
 150   2.0000      -1.018357       -27.7109
 151   2.0000      -1.015622       -27.6365
 152   2.0000      -1.009403       -27.4672
 153   2.0000      -1.008102       -27.4318
 154   2.0000      -1.003648       -27.3107
 155   2.0000      -0.996602       -27.1189
 156   2.0000      -0.986742       -26.8506
 157   2.0000      -0.983043       -26.7499
 158   2.0000      -0.943980       -25.6870
 159   2.0000      -0.942574       -25.6487
 160   2.0000      -0.930805       -25.3285
 161   2.0000      -0.927286       -25.2327
 162   2.0000      -0.925990       -25.1975
 163   2.0000      -0.924356       -25.1530
 164   2.0000      -0.921338       -25.0709
 165   2.0000      -0.918650       -24.9978
 166   2.0000      -0.916231       -24.9319
 167   2.0000      -0.913314       -24.8525
 168   2.0000      -0.880109       -23.9490
 169   2.0000      -0.878112       -23.8946
 170   2.0000      -0.865175       -23.5426
 171   2.0000      -0.860469       -23.4146
 172   2.0000      -0.858883       -23.3714
 173   2.0000      -0.856820       -23.3153
 174   2.0000      -0.852905       -23.2087
 175   2.0000      -0.840110       -22.8606
 176   2.0000      -0.833090       -22.6695
 177   2.0000      -0.817877       -22.2556
 178   2.0000      -0.816092       -22.2070
 179   2.0000      -0.790473       -21.5099
 180   2.0000      -0.782928       -21.3045
 181   2.0000      -0.782137       -21.2830
 182   2.0000      -0.779039       -21.1987
 183   2.0000      -0.776114       -21.1191
 184   2.0000      -0.765276       -20.8242
 185   2.0000      -0.759074       -20.6555
 186   2.0000      -0.754180       -20.5223
 187   2.0000      -0.730253       -19.8712
 188   2.0000      -0.727597       -19.7989
 189   2.0000      -0.715930       -19.4814
 190   2.0000      -0.715172       -19.4608
 191   2.0000      -0.708563       -19.2810
 192   2.0000      -0.706113       -19.2143
 193   2.0000      -0.700163       -19.0524
 194   2.0000      -0.698383       -19.0040
 195   2.0000      -0.697753       -18.9868
 196   2.0000      -0.689380       -18.7590
 197   2.0000      -0.686765       -18.6878
 198   2.0000      -0.683045       -18.5866
 199   2.0000      -0.679851       -18.4997
 200   2.0000      -0.669046       -18.2057
 201   2.0000      -0.653524       -17.7833
 202   2.0000      -0.643272       -17.5043
 203   2.0000      -0.642444       -17.4818
 204   2.0000      -0.631905       -17.1950
 205   2.0000      -0.631378       -17.1807
 206   2.0000      -0.624231       -16.9862
 207   2.0000      -0.622926       -16.9507
 208   2.0000      -0.613933       -16.7060
 209   2.0000      -0.610229       -16.6052
 210   2.0000      -0.605222       -16.4689
 211   2.0000      -0.596959       -16.2441
 212   2.0000      -0.595835       -16.2135
 213   2.0000      -0.594179       -16.1684
 214   2.0000      -0.592214       -16.1150
 215   2.0000      -0.590535       -16.0693
 216   2.0000      -0.588459       -16.0128
 217   2.0000      -0.585010       -15.9189
 218   2.0000      -0.577428       -15.7126
 219   2.0000      -0.575884       -15.6706
 220   2.0000      -0.574890       -15.6435
 221   2.0000      -0.570720       -15.5301
 222   2.0000      -0.567100       -15.4316
 223   2.0000      -0.561395       -15.2763
 224   2.0000      -0.560437       -15.2503
 225   2.0000      -0.554815       -15.0973
 226   2.0000      -0.554389       -15.0857
 227   2.0000      -0.551908       -15.0182
 228   2.0000      -0.551270       -15.0008
 229   2.0000      -0.549394       -14.9498
 230   2.0000      -0.546867       -14.8810
 231   2.0000      -0.545460       -14.8427
 232   2.0000      -0.539888       -14.6911
 233   2.0000      -0.535416       -14.5694
 234   2.0000      -0.535308       -14.5665
 235   2.0000      -0.534712       -14.5502
 236   2.0000      -0.524969       -14.2851
 237   2.0000      -0.524047       -14.2601
 238   2.0000      -0.522062       -14.2060
 239   2.0000      -0.521274       -14.1846
 240   2.0000      -0.517038       -14.0693
 241   2.0000      -0.513380       -13.9698
 242   2.0000      -0.511151       -13.9091
 243   2.0000      -0.509445       -13.8627
 244   2.0000      -0.508053       -13.8248
 245   2.0000      -0.506189       -13.7741
 246   2.0000      -0.502873       -13.6839
 247   2.0000      -0.499313       -13.5870
 248   2.0000      -0.496939       -13.5224
 249   2.0000      -0.493998       -13.4424
 250   2.0000      -0.493663       -13.4332
 251   2.0000      -0.492162       -13.3924
 252   2.0000      -0.490300       -13.3417
 253   2.0000      -0.487114       -13.2550
 254   2.0000      -0.485661       -13.2155
 255   2.0000      -0.484801       -13.1921
 256   2.0000      -0.481697       -13.1076
 257   2.0000      -0.480861       -13.0849
 258   2.0000      -0.476384       -12.9631
 259   2.0000      -0.469201       -12.7676
 260   2.0000      -0.468620       -12.7518
 261   2.0000      -0.467940       -12.7333
 262   2.0000      -0.467405       -12.7187
 263   2.0000      -0.466297       -12.6886
 264   2.0000      -0.464426       -12.6377
 265   2.0000      -0.464108       -12.6290
 266   2.0000      -0.460898       -12.5417
 267   2.0000      -0.458387       -12.4734
 268   2.0000      -0.457968       -12.4619
 269   2.0000      -0.457575       -12.4513
 270   2.0000      -0.455719       -12.4007
 271   2.0000      -0.450846       -12.2681
 272   2.0000      -0.448681       -12.2092
 273   2.0000      -0.444910       -12.1066
 274   2.0000      -0.442864       -12.0509
 275   2.0000      -0.440783       -11.9943
 276   2.0000      -0.437594       -11.9075
 277   2.0000      -0.435839       -11.8598
 278   2.0000      -0.435570       -11.8525
 279   2.0000      -0.434104       -11.8126
 280   2.0000      -0.432527       -11.7697
 281   2.0000      -0.429927       -11.6989
 282   2.0000      -0.427143       -11.6232
 283   2.0000      -0.426398       -11.6029
 284   2.0000      -0.424294       -11.5456
 285   2.0000      -0.418635       -11.3916
 286   2.0000      -0.417612       -11.3638
 287   2.0000      -0.414010       -11.2658
 288   2.0000      -0.404113       -10.9965
 289   2.0000      -0.403035       -10.9671
 290   2.0000      -0.395550       -10.7635
 291   2.0000      -0.394386       -10.7318
 292   2.0000      -0.392952       -10.6928
 293   2.0000      -0.392244       -10.6735
 294   2.0000      -0.390180       -10.6173
 295   2.0000      -0.381343       -10.3769
 296   2.0000      -0.373731       -10.1697
 297   2.0000      -0.370143       -10.0721
 298   2.0000      -0.362880        -9.8745
 299   2.0000      -0.360846        -9.8191
 300   2.0000      -0.356747        -9.7076
 301   2.0000      -0.354208        -9.6385
 302   2.0000      -0.353576        -9.6213
 303   2.0000      -0.350840        -9.5468
 304   2.0000      -0.349408        -9.5079
 305   2.0000      -0.348469        -9.4823
 306   2.0000      -0.346801        -9.4369
 307   2.0000      -0.337208        -9.1759
 308   2.0000      -0.336959        -9.1691
 309   2.0000      -0.334004        -9.0887
 310   2.0000      -0.332224        -9.0403
 311   2.0000      -0.327455        -8.9105
 312   2.0000      -0.317504        -8.6397
 313   2.0000      -0.309793        -8.4299
 314   2.0000      -0.277167        -7.5421
 315   2.0000      -0.260135        -7.0786
 316   0.0000      -0.148392        -4.0380
 317   0.0000      -0.114264        -3.1093
 318   0.0000      -0.105445        -2.8693
 319   0.0000      -0.079083        -2.1520
 320   0.0000      -0.078646        -2.1401

MULLIKEN ATOMIC CHARGES
-----------------------
   0 C :    0.149565
   1 O :   -0.128320
   2 C :    0.010664
   3 C :    0.044970
   4 C :   -0.015002
   5 C :   -0.022805
   6 C :   -0.015587
   7 C :   -0.008573
   8 Br:    0.019721
   9 Br:    0.026243
  10 C :    0.292691
  11 C :   -0.333634
  12 C :   -0.184836
  13 N :    0.167504
  14 C :   -0.175845
  15 N :    0.150339
  16 C :   -0.054924
  17 C :   -0.064545
  18 C :    0.141066
  19 C :   -0.037231
  20 C :    0.170631
  21 O :   -0.184663
  22 N :   -0.243177
  23 C :    0.128180
  24 C :    0.023948
  25 C :   -0.043098
  26 C :    0.148393
  27 O :   -0.182088
  28 N :   -0.272247
  29 C :    0.111729
  30 C :    0.080325
  31 C :   -0.051174
  32 C :   -0.040916
  33 N :    0.048711
  34 C :   -0.119688
  35 C :   -0.124289
  36 N :    0.043637
  37 C :   -0.210675
  38 N :    0.250035
  39 C :   -0.210768
  40 N :    0.253118
  41 C :    0.075925
  42 C :   -0.005307
  43 C :   -0.002249
  44 N :   -0.236611
  45 S :    0.599364
  46 N :   -0.240927
  47 C :    0.032442
  48 C :   -0.034853
  49 C :    0.148486
  50 O :   -0.186945
  51 N :   -0.277060
  52 C :    0.114514
  53 C :    0.184565
  54 C :   -0.068622
  55 C :    0.157384
  56 O :   -0.176869
  57 N :   -0.231282
  58 C :    0.130449
  59 C :   -0.047006
  60 C :   -0.098365
  61 C :    0.133112
  62 O :   -0.128569
  63 C :    0.002789
  64 C :    0.023559
  65 C :    0.303335
  66 C :   -0.269111
  67 C :   -0.239167
  68 N :    0.179681
  69 C :   -0.182280
  70 N :    0.171106
  71 C :   -0.011503
  72 C :   -0.021410
  73 C :   -0.020601
  74 C :   -0.018592
  75 Br:    0.013749
  76 Br:    0.025189
  77 H :    0.009951
  78 H :    0.007486
  79 H :    0.021937
  80 H :    0.055905
  81 H :    0.031325
  82 H :    0.052884
  83 H :    0.060432
  84 H :    0.041556
  85 H :    0.051609
  86 H :    0.062532
  87 H :    0.043643
  88 H :    0.043757
  89 H :    0.057988
  90 H :    0.029085
  91 H :    0.058473
  92 H :    0.015329
  93 H :    0.013503
  94 H :    0.006902
Sum of atomic charges:   -0.0000000

LOEWDIN ATOMIC CHARGES
----------------------
   0 C :    0.087789
   1 O :   -0.119500
   2 C :   -0.029603
   3 C :   -0.010512
   4 C :   -0.007170
   5 C :   -0.117777
   6 C :   -0.119738
   7 C :    0.012888
   8 Br:    0.143487
   9 Br:    0.145470
  10 C :    0.072158
  11 C :   -0.124560
  12 C :   -0.020739
  13 N :   -0.035159
  14 C :   -0.016724
  15 N :   -0.044066
  16 C :   -0.043186
  17 C :    0.032226
  18 C :    0.073457
  19 C :   -0.089230
  20 C :    0.091893
  21 O :   -0.170705
  22 N :    0.011577
  23 C :    0.028105
  24 C :    0.089670
  25 C :   -0.097127
  26 C :    0.085163
  27 O :   -0.187264
  28 N :   -0.003092
  29 C :    0.030416
  30 C :   -0.026622
  31 C :   -0.001573
  32 C :    0.000725
  33 N :    0.003721
  34 C :   -0.021529
  35 C :   -0.023808
  36 N :    0.001520
  37 C :   -0.039851
  38 N :    0.006534
  39 C :   -0.040348
  40 N :    0.010091
  41 C :   -0.028965
  42 C :   -0.028465
  43 C :   -0.028283
  44 N :   -0.261052
  45 S :    0.740011
  46 N :   -0.265188
  47 C :    0.091541
  48 C :   -0.093435
  49 C :    0.085301
  50 O :   -0.191384
  51 N :   -0.001871
  52 C :    0.029761
  53 C :    0.071373
  54 C :   -0.086455
  55 C :    0.082457
  56 O :   -0.163539
  57 N :    0.020097
  58 C :    0.029080
  59 C :    0.018480
  60 C :   -0.041781
  61 C :    0.087879
  62 O :   -0.125500
  63 C :   -0.051956
  64 C :    0.000539
  65 C :    0.051397
  66 C :   -0.098384
  67 C :   -0.015123
  68 N :   -0.039196
  69 C :   -0.017129
  70 N :   -0.034999
  71 C :   -0.008709
  72 C :   -0.114681
  73 C :   -0.127681
  74 C :    0.009840
  75 Br:    0.137104
  76 Br:    0.146022
  77 H :    0.045004
  78 H :    0.047537
  79 H :    0.046887
  80 H :    0.039652
  81 H :    0.028202
  82 H :    0.027679
  83 H :    0.042908
  84 H :    0.031200
  85 H :    0.032461
  86 H :    0.043203
  87 H :    0.029304
  88 H :    0.032249
  89 H :    0.039866
  90 H :    0.027787
  91 H :    0.030530
  92 H :    0.048716
  93 H :    0.046262
  94 H :    0.046440

  Mayer bond orders larger than 0.100000
B(  0-C ,  1-O ) :   2.2606 B(  0-C ,  2-C ) :   0.9290 B(  0-C , 16-C ) :   0.9041
B(  2-C ,  3-C ) :   1.3293 B(  2-C ,  7-C ) :   1.3758 B(  3-C ,  4-C ) :   1.3505
B(  3-C , 10-C ) :   1.0083 B(  4-C ,  5-C ) :   1.3832 B(  4-C , 77-H ) :   0.9791
B(  5-C ,  6-C ) :   1.4103 B(  5-C ,  9-Br) :   1.0595 B(  6-C ,  7-C ) :   1.3569
B(  6-C ,  8-Br) :   1.0376 B(  7-C , 78-H ) :   1.0065 B( 10-C , 11-C ) :   1.6480
B( 10-C , 16-C ) :   1.0687 B( 11-C , 12-C ) :   1.1353 B( 11-C , 14-C ) :   1.1442
B( 12-C , 13-N ) :   2.9755 B( 14-C , 15-N ) :   2.9646 B( 16-C , 17-C ) :   1.6521
B( 17-C , 18-C ) :   1.1094 B( 17-C , 79-H ) :   0.9255 B( 18-C , 19-C ) :   1.3779
B( 18-C , 28-N ) :   1.1848 B( 19-C , 20-C ) :   0.9756 B( 19-C , 25-C ) :   1.2616
B( 20-C , 21-O ) :   2.1019 B( 20-C , 22-N ) :   1.0275 B( 22-N , 23-C ) :   0.9557
B( 22-N , 24-C ) :   1.2543 B( 23-C , 80-H ) :   0.9516 B( 23-C , 81-H ) :   0.9718
B( 23-C , 82-H ) :   0.9639 B( 24-C , 25-C ) :   1.4226 B( 24-C , 30-C ) :   0.9933
B( 25-C , 26-C ) :   0.9558 B( 26-C , 27-O ) :   2.1562 B( 26-C , 28-N ) :   1.0343
B( 28-N , 29-C ) :   0.9610 B( 29-C , 83-H ) :   0.9530 B( 29-C , 84-H ) :   0.9743
B( 29-C , 85-H ) :   0.9692 B( 30-C , 31-C ) :   1.2767 B( 30-C , 41-C ) :   0.1450
B( 30-C , 43-C ) :   1.2734 B( 31-C , 32-C ) :   1.1034 B( 31-C , 36-N ) :   1.4558
B( 32-C , 33-N ) :   1.4523 B( 32-C , 41-C ) :   1.2803 B( 33-N , 34-C ) :   1.7139
B( 34-C , 35-C ) :   1.2066 B( 34-C , 39-C ) :   1.1489 B( 35-C , 36-N ) :   1.7066
B( 35-C , 37-C ) :   1.1503 B( 37-C , 38-N ) :   3.0482 B( 39-C , 40-N ) :   3.0454
B( 41-C , 42-C ) :   1.2724 B( 41-C , 47-C ) :   0.9923 B( 42-C , 43-C ) :   1.0731
B( 42-C , 46-N ) :   1.5133 B( 43-C , 44-N ) :   1.5127 B( 44-N , 45-S ) :   1.3197
B( 44-N , 46-N ) :   0.1467 B( 45-S , 46-N ) :   1.3155 B( 47-C , 48-C ) :   1.4258
B( 47-C , 57-N ) :   1.2568 B( 48-C , 49-C ) :   0.9585 B( 48-C , 54-C ) :   1.2644
B( 49-C , 50-O ) :   2.1467 B( 49-C , 51-N ) :   1.0443 B( 51-N , 52-C ) :   0.9653
B( 51-N , 53-C ) :   1.1785 B( 52-C , 86-H ) :   0.9506 B( 52-C , 87-H ) :   0.9682
B( 52-C , 88-H ) :   0.9734 B( 53-C , 54-C ) :   1.3301 B( 53-C , 59-C ) :   1.1279
B( 54-C , 55-C ) :   0.9737 B( 55-C , 56-O ) :   2.0614 B( 55-C , 57-N ) :   1.0473
B( 56-O , 66-C ) :   0.1001 B( 57-N , 58-C ) :   0.9519 B( 58-C , 89-H ) :   0.9512
B( 58-C , 90-H ) :   0.9720 B( 58-C , 91-H ) :   0.9639 B( 59-C , 60-C ) :   1.6358
B( 59-C , 92-H ) :   0.9228 B( 60-C , 61-C ) :   0.9255 B( 60-C , 65-C ) :   1.0682
B( 61-C , 62-O ) :   2.2606 B( 61-C , 63-C ) :   0.9312 B( 63-C , 64-C ) :   1.3206
B( 63-C , 74-C ) :   1.3685 B( 64-C , 65-C ) :   0.9991 B( 64-C , 71-C ) :   1.3824
B( 65-C , 66-C ) :   1.6285 B( 66-C , 67-C ) :   1.1743 B( 66-C , 69-C ) :   1.1254
B( 67-C , 68-N ) :   2.9838 B( 69-C , 70-N ) :   2.9933 B( 71-C , 72-C ) :   1.3602
B( 71-C , 93-H ) :   0.9817 B( 72-C , 73-C ) :   1.4218 B( 72-C , 76-Br) :   1.0564
B( 73-C , 74-C ) :   1.3597 B( 73-C , 75-Br) :   1.0323 B( 74-C , 94-H ) :   1.0074

-----------------------------------------------------------------------------
         ABSORPTION SPECTRUM VIA TRANSITION ELECTRIC DIPOLE MOMENTS
-----------------------------------------------------------------------------
State   Energy  Wavelength   fosc         T2         TX        TY        TZ
        (cm-1)    (nm)                  (au**2)     (au)      (au)      (au)
-----------------------------------------------------------------------------
   0    8361.7   1195.9   0.502753994  19.79409   1.53963   3.91945  -1.43581
   1   11671.6    856.8   0.055618521   1.56879   0.35626  -0.59564   1.04263
   2   15691.1    637.3   0.111709802   2.34377   0.83940   1.27606  -0.10416
   3   17962.2    556.7   0.213517100   3.91334  -0.55915  -1.55236   1.09127
   4   20533.7    487.0   0.061086500   0.97939  -0.24728  -0.94065   0.18280
   5   20850.3    479.6   0.007669005   0.12109  -0.26204  -0.14588   0.17648
   6   21918.5    456.2   0.011562348   0.17366  -0.18971  -0.07441   0.36351
   7   22346.2    447.5   0.055760080   0.82148   0.03555   0.89840  -0.11442
   8   22441.0    445.6   0.046587414   0.68344   0.14412  -0.76799   0.26994
   9   23040.1    434.0   0.014279115   0.20403  -0.36855   0.14237  -0.21893
  10   23127.2    432.4   0.023523022   0.33485   0.39992   0.36173   0.20990
  11   23989.9    416.8   0.009851838   0.13520   0.19292  -0.23885  -0.20231
  12   24056.5    415.7   0.025453208   0.34833  -0.22535  -0.31223  -0.44728
  13   24360.4    410.5   0.073831971   0.99778  -0.87689   0.02483   0.47772
  14   24619.8    406.2   0.020909551   0.27960  -0.17809  -0.45526  -0.20154
  15   25091.1    398.5   0.015483288   0.20315   0.24303  -0.13785  -0.35367
  16   25778.4    387.9   0.002892984   0.03695   0.10439   0.04766  -0.15420
  17   26671.3    374.9   0.016568407   0.20451   0.31549  -0.31995   0.05106
  18   27164.5    368.1   0.020580464   0.24942   0.06370   0.45987   0.18407
  19   27369.2    365.4   0.016520476   0.19872  -0.08191   0.42860  -0.09116
  20   27480.1    363.9   0.015165989   0.18169   0.22322   0.35376  -0.08194
  21   27721.9    360.7   0.027023577   0.32092   0.17462   0.53014   0.09685
  22   27979.0    357.4   0.037766224   0.44437  -0.05131  -0.63117  -0.20823
  23   28270.2    353.7   0.069348219   0.80757  -0.01520  -0.87103  -0.22056
  24   28380.6    352.4   0.021196000   0.24587   0.28899  -0.09992   0.39035
  25   28739.0    348.0   0.009499472   0.10882  -0.31539  -0.02745  -0.09272
  26   29065.3    344.1   0.039288122   0.44500  -0.39117   0.47786  -0.25226
  27   29134.8    343.2   0.017005850   0.19216   0.43153  -0.06118   0.04690
  28   29862.9    334.9   0.130418382   1.43775  -1.13221   0.32384  -0.22579
  29   29939.2    334.0   0.148239491   1.63004  -0.26718   0.07309  -1.24632
  30   30195.9    331.2   0.136119950   1.48405   1.08039   0.22576   0.51560
  31   30263.6    330.4   0.060396456   0.65700  -0.58126  -0.56150  -0.06206
  32   30881.7    323.8   0.082624213   0.88081  -0.11119  -0.89363  -0.26434
  33   31138.2    321.1   0.065435354   0.69182  -0.00850   0.28324   0.78200
  34   31393.4    318.5   0.141649152   1.48543  -0.60246   0.80909  -0.68400
  35   31793.6    314.5   0.041354987   0.42822   0.08031  -0.64611   0.06560
  36   32012.9    312.4   0.091267920   0.93857   0.73057  -0.60917   0.18373
  37   32127.5    311.3   0.204518990   2.09572   0.05701  -1.44185   0.11629
  38   32397.4    308.7   0.054102411   0.54977   0.51915   0.43864   0.29639
  39   32621.1    306.6   0.034080784   0.34394   0.58487  -0.04045  -0.01536
  40   32867.0    304.3   0.176092853   1.76383   0.49782   0.95842   0.77294
  41   33215.1    301.1   0.010866830   0.10771  -0.23400   0.04836  -0.22497
  42   33405.5    299.4   0.284684804   2.80558  -0.86226   1.21681  -0.76252
  43   33485.2    298.6   0.106759560   1.04961   0.55273  -0.79663   0.33087
  44   33565.9    297.9   0.118178419   1.15908  -0.37170   0.94272  -0.36361
  45   33609.9    297.5   0.039605176   0.38794   0.07872  -0.59275   0.17432
  46   33933.2    294.7   0.179708221   1.74349   0.33390   1.27668   0.04565
  47   33967.9    294.4   0.015691336   0.15208   0.02711  -0.38453  -0.05898
  48   34266.5    291.8   0.016978086   0.16312   0.24611  -0.21024   0.24154
  49   34933.5    286.3   0.037520197   0.35359  -0.32886   0.12970   0.47814
  50   35033.5    285.4   0.121024993   1.13728   1.00370  -0.00785  -0.36029
  51   35085.9    285.0   0.420864521   3.94898  -1.45608  -0.18465   1.33967
  52   35435.0    282.2   0.010765406   0.10002  -0.23375  -0.20876  -0.04237
  53   36340.5    275.2   0.014235131   0.12896  -0.28999  -0.21132   0.01441
  54   36457.4    274.3   0.033347429   0.30113  -0.29463   0.46109   0.04149
  55   36635.7    273.0   0.127786337   1.14830  -0.37502  -0.85360   0.52824
  56   36845.0    271.4   0.036525400   0.32636   0.44474   0.10388   0.34317
  57   37010.4    270.2   0.016880532   0.15015  -0.04583   0.28305   0.26064
  58   37067.3    269.8   0.054876935   0.48739  -0.16008  -0.20162  -0.64893
  59   37187.0    268.9   0.003076199   0.02723  -0.08126  -0.12033  -0.07842
  60   37244.6    268.5   0.005157108   0.04558  -0.11637  -0.17884  -0.00762
  61   37336.1    267.8   0.171525403   1.51243  -0.15573   1.18111   0.30521
  62   37437.0    267.1   0.042783730   0.37623   0.35649  -0.49285  -0.07902
  63   37658.8    265.5   0.488336675   4.26903   0.40900  -2.02265  -0.10308
  64   37846.4    264.2   0.127798275   1.11167   0.64446   0.25397   0.79489
  65   38078.8    262.6   0.000831538   0.00719  -0.04401  -0.03928  -0.06091
  66   38438.5    260.2   0.048135180   0.41226  -0.37546   0.25658  -0.45327
  67   38593.4    259.1   0.003271385   0.02791  -0.12871  -0.09848  -0.04051
  68   38772.1    257.9   0.015707243   0.13337   0.27735   0.11910   0.20558
  69   38868.9    257.3   0.017582603   0.14892  -0.18544   0.33278  -0.06158
  70   38971.6    256.6   0.000409169   0.00346   0.00984   0.02795   0.05078
  71   39348.0    254.1   0.011938782   0.09989   0.07642   0.30615  -0.01786
  72   39533.0    253.0   0.145521394   1.21183   0.15791   1.07733  -0.16206
  73   39736.2    251.7   0.045823462   0.37964   0.21168  -0.48049   0.32243
  74   39795.8    251.3   0.017748275   0.14682   0.36419   0.07493   0.09260
  75   39889.2    250.7   0.003888056   0.03209  -0.11773   0.09948  -0.09129
  76   39935.2    250.4   0.027935473   0.23029   0.36661  -0.24803  -0.18539
  77   40266.6    248.3   0.021395236   0.17492   0.38752  -0.04295   0.15136

FINAL SINGLE POINT ENERGY    -13900.055450094207

DIPOLE MOMENT
-------------
                                X             Y             Z
Electronic contribution:    -60.62765     -18.49460       8.52587
Nuclear contribution   :     62.34764      17.83492      -5.93226
                        -----------------------------------------
Total Dipole Moment    :      1.71999      -0.65968       2.59361
                        -----------------------------------------
Magnitude (a.u.)       :      3.18125
Magnitude (Debye)      :      8.08609

Rotational constants in cm-1:     0.001790     0.000173     0.000171
Rotational constants in MHz :    53.661599     5.191164     5.139045

                             ****ORCA TERMINATED NORMALLY****
TOTAL RUN TIME: 0 days 0 hours 11 minutes 9 seconds 726 msec
