                         Program Version 4.2.0 -  RELEASE  -
|  1> # ORCA input file
|  2> # SCF done       -163.618281448148          0.000745963092
|  3> ! CAM-B3LYP def2-SVP def2/J RIJCOSX Grid4 TightSCF
|  4> %maxcore 5000
|  5> %tddft
|  6>     Mode sTDDFT
|  7>     Ethresh 5.0
|  8>     maxcore 5000
|  9> end
| 10>
| 11> %pal
| 12>   nprocs 6
| 13>   end
| 14> * xyz 0 1
| 15>    C        1.34950         8.08811        -8.87435
| 16>    S        2.53562         7.50757        -7.77568
| 17>    C        2.22651         8.83342        -6.68795
| 18>    C        1.25733         9.67038        -7.19837
| 19>    C        0.75045         9.23368        -8.44646
| 20>    C       -0.31896         9.97859        -9.18056
| 21>    C       -1.10883        10.84626        -8.20383
| 22>    C       -0.15130        11.73023        -7.40971
| 23>    C        0.76115        10.90504        -6.49138
| 24>    O        0.12344        10.57639        -5.26807
| 25>    C        2.90601         8.97195        -5.44159
| 26>    C        3.92168         8.18895        -5.03716
| 27>    N        4.54138         8.35035        -3.82610
| 28>    C        5.62396         7.67299        -3.38722
| 29>    S        6.39527         6.47981        -4.37950
| 30>    C        7.58780         6.23919        -3.13510
| 31>    N        8.57647         5.28935        -3.37091
| 32>    O        9.41754         5.11146        -2.50497
| 33>    O        8.52707         4.69680        -4.44026
| 34>    C        7.39438         7.03241        -2.03622
| 35>    C        6.26452         7.86552        -2.14779
| 36>    C        5.80062         8.77145        -1.14208
| 37>    C        6.50905         9.13390        -0.04099
| 38>    C        6.02090         9.99380         0.96055
| 39>    C        6.76064        10.41482         2.03419
| 40>    C        6.33586        11.25166         3.09734
| 41>    C        7.29751        11.52000         4.02109
| 42>    C        8.54704        10.91943         3.74022
| 43>    S        8.44754         9.97665         2.26678
| 44>    C        9.72213        11.03266         4.45040
| 45>    C        9.96066        11.75562         5.64307
| 46>    C       11.24538        11.70373         6.08316
| 47>    C       12.11081        10.93919         5.25673
| 48>    S       11.19756        10.25588         3.90803
| 49>    C       13.45061        10.75853         5.41860
| 50>    N       14.21044        10.04867         4.53865
| 51>    C       15.54013         9.78495         4.59415
| 52>    S       16.35859         9.44311         3.09474
| 53>    C       17.86440         9.33862         3.95342
| 54>    N       19.01347         9.04452         3.22534
| 55>    O       20.07121         8.98130         3.83256
| 56>    O       18.87782         8.87344         2.02224
| 57>    C       17.73075         9.54832         5.30128
| 58>    C       16.40451         9.79099         5.69975
| 59>    C       15.98250         9.92614         7.06991
| 60>    C       16.78905        10.26915         8.09229
| 61>    C       16.35214        10.39036         9.44369
| 62>    S       14.67392        10.20214         9.87408
| 63>    C       15.01512        10.52294        11.54968
| 64>    C       16.35849        10.77252        11.74084
| 65>    C       17.11767        10.68660        10.55398
| 66>    C       18.60067        10.89378        10.51880
| 67>    C       19.19424        10.79014        11.92094
| 68>    C       18.39374        11.65439        12.88523
| 69>    C       16.98428        11.08372        13.08035
| 70>    O       16.19508        11.94108        13.87829
| 71>    C       13.97103        10.49016        12.53551
| 72>    C       12.69139        10.23790        12.27048
| 73>    H        1.16082         7.54442        -9.77865
| 74>    H       -0.97595         9.27808        -9.69953
| 75>    H        0.14528        10.61786        -9.93797
| 76>    H       -1.68129        10.20763        -7.52571
| 77>    H       -1.81882        11.46799        -8.75114
| 78>    H       -0.70569        12.43680        -6.78933
| 79>    H        0.46905        12.30017        -8.10348
| 80>    H        1.61433        11.52366        -6.18591
| 81>    H       -0.64919        10.03462        -5.46527
| 82>    H        2.54356         9.76354        -4.79986
| 83>    H        4.30565         7.38994        -5.65454
| 84>    H        4.17434         9.07470        -3.22076
| 85>    H        8.04406         6.98673        -1.18205
| 86>    H        4.81015         9.19064        -1.26916
| 87>    H        7.51580         8.76315         0.09235
| 88>    H        4.99998        10.34583         0.88861
| 89>    H        5.32842        11.62680         3.14146
| 90>    H        7.14809        12.13624         4.88959
| 91>    H        9.17375        12.29459         6.13912
| 92>    H       11.60987        12.19136         6.96943
| 93>    H       13.95837        11.21929         6.25001
| 94>    H       13.73883         9.77901         3.68129
| 95>    H       18.56936         9.48658         5.96981
| 96>    H       14.94728         9.69990         7.28515
| 97>    H       17.82775        10.50358         7.91029
| 98>    H       18.81364        11.88553        10.10464
| 99>    H       19.06595        10.15653         9.86150
|100>    H       20.23662        11.11153        11.90297
|101>    H       19.16620         9.75156        12.25701
|102>    H       18.31347        12.66995        12.48516
|103>    H       18.88567        11.71387        13.85699
|104>    H       17.04730        10.15436        13.66309
|105>    H       16.10263        12.78706        13.42502
|106>    H       14.29447        10.69241        13.54699
|107>    H       12.35088        10.03828        11.26690
|108>    H       11.94855        10.21999        13.04781
|109> *
|110>
|111>                          ****END OF INPUT****

CARTESIAN COORDINATES (ANGSTROEM)
---------------------------------
  C      1.349500    8.088110   -8.874350
  S      2.535620    7.507570   -7.775680
  C      2.226510    8.833420   -6.687950
  C      1.257330    9.670380   -7.198370
  C      0.750450    9.233680   -8.446460
  C     -0.318960    9.978590   -9.180560
  C     -1.108830   10.846260   -8.203830
  C     -0.151300   11.730230   -7.409710
  C      0.761150   10.905040   -6.491380
  O      0.123440   10.576390   -5.268070
  C      2.906010    8.971950   -5.441590
  C      3.921680    8.188950   -5.037160
  N      4.541380    8.350350   -3.826100
  C      5.623960    7.672990   -3.387220
  S      6.395270    6.479810   -4.379500
  C      7.587800    6.239190   -3.135100
  N      8.576470    5.289350   -3.370910
  O      9.417540    5.111460   -2.504970
  O      8.527070    4.696800   -4.440260
  C      7.394380    7.032410   -2.036220
  C      6.264520    7.865520   -2.147790
  C      5.800620    8.771450   -1.142080
  C      6.509050    9.133900   -0.040990
  C      6.020900    9.993800    0.960550
  C      6.760640   10.414820    2.034190
  C      6.335860   11.251660    3.097340
  C      7.297510   11.520000    4.021090
  C      8.547040   10.919430    3.740220
  S      8.447540    9.976650    2.266780
  C      9.722130   11.032660    4.450400
  C      9.960660   11.755620    5.643070
  C     11.245380   11.703730    6.083160
  C     12.110810   10.939190    5.256730
  S     11.197560   10.255880    3.908030
  C     13.450610   10.758530    5.418600
  N     14.210440   10.048670    4.538650
  C     15.540130    9.784950    4.594150
  S     16.358590    9.443110    3.094740
  C     17.864400    9.338620    3.953420
  N     19.013470    9.044520    3.225340
  O     20.071210    8.981300    3.832560
  O     18.877820    8.873440    2.022240
  C     17.730750    9.548320    5.301280
  C     16.404510    9.790990    5.699750
  C     15.982500    9.926140    7.069910
  C     16.789050   10.269150    8.092290
  C     16.352140   10.390360    9.443690
  S     14.673920   10.202140    9.874080
  C     15.015120   10.522940   11.549680
  C     16.358490   10.772520   11.740840
  C     17.117670   10.686600   10.553980
  C     18.600670   10.893780   10.518800
  C     19.194240   10.790140   11.920940
  C     18.393740   11.654390   12.885230
  C     16.984280   11.083720   13.080350
  O     16.195080   11.941080   13.878290
  C     13.971030   10.490160   12.535510
  C     12.691390   10.237900   12.270480
  H      1.160820    7.544420   -9.778650
  H     -0.975950    9.278080   -9.699530
  H      0.145280   10.617860   -9.937970
  H     -1.681290   10.207630   -7.525710
  H     -1.818820   11.467990   -8.751140
  H     -0.705690   12.436800   -6.789330
  H      0.469050   12.300170   -8.103480
  H      1.614330   11.523660   -6.185910
  H     -0.649190   10.034620   -5.465270
  H      2.543560    9.763540   -4.799860
  H      4.305650    7.389940   -5.654540
  H      4.174340    9.074700   -3.220760
  H      8.044060    6.986730   -1.182050
  H      4.810150    9.190640   -1.269160
  H      7.515800    8.763150    0.092350
  H      4.999980   10.345830    0.888610
  H      5.328420   11.626800    3.141460
  H      7.148090   12.136240    4.889590
  H      9.173750   12.294590    6.139120
  H     11.609870   12.191360    6.969430
  H     13.958370   11.219290    6.250010
  H     13.738830    9.779010    3.681290
  H     18.569360    9.486580    5.969810
  H     14.947280    9.699900    7.285150
  H     17.827750   10.503580    7.910290
  H     18.813640   11.885530   10.104640
  H     19.065950   10.156530    9.861500
  H     20.236620   11.111530   11.902970
  H     19.166200    9.751560   12.257010
  H     18.313470   12.669950   12.485160
  H     18.885670   11.713870   13.856990
  H     17.047300   10.154360   13.663090
  H     16.102630   12.787060   13.425020
  H     14.294470   10.692410   13.546990
  H     12.350880   10.038280   11.266900
  H     11.948550   10.219990   13.047810

 Total Charge           Charge          ....    0
 Multiplicity           Mult            ....    1
 Number of Electrons    NEL             ....  460
 Basis Dimension        Dim             .... 1016

ORBITAL ENERGIES
----------------

  NO   OCC          E(Eh)            E(eV)
   0   2.0000     -88.976801     -2421.1818
   1   2.0000     -88.973083     -2421.0807
   2   2.0000     -88.948713     -2420.4175
   3   2.0000     -88.947813     -2420.3930
   4   2.0000     -88.947370     -2420.3810
   5   2.0000     -88.940369     -2420.1905
   6   2.0000     -19.227499      -523.2068
   7   2.0000     -19.226405      -523.1771
   8   2.0000     -19.220429      -523.0144
   9   2.0000     -19.219885      -522.9997
  10   2.0000     -19.212772      -522.8061
  11   2.0000     -19.210066      -522.7325
  12   2.0000     -14.638750      -398.3406
  13   2.0000     -14.632303      -398.1652
  14   2.0000     -14.485160      -394.1613
  15   2.0000     -14.477047      -393.9405
  16   2.0000     -10.364888      -282.0429
  17   2.0000     -10.360657      -281.9278
  18   2.0000     -10.334497      -281.2160
  19   2.0000     -10.332544      -281.1628
  20   2.0000     -10.326850      -281.0079
  21   2.0000     -10.325617      -280.9743
  22   2.0000     -10.321540      -280.8634
  23   2.0000     -10.319193      -280.7995
  24   2.0000     -10.312525      -280.6181
  25   2.0000     -10.308070      -280.4968
  26   2.0000     -10.306026      -280.4412
  27   2.0000     -10.303976      -280.3855
  28   2.0000     -10.302664      -280.3497
  29   2.0000     -10.297144      -280.1995
  30   2.0000     -10.296031      -280.1693
  31   2.0000     -10.295484      -280.1544
  32   2.0000     -10.295004      -280.1413
  33   2.0000     -10.294137      -280.1177
  34   2.0000     -10.289856      -280.0012
  35   2.0000     -10.287250      -279.9303
  36   2.0000     -10.286425      -279.9079
  37   2.0000     -10.286310      -279.9047
  38   2.0000     -10.285603      -279.8855
  39   2.0000     -10.284709      -279.8612
  40   2.0000     -10.284421      -279.8533
  41   2.0000     -10.281865      -279.7838
  42   2.0000     -10.281572      -279.7758
  43   2.0000     -10.279727      -279.7256
  44   2.0000     -10.276654      -279.6420
  45   2.0000     -10.275701      -279.6160
  46   2.0000     -10.275263      -279.6041
  47   2.0000     -10.273896      -279.5669
  48   2.0000     -10.270890      -279.4851
  49   2.0000     -10.270382      -279.4713
  50   2.0000     -10.270295      -279.4689
  51   2.0000     -10.270117      -279.4641
  52   2.0000     -10.270035      -279.4619
  53   2.0000     -10.268864      -279.4300
  54   2.0000     -10.265141      -279.3287
  55   2.0000     -10.264194      -279.3029
  56   2.0000     -10.263842      -279.2933
  57   2.0000     -10.261046      -279.2173
  58   2.0000      -8.072735      -219.6703
  59   2.0000      -8.068524      -219.5557
  60   2.0000      -8.045180      -218.9205
  61   2.0000      -8.043744      -218.8814
  62   2.0000      -8.042958      -218.8600
  63   2.0000      -8.036723      -218.6903
  64   2.0000      -6.042455      -164.4236
  65   2.0000      -6.038278      -164.3099
  66   2.0000      -6.038118      -164.3056
  67   2.0000      -6.033941      -164.1919
  68   2.0000      -6.033888      -164.1904
  69   2.0000      -6.029795      -164.0791
  70   2.0000      -6.015056      -163.6780
  71   2.0000      -6.012948      -163.6206
  72   2.0000      -6.012064      -163.5966
  73   2.0000      -6.011086      -163.5700
  74   2.0000      -6.008842      -163.5089
  75   2.0000      -6.008314      -163.4945
  76   2.0000      -6.006486      -163.4448
  77   2.0000      -6.006004      -163.4317
  78   2.0000      -6.005772      -163.4254
  79   2.0000      -6.005084      -163.4067
  80   2.0000      -6.002578      -163.3384
  81   2.0000      -5.997463      -163.1993
  82   2.0000      -1.306037       -35.5391
  83   2.0000      -1.299784       -35.3689
  84   2.0000      -1.124910       -30.6104
  85   2.0000      -1.118569       -30.4378
  86   2.0000      -1.103713       -30.0336
  87   2.0000      -1.099844       -29.9283
  88   2.0000      -1.089268       -29.6405
  89   2.0000      -1.083586       -29.4859
  90   2.0000      -1.000857       -27.2347
  91   2.0000      -0.992158       -26.9980
  92   2.0000      -0.991113       -26.9696
  93   2.0000      -0.983992       -26.7758
  94   2.0000      -0.978517       -26.6268
  95   2.0000      -0.970140       -26.3988
  96   2.0000      -0.916795       -24.9473
  97   2.0000      -0.916168       -24.9302
  98   2.0000      -0.910990       -24.7893
  99   2.0000      -0.909882       -24.7591
 100   2.0000      -0.897904       -24.4332
 101   2.0000      -0.891449       -24.2576
 102   2.0000      -0.880202       -23.9515
 103   2.0000      -0.873241       -23.7621
 104   2.0000      -0.863648       -23.5011
 105   2.0000      -0.854353       -23.2481
 106   2.0000      -0.846965       -23.0471
 107   2.0000      -0.841707       -22.9040
 108   2.0000      -0.834719       -22.7139
 109   2.0000      -0.827325       -22.5127
 110   2.0000      -0.824860       -22.4456
 111   2.0000      -0.819712       -22.3055
 112   2.0000      -0.819255       -22.2931
 113   2.0000      -0.816926       -22.2297
 114   2.0000      -0.794129       -21.6093
 115   2.0000      -0.788093       -21.4451
 116   2.0000      -0.780741       -21.2450
 117   2.0000      -0.763109       -20.7652
 118   2.0000      -0.754297       -20.5255
 119   2.0000      -0.735634       -20.0176
 120   2.0000      -0.717864       -19.5341
 121   2.0000      -0.717502       -19.5242
 122   2.0000      -0.715741       -19.4763
 123   2.0000      -0.715478       -19.4691
 124   2.0000      -0.704964       -19.1831
 125   2.0000      -0.688376       -18.7317
 126   2.0000      -0.683219       -18.5913
 127   2.0000      -0.677180       -18.4270
 128   2.0000      -0.672482       -18.2992
 129   2.0000      -0.663324       -18.0500
 130   2.0000      -0.652030       -17.7426
 131   2.0000      -0.648517       -17.6470
 132   2.0000      -0.644385       -17.5346
 133   2.0000      -0.640402       -17.4262
 134   2.0000      -0.632192       -17.2028
 135   2.0000      -0.626881       -17.0583
 136   2.0000      -0.621616       -16.9150
 137   2.0000      -0.619966       -16.8701
 138   2.0000      -0.619485       -16.8570
 139   2.0000      -0.615900       -16.7595
 140   2.0000      -0.615015       -16.7354
 141   2.0000      -0.613545       -16.6954
 142   2.0000      -0.611732       -16.6461
 143   2.0000      -0.605184       -16.4679
 144   2.0000      -0.599586       -16.3156
 145   2.0000      -0.595523       -16.2050
 146   2.0000      -0.583561       -15.8795
 147   2.0000      -0.580236       -15.7890
 148   2.0000      -0.579673       -15.7737
 149   2.0000      -0.577664       -15.7190
 150   2.0000      -0.571941       -15.5633
 151   2.0000      -0.563696       -15.3390
 152   2.0000      -0.557738       -15.1768
 153   2.0000      -0.555517       -15.1164
 154   2.0000      -0.546993       -14.8844
 155   2.0000      -0.546502       -14.8711
 156   2.0000      -0.542156       -14.7528
 157   2.0000      -0.537877       -14.6364
 158   2.0000      -0.535741       -14.5782
 159   2.0000      -0.534432       -14.5426
 160   2.0000      -0.530457       -14.4345
 161   2.0000      -0.527717       -14.3599
 162   2.0000      -0.523262       -14.2387
 163   2.0000      -0.518411       -14.1067
 164   2.0000      -0.515791       -14.0354
 165   2.0000      -0.512122       -13.9355
 166   2.0000      -0.509853       -13.8738
 167   2.0000      -0.508137       -13.8271
 168   2.0000      -0.506316       -13.7775
 169   2.0000      -0.501140       -13.6367
 170   2.0000      -0.496745       -13.5171
 171   2.0000      -0.495512       -13.4836
 172   2.0000      -0.495067       -13.4714
 173   2.0000      -0.491889       -13.3850
 174   2.0000      -0.491175       -13.3656
 175   2.0000      -0.489512       -13.3203
 176   2.0000      -0.480772       -13.0825
 177   2.0000      -0.478640       -13.0245
 178   2.0000      -0.475827       -12.9479
 179   2.0000      -0.472586       -12.8597
 180   2.0000      -0.470777       -12.8105
 181   2.0000      -0.466160       -12.6848
 182   2.0000      -0.463499       -12.6124
 183   2.0000      -0.461986       -12.5713
 184   2.0000      -0.455290       -12.3891
 185   2.0000      -0.454198       -12.3594
 186   2.0000      -0.454092       -12.3565
 187   2.0000      -0.448530       -12.2051
 188   2.0000      -0.442880       -12.0514
 189   2.0000      -0.440789       -11.9945
 190   2.0000      -0.436796       -11.8858
 191   2.0000      -0.435009       -11.8372
 192   2.0000      -0.434677       -11.8282
 193   2.0000      -0.432060       -11.7570
 194   2.0000      -0.429344       -11.6830
 195   2.0000      -0.424867       -11.5612
 196   2.0000      -0.422765       -11.5040
 197   2.0000      -0.422572       -11.4988
 198   2.0000      -0.415496       -11.3062
 199   2.0000      -0.414597       -11.2818
 200   2.0000      -0.409554       -11.1445
 201   2.0000      -0.405381       -11.0310
 202   2.0000      -0.402891       -10.9632
 203   2.0000      -0.399131       -10.8609
 204   2.0000      -0.398090       -10.8326
 205   2.0000      -0.387136       -10.5345
 206   2.0000      -0.384649       -10.4668
 207   2.0000      -0.375853       -10.2275
 208   2.0000      -0.375644       -10.2218
 209   2.0000      -0.369522       -10.0552
 210   2.0000      -0.369475       -10.0539
 211   2.0000      -0.365361        -9.9420
 212   2.0000      -0.362779        -9.8717
 213   2.0000      -0.361075        -9.8253
 214   2.0000      -0.355639        -9.6774
 215   2.0000      -0.349354        -9.5064
 216   2.0000      -0.346600        -9.4315
 217   2.0000      -0.345567        -9.4033
 218   2.0000      -0.342539        -9.3210
 219   2.0000      -0.339768        -9.2456
 220   2.0000      -0.326347        -8.8803
 221   2.0000      -0.323133        -8.7929
 222   2.0000      -0.313409        -8.5283
 223   2.0000      -0.308097        -8.3837
 224   2.0000      -0.307579        -8.3697
 225   2.0000      -0.298644        -8.1265
 226   2.0000      -0.276643        -7.5278
 227   2.0000      -0.250085        -6.8052
 228   2.0000      -0.240274        -6.5382
 229   2.0000      -0.203759        -5.5446
 230   0.0000      -0.072897        -1.9836
 231   0.0000      -0.045968        -1.2508
 232   0.0000      -0.045261        -1.2316
 233   0.0000      -0.038079        -1.0362
 234   0.0000      -0.009392        -0.2556

MULLIKEN ATOMIC CHARGES
-----------------------
   0 C :   -0.135118
   1 S :    0.095886
   2 C :   -0.125271
   3 C :   -0.058699
   4 C :   -0.058316
   5 C :    0.146157
   6 C :   -0.009842
   7 C :    0.049393
   8 C :    0.212400
   9 O :   -0.312241
  10 C :   -0.015348
  11 C :    0.050439
  12 N :   -0.022791
  13 C :   -0.111937
  14 S :    0.144198
  15 C :   -0.013410
  16 N :    0.281673
  17 O :   -0.262565
  18 O :   -0.277511
  19 C :    0.007053
  20 C :    0.132727
  21 C :   -0.052590
  22 C :    0.008088
  23 C :   -0.017591
  24 C :   -0.017582
  25 C :    0.034814
  26 C :    0.026988
  27 C :   -0.049520
  28 S :    0.056588
  29 C :   -0.049431
  30 C :    0.023597
  31 C :    0.038861
  32 C :   -0.050860
  33 S :    0.042576
  34 C :    0.025677
  35 N :   -0.024338
  36 C :   -0.112574
  37 S :    0.167623
  38 C :   -0.012799
  39 N :    0.280915
  40 O :   -0.260987
  41 O :   -0.270321
  42 C :   -0.004277
  43 C :    0.106236
  44 C :   -0.056235
  45 C :   -0.011334
  46 C :   -0.100809
  47 S :    0.074022
  48 C :   -0.117110
  49 C :   -0.066007
  50 C :   -0.070795
  51 C :    0.117040
  52 C :    0.017358
  53 C :    0.037842
  54 C :    0.220877
  55 O :   -0.301688
  56 C :   -0.007803
  57 C :   -0.026625
  58 H :    0.007003
  59 H :    0.005229
  60 H :    0.014938
  61 H :   -0.008869
  62 H :    0.006635
  63 H :    0.006216
  64 H :    0.002747
  65 H :   -0.005426
  66 H :    0.159364
  67 H :   -0.001366
  68 H :    0.031048
  69 H :    0.136162
  70 H :    0.008415
  71 H :   -0.037519
  72 H :   -0.001741
  73 H :   -0.023902
  74 H :   -0.016561
  75 H :   -0.015477
  76 H :   -0.014028
  77 H :   -0.009493
  78 H :    0.028608
  79 H :    0.144207
  80 H :    0.007433
  81 H :    0.009200
  82 H :   -0.011245
  83 H :    0.015151
  84 H :    0.016230
  85 H :    0.003997
  86 H :    0.010071
  87 H :   -0.014352
  88 H :    0.009280
  89 H :    0.008950
  90 H :    0.163009
  91 H :    0.011071
  92 H :    0.016718
  93 H :    0.023596
Sum of atomic charges:   -0.0000000

LOEWDIN ATOMIC CHARGES
----------------------
   0 C :   -0.198196
   1 S :    0.422723
   2 C :   -0.163013
   3 C :   -0.092999
   4 C :   -0.065120
   5 C :   -0.023505
   6 C :   -0.032455
   7 C :   -0.041249
   8 C :    0.064930
   9 O :   -0.132590
  10 C :   -0.080252
  11 C :    0.012980
  12 N :    0.043550
  13 C :   -0.096370
  14 S :    0.448082
  15 C :   -0.216897
  16 N :    0.274206
  17 O :   -0.228345
  18 O :   -0.243949
  19 C :    0.007251
  20 C :   -0.112056
  21 C :   -0.036458
  22 C :   -0.030003
  23 C :   -0.065186
  24 C :   -0.143057
  25 C :   -0.039008
  26 C :   -0.030764
  27 C :   -0.187037
  28 S :    0.357271
  29 C :   -0.172195
  30 C :   -0.043470
  31 C :   -0.027722
  32 C :   -0.189713
  33 S :    0.338051
  34 C :   -0.002520
  35 N :    0.041761
  36 C :   -0.103301
  37 S :    0.446517
  38 C :   -0.212387
  39 N :    0.274750
  40 O :   -0.226545
  41 O :   -0.236486
  42 C :    0.004492
  43 C :   -0.103309
  44 C :   -0.043260
  45 C :   -0.036775
  46 C :   -0.176930
  47 S :    0.418592
  48 C :   -0.160871
  49 C :   -0.084722
  50 C :   -0.055292
  51 C :   -0.027702
  52 C :   -0.027072
  53 C :   -0.040169
  54 C :    0.065203
  55 O :   -0.117792
  56 C :   -0.041220
  57 C :   -0.052634
  58 H :    0.019786
  59 H :    0.030552
  60 H :    0.032695
  61 H :    0.014035
  62 H :    0.026279
  63 H :    0.026896
  64 H :    0.026299
  65 H :    0.023494
  66 H :    0.069476
  67 H :    0.033923
  68 H :    0.019683
  69 H :    0.096125
  70 H :    0.043920
  71 H :    0.019072
  72 H :    0.021552
  73 H :    0.029730
  74 H :    0.032114
  75 H :    0.031054
  76 H :    0.032123
  77 H :    0.034313
  78 H :    0.039321
  79 H :    0.084707
  80 H :    0.043245
  81 H :    0.022204
  82 H :    0.030541
  83 H :    0.032039
  84 H :    0.031145
  85 H :    0.026607
  86 H :    0.024571
  87 H :    0.017211
  88 H :    0.027537
  89 H :    0.028947
  90 H :    0.074223
  91 H :    0.035248
  92 H :    0.013766
  93 H :    0.025800

  Mayer bond orders larger than 0.100000
B(  0-C ,  1-S ) :   1.1395 B(  0-C ,  4-C ) :   1.5835 B(  0-C , 58-H ) :   0.9700
B(  1-S ,  2-C ) :   1.1353 B(  2-C ,  3-C ) :   1.5252 B(  2-C , 10-C ) :   1.1684
B(  3-C ,  4-C ) :   1.3014 B(  3-C ,  8-C ) :   0.9838 B(  4-C ,  5-C ) :   1.0239
B(  5-C ,  6-C ) :   1.0874 B(  5-C , 59-H ) :   0.9257 B(  5-C , 60-H ) :   0.9158
B(  6-C ,  7-C ) :   1.0630 B(  6-C , 61-H ) :   0.9469 B(  6-C , 62-H ) :   0.9368
B(  7-C ,  8-C ) :   1.0635 B(  7-C , 63-H ) :   0.9291 B(  7-C , 64-H ) :   0.9338
B(  8-C ,  9-O ) :   1.0033 B(  8-C , 65-H ) :   0.8982 B(  9-O , 66-H ) :   0.9809
B( 10-C , 11-C ) :   1.6782 B( 10-C , 67-H ) :   0.9554 B( 11-C , 12-N ) :   1.1030
B( 11-C , 68-H ) :   0.9619 B( 12-N , 13-C ) :   1.2536 B( 12-N , 69-H ) :   0.9135
B( 13-C , 14-S ) :   1.1332 B( 13-C , 20-C ) :   1.3221 B( 14-S , 15-C ) :   1.0545
B( 15-C , 16-N ) :   0.9920 B( 15-C , 19-C ) :   1.4848 B( 16-N , 17-O ) :   1.5200
B( 16-N , 18-O ) :   1.4966 B( 17-O , 18-O ) :   0.2488 B( 19-C , 20-C ) :   1.2378
B( 19-C , 70-H ) :   0.9994 B( 20-C , 21-C ) :   1.0606 B( 21-C , 22-C ) :   1.6833
B( 21-C , 71-H ) :   0.9760 B( 22-C , 23-C ) :   1.1428 B( 22-C , 72-H ) :   0.9699
B( 23-C , 24-C ) :   1.5744 B( 23-C , 73-H ) :   0.9831 B( 24-C , 25-C ) :   1.1374
B( 24-C , 28-S ) :   1.0297 B( 25-C , 26-C ) :   1.5975 B( 25-C , 74-H ) :   0.9982
B( 26-C , 27-C ) :   1.1841 B( 26-C , 75-H ) :   0.9930 B( 27-C , 28-S ) :   1.0342
B( 27-C , 29-C ) :   1.5323 B( 29-C , 30-C ) :   1.1781 B( 29-C , 33-S ) :   1.0415
B( 30-C , 31-C ) :   1.6195 B( 30-C , 76-H ) :   0.9925 B( 31-C , 32-C ) :   1.1451
B( 31-C , 77-H ) :   0.9953 B( 32-C , 33-S ) :   1.0025 B( 32-C , 34-C ) :   1.6169
B( 34-C , 35-N ) :   1.1468 B( 34-C , 78-H ) :   0.9554 B( 35-N , 36-C ) :   1.2008
B( 35-N , 79-H ) :   0.9015 B( 36-C , 37-S ) :   1.1326 B( 36-C , 43-C ) :   1.3643
B( 37-S , 38-C ) :   1.0758 B( 38-C , 39-N ) :   0.9842 B( 38-C , 42-C ) :   1.4762
B( 39-N , 40-O ) :   1.5214 B( 39-N , 41-O ) :   1.5018 B( 40-O , 41-O ) :   0.2538
B( 42-C , 43-C ) :   1.2445 B( 42-C , 80-H ) :   1.0017 B( 43-C , 44-C ) :   1.0603
B( 44-C , 45-C ) :   1.7061 B( 44-C , 81-H ) :   0.9649 B( 45-C , 46-C ) :   1.1410
B( 45-C , 82-H ) :   0.9687 B( 46-C , 47-S ) :   1.0992 B( 46-C , 50-C ) :   1.5214
B( 47-S , 48-C ) :   1.1065 B( 48-C , 49-C ) :   1.5389 B( 48-C , 56-C ) :   1.1314
B( 49-C , 50-C ) :   1.2895 B( 49-C , 54-C ) :   0.9594 B( 50-C , 51-C ) :   1.0499
B( 51-C , 52-C ) :   1.0875 B( 51-C , 83-H ) :   0.9114 B( 51-C , 84-H ) :   0.9156
B( 52-C , 53-C ) :   1.0580 B( 52-C , 85-H ) :   0.9300 B( 52-C , 86-H ) :   0.9473
B( 53-C , 54-C ) :   1.0825 B( 53-C , 87-H ) :   0.9318 B( 53-C , 88-H ) :   0.9311
B( 54-C , 55-O ) :   1.0025 B( 54-C , 89-H ) :   0.8909 B( 55-O , 90-H ) :   0.9777
B( 56-C , 57-C ) :   1.9058 B( 56-C , 91-H ) :   0.9514 B( 57-C , 92-H ) :   0.9545
B( 57-C , 93-H ) :   0.9500

-----------------------------------------------------------------------------
         ABSORPTION SPECTRUM VIA TRANSITION ELECTRIC DIPOLE MOMENTS
-----------------------------------------------------------------------------
State   Energy  Wavelength   fosc         T2         TX        TY        TZ
        (cm-1)    (nm)                  (au**2)     (au)      (au)      (au)
-----------------------------------------------------------------------------
   0   14877.6    672.1   1.718226653  38.02088   4.81901   0.81615   3.75925
   1   20918.6    478.0   0.291506073   4.58765  -1.77810   0.97558  -0.68866
   2   21826.0    458.2   0.378809645   5.71376   0.39763  -0.69093  -2.25350
   3   22706.5    440.4   0.016884713   0.24480  -0.42186  -0.21413   0.14487
   4   23311.0    429.0   0.167092692   2.35978  -0.60095   0.87412   1.11111
   5   25785.2    387.8   0.027950037   0.35685   0.13020   0.09467  -0.57527
   6   27484.6    363.8   0.517550089   6.19924  -1.95755   1.13116  -1.04294
   7   28286.4    353.5   0.128419619   1.49461  -0.15382  -0.27492   1.18126
   8   28808.4    347.1   0.207995409   2.37689   1.07210  -0.30887  -1.06400
   9   29883.6    334.6   0.002475637   0.02727  -0.12141   0.00901  -0.11158
  10   30911.9    323.5   0.553423228   5.89397  -1.28048   1.04094   1.78067
  11   31334.8    319.1   0.519372226   5.45666   0.43543  -0.36373  -2.26600
  12   32859.5    304.3   0.206446520   2.06834   1.25567  -0.44588  -0.54114
  13   33857.8    295.4   0.016490554   0.16034   0.04353  -0.21942  -0.33212
  14   34843.2    287.0   0.006804529   0.06429  -0.15818  -0.06136  -0.18843
  15   35341.4    283.0   0.122244668   1.13873   0.61522  -0.47317  -0.73236
  16   35438.5    282.2   0.011950753   0.11102   0.05726   0.30016   0.13282
  17   35563.6    281.2   0.025980954   0.24051  -0.44291   0.15020   0.14758
  18   36251.3    275.9   0.001618364   0.01470   0.00811   0.11419   0.03988
  19   37536.3    266.4   0.071865874   0.63030  -0.51261   0.27430  -0.54064
  20   37615.2    265.8   0.014703257   0.12868  -0.12487  -0.31027  -0.12970
  21   37997.6    263.2   0.015322026   0.13275   0.15222  -0.09229  -0.31790
  22   38224.2    261.6   0.001071209   0.00923   0.04672  -0.00184  -0.08390
  23   38628.8    258.9   0.017574804   0.14978   0.01436  -0.12146  -0.36718
  24   38717.3    258.3   0.051117584   0.43465  -0.65210  -0.03965  -0.08859
  25   39041.6    256.1   0.117085721   0.98731  -0.34153  -0.41206  -0.83718
  26   39386.2    253.9   0.005834217   0.04877   0.05726   0.07821   0.19842
  27   39992.3    250.0   0.031801041   0.26178   0.40551   0.26628   0.16261
  28   40277.4    248.3   0.029089018   0.23776  -0.16343   0.09065  -0.45037

FINAL SINGLE POINT ENERGY     -4677.775653338096

DIPOLE MOMENT
-------------
                                X             Y             Z
Electronic contribution:     26.01375     -29.70530     -26.42837
Nuclear contribution   :    -29.62872      32.84793      27.74456
                        -----------------------------------------
Total Dipole Moment    :     -3.61497       3.14263       1.31619
                        -----------------------------------------
Magnitude (a.u.)       :      4.96755
Magnitude (Debye)      :     12.62650

Rotational constants in cm-1:     0.002216     0.000245     0.000228
Rotational constants in MHz :    66.446369     7.344074     6.820783

                             ****ORCA TERMINATED NORMALLY****
TOTAL RUN TIME: 0 days 0 hours 11 minutes 28 seconds 825 msec
