                         Program Version 4.2.0 -  RELEASE  -
|  1> # ORCA input file
|  2> # SCF done       -191.362596190555          0.000855986914
|  3> ! CAM-B3LYP def2-SVP def2/J RIJCOSX Grid4 TightSCF
|  4> %maxcore 5000
|  5> %tddft
|  6>     Mode sTDDFT
|  7>     Ethresh 5.0
|  8>     maxcore 5000
|  9> end
| 10>
| 11> %pal
| 12>   nprocs 6
| 13>   end
| 14> * xyz 0 1
| 15>    C       -8.24839        -2.29362        -2.83379
| 16>    C       -8.28194        -2.11441        -4.19481
| 17>    C       -8.28639        -3.16786        -5.13069
| 18>    N       -8.30315        -3.98538        -5.93719
| 19>    C       -8.30092        -0.85974        -4.83720
| 20>    N       -8.30330         0.12740        -5.42470
| 21>    C       -8.15065        -3.57414        -2.14294
| 22>    C       -8.04851        -3.33260        -0.75100
| 23>    C       -7.93628        -4.34350         0.17154
| 24>    C       -7.91997        -5.65929        -0.30338
| 25>    C       -8.02694        -5.89192        -1.69505
| 26>    C       -8.14283        -4.86824        -2.62799
| 27>    S       -7.99435        -7.58962        -2.06310
| 28>    C       -7.83686        -7.95843        -0.36601
| 29>    C       -7.81044        -6.86856         0.43674
| 30>   Br       -7.72572        -9.74735         0.18480
| 31>    C       -8.08907        -1.88084        -0.49825
| 32>    O       -8.12731        -1.33679         0.58478
| 33>    C       -8.21839        -1.25002        -1.83533
| 34>    C       -8.49802         0.07675        -2.03280
| 35>    C       -8.27268         1.10596        -1.09809
| 36>    S       -9.28290         2.52602        -1.10302
| 37>    C       -8.41381         3.24067         0.22721
| 38>    C       -7.35030         2.41201         0.60457
| 39>    C       -7.26664         1.22379        -0.13204
| 40>    C       -6.20198         0.30147        -0.05865
| 41>    N       -5.31359        -0.42161        -0.07634
| 42>    C       -6.41460         2.80867         1.69828
| 43>    F       -7.05447         2.99420         2.87231
| 44>    F       -5.44478         1.92708         1.93350
| 45>    F       -5.80259         3.98558         1.43641
| 46>    C       -8.78700         4.46457         0.80092
| 47>    C       -9.85215         5.21237         0.36953
| 48>    C      -10.27234         6.40520         0.95448
| 49>    S       -9.48161         7.08956         2.34479
| 50>    C      -10.62018         8.40400         2.48298
| 51>    C      -11.55714         8.35184         1.41090
| 52>    C      -11.36744         7.21693         0.57111
| 53>    C      -12.21668         6.99504        -0.52308
| 54>    C      -13.21350         7.89632        -0.78553
| 55>    F      -14.03909         7.69752        -1.82574
| 56>    C      -13.37103         9.04320         0.00962
| 57>    F      -14.33443         9.93060        -0.29670
| 58>    C      -12.55647         9.27961         1.08709
| 59>    C      -10.49083         9.25000         3.57923
| 60>    C      -11.41318        10.17307         4.03804
| 61>    C      -11.22302        10.98666         5.14035
| 62>    C      -12.19309        11.87329         5.59704
| 63>    C      -12.12882        12.73975         6.69916
| 64>    C      -13.26259        13.49126         6.89074
| 65>    C      -14.26603        13.24745         5.94423
| 66>    S      -13.74006        12.03897         4.79848
| 67>    C      -15.53305        13.81612         5.83277
| 68>    C      -16.14515        14.78043         6.65174
| 69>    C      -17.41160        15.11079         6.25387
| 70>    C      -17.86199        14.42734         5.10302
| 71>    S      -16.60228        13.34293         4.54335
| 72>    C      -19.09592        14.57210         4.50667
| 73>    C      -19.59430        13.92116         3.36733
| 74>    C      -18.97535        12.97946         2.52601
| 75>    C      -19.88386        12.61273         1.51512
| 76>    C      -19.76237        11.73083         0.45586
| 77>    C      -20.86543        11.57687        -0.38799
| 78>    C      -21.06172        10.78271        -1.51426
| 79>    C      -22.38106        10.99749        -2.01023
| 80>    C      -23.00337        11.92825        -1.19071
| 81>    C      -22.09640        12.31968        -0.16198
| 82>    C      -22.22224        13.19687         0.88266
| 83>    C      -21.11281        13.35684         1.74059
| 84>    C      -20.92157        14.14286         2.85907
| 85>    C      -22.98832        10.36971        -3.15922
| 86>    C      -22.40286         9.47130        -3.94672
| 87>    H       -7.85714        -4.12504         1.22474
| 88>    H       -8.22572        -5.09672        -3.67745
| 89>    H       -7.71731        -6.91232         1.50652
| 90>    H       -8.97543         0.38094        -2.95629
| 91>    H       -8.20637         4.82198         1.63955
| 92>    H      -10.42239         4.85043        -0.47588
| 93>    H      -12.09644         6.13750        -1.16389
| 94>    H      -12.69312        10.19296         1.63855
| 95>    H       -9.58915         9.11999         4.16554
| 96>    H      -12.37277        10.24752         3.54929
| 97>    H      -10.28738        10.94815         5.68124
| 98>    H      -11.25675        12.79205         7.32665
| 99>    H      -13.38576        14.20428         7.68612
|100>    H      -15.64921        15.20371         7.50649
|101>    H      -18.03474        15.82806         6.75869
|102>    H      -19.76549        15.27737         4.98485
|103>    H      -17.97890        12.59313         2.61617
|104>    H      -18.84868        11.18016         0.28473
|105>    H      -20.33502        10.11595        -1.94003
|106>    H      -24.00582        12.29893        -1.30452
|107>    H      -23.13375        13.75162         1.05551
|108>    H      -21.63653        14.81616         3.29724
|109>    H      -24.00460        10.68165        -3.36523
|110>    H      -21.39415         9.13302        -3.78321
|111>    H      -22.91612         9.04436        -4.79061
|112> *
|113>
|114>                          ****END OF INPUT****

CARTESIAN COORDINATES (ANGSTROEM)
---------------------------------
  C     -8.248390   -2.293620   -2.833790
  C     -8.281940   -2.114410   -4.194810
  C     -8.286390   -3.167860   -5.130690
  N     -8.303150   -3.985380   -5.937190
  C     -8.300920   -0.859740   -4.837200
  N     -8.303300    0.127400   -5.424700
  C     -8.150650   -3.574140   -2.142940
  C     -8.048510   -3.332600   -0.751000
  C     -7.936280   -4.343500    0.171540
  C     -7.919970   -5.659290   -0.303380
  C     -8.026940   -5.891920   -1.695050
  C     -8.142830   -4.868240   -2.627990
  S     -7.994350   -7.589620   -2.063100
  C     -7.836860   -7.958430   -0.366010
  C     -7.810440   -6.868560    0.436740
  Br    -7.725720   -9.747350    0.184800
  C     -8.089070   -1.880840   -0.498250
  O     -8.127310   -1.336790    0.584780
  C     -8.218390   -1.250020   -1.835330
  C     -8.498020    0.076750   -2.032800
  C     -8.272680    1.105960   -1.098090
  S     -9.282900    2.526020   -1.103020
  C     -8.413810    3.240670    0.227210
  C     -7.350300    2.412010    0.604570
  C     -7.266640    1.223790   -0.132040
  C     -6.201980    0.301470   -0.058650
  N     -5.313590   -0.421610   -0.076340
  C     -6.414600    2.808670    1.698280
  F     -7.054470    2.994200    2.872310
  F     -5.444780    1.927080    1.933500
  F     -5.802590    3.985580    1.436410
  C     -8.787000    4.464570    0.800920
  C     -9.852150    5.212370    0.369530
  C    -10.272340    6.405200    0.954480
  S     -9.481610    7.089560    2.344790
  C    -10.620180    8.404000    2.482980
  C    -11.557140    8.351840    1.410900
  C    -11.367440    7.216930    0.571110
  C    -12.216680    6.995040   -0.523080
  C    -13.213500    7.896320   -0.785530
  F    -14.039090    7.697520   -1.825740
  C    -13.371030    9.043200    0.009620
  F    -14.334430    9.930600   -0.296700
  C    -12.556470    9.279610    1.087090
  C    -10.490830    9.250000    3.579230
  C    -11.413180   10.173070    4.038040
  C    -11.223020   10.986660    5.140350
  C    -12.193090   11.873290    5.597040
  C    -12.128820   12.739750    6.699160
  C    -13.262590   13.491260    6.890740
  C    -14.266030   13.247450    5.944230
  S    -13.740060   12.038970    4.798480
  C    -15.533050   13.816120    5.832770
  C    -16.145150   14.780430    6.651740
  C    -17.411600   15.110790    6.253870
  C    -17.861990   14.427340    5.103020
  S    -16.602280   13.342930    4.543350
  C    -19.095920   14.572100    4.506670
  C    -19.594300   13.921160    3.367330
  C    -18.975350   12.979460    2.526010
  C    -19.883860   12.612730    1.515120
  C    -19.762370   11.730830    0.455860
  C    -20.865430   11.576870   -0.387990
  C    -21.061720   10.782710   -1.514260
  C    -22.381060   10.997490   -2.010230
  C    -23.003370   11.928250   -1.190710
  C    -22.096400   12.319680   -0.161980
  C    -22.222240   13.196870    0.882660
  C    -21.112810   13.356840    1.740590
  C    -20.921570   14.142860    2.859070
  C    -22.988320   10.369710   -3.159220
  C    -22.402860    9.471300   -3.946720
  H     -7.857140   -4.125040    1.224740
  H     -8.225720   -5.096720   -3.677450
  H     -7.717310   -6.912320    1.506520
  H     -8.975430    0.380940   -2.956290
  H     -8.206370    4.821980    1.639550
  H    -10.422390    4.850430   -0.475880
  H    -12.096440    6.137500   -1.163890
  H    -12.693120   10.192960    1.638550
  H     -9.589150    9.119990    4.165540
  H    -12.372770   10.247520    3.549290
  H    -10.287380   10.948150    5.681240
  H    -11.256750   12.792050    7.326650
  H    -13.385760   14.204280    7.686120
  H    -15.649210   15.203710    7.506490
  H    -18.034740   15.828060    6.758690
  H    -19.765490   15.277370    4.984850
  H    -17.978900   12.593130    2.616170
  H    -18.848680   11.180160    0.284730
  H    -20.335020   10.115950   -1.940030
  H    -24.005820   12.298930   -1.304520
  H    -23.133750   13.751620    1.055510
  H    -21.636530   14.816160    3.297240
  H    -24.004600   10.681650   -3.365230
  H    -21.394150    9.133020   -3.783210
  H    -22.916120    9.044360   -4.790610

 Total Charge           Charge          ....    0
 Multiplicity           Mult            ....    1
 Number of Electrons    NEL             ....  556
 Basis Dimension        Dim             .... 1171

ORBITAL ENERGIES
----------------

  NO   OCC          E(Eh)            E(eV)
   0   2.0000    -482.878863    -13139.8019
   1   2.0000     -88.974749     -2421.1260
   2   2.0000     -88.969430     -2420.9813
   3   2.0000     -88.967718     -2420.9347
   4   2.0000     -88.959839     -2420.7203
   5   2.0000     -88.956059     -2420.6174
   6   2.0000     -62.556600     -1702.2516
   7   2.0000     -56.390543     -1534.4647
   8   2.0000     -56.387838     -1534.3911
   9   2.0000     -56.387805     -1534.3902
  10   2.0000     -24.796415      -674.7448
  11   2.0000     -24.793586      -674.6678
  12   2.0000     -24.791248      -674.6041
  13   2.0000     -24.789873      -674.5667
  14   2.0000     -24.788188      -674.5209
  15   2.0000     -19.206304      -522.6301
  16   2.0000     -14.406913      -392.0320
  17   2.0000     -14.406677      -392.0256
  18   2.0000     -14.398931      -391.8148
  19   2.0000     -10.515469      -286.1405
  20   2.0000     -10.375586      -282.3340
  21   2.0000     -10.371007      -282.2094
  22   2.0000     -10.357887      -281.8524
  23   2.0000     -10.351281      -281.6727
  24   2.0000     -10.333621      -281.1921
  25   2.0000     -10.333060      -281.1769
  26   2.0000     -10.332227      -281.1542
  27   2.0000     -10.329822      -281.0887
  28   2.0000     -10.327382      -281.0223
  29   2.0000     -10.325597      -280.9738
  30   2.0000     -10.322714      -280.8953
  31   2.0000     -10.319627      -280.8113
  32   2.0000     -10.317394      -280.7506
  33   2.0000     -10.316797      -280.7343
  34   2.0000     -10.316292      -280.7206
  35   2.0000     -10.313954      -280.6569
  36   2.0000     -10.312881      -280.6277
  37   2.0000     -10.311647      -280.5942
  38   2.0000     -10.309995      -280.5492
  39   2.0000     -10.309769      -280.5431
  40   2.0000     -10.307975      -280.4943
  41   2.0000     -10.305502      -280.4270
  42   2.0000     -10.303548      -280.3738
  43   2.0000     -10.302744      -280.3519
  44   2.0000     -10.300726      -280.2970
  45   2.0000     -10.300153      -280.2814
  46   2.0000     -10.300039      -280.2783
  47   2.0000     -10.299581      -280.2659
  48   2.0000     -10.299522      -280.2643
  49   2.0000     -10.299306      -280.2584
  50   2.0000     -10.299268      -280.2573
  51   2.0000     -10.297951      -280.2215
  52   2.0000     -10.297020      -280.1962
  53   2.0000     -10.296987      -280.1953
  54   2.0000     -10.295777      -280.1623
  55   2.0000     -10.295311      -280.1496
  56   2.0000     -10.294154      -280.1182
  57   2.0000     -10.292480      -280.0726
  58   2.0000     -10.292353      -280.0692
  59   2.0000     -10.291853      -280.0556
  60   2.0000     -10.289827      -280.0004
  61   2.0000     -10.289088      -279.9803
  62   2.0000     -10.288057      -279.9523
  63   2.0000     -10.287042      -279.9247
  64   2.0000     -10.286669      -279.9145
  65   2.0000     -10.284581      -279.8577
  66   2.0000     -10.283285      -279.8224
  67   2.0000     -10.283157      -279.8189
  68   2.0000     -10.283035      -279.8156
  69   2.0000     -10.279471      -279.7186
  70   2.0000     -10.277232      -279.6577
  71   2.0000     -10.276713      -279.6436
  72   2.0000     -10.276670      -279.6424
  73   2.0000     -10.276010      -279.6244
  74   2.0000     -10.275812      -279.6191
  75   2.0000     -10.265660      -279.3428
  76   2.0000      -8.786044      -239.0804
  77   2.0000      -8.070368      -219.6059
  78   2.0000      -8.064642      -219.4501
  79   2.0000      -8.063776      -219.4265
  80   2.0000      -8.055796      -219.2093
  81   2.0000      -8.052404      -219.1171
  82   2.0000      -6.622332      -180.2028
  83   2.0000      -6.607776      -179.8067
  84   2.0000      -6.607597      -179.8018
  85   2.0000      -6.039602      -164.3459
  86   2.0000      -6.035646      -164.2383
  87   2.0000      -6.033655      -164.1841
  88   2.0000      -6.033472      -164.1791
  89   2.0000      -6.032324      -164.1479
  90   2.0000      -6.029785      -164.0788
  91   2.0000      -6.029192      -164.0626
  92   2.0000      -6.027085      -164.0053
  93   2.0000      -6.025445      -163.9607
  94   2.0000      -6.024971      -163.9478
  95   2.0000      -6.022003      -163.8670
  96   2.0000      -6.021327      -163.8486
  97   2.0000      -6.018029      -163.7589
  98   2.0000      -6.016990      -163.7306
  99   2.0000      -6.013550      -163.6370
 100   2.0000      -2.738187       -74.5099
 101   2.0000      -2.734149       -74.4000
 102   2.0000      -2.733973       -74.3952
 103   2.0000      -2.722425       -74.0809
 104   2.0000      -2.722407       -74.0805
 105   2.0000      -1.382426       -37.6177
 106   2.0000      -1.314048       -35.7571
 107   2.0000      -1.299043       -35.3487
 108   2.0000      -1.287303       -35.0293
 109   2.0000      -1.278430       -34.7879
 110   2.0000      -1.122536       -30.5457
 111   2.0000      -1.016417       -27.6581
 112   2.0000      -1.013930       -27.5904
 113   2.0000      -1.008775       -27.4502
 114   2.0000      -1.007762       -27.4226
 115   2.0000      -1.004814       -27.3424
 116   2.0000      -0.998336       -27.1661
 117   2.0000      -0.985442       -26.8152
 118   2.0000      -0.985437       -26.8151
 119   2.0000      -0.981380       -26.7047
 120   2.0000      -0.979713       -26.6593
 121   2.0000      -0.971794       -26.4439
 122   2.0000      -0.950684       -25.8694
 123   2.0000      -0.937017       -25.4975
 124   2.0000      -0.928538       -25.2668
 125   2.0000      -0.916027       -24.9264
 126   2.0000      -0.911034       -24.7905
 127   2.0000      -0.900959       -24.5163
 128   2.0000      -0.900416       -24.5016
 129   2.0000      -0.888717       -24.1832
 130   2.0000      -0.880590       -23.9621
 131   2.0000      -0.877634       -23.8816
 132   2.0000      -0.875640       -23.8274
 133   2.0000      -0.875547       -23.8248
 134   2.0000      -0.863351       -23.4930
 135   2.0000      -0.856633       -23.3102
 136   2.0000      -0.853092       -23.2138
 137   2.0000      -0.849196       -23.1078
 138   2.0000      -0.839952       -22.8562
 139   2.0000      -0.833179       -22.6720
 140   2.0000      -0.831306       -22.6210
 141   2.0000      -0.820920       -22.3384
 142   2.0000      -0.814242       -22.1566
 143   2.0000      -0.809336       -22.0232
 144   2.0000      -0.794965       -21.6321
 145   2.0000      -0.782955       -21.3053
 146   2.0000      -0.774868       -21.0852
 147   2.0000      -0.763246       -20.7690
 148   2.0000      -0.755369       -20.5546
 149   2.0000      -0.750171       -20.4132
 150   2.0000      -0.744788       -20.2667
 151   2.0000      -0.742342       -20.2002
 152   2.0000      -0.725255       -19.7352
 153   2.0000      -0.718044       -19.5390
 154   2.0000      -0.715756       -19.4767
 155   2.0000      -0.698459       -19.0060
 156   2.0000      -0.695302       -18.9201
 157   2.0000      -0.687017       -18.6947
 158   2.0000      -0.684194       -18.6179
 159   2.0000      -0.682592       -18.5743
 160   2.0000      -0.678847       -18.4724
 161   2.0000      -0.673655       -18.3311
 162   2.0000      -0.666587       -18.1388
 163   2.0000      -0.663832       -18.0638
 164   2.0000      -0.663561       -18.0564
 165   2.0000      -0.657993       -17.9049
 166   2.0000      -0.652464       -17.7544
 167   2.0000      -0.648840       -17.6558
 168   2.0000      -0.647215       -17.6116
 169   2.0000      -0.636545       -17.3213
 170   2.0000      -0.635574       -17.2949
 171   2.0000      -0.633309       -17.2332
 172   2.0000      -0.626614       -17.0510
 173   2.0000      -0.622794       -16.9471
 174   2.0000      -0.617190       -16.7946
 175   2.0000      -0.615778       -16.7562
 176   2.0000      -0.615596       -16.7512
 177   2.0000      -0.611202       -16.6317
 178   2.0000      -0.603796       -16.4301
 179   2.0000      -0.597652       -16.2629
 180   2.0000      -0.589554       -16.0426
 181   2.0000      -0.587531       -15.9875
 182   2.0000      -0.583938       -15.8898
 183   2.0000      -0.579410       -15.7665
 184   2.0000      -0.576799       -15.6955
 185   2.0000      -0.568308       -15.4644
 186   2.0000      -0.564050       -15.3486
 187   2.0000      -0.561039       -15.2667
 188   2.0000      -0.550650       -14.9839
 189   2.0000      -0.547786       -14.9060
 190   2.0000      -0.544854       -14.8262
 191   2.0000      -0.544529       -14.8174
 192   2.0000      -0.542360       -14.7584
 193   2.0000      -0.541377       -14.7316
 194   2.0000      -0.541118       -14.7246
 195   2.0000      -0.539222       -14.6730
 196   2.0000      -0.534570       -14.5464
 197   2.0000      -0.532920       -14.5015
 198   2.0000      -0.529712       -14.4142
 199   2.0000      -0.525868       -14.3096
 200   2.0000      -0.521494       -14.1906
 201   2.0000      -0.519886       -14.1468
 202   2.0000      -0.517660       -14.0862
 203   2.0000      -0.516090       -14.0435
 204   2.0000      -0.513488       -13.9727
 205   2.0000      -0.510377       -13.8881
 206   2.0000      -0.508128       -13.8269
 207   2.0000      -0.506180       -13.7739
 208   2.0000      -0.504040       -13.7156
 209   2.0000      -0.503795       -13.7089
 210   2.0000      -0.501602       -13.6493
 211   2.0000      -0.501427       -13.6445
 212   2.0000      -0.500548       -13.6206
 213   2.0000      -0.497701       -13.5431
 214   2.0000      -0.494066       -13.4442
 215   2.0000      -0.490185       -13.3386
 216   2.0000      -0.487827       -13.2744
 217   2.0000      -0.486810       -13.2468
 218   2.0000      -0.486243       -13.2313
 219   2.0000      -0.484150       -13.1744
 220   2.0000      -0.483000       -13.1431
 221   2.0000      -0.480699       -13.0805
 222   2.0000      -0.480053       -13.0629
 223   2.0000      -0.476734       -12.9726
 224   2.0000      -0.472835       -12.8665
 225   2.0000      -0.472324       -12.8526
 226   2.0000      -0.469825       -12.7846
 227   2.0000      -0.467790       -12.7292
 228   2.0000      -0.464512       -12.6400
 229   2.0000      -0.462786       -12.5931
 230   2.0000      -0.460708       -12.5365
 231   2.0000      -0.456213       -12.4142
 232   2.0000      -0.451088       -12.2747
 233   2.0000      -0.449281       -12.2256
 234   2.0000      -0.445881       -12.1330
 235   2.0000      -0.442067       -12.0292
 236   2.0000      -0.440936       -11.9985
 237   2.0000      -0.440706       -11.9922
 238   2.0000      -0.438504       -11.9323
 239   2.0000      -0.436151       -11.8683
 240   2.0000      -0.435431       -11.8487
 241   2.0000      -0.431577       -11.7438
 242   2.0000      -0.431213       -11.7339
 243   2.0000      -0.430290       -11.7088
 244   2.0000      -0.428886       -11.6706
 245   2.0000      -0.427539       -11.6339
 246   2.0000      -0.419426       -11.4132
 247   2.0000      -0.418665       -11.3924
 248   2.0000      -0.417309       -11.3556
 249   2.0000      -0.416463       -11.3325
 250   2.0000      -0.415235       -11.2991
 251   2.0000      -0.410786       -11.1781
 252   2.0000      -0.406549       -11.0628
 253   2.0000      -0.405083       -11.0229
 254   2.0000      -0.400688       -10.9033
 255   2.0000      -0.397368       -10.8129
 256   2.0000      -0.394163       -10.7257
 257   2.0000      -0.385285       -10.4841
 258   2.0000      -0.378179       -10.2908
 259   2.0000      -0.376500       -10.2451
 260   2.0000      -0.368672       -10.0321
 261   2.0000      -0.368320       -10.0225
 262   2.0000      -0.358532        -9.7562
 263   2.0000      -0.348739        -9.4897
 264   2.0000      -0.341624        -9.2961
 265   2.0000      -0.338434        -9.2093
 266   2.0000      -0.332981        -9.0609
 267   2.0000      -0.331734        -9.0269
 268   2.0000      -0.329425        -8.9641
 269   2.0000      -0.320374        -8.7178
 270   2.0000      -0.309336        -8.4175
 271   2.0000      -0.306741        -8.3469
 272   2.0000      -0.291308        -7.9269
 273   2.0000      -0.284676        -7.7464
 274   2.0000      -0.280125        -7.6226
 275   2.0000      -0.265884        -7.2351
 276   2.0000      -0.241599        -6.5742
 277   2.0000      -0.200943        -5.4679
 278   0.0000      -0.117199        -3.1891
 279   0.0000      -0.104433        -2.8418
 280   0.0000      -0.086165        -2.3447
 281   0.0000      -0.060505        -1.6464
 282   0.0000      -0.051074        -1.3898

MULLIKEN ATOMIC CHARGES
-----------------------
   0 C :    0.292473
   1 C :   -0.337464
   2 C :   -0.186564
   3 N :    0.149498
   4 C :   -0.204379
   5 N :    0.154820
   6 C :    0.023791
   7 C :   -0.014943
   8 C :   -0.063570
   9 C :    0.114914
  10 C :   -0.088640
  11 C :   -0.024198
  12 S :    0.182944
  13 C :   -0.121832
  14 C :    0.037297
  15 Br:    0.019793
  16 C :    0.145831
  17 O :   -0.146605
  18 C :   -0.101347
  19 C :    0.024214
  20 C :   -0.094031
  21 S :    0.142664
  22 C :   -0.078501
  23 C :   -0.061204
  24 C :    0.036148
  25 C :   -0.262790
  26 N :    0.165962
  27 C :    0.515891
  28 F :   -0.169462
  29 F :   -0.131562
  30 F :   -0.171724
  31 C :   -0.022846
  32 C :    0.002847
  33 C :   -0.103032
  34 S :    0.151090
  35 C :   -0.079884
  36 C :    0.117032
  37 C :    0.143493
  38 C :   -0.123746
  39 C :    0.229811
  40 F :   -0.177432
  41 C :    0.213757
  42 F :   -0.184249
  43 C :   -0.118448
  44 C :    0.016948
  45 C :   -0.001988
  46 C :   -0.010268
  47 C :   -0.013485
  48 C :    0.024074
  49 C :    0.029806
  50 C :   -0.048613
  51 S :    0.061706
  52 C :   -0.012575
  53 C :    0.016124
  54 C :    0.042180
  55 C :   -0.031728
  56 S :    0.063952
  57 C :    0.006293
  58 C :    0.046217
  59 C :   -0.028503
  60 C :    0.038665
  61 C :    0.014496
  62 C :    0.041528
  63 C :   -0.010651
  64 C :    0.059646
  65 C :   -0.018161
  66 C :    0.056794
  67 C :    0.004886
  68 C :    0.058691
  69 C :   -0.031136
  70 C :    0.011422
  71 C :   -0.020972
  72 H :   -0.008022
  73 H :   -0.007049
  74 H :   -0.002583
  75 H :    0.029160
  76 H :    0.012192
  77 H :   -0.002514
  78 H :   -0.009315
  79 H :   -0.008137
  80 H :   -0.015336
  81 H :    0.007355
  82 H :   -0.015002
  83 H :   -0.010447
  84 H :   -0.009081
  85 H :   -0.012553
  86 H :   -0.007548
  87 H :   -0.017366
  88 H :   -0.006630
  89 H :   -0.014240
  90 H :   -0.014807
  91 H :   -0.023175
  92 H :   -0.022647
  93 H :   -0.021360
  94 H :   -0.017612
  95 H :    0.011202
  96 H :    0.024349
Sum of atomic charges:   -0.0000000

LOEWDIN ATOMIC CHARGES
----------------------
   0 C :    0.075278
   1 C :   -0.142040
   2 C :   -0.018280
   3 N :   -0.056555
   4 C :   -0.022950
   5 N :   -0.055184
   6 C :   -0.018460
   7 C :   -0.044791
   8 C :    0.025061
   9 C :   -0.032535
  10 C :   -0.143564
  11 C :   -0.011037
  12 S :    0.430252
  13 C :   -0.272643
  14 C :   -0.069470
  15 Br:    0.134086
  16 C :    0.086766
  17 O :   -0.135375
  18 C :   -0.089279
  19 C :    0.038106
  20 C :   -0.164963
  21 S :    0.462584
  22 C :   -0.113514
  23 C :   -0.115775
  24 C :   -0.043270
  25 C :   -0.031540
  26 N :   -0.041465
  27 C :    0.172920
  28 F :   -0.067524
  29 F :   -0.029941
  30 F :   -0.071264
  31 C :   -0.086687
  32 C :   -0.010530
  33 C :   -0.198477
  34 S :    0.472844
  35 C :   -0.135052
  36 C :   -0.054820
  37 C :   -0.024482
  38 C :   -0.041781
  39 C :    0.067813
  40 F :   -0.055047
  41 C :    0.054457
  42 F :   -0.062083
  43 C :   -0.032552
  44 C :   -0.069318
  45 C :   -0.012089
  46 C :   -0.072432
  47 C :   -0.128626
  48 C :   -0.049662
  49 C :   -0.019738
  50 C :   -0.195389
  51 S :    0.381925
  52 C :   -0.156902
  53 C :   -0.051869
  54 C :   -0.014029
  55 C :   -0.165646
  56 S :    0.402071
  57 C :   -0.018209
  58 C :   -0.075883
  59 C :    0.010807
  60 C :   -0.060118
  61 C :    0.083711
  62 C :   -0.063883
  63 C :    0.059039
  64 C :   -0.057341
  65 C :    0.024770
  66 C :   -0.059198
  67 C :    0.075230
  68 C :   -0.066499
  69 C :    0.042429
  70 C :   -0.022906
  71 C :   -0.047284
  72 H :    0.042141
  73 H :    0.040609
  74 H :    0.039049
  75 H :    0.044981
  76 H :    0.025656
  77 H :    0.027269
  78 H :    0.040549
  79 H :    0.039692
  80 H :    0.030001
  81 H :    0.019213
  82 H :    0.033181
  83 H :    0.034160
  84 H :    0.033769
  85 H :    0.032387
  86 H :    0.035286
  87 H :    0.036837
  88 H :    0.013483
  89 H :    0.039231
  90 H :    0.028744
  91 H :    0.026110
  92 H :    0.036021
  93 H :    0.026068
  94 H :    0.029875
  95 H :    0.019155
  96 H :    0.026339

  Mayer bond orders larger than 0.100000
B(  0-C ,  1-C ) :   1.6318 B(  0-C ,  6-C ) :   1.0068 B(  0-C , 18-C ) :   1.0882
B(  1-C ,  2-C ) :   1.1401 B(  1-C ,  4-C ) :   1.1453 B(  2-C ,  3-N ) :   2.9709
B(  4-C ,  5-N ) :   2.9876 B(  6-C ,  7-C ) :   1.2733 B(  6-C , 11-C ) :   1.4111
B(  7-C ,  8-C ) :   1.4279 B(  7-C , 16-C ) :   0.9439 B(  8-C ,  9-C ) :   1.2449
B(  8-C , 72-H ) :   1.0168 B(  9-C , 10-C ) :   1.3086 B(  9-C , 14-C ) :   1.1616
B( 10-C , 11-C ) :   1.3275 B( 10-C , 12-S ) :   1.0843 B( 11-C , 73-H ) :   0.9805
B( 12-S , 13-C ) :   1.0850 B( 13-C , 14-C ) :   1.6192 B( 13-C , 15-Br) :   1.0165
B( 14-C , 74-H ) :   1.0005 B( 16-C , 17-O ) :   2.2070 B( 16-C , 18-C ) :   0.9431
B( 18-C , 19-C ) :   1.5773 B( 19-C , 20-C ) :   1.2093 B( 19-C , 75-H ) :   0.9255
B( 20-C , 21-S ) :   1.0799 B( 20-C , 24-C ) :   1.4448 B( 21-S , 22-C ) :   1.1392
B( 22-C , 23-C ) :   1.3781 B( 22-C , 31-C ) :   1.2581 B( 23-C , 24-C ) :   1.3812
B( 23-C , 27-C ) :   0.9395 B( 24-C , 25-C ) :   1.1156 B( 25-C , 26-N ) :   3.0182
B( 27-C , 28-F ) :   1.1487 B( 27-C , 29-F ) :   1.1838 B( 27-C , 30-F ) :   1.1536
B( 31-C , 32-C ) :   1.4951 B( 31-C , 76-H ) :   0.9536 B( 32-C , 33-C ) :   1.3053
B( 32-C , 77-H ) :   0.9642 B( 33-C , 34-S ) :   1.0882 B( 33-C , 37-C ) :   1.2523
B( 34-S , 35-C ) :   1.1573 B( 35-C , 36-C ) :   1.2441 B( 35-C , 44-C ) :   1.2653
B( 36-C , 37-C ) :   1.2465 B( 36-C , 43-C ) :   1.1931 B( 37-C , 38-C ) :   1.1966
B( 38-C , 39-C ) :   1.4705 B( 38-C , 43-C ) :   0.1092 B( 38-C , 78-H ) :   0.9993
B( 39-C , 40-F ) :   1.1316 B( 39-C , 41-C ) :   1.1863 B( 41-C , 42-F ) :   1.1237
B( 41-C , 43-C ) :   1.4712 B( 43-C , 79-H ) :   0.9922 B( 44-C , 45-C ) :   1.4876
B( 44-C , 80-H ) :   0.9565 B( 45-C , 46-C ) :   1.2803 B( 45-C , 81-H ) :   0.9631
B( 46-C , 47-C ) :   1.4270 B( 46-C , 82-H ) :   0.9878 B( 47-C , 48-C ) :   1.2115
B( 47-C , 51-S ) :   1.0673 B( 48-C , 49-C ) :   1.5082 B( 48-C , 83-H ) :   1.0003
B( 49-C , 50-C ) :   1.2544 B( 49-C , 84-H ) :   0.9952 B( 50-C , 51-S ) :   1.0475
B( 50-C , 52-C ) :   1.4201 B( 52-C , 53-C ) :   1.2265 B( 52-C , 56-S ) :   1.0763
B( 53-C , 54-C ) :   1.5421 B( 53-C , 85-H ) :   0.9956 B( 54-C , 55-C ) :   1.1756
B( 54-C , 86-H ) :   0.9995 B( 55-C , 56-S ) :   1.0287 B( 55-C , 57-C ) :   1.5248
B( 57-C , 58-C ) :   1.1706 B( 57-C , 87-H ) :   0.9703 B( 58-C , 59-C ) :   1.3838
B( 58-C , 69-C ) :   1.1339 B( 59-C , 60-C ) :   1.1866 B( 59-C , 88-H ) :   0.9922
B( 60-C , 61-C ) :   1.3786 B( 60-C , 68-C ) :   1.1340 B( 61-C , 62-C ) :   1.1780
B( 61-C , 89-H ) :   1.0038 B( 62-C , 63-C ) :   1.3860 B( 62-C , 66-C ) :   1.1219
B( 63-C , 64-C ) :   1.1754 B( 63-C , 90-H ) :   1.0092 B( 64-C , 65-C ) :   1.4746
B( 64-C , 70-C ) :   1.0825 B( 65-C , 66-C ) :   1.1016 B( 65-C , 91-H ) :   1.0162
B( 66-C , 67-C ) :   1.4572 B( 67-C , 68-C ) :   1.1268 B( 67-C , 92-H ) :   1.0044
B( 68-C , 69-C ) :   1.4264 B( 69-C , 93-H ) :   1.0159 B( 70-C , 71-C ) :   1.9363
B( 70-C , 94-H ) :   0.9663 B( 71-C , 95-H ) :   0.9533 B( 71-C , 96-H ) :   0.9497

-----------------------------------------------------------------------------
         ABSORPTION SPECTRUM VIA TRANSITION ELECTRIC DIPOLE MOMENTS
-----------------------------------------------------------------------------
State   Energy  Wavelength   fosc         T2         TX        TY        TZ
        (cm-1)    (nm)                  (au**2)     (au)      (au)      (au)
-----------------------------------------------------------------------------
   0    5263.7   1899.8   0.256278761  16.02859   3.09944  -2.52394  -0.22751
   1    7681.1   1301.9   1.023100407  43.85004   3.88090  -5.04025  -1.83972
   2   12056.5    829.4   0.005253543   0.14345  -0.18343   0.28351   0.17155
   3   14108.0    708.8   0.509340976  11.88556   1.59742   2.39527   1.89645
   4   16273.3    614.5   0.330537433   6.68682  -0.33981  -2.04950  -1.53977
   5   18909.2    528.8   0.421971627   7.34659  -1.42500  -1.21326  -1.96061
   6   20145.7    496.4   0.045895352   0.75000  -0.36572  -0.56622  -0.54374
   7   21537.6    464.3   0.078259788   1.19624  -0.51341   0.00641  -0.96572
   8   21783.9    459.1   0.007381765   0.11156   0.13147   0.18597  -0.24431
   9   22385.1    446.7   0.294003109   4.32383  -1.06594  -0.50491  -1.71250
  10   23533.5    424.9   0.008953380   0.12525  -0.34008   0.04095  -0.08899
  11   24506.7    408.1   0.024512662   0.32929   0.22480   0.21787   0.48093
  12   25016.8    399.7   0.097319718   1.28069   0.26619  -0.29911   1.05847
  13   25766.9    388.1   0.089687793   1.14590   0.09602  -0.84491   0.65023
  14   25954.0    385.3   0.292325585   3.70798  -0.85013  -0.96490  -1.43326
  15   26708.9    374.4   0.210527521   2.59495  -0.44913   1.21011   0.96378
  16   27584.2    362.5   0.421161736   5.02648  -1.17699   0.21212  -1.89636
  17   27734.5    360.6   0.160648040   1.90691  -0.97870  -0.02875  -0.97377
  18   28314.5    353.2   0.239896307   2.78927   0.10886  -1.31160  -1.02817
  19   28534.9    350.4   0.158039665   1.82333  -0.06395  -0.74485  -1.12447
  20   29521.0    338.7   0.032121529   0.35821   0.45317   0.00132   0.39095
  21   29916.8    334.3   0.160554293   1.76678  -0.02257  -1.31430  -0.19719
  22   29995.5    333.4   0.044799233   0.49169   0.04389   0.69974  -0.01129
  23   30653.1    326.2   0.141607179   1.52085   0.84563   0.32561   0.83651
  24   30891.8    323.7   0.006087446   0.06487   0.25024   0.02172   0.04219
  25   31232.1    320.2   0.131343821   1.38447  -0.08873  -0.87012  -0.78708
  26   31679.8    315.7   0.357571677   3.71583   0.02255  -1.68302   0.93956
  27   32305.0    309.5   0.000993137   0.01012   0.05024  -0.07541  -0.04371
  28   32440.3    308.3   0.019143185   0.19427  -0.18698   0.14108   0.37337
  29   32563.6    307.1   0.152652986   1.54329   0.21637   0.74961  -0.96673
  30   32759.3    305.3   0.018623110   0.18715  -0.20083   0.00765  -0.38310
  31   33147.5    301.7   0.005523335   0.05486   0.07241   0.20813   0.07934
  32   33259.2    300.7   0.065413455   0.64749   0.34358  -0.43394  -0.58407
  33   33297.2    300.3   0.012519809   0.12378   0.23276   0.03770  -0.26113
  34   33643.8    297.2   0.036474687   0.35691   0.15771   0.30394  -0.48955
  35   34377.9    290.9   0.192504462   1.84348  -0.45131   1.27716   0.09302
  36   34459.0    290.2   0.034687595   0.33140  -0.35658   0.20448  -0.40303
  37   34733.0    287.9   0.118256483   1.12088   0.04452   0.57885   0.88534
  38   35054.1    285.3   0.150576639   1.41415  -0.83682   0.75612  -0.37704
  39   35182.0    284.2   0.007258781   0.06792   0.07359  -0.20066  -0.14914
  40   35338.2    283.0   0.014811246   0.13798   0.32005  -0.17468   0.07099
  41   35523.5    281.5   0.004586827   0.04251   0.00979   0.00769   0.20580
  42   35799.4    279.3   0.128114525   1.17814  -0.21494   0.38654   0.99123
  43   36074.6    277.2   0.055792026   0.50915  -0.31446   0.33532  -0.54573
  44   36121.7    276.8   0.049761925   0.45353  -0.01926   0.23231  -0.63182
  45   36228.7    276.0   0.026790097   0.24344   0.41730   0.22277   0.14029
  46   36705.4    272.4   0.009020218   0.08090   0.25609  -0.11737   0.03930
  47   36850.8    271.4   0.103139940   0.92142  -0.28583   0.72647   0.55853
  48   37267.9    268.3   0.061116296   0.53988   0.45497  -0.38292   0.43157
  49   37748.6    264.9   0.084698462   0.73867  -0.19741  -0.33590  -0.76608
  50   38348.3    260.8   0.102886671   0.88326  -0.47965  -0.24967  -0.76867
  51   38375.5    260.6   0.050483215   0.43308   0.06914   0.41668   0.50466
  52   38558.1    259.3   0.061481295   0.52493  -0.40036   0.60321   0.02802
  53   38649.0    258.7   0.008089016   0.06890  -0.05904  -0.24029   0.08762
  54   39058.4    256.0   0.007432632   0.06265  -0.00887  -0.21530  -0.12733
  55   39235.9    254.9   0.025869348   0.21706  -0.46389   0.02577   0.03469
  56   39317.1    254.3   0.066047222   0.55303   0.12806   0.59885   0.42191
  57   39420.8    253.7   0.026544487   0.22168  -0.34111  -0.02905  -0.32324
  58   39737.4    251.7   0.060531837   0.50149  -0.06779  -0.31631  -0.62995
  59   39829.4    251.1   0.014929906   0.12340  -0.27917   0.20059   0.07234
  60   39960.4    250.2   0.074847703   0.61663  -0.05644   0.72390   0.29902
  61   40247.8    248.5   0.020800312   0.17014  -0.12503  -0.38345  -0.08646

FINAL SINGLE POINT ENERGY     -7486.317901549655

DIPOLE MOMENT
-------------
                                X             Y             Z
Electronic contribution:    123.46748    -221.14814     -18.71053
Nuclear contribution   :   -128.61896     226.43619      22.41263
                        -----------------------------------------
Total Dipole Moment    :     -5.15148       5.28804       3.70210
                        -----------------------------------------
Magnitude (a.u.)       :      8.25873
Magnitude (Debye)      :     20.99203

Rotational constants in cm-1:     0.001043     0.000185     0.000169
Rotational constants in MHz :    31.273732     5.541636     5.064865

                             ****ORCA TERMINATED NORMALLY****
TOTAL RUN TIME: 0 days 0 hours 12 minutes 23 seconds 729 msec
