                         Program Version 4.2.0 -  RELEASE  -
|  1> # ORCA input file
|  2> # SCF done       -185.296351749402          0.000649752331
|  3> ! CAM-B3LYP def2-SVP def2/J RIJCOSX Grid4 TightSCF
|  4> %maxcore 5000
|  5> %tddft
|  6>     Mode sTDDFT
|  7>     Ethresh 5.0
|  8>     maxcore 5000
|  9> end
| 10>
| 11> %pal
| 12>   nprocs 6
| 13>   end
| 14> * xyz 0 1
| 15>    C        7.29196        15.64955        -1.42284
| 16>    C        7.60048        14.62573        -0.57060
| 17>    C        8.04157        14.80497         0.75870
| 18>    N        8.40167        14.88757         1.84544
| 19>    C        7.52093        13.25065        -0.88231
| 20>    N        7.49242        12.11537        -1.04846
| 21>    C        7.38283        17.06991        -1.12093
| 22>    C        6.95823        17.81602        -2.24913
| 23>    C        6.92972        19.18996        -2.25988
| 24>    C        7.34762        19.86275        -1.10758
| 25>    C        7.77492        19.10979         0.01355
| 26>    C        7.79865        17.72238         0.02797
| 27>    S        8.24864        20.13878         1.33149
| 28>    C        7.87144        21.54576         0.37293
| 29>    C        7.41449        21.26279        -0.87026
| 30>   Br        8.11589        23.25471         1.10423
| 31>    C        6.55919        16.89504        -3.33179
| 32>    O        6.05080        17.19093        -4.38561
| 33>    C        6.83301        15.52236        -2.80461
| 34>    C        6.63038        14.40033        -3.51398
| 35>    C        6.28062        14.40697        -4.94051
| 36>    N        7.15787        14.96664        -5.76958
| 37>    C        6.83517        14.95271        -7.05362
| 38>    C        5.66870        14.38467        -7.52701
| 39>    C        4.82319        13.78399        -6.58086
| 40>    N        5.15666        13.80681        -5.28311
| 41>    C        3.58314        13.11633        -6.88074
| 42>    C        3.11252        12.84321        -8.11822
| 43>    C        1.88875        12.17785        -8.41923
| 44>    C        0.93663        11.81932        -7.52034
| 45>    C       -0.26719        11.16216        -7.85888
| 46>    O       -0.55378        10.78730        -9.13491
| 47>    C       -1.77499        10.19253        -9.14442
| 48>    C       -2.28645        10.18718        -7.84591
| 49>    C       -1.32611        10.80030        -7.02617
| 50>    O       -1.39657        11.00848        -5.69465
| 51>    O       -3.47206         9.69704        -7.38797
| 52>    C       -2.34056         9.68051       -10.33199
| 53>    C       -1.70953         9.69012       -11.54333
| 54>    C       -2.22221         9.17935       -12.75243
| 55>    C       -3.47203         8.64725       -12.94090
| 56>    C       -3.92783         8.12954       -14.15523
| 57>    C       -5.18888         7.61071       -14.34803
| 58>    C       -5.71505         7.05245       -15.53429
| 59>    C       -7.00479         6.62073       -15.43122
| 60>    C       -7.57575         6.81892       -14.15654
| 61>    S       -6.40878         7.56405       -13.08343
| 62>    C       -8.85551         6.51529       -13.73576
| 63>    C       -9.88745         5.88282       -14.46666
| 64>    C      -11.04293         5.73255       -13.76704
| 65>    C      -10.99821         6.22530       -12.43379
| 66>    S       -9.41359         6.90893       -12.12364
| 67>    C      -12.05443         6.24252       -11.56911
| 68>    C      -12.11047         6.68087       -10.22255
| 69>    S      -13.62085         7.39570        -9.70983
| 70>    C      -13.00754         7.71193        -8.12022
| 71>    C      -11.71189         7.24899        -7.99678
| 72>    C      -11.20756         6.65252        -9.17092
| 73>    C       -9.90062         5.90989        -9.18473
| 74>    O      -10.06359         4.76432        -9.99916
| 75>    C       -8.87800         4.07163       -10.29548
| 76>    C       -9.50093         5.56558        -7.74421
| 77>    C       -9.49985         6.83012        -6.90007
| 78>    C      -10.92697         7.36130        -6.71512
| 79>    O      -10.94031         8.72381        -6.32117
| 80>    C      -10.48841         8.96353        -5.01350
| 81>    C      -13.81831         8.35278        -7.12455
| 82>    C      -15.08108         8.73257        -7.30907
| 83>    H        6.59684        19.72822        -3.13336
| 84>    H        8.13004        17.19558         0.90709
| 85>    H        7.13493        22.00914        -1.59118
| 86>    H        6.72324        13.42004        -3.06743
| 87>    H        7.55325        15.41637        -7.71848
| 88>    H        5.42608        14.40528        -8.57595
| 89>    H        3.03551        12.80620        -6.00344
| 90>    H        3.70374        13.12883        -8.97863
| 91>    H        1.70385        11.95280        -9.46085
| 92>    H        1.04263        12.03567        -6.46848
| 93>    H       -2.23978        10.65746        -5.38016
| 94>    H       -3.97673         9.33624        -8.12460
| 95>    H       -3.32778         9.25018       -10.23675
| 96>    H       -0.71659        10.11707       -11.57257
| 97>    H       -1.56131         9.21562       -13.60906
| 98>    H       -4.17150         8.61663       -12.11598
| 99>    H       -3.25673         8.12729       -15.00429
|100>    H       -5.12274         6.98599       -16.43006
|101>    H       -7.55883         6.17362       -16.23704
|102>    H       -9.74559         5.55609       -15.48125
|103>    H      -11.93464         5.27324       -14.15585
|104>    H      -13.00910         5.95450       -11.99410
|105>    H       -9.10909         6.55185        -9.61515
|106>    H       -9.12464         3.38124       -11.10082
|107>    H       -8.51019         3.49946        -9.43659
|108>    H       -8.09019         4.75544       -10.63347
|109>    H       -8.50710         5.11553        -7.73713
|110>    H      -10.21216         4.84025        -7.34244
|111>    H       -8.90943         7.60365        -7.39758
|112>    H       -9.05215         6.62779        -5.92543
|113>    H      -11.43571         6.75892        -5.93745
|114>    H      -10.70090        10.01130        -4.80790
|115>    H       -9.41190         8.79013        -4.90994
|116>    H      -11.01939         8.33483        -4.28690
|117>    H      -13.32680         8.53161        -6.17983
|118>    H      -15.58292         8.57729        -8.25030
|119>    H      -15.64619         9.21116        -6.52934
|120> *
|121>
|122>                          ****END OF INPUT****

CARTESIAN COORDINATES (ANGSTROEM)
---------------------------------
  C      7.291960   15.649550   -1.422840
  C      7.600480   14.625730   -0.570600
  C      8.041570   14.804970    0.758700
  N      8.401670   14.887570    1.845440
  C      7.520930   13.250650   -0.882310
  N      7.492420   12.115370   -1.048460
  C      7.382830   17.069910   -1.120930
  C      6.958230   17.816020   -2.249130
  C      6.929720   19.189960   -2.259880
  C      7.347620   19.862750   -1.107580
  C      7.774920   19.109790    0.013550
  C      7.798650   17.722380    0.027970
  S      8.248640   20.138780    1.331490
  C      7.871440   21.545760    0.372930
  C      7.414490   21.262790   -0.870260
  Br     8.115890   23.254710    1.104230
  C      6.559190   16.895040   -3.331790
  O      6.050800   17.190930   -4.385610
  C      6.833010   15.522360   -2.804610
  C      6.630380   14.400330   -3.513980
  C      6.280620   14.406970   -4.940510
  N      7.157870   14.966640   -5.769580
  C      6.835170   14.952710   -7.053620
  C      5.668700   14.384670   -7.527010
  C      4.823190   13.783990   -6.580860
  N      5.156660   13.806810   -5.283110
  C      3.583140   13.116330   -6.880740
  C      3.112520   12.843210   -8.118220
  C      1.888750   12.177850   -8.419230
  C      0.936630   11.819320   -7.520340
  C     -0.267190   11.162160   -7.858880
  O     -0.553780   10.787300   -9.134910
  C     -1.774990   10.192530   -9.144420
  C     -2.286450   10.187180   -7.845910
  C     -1.326110   10.800300   -7.026170
  O     -1.396570   11.008480   -5.694650
  O     -3.472060    9.697040   -7.387970
  C     -2.340560    9.680510  -10.331990
  C     -1.709530    9.690120  -11.543330
  C     -2.222210    9.179350  -12.752430
  C     -3.472030    8.647250  -12.940900
  C     -3.927830    8.129540  -14.155230
  C     -5.188880    7.610710  -14.348030
  C     -5.715050    7.052450  -15.534290
  C     -7.004790    6.620730  -15.431220
  C     -7.575750    6.818920  -14.156540
  S     -6.408780    7.564050  -13.083430
  C     -8.855510    6.515290  -13.735760
  C     -9.887450    5.882820  -14.466660
  C    -11.042930    5.732550  -13.767040
  C    -10.998210    6.225300  -12.433790
  S     -9.413590    6.908930  -12.123640
  C    -12.054430    6.242520  -11.569110
  C    -12.110470    6.680870  -10.222550
  S    -13.620850    7.395700   -9.709830
  C    -13.007540    7.711930   -8.120220
  C    -11.711890    7.248990   -7.996780
  C    -11.207560    6.652520   -9.170920
  C     -9.900620    5.909890   -9.184730
  O    -10.063590    4.764320   -9.999160
  C     -8.878000    4.071630  -10.295480
  C     -9.500930    5.565580   -7.744210
  C     -9.499850    6.830120   -6.900070
  C    -10.926970    7.361300   -6.715120
  O    -10.940310    8.723810   -6.321170
  C    -10.488410    8.963530   -5.013500
  C    -13.818310    8.352780   -7.124550
  C    -15.081080    8.732570   -7.309070
  H      6.596840   19.728220   -3.133360
  H      8.130040   17.195580    0.907090
  H      7.134930   22.009140   -1.591180
  H      6.723240   13.420040   -3.067430
  H      7.553250   15.416370   -7.718480
  H      5.426080   14.405280   -8.575950
  H      3.035510   12.806200   -6.003440
  H      3.703740   13.128830   -8.978630
  H      1.703850   11.952800   -9.460850
  H      1.042630   12.035670   -6.468480
  H     -2.239780   10.657460   -5.380160
  H     -3.976730    9.336240   -8.124600
  H     -3.327780    9.250180  -10.236750
  H     -0.716590   10.117070  -11.572570
  H     -1.561310    9.215620  -13.609060
  H     -4.171500    8.616630  -12.115980
  H     -3.256730    8.127290  -15.004290
  H     -5.122740    6.985990  -16.430060
  H     -7.558830    6.173620  -16.237040
  H     -9.745590    5.556090  -15.481250
  H    -11.934640    5.273240  -14.155850
  H    -13.009100    5.954500  -11.994100
  H     -9.109090    6.551850   -9.615150
  H     -9.124640    3.381240  -11.100820
  H     -8.510190    3.499460   -9.436590
  H     -8.090190    4.755440  -10.633470
  H     -8.507100    5.115530   -7.737130
  H    -10.212160    4.840250   -7.342440
  H     -8.909430    7.603650   -7.397580
  H     -9.052150    6.627790   -5.925430
  H    -11.435710    6.758920   -5.937450
  H    -10.700900   10.011300   -4.807900
  H     -9.411900    8.790130   -4.909940
  H    -11.019390    8.334830   -4.286900
  H    -13.326800    8.531610   -6.179830
  H    -15.582920    8.577290   -8.250300
  H    -15.646190    9.211160   -6.529340

 Total Charge           Charge          ....    0
 Multiplicity           Mult            ....    1
 Number of Electrons    NEL             ....  530
 Basis Dimension        Dim             .... 1171

ORBITAL ENERGIES
----------------

  NO   OCC          E(Eh)            E(eV)
   0   2.0000    -482.885429    -13139.9806
   1   2.0000     -88.974869     -2421.1293
   2   2.0000     -88.941972     -2420.2341
   3   2.0000     -88.941071     -2420.2096
   4   2.0000     -88.940523     -2420.1947
   5   2.0000     -62.563154     -1702.4300
   6   2.0000     -56.397105     -1534.6432
   7   2.0000     -56.394386     -1534.5693
   8   2.0000     -56.394356     -1534.5685
   9   2.0000     -19.283342      -524.7264
  10   2.0000     -19.267029      -524.2825
  11   2.0000     -19.256807      -524.0044
  12   2.0000     -19.213067      -522.8141
  13   2.0000     -19.212343      -522.7944
  14   2.0000     -19.206810      -522.6439
  15   2.0000     -14.415944      -392.2778
  16   2.0000     -14.414716      -392.2444
  17   2.0000     -14.398756      -391.8101
  18   2.0000     -14.396450      -391.7473
  19   2.0000     -10.363547      -282.0064
  20   2.0000     -10.359026      -281.8834
  21   2.0000     -10.343880      -281.4713
  22   2.0000     -10.341112      -281.3960
  23   2.0000     -10.336853      -281.2801
  24   2.0000     -10.336135      -281.2605
  25   2.0000     -10.335406      -281.2407
  26   2.0000     -10.331358      -281.1306
  27   2.0000     -10.325439      -280.9695
  28   2.0000     -10.323997      -280.9302
  29   2.0000     -10.321224      -280.8548
  30   2.0000     -10.318485      -280.7802
  31   2.0000     -10.318304      -280.7753
  32   2.0000     -10.316727      -280.7324
  33   2.0000     -10.316674      -280.7310
  34   2.0000     -10.309063      -280.5239
  35   2.0000     -10.309000      -280.5222
  36   2.0000     -10.308117      -280.4981
  37   2.0000     -10.307854      -280.4910
  38   2.0000     -10.307113      -280.4708
  39   2.0000     -10.306660      -280.4585
  40   2.0000     -10.305817      -280.4355
  41   2.0000     -10.305341      -280.4226
  42   2.0000     -10.303551      -280.3739
  43   2.0000     -10.300123      -280.2806
  44   2.0000     -10.300015      -280.2777
  45   2.0000     -10.299966      -280.2763
  46   2.0000     -10.297609      -280.2122
  47   2.0000     -10.296317      -280.1770
  48   2.0000     -10.292683      -280.0781
  49   2.0000     -10.291461      -280.0449
  50   2.0000     -10.288161      -279.9551
  51   2.0000     -10.285091      -279.8716
  52   2.0000     -10.284101      -279.8446
  53   2.0000     -10.281965      -279.7865
  54   2.0000     -10.281018      -279.7607
  55   2.0000     -10.280852      -279.7562
  56   2.0000     -10.279612      -279.7225
  57   2.0000     -10.279494      -279.7193
  58   2.0000     -10.277752      -279.6719
  59   2.0000     -10.275224      -279.6031
  60   2.0000     -10.274477      -279.5827
  61   2.0000     -10.273706      -279.5618
  62   2.0000     -10.273521      -279.5567
  63   2.0000     -10.271232      -279.4944
  64   2.0000     -10.269610      -279.4503
  65   2.0000     -10.268431      -279.4182
  66   2.0000     -10.267251      -279.3861
  67   2.0000     -10.266246      -279.3588
  68   2.0000     -10.266017      -279.3525
  69   2.0000     -10.264145      -279.3016
  70   2.0000     -10.262025      -279.2439
  71   2.0000     -10.257223      -279.1132
  72   2.0000      -8.792587      -239.2584
  73   2.0000      -8.070988      -219.6228
  74   2.0000      -8.038067      -218.7269
  75   2.0000      -8.036610      -218.6873
  76   2.0000      -8.036527      -218.6850
  77   2.0000      -6.628899      -180.3815
  78   2.0000      -6.614319      -179.9848
  79   2.0000      -6.614117      -179.9793
  80   2.0000      -6.040693      -164.3756
  81   2.0000      -6.036403      -164.2589
  82   2.0000      -6.032148      -164.1431
  83   2.0000      -6.007765      -163.4796
  84   2.0000      -6.006369      -163.4416
  85   2.0000      -6.005692      -163.4232
  86   2.0000      -6.003876      -163.3738
  87   2.0000      -6.002393      -163.3334
  88   2.0000      -6.001783      -163.3168
  89   2.0000      -5.999010      -163.2414
  90   2.0000      -5.998606      -163.2304
  91   2.0000      -5.997534      -163.2012
  92   2.0000      -2.744769       -74.6890
  93   2.0000      -2.740680       -74.5777
  94   2.0000      -2.740520       -74.5734
  95   2.0000      -2.728945       -74.2584
  96   2.0000      -2.728929       -74.2579
  97   2.0000      -1.203398       -32.7461
  98   2.0000      -1.159615       -31.5547
  99   2.0000      -1.143142       -31.1065
 100   2.0000      -1.129042       -30.7228
 101   2.0000      -1.115278       -30.3483
 102   2.0000      -1.109873       -30.2012
 103   2.0000      -1.072877       -29.1945
 104   2.0000      -1.022162       -27.8144
 105   2.0000      -1.012944       -27.5636
 106   2.0000      -0.993563       -27.0362
 107   2.0000      -0.991155       -26.9707
 108   2.0000      -0.988075       -26.8869
 109   2.0000      -0.978070       -26.6146
 110   2.0000      -0.969815       -26.3900
 111   2.0000      -0.967188       -26.3185
 112   2.0000      -0.942052       -25.6345
 113   2.0000      -0.921351       -25.0712
 114   2.0000      -0.913376       -24.8542
 115   2.0000      -0.908074       -24.7100
 116   2.0000      -0.907669       -24.6989
 117   2.0000      -0.904116       -24.6023
 118   2.0000      -0.893997       -24.3269
 119   2.0000      -0.887671       -24.1547
 120   2.0000      -0.885968       -24.1084
 121   2.0000      -0.885406       -24.0931
 122   2.0000      -0.877070       -23.8663
 123   2.0000      -0.864314       -23.5192
 124   2.0000      -0.852972       -23.2105
 125   2.0000      -0.842789       -22.9335
 126   2.0000      -0.839745       -22.8506
 127   2.0000      -0.834516       -22.7083
 128   2.0000      -0.828768       -22.5519
 129   2.0000      -0.826559       -22.4918
 130   2.0000      -0.822710       -22.3871
 131   2.0000      -0.815303       -22.1855
 132   2.0000      -0.801917       -21.8213
 133   2.0000      -0.784345       -21.3431
 134   2.0000      -0.778279       -21.1780
 135   2.0000      -0.770512       -20.9667
 136   2.0000      -0.766583       -20.8598
 137   2.0000      -0.757858       -20.6224
 138   2.0000      -0.747161       -20.3313
 139   2.0000      -0.739009       -20.1095
 140   2.0000      -0.734142       -19.9770
 141   2.0000      -0.726611       -19.7721
 142   2.0000      -0.715136       -19.4598
 143   2.0000      -0.704876       -19.1806
 144   2.0000      -0.700945       -19.0737
 145   2.0000      -0.693723       -18.8772
 146   2.0000      -0.689051       -18.7500
 147   2.0000      -0.688598       -18.7377
 148   2.0000      -0.687759       -18.7149
 149   2.0000      -0.679736       -18.4966
 150   2.0000      -0.673091       -18.3157
 151   2.0000      -0.667657       -18.1679
 152   2.0000      -0.662054       -18.0154
 153   2.0000      -0.655576       -17.8391
 154   2.0000      -0.646257       -17.5855
 155   2.0000      -0.635205       -17.2848
 156   2.0000      -0.632366       -17.2076
 157   2.0000      -0.622539       -16.9402
 158   2.0000      -0.621058       -16.8998
 159   2.0000      -0.618805       -16.8385
 160   2.0000      -0.614624       -16.7248
 161   2.0000      -0.610180       -16.6038
 162   2.0000      -0.607910       -16.5421
 163   2.0000      -0.604858       -16.4590
 164   2.0000      -0.597926       -16.2704
 165   2.0000      -0.594800       -16.1853
 166   2.0000      -0.591948       -16.1077
 167   2.0000      -0.588804       -16.0222
 168   2.0000      -0.580388       -15.7932
 169   2.0000      -0.576259       -15.6808
 170   2.0000      -0.571351       -15.5473
 171   2.0000      -0.568740       -15.4762
 172   2.0000      -0.566022       -15.4023
 173   2.0000      -0.564155       -15.3514
 174   2.0000      -0.563402       -15.3309
 175   2.0000      -0.552074       -15.0227
 176   2.0000      -0.547656       -14.9025
 177   2.0000      -0.546881       -14.8814
 178   2.0000      -0.542487       -14.7618
 179   2.0000      -0.537579       -14.6283
 180   2.0000      -0.537379       -14.6228
 181   2.0000      -0.535598       -14.5744
 182   2.0000      -0.529762       -14.4156
 183   2.0000      -0.527239       -14.3469
 184   2.0000      -0.526675       -14.3315
 185   2.0000      -0.524036       -14.2597
 186   2.0000      -0.521804       -14.1990
 187   2.0000      -0.515131       -14.0174
 188   2.0000      -0.512739       -13.9523
 189   2.0000      -0.508144       -13.8273
 190   2.0000      -0.507230       -13.8024
 191   2.0000      -0.503405       -13.6983
 192   2.0000      -0.502942       -13.6857
 193   2.0000      -0.499475       -13.5914
 194   2.0000      -0.497504       -13.5378
 195   2.0000      -0.497098       -13.5267
 196   2.0000      -0.494661       -13.4604
 197   2.0000      -0.494108       -13.4454
 198   2.0000      -0.491946       -13.3865
 199   2.0000      -0.491097       -13.3634
 200   2.0000      -0.489849       -13.3295
 201   2.0000      -0.486907       -13.2494
 202   2.0000      -0.485665       -13.2156
 203   2.0000      -0.483233       -13.1494
 204   2.0000      -0.482500       -13.1295
 205   2.0000      -0.479804       -13.0561
 206   2.0000      -0.474338       -12.9074
 207   2.0000      -0.469777       -12.7833
 208   2.0000      -0.469245       -12.7688
 209   2.0000      -0.467262       -12.7148
 210   2.0000      -0.463070       -12.6008
 211   2.0000      -0.460232       -12.5236
 212   2.0000      -0.457191       -12.4408
 213   2.0000      -0.456973       -12.4349
 214   2.0000      -0.452162       -12.3040
 215   2.0000      -0.448143       -12.1946
 216   2.0000      -0.446368       -12.1463
 217   2.0000      -0.444067       -12.0837
 218   2.0000      -0.443266       -12.0619
 219   2.0000      -0.441796       -12.0219
 220   2.0000      -0.439855       -11.9691
 221   2.0000      -0.438702       -11.9377
 222   2.0000      -0.438304       -11.9269
 223   2.0000      -0.433448       -11.7947
 224   2.0000      -0.431818       -11.7504
 225   2.0000      -0.430095       -11.7035
 226   2.0000      -0.426653       -11.6098
 227   2.0000      -0.425279       -11.5724
 228   2.0000      -0.422696       -11.5022
 229   2.0000      -0.422350       -11.4927
 230   2.0000      -0.420604       -11.4452
 231   2.0000      -0.419010       -11.4018
 232   2.0000      -0.417202       -11.3526
 233   2.0000      -0.412494       -11.2245
 234   2.0000      -0.410902       -11.1812
 235   2.0000      -0.408303       -11.1105
 236   2.0000      -0.397862       -10.8264
 237   2.0000      -0.396032       -10.7766
 238   2.0000      -0.393941       -10.7197
 239   2.0000      -0.387886       -10.5549
 240   2.0000      -0.384927       -10.4744
 241   2.0000      -0.379738       -10.3332
 242   2.0000      -0.374849       -10.2002
 243   2.0000      -0.374524       -10.1913
 244   2.0000      -0.373077       -10.1519
 245   2.0000      -0.369947       -10.0668
 246   2.0000      -0.368913       -10.0386
 247   2.0000      -0.356864        -9.7108
 248   2.0000      -0.347436        -9.4542
 249   2.0000      -0.333225        -9.0675
 250   2.0000      -0.332683        -9.0528
 251   2.0000      -0.330175        -8.9845
 252   2.0000      -0.328432        -8.9371
 253   2.0000      -0.324560        -8.8317
 254   2.0000      -0.319435        -8.6923
 255   2.0000      -0.315548        -8.5865
 256   2.0000      -0.312297        -8.4980
 257   2.0000      -0.311869        -8.4864
 258   2.0000      -0.310942        -8.4612
 259   2.0000      -0.300993        -8.1904
 260   2.0000      -0.292592        -7.9618
 261   2.0000      -0.286091        -7.7849
 262   2.0000      -0.262905        -7.1540
 263   2.0000      -0.234483        -6.3806
 264   2.0000      -0.196880        -5.3574
 265   0.0000      -0.084004        -2.2859
 266   0.0000      -0.082883        -2.2554
 267   0.0000      -0.051401        -1.3987
 268   0.0000      -0.046923        -1.2768
 269   0.0000      -0.021164        -0.5759

MULLIKEN ATOMIC CHARGES
-----------------------
   0 C :    0.317236
   1 C :   -0.341871
   2 C :   -0.186903
   3 N :    0.156014
   4 C :   -0.189701
   5 N :    0.160126
   6 C :    0.010603
   7 C :   -0.017080
   8 C :   -0.067266
   9 C :    0.116941
  10 C :   -0.088897
  11 C :   -0.018405
  12 S :    0.187462
  13 C :   -0.122884
  14 C :    0.040388
  15 Br:    0.025439
  16 C :    0.151879
  17 O :   -0.126040
  18 C :   -0.058976
  19 C :    0.017447
  20 C :   -0.038276
  21 N :   -0.079084
  22 C :    0.080060
  23 C :   -0.053547
  24 C :    0.049083
  25 N :   -0.067092
  26 C :    0.034685
  27 C :    0.033611
  28 C :    0.003788
  29 C :   -0.001600
  30 C :    0.067526
  31 O :   -0.225041
  32 C :    0.109501
  33 C :    0.076174
  34 C :    0.096610
  35 O :   -0.173055
  36 O :   -0.200480
  37 C :   -0.047101
  38 C :    0.025027
  39 C :    0.005178
  40 C :    0.012892
  41 C :   -0.007767
  42 C :   -0.023359
  43 C :    0.033351
  44 C :    0.026176
  45 C :   -0.045039
  46 S :    0.050059
  47 C :   -0.050876
  48 C :    0.024745
  49 C :    0.034363
  50 C :   -0.005775
  51 S :    0.066484
  52 C :    0.015437
  53 C :   -0.155141
  54 S :    0.103053
  55 C :   -0.120173
  56 C :   -0.026682
  57 C :    0.004224
  58 C :    0.177188
  59 O :   -0.373870
  60 C :    0.201787
  61 C :    0.042790
  62 C :    0.041171
  63 C :    0.186258
  64 O :   -0.380107
  65 C :    0.192370
  66 C :    0.021943
  67 C :   -0.025705
  68 H :   -0.009601
  69 H :   -0.006122
  70 H :   -0.002952
  71 H :    0.049749
  72 H :    0.002169
  73 H :   -0.009031
  74 H :   -0.014104
  75 H :   -0.014938
  76 H :   -0.009990
  77 H :    0.007777
  78 H :    0.194571
  79 H :    0.191956
  80 H :   -0.042248
  81 H :   -0.005180
  82 H :   -0.016681
  83 H :   -0.007304
  84 H :   -0.019053
  85 H :   -0.014834
  86 H :   -0.014959
  87 H :   -0.017447
  88 H :   -0.013694
  89 H :   -0.008752
  90 H :    0.006539
  91 H :    0.024585
  92 H :    0.003624
  93 H :   -0.002205
  94 H :   -0.002910
  95 H :    0.009418
  96 H :    0.002840
  97 H :   -0.000087
  98 H :   -0.005784
  99 H :    0.030717
 100 H :    0.005964
 101 H :   -0.002590
 102 H :   -0.009850
 103 H :    0.019075
 104 H :    0.020054
Sum of atomic charges:   -0.0000000

LOEWDIN ATOMIC CHARGES
----------------------
   0 C :    0.076883
   1 C :   -0.129690
   2 C :   -0.016834
   3 N :   -0.049210
   4 C :   -0.020018
   5 N :   -0.042062
   6 C :   -0.022110
   7 C :   -0.049213
   8 C :    0.022974
   9 C :   -0.030270
  10 C :   -0.142949
  11 C :   -0.008561
  12 S :    0.432454
  13 C :   -0.270284
  14 C :   -0.070076
  15 Br:    0.138248
  16 C :    0.086667
  17 O :   -0.122205
  18 C :   -0.068462
  19 C :    0.084878
  20 C :    0.017517
  21 N :   -0.088725
  22 C :    0.050112
  23 C :   -0.057666
  24 C :    0.041025
  25 N :   -0.087754
  26 C :   -0.039425
  27 C :   -0.000526
  28 C :   -0.047878
  29 C :   -0.006225
  30 C :   -0.000707
  31 O :    0.000578
  32 C :   -0.001828
  33 C :   -0.021948
  34 C :    0.000655
  35 O :   -0.044536
  36 O :   -0.062670
  37 C :   -0.050817
  38 C :   -0.025767
  39 C :   -0.035279
  40 C :   -0.025603
  41 C :   -0.059412
  42 C :   -0.144605
  43 C :   -0.039491
  44 C :   -0.032195
  45 C :   -0.184095
  46 S :    0.356632
  47 C :   -0.175885
  48 C :   -0.042780
  49 C :   -0.026556
  50 C :   -0.145148
  51 S :    0.402990
  52 C :   -0.063337
  53 C :   -0.164970
  54 S :    0.434987
  55 C :   -0.160815
  56 C :   -0.063449
  57 C :   -0.064403
  58 C :    0.058297
  59 O :   -0.161040
  60 C :    0.062300
  61 C :   -0.035133
  62 C :   -0.038637
  63 C :    0.071560
  64 O :   -0.164656
  65 C :    0.064788
  66 C :   -0.035198
  67 C :   -0.051773
  68 H :    0.041580
  69 H :    0.041101
  70 H :    0.039266
  71 H :    0.051293
  72 H :    0.025510
  73 H :    0.030702
  74 H :    0.031085
  75 H :    0.027178
  76 H :    0.028238
  77 H :    0.041336
  78 H :    0.104600
  79 H :    0.098572
  80 H :    0.021778
  81 H :    0.032449
  82 H :    0.028282
  83 H :    0.015480
  84 H :    0.032047
  85 H :    0.032640
  86 H :    0.031284
  87 H :    0.030515
  88 H :    0.032834
  89 H :    0.032714
  90 H :   -0.001931
  91 H :    0.023057
  92 H :    0.002735
  93 H :   -0.000545
  94 H :    0.022718
  95 H :    0.026370
  96 H :    0.025645
  97 H :    0.022893
  98 H :    0.011244
  99 H :    0.024512
 100 H :    0.004856
 101 H :    0.004826
 102 H :    0.032287
 103 H :    0.015409
 104 H :    0.024776

  Mayer bond orders larger than 0.100000
B(  0-C ,  1-C ) :   1.6632 B(  0-C ,  6-C ) :   1.0184 B(  0-C , 18-C ) :   1.0208
B(  1-C ,  2-C ) :   1.1360 B(  1-C ,  4-C ) :   1.1416 B(  2-C ,  3-N ) :   2.9728
B(  4-C ,  5-N ) :   2.9763 B(  6-C ,  7-C ) :   1.2722 B(  6-C , 11-C ) :   1.3976
B(  7-C ,  8-C ) :   1.4224 B(  7-C , 16-C ) :   0.9387 B(  8-C ,  9-C ) :   1.2516
B(  8-C , 68-H ) :   1.0157 B(  9-C , 10-C ) :   1.2989 B(  9-C , 14-C ) :   1.1628
B( 10-C , 11-C ) :   1.3440 B( 10-C , 12-S ) :   1.0846 B( 11-C , 69-H ) :   0.9779
B( 12-S , 13-C ) :   1.0860 B( 13-C , 14-C ) :   1.6180 B( 13-C , 15-Br) :   1.0200
B( 14-C , 70-H ) :   1.0003 B( 16-C , 17-O ) :   2.2536 B( 16-C , 18-C ) :   0.9133
B( 18-C , 19-C ) :   1.8374 B( 19-C , 20-C ) :   0.9357 B( 19-C , 71-H ) :   0.9312
B( 20-C , 21-N ) :   1.4999 B( 20-C , 25-N ) :   1.5292 B( 21-N , 22-C ) :   1.5253
B( 22-C , 23-C ) :   1.4042 B( 22-C , 72-H ) :   0.9785 B( 23-C , 24-C ) :   1.3392
B( 23-C , 73-H ) :   0.9679 B( 24-C , 25-N ) :   1.4921 B( 24-C , 26-C ) :   1.0803
B( 26-C , 27-C ) :   1.6665 B( 26-C , 74-H ) :   0.9671 B( 27-C , 28-C ) :   1.1334
B( 27-C , 75-H ) :   0.9702 B( 28-C , 29-C ) :   1.6237 B( 28-C , 76-H ) :   0.9812
B( 29-C , 30-C ) :   1.2081 B( 29-C , 77-H ) :   0.9567 B( 30-C , 31-O ) :   1.1139
B( 30-C , 32-C ) :   0.1071 B( 30-C , 34-C ) :   1.3585 B( 31-O , 32-C ) :   1.1225
B( 32-C , 33-C ) :   1.2875 B( 32-C , 37-C ) :   1.1923 B( 33-C , 34-C ) :   1.2524
B( 33-C , 36-O ) :   1.2239 B( 34-C , 35-O ) :   1.2709 B( 35-O , 78-H ) :   0.9531
B( 36-O , 79-H ) :   0.9598 B( 37-C , 38-C ) :   1.6211 B( 37-C , 80-H ) :   0.9443
B( 38-C , 39-C ) :   1.1616 B( 38-C , 81-H ) :   0.9817 B( 39-C , 40-C ) :   1.5970
B( 39-C , 82-H ) :   0.9810 B( 40-C , 41-C ) :   1.2027 B( 40-C , 83-H ) :   0.9589
B( 41-C , 42-C ) :   1.5227 B( 41-C , 84-H ) :   0.9846 B( 42-C , 43-C ) :   1.1600
B( 42-C , 46-S ) :   1.0331 B( 43-C , 44-C ) :   1.5716 B( 43-C , 85-H ) :   0.9988
B( 44-C , 45-C ) :   1.2011 B( 44-C , 86-H ) :   0.9935 B( 45-C , 46-S ) :   1.0376
B( 45-C , 47-C ) :   1.5009 B( 47-C , 48-C ) :   1.1821 B( 47-C , 51-S ) :   1.0538
B( 48-C , 49-C ) :   1.5988 B( 48-C , 87-H ) :   0.9924 B( 49-C , 50-C ) :   1.1374
B( 49-C , 88-H ) :   0.9970 B( 50-C , 51-S ) :   1.0237 B( 50-C , 52-C ) :   1.6517
B( 52-C , 53-C ) :   1.1106 B( 52-C , 89-H ) :   0.9439 B( 53-C , 54-S ) :   1.1160
B( 53-C , 57-C ) :   1.5101 B( 54-S , 55-C ) :   1.1155 B( 55-C , 56-C ) :   1.5290
B( 55-C , 66-C ) :   1.1306 B( 56-C , 57-C ) :   1.3334 B( 56-C , 63-C ) :   0.9664
B( 57-C , 58-C ) :   0.9696 B( 58-C , 59-O ) :   1.0633 B( 58-C , 61-C ) :   1.0696
B( 58-C , 90-H ) :   0.8851 B( 59-O , 60-C ) :   0.9838 B( 60-C , 91-H ) :   0.9821
B( 60-C , 92-H ) :   0.9686 B( 60-C , 93-H ) :   0.9543 B( 61-C , 62-C ) :   1.0731
B( 61-C , 94-H ) :   0.9223 B( 61-C , 95-H ) :   0.9286 B( 62-C , 63-C ) :   1.0767
B( 62-C , 96-H ) :   0.9188 B( 62-C , 97-H ) :   0.9228 B( 63-C , 64-O ) :   1.0332
B( 63-C , 98-H ) :   0.9021 B( 64-O , 65-C ) :   0.9911 B( 65-C , 99-H ) :   0.9823
B( 65-C ,100-H ) :   0.9687 B( 65-C ,101-H ) :   0.9606 B( 66-C , 67-C ) :   1.9095
B( 66-C ,102-H ) :   0.9520 B( 67-C ,103-H ) :   0.9541 B( 67-C ,104-H ) :   0.9493

-----------------------------------------------------------------------------
         ABSORPTION SPECTRUM VIA TRANSITION ELECTRIC DIPOLE MOMENTS
-----------------------------------------------------------------------------
State   Energy  Wavelength   fosc         T2         TX        TY        TZ
        (cm-1)    (nm)                  (au**2)     (au)      (au)      (au)
-----------------------------------------------------------------------------
   0   12152.8    822.9   1.610255942  43.62080  -6.10987  -2.29443  -1.01283
   1   17222.4    580.6   0.001692397   0.03235   0.13808   0.11513   0.00528
   2   19208.0    520.6   0.013287952   0.22775   0.38694   0.16444   0.22579
   3   20989.7    476.4   1.123569834  17.62260   0.60764   1.77438   3.75566
   4   23613.0    423.5   0.028906285   0.40301   0.10620  -0.09999  -0.61785
   5   24272.7    412.0   0.060100218   0.81514   0.45421  -0.19123  -0.75648
   6   24645.0    405.8   0.013122667   0.17529  -0.31837  -0.00847   0.27178
   7   26859.9    372.3   0.425025268   5.20937   1.37221  -0.14751  -1.81787
   8   28556.2    350.2   0.025203355   0.29056  -0.17059   0.48865   0.15060
   9   28814.0    347.1   0.431518060   4.93027  -0.63502  -2.12745  -0.03135
  10   28883.7    346.2   0.204576913   2.33174   1.35665  -0.44698  -0.53986
  11   29171.4    342.8   0.055716070   0.62878   0.38343   0.41992   0.55265
  12   29718.3    336.5   0.102899339   1.13989  -0.12882   0.32272   1.00953
  13   30639.7    326.4   0.023797924   0.25570   0.12743   0.31592  -0.37370
  14   30879.3    323.8   0.057979189   0.61813  -0.12613   0.74446  -0.21910
  15   31710.0    315.4   0.002194597   0.02278  -0.10063  -0.08480  -0.07394
  16   31811.9    314.3   0.111489713   1.15377   0.79499   0.32681  -0.64418
  17   32467.1    308.0   0.001122062   0.01138   0.02020  -0.09972   0.03204
  18   32492.7    307.8   0.001995411   0.02022  -0.02970   0.08520  -0.10989
  19   32736.9    305.5   0.057481355   0.57805   0.68103   0.04273  -0.33529
  20   33131.0    301.8   0.031938283   0.31736   0.27609   0.32848  -0.36502
  21   33781.1    296.0   0.071893178   0.70063   0.57357   0.60955   0.01007
  22   34253.1    291.9   0.092355090   0.88764   0.44636   0.25509   0.78951
  23   34278.8    291.7   0.043756701   0.42024  -0.10170  -0.62284   0.14822
  24   34775.1    287.6   0.582820583   5.51749   0.19487  -2.31044   0.37603
  25   35046.3    285.3   0.101036277   0.94910   0.11379   0.25921   0.93218
  26   35101.5    284.9   0.008168385   0.07661   0.09106   0.13395   0.22444
  27   35480.5    281.8   0.036451898   0.33823  -0.35946  -0.40704  -0.20817
  28   36145.0    276.7   0.012873230   0.11725   0.26431   0.18999  -0.10627
  29   36501.3    274.0   0.045600545   0.41128  -0.07651  -0.43069  -0.46897
  30   36609.2    273.2   0.009573211   0.08609  -0.05821  -0.27125   0.09551
  31   36828.2    271.5   0.003137377   0.02805   0.13493   0.08485   0.05137
  32   37258.0    268.4   0.086319248   0.76272   0.26089   0.20893   0.80685
  33   37616.9    265.8   0.151649276   1.32719   1.07204   0.40178  -0.12847
  34   38459.5    260.0   0.018950161   0.16221  -0.06065   0.01204   0.39798
  35   38605.3    259.0   0.025453953   0.21706  -0.03430  -0.37340  -0.27651
  36   38757.7    258.0   0.004028204   0.03422   0.15961  -0.00627  -0.09329
  37   39116.2    255.6   0.012295303   0.10348   0.08980   0.14622   0.27209
  38   39371.7    254.0   0.025502298   0.21324   0.39024   0.24643  -0.01505
  39   39784.9    251.4   0.032043896   0.26516  -0.25072   0.21072   0.39736
  40   40121.2    249.2   0.071396047   0.58584  -0.56691   0.22384   0.46297

FINAL SINGLE POINT ENERGY     -6874.908912538592

DIPOLE MOMENT
-------------
                                X             Y             Z
Electronic contribution:    206.01365     194.86581     134.93966
Nuclear contribution   :   -208.16469    -194.91331    -137.12212
                        -----------------------------------------
Total Dipole Moment    :     -2.15105      -0.04750      -2.18246
                        -----------------------------------------
Magnitude (a.u.)       :      3.06470
Magnitude (Debye)      :      7.78986

Rotational constants in cm-1:     0.001355     0.000148     0.000140
Rotational constants in MHz :    40.620863     4.423854     4.185040

                             ****ORCA TERMINATED NORMALLY****
TOTAL RUN TIME: 0 days 0 hours 9 minutes 28 seconds 29 msec
