                         Program Version 4.2.0 -  RELEASE  -
|  1> # ORCA input file
|  2> # SCF done       -182.714945734458          0.000900124555
|  3> ! CAM-B3LYP def2-SVP def2/J RIJCOSX Grid4 TightSCF
|  4> %maxcore 5000
|  5> %tddft
|  6>     Mode sTDDFT
|  7>     Ethresh 5.0
|  8>     maxcore 5000
|  9> end
| 10>
| 11> %pal
| 12>   nprocs 6
| 13>   end
| 14> * xyz 0 1
| 15>    C        0.46217        -4.41276        -2.33952
| 16>    O       -0.15180        -5.38050        -1.93001
| 17>    C        1.47992        -4.41296        -3.41277
| 18>    C        1.94189        -3.10069        -3.61835
| 19>    C        2.91533        -2.86200        -4.57701
| 20>    C        3.40360        -3.93115        -5.31413
| 21>    C        2.92597        -5.21655        -5.09867
| 22>    C        1.95532        -5.48248        -4.14161
| 23>   Br        3.62074        -6.64636        -6.13885
| 24>    C        1.22834        -2.20524        -2.70897
| 25>    C        1.32362        -0.83560        -2.70469
| 26>    C        2.18606        -0.10340        -3.54612
| 27>    N        2.86428         0.54733        -4.20558
| 28>    C        0.54635         0.03224        -1.91072
| 29>    N       -0.07554         0.79819        -1.32114
| 30>    C        0.36631        -3.02414        -1.88410
| 31>    C       -0.35075        -2.56813        -0.80400
| 32>    C       -1.23767        -3.23430         0.04642
| 33>    S       -1.77676        -4.88327        -0.12444
| 34>    C       -2.86754        -4.71278         1.21093
| 35>    C       -2.81511        -3.43034         1.76737
| 36>    C       -1.88113        -2.61865         1.13503
| 37>    C       -1.54879        -1.22283         1.59660
| 38>    C       -0.11407        -1.08518         1.74591
| 39>    N        1.01166        -0.99240         1.91892
| 40>    C       -2.20202        -0.91680         2.95329
| 41>    C       -3.63654        -1.41976         2.97823
| 42>    C       -3.66315        -2.95358         2.91976
| 43>    O       -4.97674        -3.45754         2.75240
| 44>    C       -5.81247        -3.31465         3.87308
| 45>    C       -3.65057        -5.80937         1.65057
| 46>    C       -3.52351        -7.05818         1.14571
| 47>    N       -4.26975        -8.10954         1.57595
| 48>    C       -4.10994        -9.40692         1.21525
| 49>    S       -2.86085        -9.88112         0.11054
| 50>    C       -3.33532       -11.53985         0.31947
| 51>    N       -2.62969       -12.51192        -0.39072
| 52>    O       -2.95266       -13.67720        -0.23395
| 53>    O       -1.73165       -12.11971        -1.11927
| 54>    C       -4.38501       -11.70491         1.18125
| 55>    C       -4.86225       -10.48764         1.71022
| 56>    C       -5.96592       -10.35623         2.60872
| 57>    C       -6.53169       -11.39502         3.28256
| 58>    C       -7.64444       -11.28439         4.13041
| 59>    C       -8.14734       -12.33416         4.86213
| 60>    C       -9.28004       -12.33134         5.70977
| 61>    C       -9.52620       -13.52487         6.32261
| 62>    C       -8.59555       -14.53464         6.00426
| 63>    S       -7.40434       -13.92454         4.87441
| 64>    C       -8.53353       -15.83022         6.48413
| 65>    C       -9.40896       -16.47317         7.38614
| 66>    C       -9.05107       -17.75377         7.68017
| 67>    C       -7.86975       -18.20296         7.03657
| 68>    S       -7.24444       -16.91245         6.01848
| 69>    C       -7.30505       -19.44193         7.19951
| 70>    C       -6.12554       -19.96800         6.63309
| 71>    C       -5.63444       -21.25212         6.89405
| 72>    C       -4.42958       -21.43805         6.17478
| 73>    C       -3.56067       -22.50447         6.09165
| 74>    C       -2.42753       -22.36085         5.27621
| 75>    C       -1.38261       -23.22912         4.98945
| 76>    C       -0.47399       -22.58655         4.09180
| 77>    C       -0.96000       -21.31870         3.82541
| 78>    C       -2.18142       -21.13073         4.54377
| 79>    C       -3.04145       -20.06904         4.62002
| 80>    C       -4.18149       -20.20901         5.44162
| 81>    C       -5.20973       -19.33244         5.72448
| 82>    C        0.74208       -23.13965         3.54583
| 83>    C        1.22060       -24.35547         3.79552
| 84>    H        3.30146        -1.87284        -4.75979
| 85>    H        4.16210        -3.76313        -6.06320
| 86>    H        1.58198        -6.47983        -3.96799
| 87>    H       -0.20973        -1.52367        -0.56217
| 88>    H       -1.88478        -0.49422         0.84617
| 89>    H       -2.17131         0.15865         3.13364
| 90>    H       -1.63275        -1.40750         3.74761
| 91>    H       -4.19161        -1.03180         2.12140
| 92>    H       -4.12604        -1.07667         3.89065
| 93>    H       -3.24374        -3.35563         3.86318
| 94>    H       -6.71402        -3.88393         3.65267
| 95>    H       -6.08984        -2.27155         4.05329
| 96>    H       -5.33773        -3.71685         4.77723
| 97>    H       -4.37289        -5.61237         2.42833
| 98>    H       -2.79835        -7.28099         0.37574
| 99>    H       -4.98064        -7.91714         2.27235
|100>    H       -4.79636       -12.67340         1.39697
|101>    H       -6.37848        -9.36573         2.75536
|102>    H       -6.10233       -12.38270         3.18493
|103>    H       -8.14306       -10.32808         4.21848
|104>    H       -9.87978       -11.44741         5.83854
|105>    H      -10.34482       -13.69979         6.99782
|106>    H      -10.27310       -15.97739         7.79054
|107>    H       -9.59715       -18.39620         8.34883
|108>    H       -7.83616       -20.10933         7.86870
|109>    H       -6.09456       -21.97903         7.53813
|110>    H       -3.73748       -23.42272         6.63397
|111>    H       -1.27277       -24.22529         5.37718
|112>    H       -0.50334       -20.58654         3.18487
|113>    H       -2.86772       -19.15025         4.07823
|114>    H       -5.30871       -18.33836         5.33105
|115>    H        1.28449       -22.47735         2.88265
|116>    H        0.71914       -25.04876         4.44903
|117>    H        2.13935       -24.69981         3.35347
|118> *
|119>
|120>                          ****END OF INPUT****

CARTESIAN COORDINATES (ANGSTROEM)
---------------------------------
  C      0.462170   -4.412760   -2.339520
  O     -0.151800   -5.380500   -1.930010
  C      1.479920   -4.412960   -3.412770
  C      1.941890   -3.100690   -3.618350
  C      2.915330   -2.862000   -4.577010
  C      3.403600   -3.931150   -5.314130
  C      2.925970   -5.216550   -5.098670
  C      1.955320   -5.482480   -4.141610
  Br     3.620740   -6.646360   -6.138850
  C      1.228340   -2.205240   -2.708970
  C      1.323620   -0.835600   -2.704690
  C      2.186060   -0.103400   -3.546120
  N      2.864280    0.547330   -4.205580
  C      0.546350    0.032240   -1.910720
  N     -0.075540    0.798190   -1.321140
  C      0.366310   -3.024140   -1.884100
  C     -0.350750   -2.568130   -0.804000
  C     -1.237670   -3.234300    0.046420
  S     -1.776760   -4.883270   -0.124440
  C     -2.867540   -4.712780    1.210930
  C     -2.815110   -3.430340    1.767370
  C     -1.881130   -2.618650    1.135030
  C     -1.548790   -1.222830    1.596600
  C     -0.114070   -1.085180    1.745910
  N      1.011660   -0.992400    1.918920
  C     -2.202020   -0.916800    2.953290
  C     -3.636540   -1.419760    2.978230
  C     -3.663150   -2.953580    2.919760
  O     -4.976740   -3.457540    2.752400
  C     -5.812470   -3.314650    3.873080
  C     -3.650570   -5.809370    1.650570
  C     -3.523510   -7.058180    1.145710
  N     -4.269750   -8.109540    1.575950
  C     -4.109940   -9.406920    1.215250
  S     -2.860850   -9.881120    0.110540
  C     -3.335320  -11.539850    0.319470
  N     -2.629690  -12.511920   -0.390720
  O     -2.952660  -13.677200   -0.233950
  O     -1.731650  -12.119710   -1.119270
  C     -4.385010  -11.704910    1.181250
  C     -4.862250  -10.487640    1.710220
  C     -5.965920  -10.356230    2.608720
  C     -6.531690  -11.395020    3.282560
  C     -7.644440  -11.284390    4.130410
  C     -8.147340  -12.334160    4.862130
  C     -9.280040  -12.331340    5.709770
  C     -9.526200  -13.524870    6.322610
  C     -8.595550  -14.534640    6.004260
  S     -7.404340  -13.924540    4.874410
  C     -8.533530  -15.830220    6.484130
  C     -9.408960  -16.473170    7.386140
  C     -9.051070  -17.753770    7.680170
  C     -7.869750  -18.202960    7.036570
  S     -7.244440  -16.912450    6.018480
  C     -7.305050  -19.441930    7.199510
  C     -6.125540  -19.968000    6.633090
  C     -5.634440  -21.252120    6.894050
  C     -4.429580  -21.438050    6.174780
  C     -3.560670  -22.504470    6.091650
  C     -2.427530  -22.360850    5.276210
  C     -1.382610  -23.229120    4.989450
  C     -0.473990  -22.586550    4.091800
  C     -0.960000  -21.318700    3.825410
  C     -2.181420  -21.130730    4.543770
  C     -3.041450  -20.069040    4.620020
  C     -4.181490  -20.209010    5.441620
  C     -5.209730  -19.332440    5.724480
  C      0.742080  -23.139650    3.545830
  C      1.220600  -24.355470    3.795520
  H      3.301460   -1.872840   -4.759790
  H      4.162100   -3.763130   -6.063200
  H      1.581980   -6.479830   -3.967990
  H     -0.209730   -1.523670   -0.562170
  H     -1.884780   -0.494220    0.846170
  H     -2.171310    0.158650    3.133640
  H     -1.632750   -1.407500    3.747610
  H     -4.191610   -1.031800    2.121400
  H     -4.126040   -1.076670    3.890650
  H     -3.243740   -3.355630    3.863180
  H     -6.714020   -3.883930    3.652670
  H     -6.089840   -2.271550    4.053290
  H     -5.337730   -3.716850    4.777230
  H     -4.372890   -5.612370    2.428330
  H     -2.798350   -7.280990    0.375740
  H     -4.980640   -7.917140    2.272350
  H     -4.796360  -12.673400    1.396970
  H     -6.378480   -9.365730    2.755360
  H     -6.102330  -12.382700    3.184930
  H     -8.143060  -10.328080    4.218480
  H     -9.879780  -11.447410    5.838540
  H    -10.344820  -13.699790    6.997820
  H    -10.273100  -15.977390    7.790540
  H     -9.597150  -18.396200    8.348830
  H     -7.836160  -20.109330    7.868700
  H     -6.094560  -21.979030    7.538130
  H     -3.737480  -23.422720    6.633970
  H     -1.272770  -24.225290    5.377180
  H     -0.503340  -20.586540    3.184870
  H     -2.867720  -19.150250    4.078230
  H     -5.308710  -18.338360    5.331050
  H      1.284490  -22.477350    2.882650
  H      0.719140  -25.048760    4.449030
  H      2.139350  -24.699810    3.353470

 Total Charge           Charge          ....    0
 Multiplicity           Mult            ....    1
 Number of Electrons    NEL             ....  530
 Basis Dimension        Dim             .... 1170

ORBITAL ENERGIES
----------------

  NO   OCC          E(Eh)            E(eV)
   0   2.0000    -482.866241    -13139.4584
   1   2.0000     -88.980982     -2421.2956
   2   2.0000     -88.962712     -2420.7985
   3   2.0000     -88.944174     -2420.2940
   4   2.0000     -88.941397     -2420.2185
   5   2.0000     -62.543947     -1701.9073
   6   2.0000     -56.377781     -1534.1174
   7   2.0000     -56.375264     -1534.0489
   8   2.0000     -56.375249     -1534.0485
   9   2.0000     -19.234108      -523.3867
  10   2.0000     -19.229074      -523.2497
  11   2.0000     -19.228253      -523.2274
  12   2.0000     -19.218439      -522.9603
  13   2.0000     -14.640736      -398.3947
  14   2.0000     -14.490849      -394.3160
  15   2.0000     -14.413690      -392.2164
  16   2.0000     -14.408020      -392.0622
  17   2.0000     -14.401842      -391.8940
  18   2.0000     -10.366828      -282.0957
  19   2.0000     -10.365651      -282.0637
  20   2.0000     -10.344298      -281.4827
  21   2.0000     -10.342445      -281.4322
  22   2.0000     -10.338724      -281.3310
  23   2.0000     -10.336542      -281.2716
  24   2.0000     -10.335835      -281.2524
  25   2.0000     -10.335810      -281.2517
  26   2.0000     -10.328982      -281.0659
  27   2.0000     -10.327209      -281.0176
  28   2.0000     -10.319542      -280.8090
  29   2.0000     -10.317944      -280.7655
  30   2.0000     -10.317118      -280.7431
  31   2.0000     -10.311632      -280.5938
  32   2.0000     -10.311409      -280.5877
  33   2.0000     -10.311263      -280.5837
  34   2.0000     -10.310037      -280.5504
  35   2.0000     -10.307057      -280.4693
  36   2.0000     -10.304981      -280.4128
  37   2.0000     -10.303876      -280.3827
  38   2.0000     -10.303100      -280.3616
  39   2.0000     -10.302842      -280.3546
  40   2.0000     -10.302654      -280.3495
  41   2.0000     -10.302432      -280.3434
  42   2.0000     -10.299312      -280.2585
  43   2.0000     -10.298439      -280.2348
  44   2.0000     -10.297407      -280.2067
  45   2.0000     -10.296165      -280.1729
  46   2.0000     -10.296025      -280.1691
  47   2.0000     -10.295094      -280.1437
  48   2.0000     -10.293194      -280.0921
  49   2.0000     -10.290268      -280.0124
  50   2.0000     -10.290175      -280.0099
  51   2.0000     -10.288260      -279.9578
  52   2.0000     -10.287742      -279.9437
  53   2.0000     -10.287201      -279.9290
  54   2.0000     -10.285564      -279.8844
  55   2.0000     -10.285538      -279.8837
  56   2.0000     -10.283883      -279.8387
  57   2.0000     -10.283697      -279.8336
  58   2.0000     -10.283282      -279.8223
  59   2.0000     -10.282849      -279.8105
  60   2.0000     -10.281598      -279.7765
  61   2.0000     -10.281081      -279.7624
  62   2.0000     -10.276404      -279.6352
  63   2.0000     -10.274748      -279.5901
  64   2.0000     -10.274507      -279.5836
  65   2.0000     -10.272997      -279.5425
  66   2.0000     -10.268732      -279.4264
  67   2.0000     -10.268600      -279.4228
  68   2.0000     -10.266895      -279.3764
  69   2.0000     -10.266273      -279.3595
  70   2.0000     -10.265406      -279.3359
  71   2.0000     -10.265334      -279.3339
  72   2.0000     -10.257540      -279.1219
  73   2.0000      -8.773232      -238.7318
  74   2.0000      -8.076378      -219.7694
  75   2.0000      -8.056475      -219.2278
  76   2.0000      -8.040194      -218.7848
  77   2.0000      -8.037830      -218.7205
  78   2.0000      -6.609080      -179.8422
  79   2.0000      -6.595344      -179.4684
  80   2.0000      -6.594902      -179.4564
  81   2.0000      -6.046095      -164.5226
  82   2.0000      -6.041739      -164.4041
  83   2.0000      -6.037682      -164.2937
  84   2.0000      -6.025815      -163.9708
  85   2.0000      -6.021484      -163.8529
  86   2.0000      -6.018597      -163.7744
  87   2.0000      -6.009962      -163.5394
  88   2.0000      -6.007572      -163.4744
  89   2.0000      -6.005915      -163.4293
  90   2.0000      -6.003610      -163.3665
  91   2.0000      -6.001088      -163.2979
  92   2.0000      -5.998646      -163.2314
  93   2.0000      -2.724973       -74.1503
  94   2.0000      -2.721259       -74.0492
  95   2.0000      -2.720958       -74.0410
  96   2.0000      -2.710019       -73.7434
  97   2.0000      -2.710002       -73.7429
  98   2.0000      -1.308980       -35.6192
  99   2.0000      -1.136379       -30.9224
 100   2.0000      -1.133734       -30.8505
 101   2.0000      -1.127782       -30.6885
 102   2.0000      -1.095924       -29.8216
 103   2.0000      -1.015663       -27.6376
 104   2.0000      -1.009984       -27.4831
 105   2.0000      -1.000139       -27.2152
 106   2.0000      -0.997134       -27.1334
 107   2.0000      -0.993775       -27.0420
 108   2.0000      -0.988849       -26.9079
 109   2.0000      -0.987933       -26.8830
 110   2.0000      -0.987573       -26.8732
 111   2.0000      -0.972003       -26.4496
 112   2.0000      -0.960792       -26.1445
 113   2.0000      -0.959066       -26.0975
 114   2.0000      -0.940887       -25.6028
 115   2.0000      -0.921882       -25.0857
 116   2.0000      -0.915961       -24.9246
 117   2.0000      -0.904685       -24.6177
 118   2.0000      -0.902160       -24.5490
 119   2.0000      -0.896127       -24.3849
 120   2.0000      -0.886252       -24.1162
 121   2.0000      -0.879791       -23.9403
 122   2.0000      -0.869634       -23.6639
 123   2.0000      -0.865269       -23.5452
 124   2.0000      -0.864639       -23.5280
 125   2.0000      -0.862744       -23.4765
 126   2.0000      -0.850386       -23.1402
 127   2.0000      -0.847988       -23.0749
 128   2.0000      -0.842842       -22.9349
 129   2.0000      -0.840575       -22.8732
 130   2.0000      -0.827496       -22.5173
 131   2.0000      -0.819344       -22.2955
 132   2.0000      -0.814295       -22.1581
 133   2.0000      -0.799064       -21.7436
 134   2.0000      -0.795690       -21.6518
 135   2.0000      -0.792938       -21.5770
 136   2.0000      -0.783082       -21.3087
 137   2.0000      -0.766840       -20.8668
 138   2.0000      -0.763767       -20.7831
 139   2.0000      -0.752455       -20.4753
 140   2.0000      -0.745698       -20.2915
 141   2.0000      -0.735323       -20.0092
 142   2.0000      -0.732563       -19.9341
 143   2.0000      -0.727754       -19.8032
 144   2.0000      -0.715845       -19.4791
 145   2.0000      -0.704549       -19.1718
 146   2.0000      -0.699198       -19.0261
 147   2.0000      -0.690075       -18.7779
 148   2.0000      -0.684643       -18.6301
 149   2.0000      -0.680699       -18.5228
 150   2.0000      -0.673460       -18.3258
 151   2.0000      -0.669422       -18.2159
 152   2.0000      -0.659099       -17.9350
 153   2.0000      -0.655884       -17.8475
 154   2.0000      -0.648354       -17.6426
 155   2.0000      -0.642598       -17.4860
 156   2.0000      -0.638207       -17.3665
 157   2.0000      -0.634109       -17.2550
 158   2.0000      -0.627085       -17.0638
 159   2.0000      -0.625996       -17.0342
 160   2.0000      -0.625282       -17.0148
 161   2.0000      -0.621922       -16.9233
 162   2.0000      -0.618711       -16.8360
 163   2.0000      -0.613335       -16.6897
 164   2.0000      -0.612813       -16.6755
 165   2.0000      -0.607334       -16.5264
 166   2.0000      -0.605785       -16.4842
 167   2.0000      -0.601226       -16.3602
 168   2.0000      -0.596909       -16.2427
 169   2.0000      -0.592593       -16.1253
 170   2.0000      -0.583966       -15.8905
 171   2.0000      -0.581257       -15.8168
 172   2.0000      -0.580111       -15.7856
 173   2.0000      -0.577689       -15.7197
 174   2.0000      -0.576697       -15.6927
 175   2.0000      -0.563715       -15.3395
 176   2.0000      -0.561133       -15.2692
 177   2.0000      -0.554138       -15.0789
 178   2.0000      -0.553103       -15.0507
 179   2.0000      -0.548045       -14.9131
 180   2.0000      -0.545510       -14.8441
 181   2.0000      -0.542120       -14.7518
 182   2.0000      -0.538791       -14.6612
 183   2.0000      -0.537689       -14.6313
 184   2.0000      -0.536444       -14.5974
 185   2.0000      -0.533816       -14.5259
 186   2.0000      -0.531317       -14.4579
 187   2.0000      -0.529265       -14.4020
 188   2.0000      -0.524447       -14.2709
 189   2.0000      -0.521856       -14.2004
 190   2.0000      -0.516178       -14.0459
 191   2.0000      -0.512971       -13.9586
 192   2.0000      -0.509247       -13.8573
 193   2.0000      -0.508678       -13.8418
 194   2.0000      -0.506011       -13.7693
 195   2.0000      -0.498046       -13.5525
 196   2.0000      -0.497246       -13.5307
 197   2.0000      -0.496200       -13.5023
 198   2.0000      -0.493061       -13.4169
 199   2.0000      -0.492729       -13.4078
 200   2.0000      -0.491966       -13.3871
 201   2.0000      -0.491141       -13.3646
 202   2.0000      -0.485898       -13.2220
 203   2.0000      -0.482341       -13.1252
 204   2.0000      -0.480007       -13.0617
 205   2.0000      -0.474595       -12.9144
 206   2.0000      -0.474189       -12.9033
 207   2.0000      -0.472843       -12.8667
 208   2.0000      -0.468883       -12.7590
 209   2.0000      -0.467931       -12.7331
 210   2.0000      -0.465731       -12.6732
 211   2.0000      -0.464633       -12.6433
 212   2.0000      -0.460451       -12.5295
 213   2.0000      -0.459663       -12.5081
 214   2.0000      -0.457702       -12.4547
 215   2.0000      -0.453341       -12.3360
 216   2.0000      -0.451648       -12.2900
 217   2.0000      -0.449807       -12.2399
 218   2.0000      -0.449439       -12.2299
 219   2.0000      -0.447939       -12.1890
 220   2.0000      -0.446596       -12.1525
 221   2.0000      -0.442453       -12.0398
 222   2.0000      -0.439627       -11.9628
 223   2.0000      -0.438974       -11.9451
 224   2.0000      -0.436329       -11.8731
 225   2.0000      -0.430899       -11.7253
 226   2.0000      -0.428372       -11.6566
 227   2.0000      -0.424390       -11.5482
 228   2.0000      -0.423336       -11.5196
 229   2.0000      -0.422467       -11.4959
 230   2.0000      -0.420741       -11.4490
 231   2.0000      -0.418968       -11.4007
 232   2.0000      -0.416166       -11.3245
 233   2.0000      -0.414762       -11.2862
 234   2.0000      -0.405781       -11.0419
 235   2.0000      -0.405527       -11.0349
 236   2.0000      -0.402439       -10.9509
 237   2.0000      -0.399680       -10.8758
 238   2.0000      -0.398686       -10.8488
 239   2.0000      -0.395177       -10.7533
 240   2.0000      -0.393694       -10.7130
 241   2.0000      -0.391326       -10.6485
 242   2.0000      -0.377443       -10.2707
 243   2.0000      -0.375323       -10.2131
 244   2.0000      -0.371692       -10.1143
 245   2.0000      -0.368523       -10.0280
 246   2.0000      -0.367391        -9.9972
 247   2.0000      -0.360850        -9.8192
 248   2.0000      -0.357593        -9.7306
 249   2.0000      -0.352903        -9.6030
 250   2.0000      -0.349258        -9.5038
 251   2.0000      -0.346157        -9.4194
 252   2.0000      -0.341808        -9.3011
 253   2.0000      -0.337209        -9.1759
 254   2.0000      -0.331461        -9.0195
 255   2.0000      -0.325864        -8.8672
 256   2.0000      -0.322674        -8.7804
 257   2.0000      -0.322206        -8.7677
 258   2.0000      -0.307151        -8.3580
 259   2.0000      -0.300644        -8.1809
 260   2.0000      -0.283570        -7.7163
 261   2.0000      -0.269294        -7.3279
 262   2.0000      -0.256906        -6.9908
 263   2.0000      -0.242803        -6.6070
 264   2.0000      -0.201398        -5.4803
 265   0.0000      -0.098094        -2.6693
 266   0.0000      -0.091816        -2.4984
 267   0.0000      -0.074030        -2.0145
 268   0.0000      -0.062173        -1.6918
 269   0.0000      -0.047150        -1.2830

MULLIKEN ATOMIC CHARGES
-----------------------
   0 C :    0.159949
   1 O :   -0.173818
   2 C :   -0.022128
   3 C :    0.030756
   4 C :   -0.023390
   5 C :    0.046325
   6 C :   -0.004305
   7 C :   -0.011878
   8 Br:   -0.021791
   9 C :    0.308051
  10 C :   -0.347593
  11 C :   -0.187504
  12 N :    0.149138
  13 C :   -0.174521
  14 N :    0.133788
  15 C :   -0.099961
  16 C :   -0.049377
  17 C :   -0.071072
  18 S :    0.163089
  19 C :   -0.081414
  20 C :   -0.022011
  21 C :   -0.026322
  22 C :    0.083648
  23 C :   -0.324673
  24 N :    0.127015
  25 C :    0.037588
  26 C :    0.069250
  27 C :    0.191959
  28 O :   -0.383192
  29 C :    0.193148
  30 C :   -0.018634
  31 C :    0.068275
  32 N :   -0.014759
  33 C :   -0.120172
  34 S :    0.155215
  35 C :   -0.008745
  36 N :    0.279459
  37 O :   -0.257509
  38 O :   -0.270144
  39 C :    0.005337
  40 C :    0.142359
  41 C :   -0.066472
  42 C :    0.014657
  43 C :   -0.024583
  44 C :   -0.009478
  45 C :    0.025021
  46 C :    0.030568
  47 C :   -0.054774
  48 S :    0.057313
  49 C :   -0.023839
  50 C :    0.021731
  51 C :    0.036326
  52 C :   -0.026031
  53 S :    0.047792
  54 C :   -0.010005
  55 C :    0.058401
  56 C :   -0.037924
  57 C :    0.066587
  58 C :    0.002555
  59 C :    0.042422
  60 C :   -0.015260
  61 C :    0.061133
  62 C :   -0.024109
  63 C :    0.057395
  64 C :    0.004324
  65 C :    0.035505
  66 C :   -0.024752
  67 C :    0.010913
  68 C :   -0.025261
  69 H :    0.006738
  70 H :    0.004953
  71 H :    0.002616
  72 H :    0.018192
  73 H :    0.064551
  74 H :    0.030540
  75 H :    0.024994
  76 H :    0.011954
  77 H :    0.008219
  78 H :    0.001034
  79 H :    0.028920
  80 H :    0.016731
  81 H :    0.001693
  82 H :   -0.015541
  83 H :    0.050928
  84 H :    0.137780
  85 H :    0.011129
  86 H :   -0.039293
  87 H :    0.000644
  88 H :   -0.027479
  89 H :   -0.017926
  90 H :   -0.014054
  91 H :   -0.016870
  92 H :   -0.012465
  93 H :   -0.022426
  94 H :   -0.028930
  95 H :   -0.025047
  96 H :   -0.023443
  97 H :   -0.022905
  98 H :   -0.019494
  99 H :   -0.006705
 100 H :   -0.016747
 101 H :    0.007480
 102 H :    0.020637
Sum of atomic charges:   -0.0000000

LOEWDIN ATOMIC CHARGES
----------------------
   0 C :    0.083768
   1 O :   -0.163765
   2 C :   -0.036344
   3 C :   -0.014801
   4 C :    0.008341
   5 C :   -0.014753
   6 C :   -0.098821
   7 C :   -0.000817
   8 Br:    0.113734
   9 C :    0.079678
  10 C :   -0.143620
  11 C :   -0.018534
  12 N :   -0.055794
  13 C :   -0.013690
  14 N :   -0.063077
  15 C :   -0.115124
  16 C :    0.058583
  17 C :   -0.193229
  18 S :    0.505550
  19 C :   -0.126880
  20 C :   -0.079837
  21 C :   -0.007268
  22 C :   -0.044108
  23 C :   -0.034795
  24 N :   -0.061509
  25 C :   -0.005505
  26 C :   -0.037228
  27 C :    0.072250
  28 O :   -0.162320
  29 C :    0.066661
  30 C :   -0.099745
  31 C :    0.042324
  32 N :    0.052701
  33 C :   -0.108027
  34 S :    0.455663
  35 C :   -0.211048
  36 N :    0.274057
  37 O :   -0.224176
  38 O :   -0.235929
  39 C :    0.005337
  40 C :   -0.099381
  41 C :   -0.053830
  42 C :   -0.020135
  43 C :   -0.078752
  44 C :   -0.135330
  45 C :   -0.047922
  46 C :   -0.024846
  47 C :   -0.192287
  48 S :    0.361672
  49 C :   -0.168194
  50 C :   -0.046283
  51 C :   -0.023094
  52 C :   -0.161075
  53 S :    0.376345
  54 C :   -0.034639
  55 C :   -0.066955
  56 C :    0.015659
  57 C :   -0.061533
  58 C :    0.075278
  59 C :   -0.064437
  60 C :    0.051049
  61 C :   -0.059713
  62 C :    0.019974
  63 C :   -0.058964
  64 C :    0.073683
  65 C :   -0.061551
  66 C :    0.029319
  67 C :   -0.020734
  68 C :   -0.054305
  69 H :    0.042639
  70 H :    0.039831
  71 H :    0.043857
  72 H :    0.048127
  73 H :    0.066554
  74 H :    0.038238
  75 H :    0.033619
  76 H :    0.030677
  77 H :    0.027631
  78 H :    0.013429
  79 H :    0.023995
  80 H :    0.009358
  81 H :    0.007295
  82 H :    0.029337
  83 H :    0.023749
  84 H :    0.097761
  85 H :    0.044615
  86 H :    0.017198
  87 H :    0.021663
  88 H :    0.027873
  89 H :    0.031071
  90 H :    0.031701
  91 H :    0.030569
  92 H :    0.033132
  93 H :    0.035619
  94 H :    0.023359
  95 H :    0.034849
  96 H :    0.025386
  97 H :    0.026013
  98 H :    0.037236
  99 H :    0.014460
 100 H :    0.030125
 101 H :    0.017436
 102 H :    0.024676

  Mayer bond orders larger than 0.100000
B(  0-C ,  1-O ) :   2.1473 B(  0-C ,  2-C ) :   0.9528 B(  0-C , 15-C ) :   0.9788
B(  2-C ,  3-C ) :   1.3346 B(  2-C ,  7-C ) :   1.3817 B(  3-C ,  4-C ) :   1.3711
B(  3-C ,  9-C ) :   0.9881 B(  4-C ,  5-C ) :   1.3761 B(  4-C , 69-H ) :   0.9842
B(  5-C ,  6-C ) :   1.3941 B(  5-C , 70-H ) :   0.9851 B(  6-C ,  7-C ) :   1.3322
B(  6-C ,  8-Br) :   0.9905 B(  7-C , 71-H ) :   1.0081 B(  9-C , 10-C ) :   1.6220
B(  9-C , 15-C ) :   1.0937 B( 10-C , 11-C ) :   1.1452 B( 10-C , 13-C ) :   1.1489
B( 11-C , 12-N ) :   2.9744 B( 13-C , 14-N ) :   2.9607 B( 15-C , 16-C ) :   1.5071
B( 16-C , 17-C ) :   1.2911 B( 16-C , 72-H ) :   0.9137 B( 17-C , 18-S ) :   1.0809
B( 17-C , 21-C ) :   1.3635 B( 18-S , 19-C ) :   1.1360 B( 19-C , 20-C ) :   1.3926
B( 19-C , 30-C ) :   1.2181 B( 20-C , 21-C ) :   1.4709 B( 20-C , 27-C ) :   0.9504
B( 21-C , 22-C ) :   0.9928 B( 22-C , 23-C ) :   1.0353 B( 22-C , 25-C ) :   1.0872
B( 22-C , 73-H ) :   0.8104 B( 23-C , 24-N ) :   3.1021 B( 25-C , 26-C ) :   1.0883
B( 25-C , 74-H ) :   0.9290 B( 25-C , 75-H ) :   0.9315 B( 26-C , 27-C ) :   1.0789
B( 26-C , 76-H ) :   0.9164 B( 26-C , 77-H ) :   0.9256 B( 27-C , 28-O ) :   1.0332
B( 27-C , 78-H ) :   0.9040 B( 28-O , 29-C ) :   0.9804 B( 29-C , 79-H ) :   0.9812
B( 29-C , 80-H ) :   0.9702 B( 29-C , 81-H ) :   0.9623 B( 30-C , 31-C ) :   1.6037
B( 30-C , 82-H ) :   0.9550 B( 31-C , 32-N ) :   1.1575 B( 31-C , 83-H ) :   0.9562
B( 32-N , 33-C ) :   1.2148 B( 32-N , 84-H ) :   0.9125 B( 33-C , 34-S ) :   1.1304
B( 33-C , 40-C ) :   1.3454 B( 34-S , 35-C ) :   1.0654 B( 35-C , 36-N ) :   0.9818
B( 35-C , 39-C ) :   1.4911 B( 36-N , 37-O ) :   1.5254 B( 36-N , 38-O ) :   1.5032
B( 37-O , 38-O ) :   0.2534 B( 39-C , 40-C ) :   1.2285 B( 39-C , 85-H ) :   0.9994
B( 40-C , 41-C ) :   1.0621 B( 41-C , 42-C ) :   1.6687 B( 41-C , 86-H ) :   0.9754
B( 42-C , 43-C ) :   1.1567 B( 42-C , 87-H ) :   0.9688 B( 43-C , 44-C ) :   1.5502
B( 43-C , 88-H ) :   0.9841 B( 44-C , 45-C ) :   1.1484 B( 44-C , 48-S ) :   1.0409
B( 45-C , 46-C ) :   1.5768 B( 45-C , 89-H ) :   0.9990 B( 46-C , 47-C ) :   1.2014
B( 46-C , 90-H ) :   0.9938 B( 47-C , 48-S ) :   1.0329 B( 47-C , 49-C ) :   1.4984
B( 49-C , 50-C ) :   1.1885 B( 49-C , 53-S ) :   1.0525 B( 50-C , 51-C ) :   1.5859
B( 50-C , 91-H ) :   0.9940 B( 51-C , 52-C ) :   1.1442 B( 51-C , 92-H ) :   0.9995
B( 52-C , 53-S ) :   1.0149 B( 52-C , 54-C ) :   1.5735 B( 54-C , 55-C ) :   1.1389
B( 54-C , 93-H ) :   0.9692 B( 55-C , 56-C ) :   1.4223 B( 55-C , 66-C ) :   1.1349
B( 56-C , 57-C ) :   1.1242 B( 56-C , 94-H ) :   1.0197 B( 57-C , 58-C ) :   1.4136
B( 57-C , 65-C ) :   1.1329 B( 58-C , 59-C ) :   1.1532 B( 58-C , 95-H ) :   1.0038
B( 59-C , 60-C ) :   1.4151 B( 59-C , 63-C ) :   1.1272 B( 60-C , 61-C ) :   1.1587
B( 60-C , 96-H ) :   1.0073 B( 61-C , 62-C ) :   1.4925 B( 61-C , 67-C ) :   1.0843
B( 62-C , 63-C ) :   1.0905 B( 62-C , 97-H ) :   1.0178 B( 63-C , 64-C ) :   1.4611
B( 64-C , 65-C ) :   1.1271 B( 64-C , 98-H ) :   1.0043 B( 65-C , 66-C ) :   1.4588
B( 66-C , 99-H ) :   0.9900 B( 67-C , 68-C ) :   1.9345 B( 67-C ,100-H ) :   0.9666
B( 68-C ,101-H ) :   0.9530 B( 68-C ,102-H ) :   0.9494

-----------------------------------------------------------------------------
         ABSORPTION SPECTRUM VIA TRANSITION ELECTRIC DIPOLE MOMENTS
-----------------------------------------------------------------------------
State   Energy  Wavelength   fosc         T2         TX        TY        TZ
        (cm-1)    (nm)                  (au**2)     (au)      (au)      (au)
-----------------------------------------------------------------------------
   0    6325.8   1580.8   0.019752468   1.02798  -0.25030   0.95863  -0.21529
   1   13188.9    758.2   1.731330952  43.21639  -0.79286  -6.07509   2.38350
   2   14945.0    669.1   0.024090157   0.53066   0.20334   0.59187  -0.37284
   3   15448.8    647.3   0.246400376   5.25076  -1.56462   1.65092  -0.27782
   4   19462.1    513.8   0.690117654  11.67369   2.36150   1.76507  -1.72671
   5   20651.2    484.2   0.112854298   1.79907   0.61486  -1.12154  -0.40395
   6   22263.9    449.2   0.048648392   0.71935  -0.71424   0.38581   0.24570
   7   22413.9    446.2   0.103098449   1.51430   0.92385  -0.66913  -0.46158
   8   23336.5    428.5   0.127984724   1.80550   1.06747  -0.67952  -0.45195
   9   24395.1    409.9   0.073131797   0.98692  -0.69595  -0.38065   0.59806
  10   25596.8    390.7   0.041813674   0.53778   0.52249  -0.36811  -0.35956
  11   25878.9    386.4   0.951134742  12.09965  -3.07200   0.53580   1.54123
  12   26437.2    378.3   0.013645434   0.16992   0.06627   0.07122   0.40057
  13   27503.1    363.6   0.029871066   0.35756  -0.43885   0.13107   0.38443
  14   28306.6    353.3   0.310227272   3.60801   1.36266  -0.54188  -1.20728
  15   28767.5    347.6   0.111805924   1.27950   0.21226   1.06807   0.30604
  16   28784.3    347.4   0.231837885   2.65158   1.16094  -1.07019  -0.39812
  17   28972.9    345.1   0.109780981   1.24741  -0.49671   0.71353   0.70112
  18   29829.6    335.2   0.098623158   1.08845   0.49607  -0.77634  -0.48954
  19   30932.3    323.3   0.025290516   0.26917   0.32586   0.37312   0.15414
  20   31193.6    320.6   0.349596620   3.68959  -1.34517   0.71503   1.16997
  21   31752.2    314.9   0.029086400   0.30157  -0.15161   0.52291   0.07177
  22   31936.9    313.1   0.034957620   0.36035  -0.34176   0.14365   0.47214
  23   32722.5    305.6   0.000754629   0.00759  -0.06264   0.05650   0.02181
  24   32813.4    304.8   0.000115822   0.00116  -0.00984  -0.03186  -0.00706
  25   32881.0    304.1   0.062970253   0.63047   0.68251  -0.32345  -0.24501
  26   33042.9    302.6   0.065478452   0.65237  -0.60288   0.51065   0.16780
  27   33229.3    300.9   0.018374766   0.18204  -0.33527  -0.24680  -0.09342
  28   33283.1    300.5   0.199062297   1.96898   1.05317  -0.63100  -0.67945
  29   33982.5    294.3   0.500984191   4.85337   0.40063  -2.05517  -0.68493
  30   34210.0    292.3   0.353592092   3.40271   0.95582  -1.26835  -0.93830
  31   34874.9    286.7   0.009781629   0.09234   0.12828  -0.03543  -0.27318
  32   35046.3    285.3   0.172005461   1.61576   0.65456  -0.72997  -0.80899
  33   35338.2    283.0   0.011616584   0.10822  -0.28463  -0.11833   0.11490
  34   36131.6    276.8   0.034870423   0.31772  -0.02851   0.52434  -0.20488
  35   36158.4    276.6   0.032715301   0.29786  -0.23769   0.43437  -0.22953
  36   36917.0    270.9   0.053660896   0.47853   0.35413  -0.44749  -0.39099
  37   37065.6    269.8   0.002655778   0.02359  -0.11910  -0.06051   0.07578
  38   37424.1    267.2   0.093092431   0.81891   0.48476  -0.69398  -0.31988
  39   37546.9    266.3   0.157120509   1.37764  -0.13952  -1.16337   0.06879
  40   37756.8    264.9   0.020958117   0.18274  -0.02313   0.40819  -0.12485
  41   37889.4    263.9   0.177357990   1.54102  -1.11028  -0.42508   0.35722
  42   38105.9    262.4   0.001023272   0.00884  -0.04455   0.07975   0.02227
  43   38678.2    258.5   0.014531764   0.12369   0.08784   0.32197  -0.11094
  44   38705.5    258.4   0.007956712   0.06768  -0.07029  -0.23915   0.07447
  45   38915.8    257.0   0.052071015   0.44050  -0.58094   0.03822   0.31866
  46   39075.6    255.9   0.070854544   0.59695   0.55216  -0.49432  -0.21844
  47   39657.7    252.2   0.008816731   0.07319   0.06164  -0.25638   0.06048
  48   39790.5    251.3   0.006409369   0.05303  -0.16518   0.00483   0.16038
  49   40005.1    250.0   0.007991779   0.06577   0.17824  -0.16514   0.08201
  50   40126.8    249.2   0.009252072   0.07591   0.14554   0.13880  -0.18831
  51   40322.9    248.0   0.083319254   0.68025  -0.75163  -0.15990   0.29957

FINAL SINGLE POINT ENERGY     -6853.513255626352

DIPOLE MOMENT
-------------
                                X             Y             Z
Electronic contribution:     91.67173      62.47858    -125.77171
Nuclear contribution   :    -95.59863     -64.55771     129.51887
                        -----------------------------------------
Total Dipole Moment    :     -3.92690      -2.07912       3.74716
                        -----------------------------------------
Magnitude (a.u.)       :      5.81245
Magnitude (Debye)      :     14.77406

Rotational constants in cm-1:     0.000991     0.000238     0.000199
Rotational constants in MHz :    29.707557     7.142609     5.975118

                             ****ORCA TERMINATED NORMALLY****
TOTAL RUN TIME: 0 days 0 hours 12 minutes 9 seconds 661 msec
