                         Program Version 4.2.0 -  RELEASE  -
|  1> # ORCA input file
|  2> # SCF done       -175.544766230083          0.000509637776
|  3> ! CAM-B3LYP def2-SVP def2/J RIJCOSX Grid4 TightSCF
|  4> %maxcore 5000
|  5> %tddft
|  6>     Mode sTDDFT
|  7>     Ethresh 5.0
|  8>     maxcore 5000
|  9> end
| 10>
| 11> %pal
| 12>   nprocs 6
| 13>   end
| 14> * xyz 0 1
| 15>    C       -0.43245       -10.70331        -2.30722
| 16>    C        0.54654       -11.55373        -1.89356
| 17>    C        1.42361       -10.96391        -0.96738
| 18>    C        1.07852        -9.65197        -0.69700
| 19>    S       -0.31700        -9.14651        -1.57706
| 20>    C        1.88307        -8.92905         0.22589
| 21>    C        2.96312        -9.58627         0.79410
| 22>   Ge        3.02005       -11.42470         0.08904
| 23>    C        4.63057       -11.80201        -1.00786
| 24>    C        2.69187       -12.80920         1.47312
| 25>    C        3.66972        -8.77131         1.67786
| 26>    C        3.14397        -7.50118         1.79357
| 27>    S        1.73328        -7.30320         0.77951
| 28>    C        3.60547        -6.43023         2.60225
| 29>    C        3.06282        -5.16762         2.73625
| 30>    C        3.75915        -4.35628         3.62866
| 31>    C        4.85414        -5.00623         4.18402
| 32>    S        5.02401        -6.62292         3.60391
| 33>    C        5.63982        -4.29536         5.12287
| 34>    C        5.25590        -2.99662         5.43782
| 35>   Ge        3.66677        -2.53452         4.36949
| 36>    C        4.01921        -1.11880         3.02392
| 37>    C        2.04133        -2.18324         5.45225
| 38>    C        6.09546        -2.41708         6.38385
| 39>    C        7.12082        -3.24833         6.79324
| 40>    S        7.04595        -4.79743         5.98621
| 41>    C        8.13996        -2.97457         7.73888
| 42>    C        9.22766        -3.75889         8.07102
| 43>    C       10.02445        -3.16482         9.05205
| 44>    C        9.53403        -1.92052         9.47800
| 45>    S        8.09880        -1.47441         8.66080
| 46>    C       10.40013        -1.40810        10.47387
| 47>    C       11.44666        -2.32193        10.67388
| 48>    C       11.24613        -3.45621         9.78570
| 49>    C       12.03763        -4.56157         9.66569
| 50>    C       11.74143        -5.60684         8.76688
| 51>    N       11.51106        -6.46391         8.04015
| 52>    C       13.20901        -4.73682        10.43069
| 53>    N       14.16478        -4.88949        11.04606
| 54>    C       12.35473        -1.90700        11.65036
| 55>    C       12.00445        -0.69027        12.20312
| 56>    S       10.52845        -0.04110        11.49432
| 57>    C       12.66889         0.02950        13.22680
| 58>    C       12.26157         1.19637        13.84542
| 59>    C       13.13959         1.63774        14.83009
| 60>    C       14.24069         0.79926        14.96389
| 61>    S       14.18892        -0.53905        13.87699
| 62>    C       15.21363         1.13847        15.93469
| 63>    C       14.99863         2.27837        16.69919
| 64>   Ge       13.29625         3.09682        16.14383
| 65>    C       13.49337         4.89572        15.32962
| 66>    C       11.89279         3.03304        17.54563
| 67>    C       16.02598         2.50058        17.61276
| 68>    C       17.02622         1.55024        17.55781
| 69>    S       16.68914         0.34110        16.34252
| 70>    C       18.20826         1.47647        18.33970
| 71>    C       19.22231         0.54384        18.26891
| 72>    C       20.24536         0.76503        19.19037
| 73>    C       20.00859         1.88148        19.97702
| 74>    S       18.52484         2.66543        19.58214
| 75>    C       20.97681         2.21446        20.96356
| 76>    C       22.09285         1.40485        21.07451
| 77>   Ge       21.96329        -0.03150        19.73381
| 78>    C       21.78631        -1.84960        20.50998
| 79>    C       23.35738         0.06433        18.32403
| 80>    C       22.95974         1.84767        22.08812
| 81>    C       22.50333         2.96261        22.72164
| 82>    S       20.99332         3.51312        22.09965
| 83>    H       -1.22666       -10.88988        -3.00343
| 84>    H        0.63576       -12.56833        -2.24133
| 85>    H        4.52335       -12.75339        -1.51947
| 86>    H        5.51117       -11.84727        -0.37470
| 87>    H        4.77400       -11.02194        -1.74873
| 88>    H        1.80624       -12.56338         2.05042
| 89>    H        3.54052       -12.87233         2.14706
| 90>    H        2.54670       -13.77936         1.00825
| 91>    H        4.54155        -9.08403         2.22681
| 92>    H        2.18312        -4.86110         2.19649
| 93>    H        4.91826        -1.35013         2.46146
| 94>    H        4.15144        -0.15892         3.51340
| 95>    H        3.18580        -1.04285         2.33244
| 96>    H        1.88928        -2.97850         6.17497
| 97>    H        1.16886        -2.12513         4.80893
| 98>    H        2.14192        -1.24238         5.98441
| 99>    H        5.97615        -1.41879         6.76961
|100>    H        9.41620        -4.71127         7.60888
|101>    H       13.22763        -2.45298        11.96038
|102>    H       11.34626         1.69799        13.58047
|103>    H       14.26856         4.88440        14.57012
|104>    H       13.76067         5.62301        16.08992
|105>    H       12.55901         5.20308        14.87024
|106>    H       11.81699         2.03153        17.95717
|107>    H       10.93080         3.31148        17.12663
|108>    H       12.13297         3.72246        18.34899
|109>    H       16.05723         3.32706        18.30205
|110>    H       19.20662        -0.26879        17.56279
|111>    H       21.01430        -1.86184        21.27266
|112>    H       22.72480        -2.16005        20.95863
|113>    H       21.52157        -2.56192        19.73475
|114>    H       23.42407         1.07204        17.92652
|115>    H       23.11565        -0.61498        17.51254
|116>    H       24.32422        -0.21428        18.73154
|117>    H       23.88564         1.36037        22.34024
|118>    H       22.96020         3.50633        23.52534
|119> *
|120>
|121>                          ****END OF INPUT****

CARTESIAN COORDINATES (ANGSTROEM)
---------------------------------
  C     -0.432450  -10.703310   -2.307220
  C      0.546540  -11.553730   -1.893560
  C      1.423610  -10.963910   -0.967380
  C      1.078520   -9.651970   -0.697000
  S     -0.317000   -9.146510   -1.577060
  C      1.883070   -8.929050    0.225890
  C      2.963120   -9.586270    0.794100
  Ge     3.020050  -11.424700    0.089040
  C      4.630570  -11.802010   -1.007860
  C      2.691870  -12.809200    1.473120
  C      3.669720   -8.771310    1.677860
  C      3.143970   -7.501180    1.793570
  S      1.733280   -7.303200    0.779510
  C      3.605470   -6.430230    2.602250
  C      3.062820   -5.167620    2.736250
  C      3.759150   -4.356280    3.628660
  C      4.854140   -5.006230    4.184020
  S      5.024010   -6.622920    3.603910
  C      5.639820   -4.295360    5.122870
  C      5.255900   -2.996620    5.437820
  Ge     3.666770   -2.534520    4.369490
  C      4.019210   -1.118800    3.023920
  C      2.041330   -2.183240    5.452250
  C      6.095460   -2.417080    6.383850
  C      7.120820   -3.248330    6.793240
  S      7.045950   -4.797430    5.986210
  C      8.139960   -2.974570    7.738880
  C      9.227660   -3.758890    8.071020
  C     10.024450   -3.164820    9.052050
  C      9.534030   -1.920520    9.478000
  S      8.098800   -1.474410    8.660800
  C     10.400130   -1.408100   10.473870
  C     11.446660   -2.321930   10.673880
  C     11.246130   -3.456210    9.785700
  C     12.037630   -4.561570    9.665690
  C     11.741430   -5.606840    8.766880
  N     11.511060   -6.463910    8.040150
  C     13.209010   -4.736820   10.430690
  N     14.164780   -4.889490   11.046060
  C     12.354730   -1.907000   11.650360
  C     12.004450   -0.690270   12.203120
  S     10.528450   -0.041100   11.494320
  C     12.668890    0.029500   13.226800
  C     12.261570    1.196370   13.845420
  C     13.139590    1.637740   14.830090
  C     14.240690    0.799260   14.963890
  S     14.188920   -0.539050   13.876990
  C     15.213630    1.138470   15.934690
  C     14.998630    2.278370   16.699190
  Ge    13.296250    3.096820   16.143830
  C     13.493370    4.895720   15.329620
  C     11.892790    3.033040   17.545630
  C     16.025980    2.500580   17.612760
  C     17.026220    1.550240   17.557810
  S     16.689140    0.341100   16.342520
  C     18.208260    1.476470   18.339700
  C     19.222310    0.543840   18.268910
  C     20.245360    0.765030   19.190370
  C     20.008590    1.881480   19.977020
  S     18.524840    2.665430   19.582140
  C     20.976810    2.214460   20.963560
  C     22.092850    1.404850   21.074510
  Ge    21.963290   -0.031500   19.733810
  C     21.786310   -1.849600   20.509980
  C     23.357380    0.064330   18.324030
  C     22.959740    1.847670   22.088120
  C     22.503330    2.962610   22.721640
  S     20.993320    3.513120   22.099650
  H     -1.226660  -10.889880   -3.003430
  H      0.635760  -12.568330   -2.241330
  H      4.523350  -12.753390   -1.519470
  H      5.511170  -11.847270   -0.374700
  H      4.774000  -11.021940   -1.748730
  H      1.806240  -12.563380    2.050420
  H      3.540520  -12.872330    2.147060
  H      2.546700  -13.779360    1.008250
  H      4.541550   -9.084030    2.226810
  H      2.183120   -4.861100    2.196490
  H      4.918260   -1.350130    2.461460
  H      4.151440   -0.158920    3.513400
  H      3.185800   -1.042850    2.332440
  H      1.889280   -2.978500    6.174970
  H      1.168860   -2.125130    4.808930
  H      2.141920   -1.242380    5.984410
  H      5.976150   -1.418790    6.769610
  H      9.416200   -4.711270    7.608880
  H     13.227630   -2.452980   11.960380
  H     11.346260    1.697990   13.580470
  H     14.268560    4.884400   14.570120
  H     13.760670    5.623010   16.089920
  H     12.559010    5.203080   14.870240
  H     11.816990    2.031530   17.957170
  H     10.930800    3.311480   17.126630
  H     12.132970    3.722460   18.348990
  H     16.057230    3.327060   18.302050
  H     19.206620   -0.268790   17.562790
  H     21.014300   -1.861840   21.272660
  H     22.724800   -2.160050   20.958630
  H     21.521570   -2.561920   19.734750
  H     23.424070    1.072040   17.926520
  H     23.115650   -0.614980   17.512540
  H     24.324220   -0.214280   18.731540
  H     23.885640    1.360370   22.340240
  H     22.960200    3.506330   23.525340

 Total Charge           Charge          ....    0
 Multiplicity           Mult            ....    1
 Number of Electrons    NEL             ....  650
 Basis Dimension        Dim             .... 1244

ORBITAL ENERGIES
----------------

  NO   OCC          E(Eh)            E(eV)
   0   2.0000    -398.767747    -10851.0220
   1   2.0000    -398.767711    -10851.0211
   2   2.0000    -398.762748    -10850.8860
   3   2.0000    -398.762707    -10850.8849
   4   2.0000     -88.975545     -2421.1477
   5   2.0000     -88.975456     -2421.1452
   6   2.0000     -88.955932     -2420.6140
   7   2.0000     -88.955632     -2420.6058
   8   2.0000     -88.951726     -2420.4995
   9   2.0000     -88.951706     -2420.4990
  10   2.0000     -88.949661     -2420.4433
  11   2.0000     -88.949657     -2420.4432
  12   2.0000     -88.947317     -2420.3795
  13   2.0000     -88.946978     -2420.3703
  14   2.0000     -49.827283     -1355.8693
  15   2.0000     -49.827259     -1355.8687
  16   2.0000     -49.822289     -1355.7334
  17   2.0000     -49.822265     -1355.7327
  18   2.0000     -44.364519     -1207.2199
  19   2.0000     -44.364494     -1207.2193
  20   2.0000     -44.363783     -1207.1999
  21   2.0000     -44.363761     -1207.1993
  22   2.0000     -44.363422     -1207.1901
  23   2.0000     -44.363400     -1207.1895
  24   2.0000     -44.359500     -1207.0834
  25   2.0000     -44.359476     -1207.0827
  26   2.0000     -44.358767     -1207.0634
  27   2.0000     -44.358747     -1207.0629
  28   2.0000     -44.358463     -1207.0551
  29   2.0000     -44.358436     -1207.0544
  30   2.0000     -14.419353      -392.3705
  31   2.0000     -14.419286      -392.3687
  32   2.0000     -10.352155      -281.6964
  33   2.0000     -10.339629      -281.3556
  34   2.0000     -10.319936      -280.8197
  35   2.0000     -10.319900      -280.8188
  36   2.0000     -10.316337      -280.7218
  37   2.0000     -10.316116      -280.7158
  38   2.0000     -10.313173      -280.6357
  39   2.0000     -10.313157      -280.6353
  40   2.0000     -10.301556      -280.3196
  41   2.0000     -10.301505      -280.3182
  42   2.0000     -10.299848      -280.2731
  43   2.0000     -10.299774      -280.2711
  44   2.0000     -10.297764      -280.2164
  45   2.0000     -10.297666      -280.2137
  46   2.0000     -10.295426      -280.1528
  47   2.0000     -10.295367      -280.1512
  48   2.0000     -10.294813      -280.1361
  49   2.0000     -10.294718      -280.1335
  50   2.0000     -10.292803      -280.0814
  51   2.0000     -10.292776      -280.0807
  52   2.0000     -10.290856      -280.0284
  53   2.0000     -10.290807      -280.0271
  54   2.0000     -10.288138      -279.9545
  55   2.0000     -10.288050      -279.9521
  56   2.0000     -10.284986      -279.8687
  57   2.0000     -10.284961      -279.8680
  58   2.0000     -10.280570      -279.7485
  59   2.0000     -10.280519      -279.7471
  60   2.0000     -10.273648      -279.5602
  61   2.0000     -10.273589      -279.5586
  62   2.0000     -10.266753      -279.3725
  63   2.0000     -10.266728      -279.3719
  64   2.0000     -10.265509      -279.3387
  65   2.0000     -10.265440      -279.3368
  66   2.0000     -10.263108      -279.2734
  67   2.0000     -10.263103      -279.2732
  68   2.0000     -10.257902      -279.1317
  69   2.0000     -10.257864      -279.1307
  70   2.0000     -10.257048      -279.1085
  71   2.0000     -10.257024      -279.1078
  72   2.0000     -10.256862      -279.1034
  73   2.0000     -10.256766      -279.1008
  74   2.0000     -10.255932      -279.0781
  75   2.0000     -10.255893      -279.0770
  76   2.0000     -10.253207      -279.0039
  77   2.0000     -10.253162      -279.0027
  78   2.0000     -10.253000      -278.9983
  79   2.0000     -10.252797      -278.9928
  80   2.0000     -10.251130      -278.9474
  81   2.0000     -10.251125      -278.9473
  82   2.0000     -10.249410      -278.9006
  83   2.0000     -10.249366      -278.8994
  84   2.0000      -8.070055      -219.5974
  85   2.0000      -8.069986      -219.5955
  86   2.0000      -8.051128      -219.0823
  87   2.0000      -8.050950      -219.0775
  88   2.0000      -8.047046      -218.9712
  89   2.0000      -8.047024      -218.9707
  90   2.0000      -8.045002      -218.9156
  91   2.0000      -8.044998      -218.9155
  92   2.0000      -8.043005      -218.8613
  93   2.0000      -8.042819      -218.8562
  94   2.0000      -6.287142      -171.0818
  95   2.0000      -6.287121      -171.0813
  96   2.0000      -6.282179      -170.9468
  97   2.0000      -6.282159      -170.9462
  98   2.0000      -6.039348      -164.3390
  99   2.0000      -6.039320      -164.3383
 100   2.0000      -6.035221      -164.2267
 101   2.0000      -6.035174      -164.2254
 102   2.0000      -6.032271      -164.1464
 103   2.0000      -6.032241      -164.1456
 104   2.0000      -6.020396      -163.8233
 105   2.0000      -6.020211      -163.8183
 106   2.0000      -6.016421      -163.7151
 107   2.0000      -6.016300      -163.7118
 108   2.0000      -6.016275      -163.7112
 109   2.0000      -6.016252      -163.7105
 110   2.0000      -6.014243      -163.6559
 111   2.0000      -6.014240      -163.6558
 112   2.0000      -6.013192      -163.6273
 113   2.0000      -6.012964      -163.6211
 114   2.0000      -6.012348      -163.6043
 115   2.0000      -6.012338      -163.6040
 116   2.0000      -6.012234      -163.6012
 117   2.0000      -6.012043      -163.5960
 118   2.0000      -6.010318      -163.5491
 119   2.0000      -6.010312      -163.5489
 120   2.0000      -6.009098      -163.5159
 121   2.0000      -6.009062      -163.5149
 122   2.0000      -6.008015      -163.4864
 123   2.0000      -6.007838      -163.4816
 124   2.0000      -6.007071      -163.4607
 125   2.0000      -6.007046      -163.4600
 126   2.0000      -6.005412      -163.4156
 127   2.0000      -6.005149      -163.4084
 128   2.0000      -4.463365      -121.4543
 129   2.0000      -4.463333      -121.4535
 130   2.0000      -4.462293      -121.4252
 131   2.0000      -4.462289      -121.4251
 132   2.0000      -4.461313      -121.3985
 133   2.0000      -4.461283      -121.3977
 134   2.0000      -4.458361      -121.3182
 135   2.0000      -4.458334      -121.3174
 136   2.0000      -4.457316      -121.2897
 137   2.0000      -4.457307      -121.2895
 138   2.0000      -4.456407      -121.2650
 139   2.0000      -4.456368      -121.2639
 140   2.0000      -1.287410       -35.0322
 141   2.0000      -1.287393       -35.0318
 142   2.0000      -1.285477       -34.9796
 143   2.0000      -1.285449       -34.9788
 144   2.0000      -1.285113       -34.9697
 145   2.0000      -1.285085       -34.9689
 146   2.0000      -1.284154       -34.9436
 147   2.0000      -1.284127       -34.9429
 148   2.0000      -1.283614       -34.9289
 149   2.0000      -1.283609       -34.9288
 150   2.0000      -1.282382       -34.8954
 151   2.0000      -1.282376       -34.8952
 152   2.0000      -1.280494       -34.8440
 153   2.0000      -1.280470       -34.8433
 154   2.0000      -1.280189       -34.8357
 155   2.0000      -1.280157       -34.8348
 156   2.0000      -1.279198       -34.8088
 157   2.0000      -1.279165       -34.8079
 158   2.0000      -1.278656       -34.7940
 159   2.0000      -1.278644       -34.7937
 160   2.0000      -1.030341       -28.0370
 161   2.0000      -1.010566       -27.4989
 162   2.0000      -0.997054       -27.1312
 163   2.0000      -0.995409       -27.0864
 164   2.0000      -0.992062       -26.9954
 165   2.0000      -0.987142       -26.8615
 166   2.0000      -0.983269       -26.7561
 167   2.0000      -0.977845       -26.6085
 168   2.0000      -0.969071       -26.3698
 169   2.0000      -0.963650       -26.2222
 170   2.0000      -0.953400       -25.9433
 171   2.0000      -0.950875       -25.8746
 172   2.0000      -0.941936       -25.6314
 173   2.0000      -0.902370       -24.5547
 174   2.0000      -0.879103       -23.9216
 175   2.0000      -0.873423       -23.7671
 176   2.0000      -0.857422       -23.3317
 177   2.0000      -0.852535       -23.1987
 178   2.0000      -0.843884       -22.9633
 179   2.0000      -0.842240       -22.9185
 180   2.0000      -0.834726       -22.7141
 181   2.0000      -0.832983       -22.6666
 182   2.0000      -0.826613       -22.4933
 183   2.0000      -0.825853       -22.4726
 184   2.0000      -0.815412       -22.1885
 185   2.0000      -0.815282       -22.1849
 186   2.0000      -0.814292       -22.1580
 187   2.0000      -0.804781       -21.8992
 188   2.0000      -0.804331       -21.8870
 189   2.0000      -0.797074       -21.6895
 190   2.0000      -0.786236       -21.3946
 191   2.0000      -0.785431       -21.3727
 192   2.0000      -0.780826       -21.2474
 193   2.0000      -0.780595       -21.2411
 194   2.0000      -0.774195       -21.0669
 195   2.0000      -0.765375       -20.8269
 196   2.0000      -0.763185       -20.7673
 197   2.0000      -0.763145       -20.7662
 198   2.0000      -0.758887       -20.6504
 199   2.0000      -0.758774       -20.6473
 200   2.0000      -0.753895       -20.5145
 201   2.0000      -0.733221       -19.9520
 202   2.0000      -0.713946       -19.4275
 203   2.0000      -0.699277       -19.0283
 204   2.0000      -0.683655       -18.6032
 205   2.0000      -0.675990       -18.3946
 206   2.0000      -0.672073       -18.2880
 207   2.0000      -0.671865       -18.2824
 208   2.0000      -0.663575       -18.0568
 209   2.0000      -0.653173       -17.7737
 210   2.0000      -0.650259       -17.6944
 211   2.0000      -0.649349       -17.6697
 212   2.0000      -0.627670       -17.0798
 213   2.0000      -0.625826       -17.0296
 214   2.0000      -0.612596       -16.6696
 215   2.0000      -0.612379       -16.6637
 216   2.0000      -0.608169       -16.5491
 217   2.0000      -0.605477       -16.4759
 218   2.0000      -0.602132       -16.3848
 219   2.0000      -0.601108       -16.3570
 220   2.0000      -0.599306       -16.3079
 221   2.0000      -0.597591       -16.2613
 222   2.0000      -0.592039       -16.1102
 223   2.0000      -0.589040       -16.0286
 224   2.0000      -0.579283       -15.7631
 225   2.0000      -0.573534       -15.6066
 226   2.0000      -0.567877       -15.4527
 227   2.0000      -0.558177       -15.1888
 228   2.0000      -0.544985       -14.8298
 229   2.0000      -0.541930       -14.7467
 230   2.0000      -0.536029       -14.5861
 231   2.0000      -0.533698       -14.5227
 232   2.0000      -0.527535       -14.3550
 233   2.0000      -0.519477       -14.1357
 234   2.0000      -0.518358       -14.1052
 235   2.0000      -0.516565       -14.0564
 236   2.0000      -0.509503       -13.8643
 237   2.0000      -0.503184       -13.6923
 238   2.0000      -0.499647       -13.5961
 239   2.0000      -0.499282       -13.5862
 240   2.0000      -0.496127       -13.5003
 241   2.0000      -0.492922       -13.4131
 242   2.0000      -0.492035       -13.3890
 243   2.0000      -0.489619       -13.3232
 244   2.0000      -0.485722       -13.2172
 245   2.0000      -0.485503       -13.2112
 246   2.0000      -0.485421       -13.2090
 247   2.0000      -0.485093       -13.2001
 248   2.0000      -0.484797       -13.1920
 249   2.0000      -0.481964       -13.1149
 250   2.0000      -0.481012       -13.0890
 251   2.0000      -0.480740       -13.0816
 252   2.0000      -0.480422       -13.0729
 253   2.0000      -0.479770       -13.0552
 254   2.0000      -0.478539       -13.0217
 255   2.0000      -0.477813       -13.0019
 256   2.0000      -0.473644       -12.8885
 257   2.0000      -0.472750       -12.8642
 258   2.0000      -0.472417       -12.8551
 259   2.0000      -0.470729       -12.8092
 260   2.0000      -0.470463       -12.8019
 261   2.0000      -0.469598       -12.7784
 262   2.0000      -0.468381       -12.7453
 263   2.0000      -0.468114       -12.7380
 264   2.0000      -0.467507       -12.7215
 265   2.0000      -0.466968       -12.7068
 266   2.0000      -0.464816       -12.6483
 267   2.0000      -0.460626       -12.5343
 268   2.0000      -0.459124       -12.4934
 269   2.0000      -0.453679       -12.3452
 270   2.0000      -0.452158       -12.3038
 271   2.0000      -0.451968       -12.2987
 272   2.0000      -0.450916       -12.2701
 273   2.0000      -0.448541       -12.2054
 274   2.0000      -0.447174       -12.1682
 275   2.0000      -0.445880       -12.1330
 276   2.0000      -0.441721       -12.0198
 277   2.0000      -0.438680       -11.9371
 278   2.0000      -0.436199       -11.8696
 279   2.0000      -0.433097       -11.7852
 280   2.0000      -0.433057       -11.7841
 281   2.0000      -0.432190       -11.7605
 282   2.0000      -0.430144       -11.7048
 283   2.0000      -0.429327       -11.6826
 284   2.0000      -0.427799       -11.6410
 285   2.0000      -0.422216       -11.4891
 286   2.0000      -0.421867       -11.4796
 287   2.0000      -0.420722       -11.4484
 288   2.0000      -0.416204       -11.3255
 289   2.0000      -0.411643       -11.2014
 290   2.0000      -0.405306       -11.0289
 291   2.0000      -0.404898       -11.0178
 292   2.0000      -0.404482       -11.0065
 293   2.0000      -0.385253       -10.4833
 294   2.0000      -0.383517       -10.4360
 295   2.0000      -0.374327       -10.1860
 296   2.0000      -0.374325       -10.1859
 297   2.0000      -0.371606       -10.1119
 298   2.0000      -0.369335       -10.0501
 299   2.0000      -0.369186       -10.0461
 300   2.0000      -0.364503        -9.9186
 301   2.0000      -0.364314        -9.9135
 302   2.0000      -0.364302        -9.9132
 303   2.0000      -0.360000        -9.7961
 304   2.0000      -0.359841        -9.7918
 305   2.0000      -0.354592        -9.6489
 306   2.0000      -0.354569        -9.6483
 307   2.0000      -0.353697        -9.6246
 308   2.0000      -0.337029        -9.1710
 309   2.0000      -0.334714        -9.1080
 310   2.0000      -0.321626        -8.7519
 311   2.0000      -0.318780        -8.6745
 312   2.0000      -0.318757        -8.6738
 313   2.0000      -0.318290        -8.6611
 314   2.0000      -0.314708        -8.5636
 315   2.0000      -0.310859        -8.4589
 316   2.0000      -0.310828        -8.4581
 317   2.0000      -0.309527        -8.4227
 318   2.0000      -0.309471        -8.4211
 319   2.0000      -0.308776        -8.4022
 320   2.0000      -0.291241        -7.9251
 321   2.0000      -0.266972        -7.2647
 322   2.0000      -0.244926        -6.6648
 323   2.0000      -0.220515        -6.0005
 324   2.0000      -0.207133        -5.6364
 325   0.0000      -0.092436        -2.5153
 326   0.0000      -0.049397        -1.3442
 327   0.0000      -0.040286        -1.0962
 328   0.0000      -0.015208        -0.4138
 329   0.0000      -0.006578        -0.1790

MULLIKEN ATOMIC CHARGES
-----------------------
   0 C :   -0.081378
   1 C :    0.019244
   2 C :   -0.105718
   3 C :   -0.125843
   4 S :    0.127219
   5 C :   -0.076327
   6 C :   -0.092239
   7 Ge:    0.448102
   8 C :   -0.193130
   9 C :   -0.192699
  10 C :   -0.061974
  11 C :   -0.041232
  12 S :    0.127751
  13 C :   -0.032916
  14 C :   -0.066164
  15 C :   -0.085726
  16 C :   -0.089495
  17 S :    0.135337
  18 C :   -0.084474
  19 C :   -0.085676
  20 Ge:    0.446594
  21 C :   -0.192467
  22 C :   -0.193437
  23 C :   -0.061261
  24 C :   -0.059336
  25 S :    0.146200
  26 C :   -0.031620
  27 C :   -0.067647
  28 C :    0.012308
  29 C :   -0.101761
  30 S :    0.167742
  31 C :   -0.104116
  32 C :    0.010021
  33 C :    0.303283
  34 C :   -0.302317
  35 C :   -0.189768
  36 N :    0.168976
  37 C :   -0.189942
  38 N :    0.170938
  39 C :   -0.069357
  40 C :   -0.030288
  41 S :    0.167350
  42 C :   -0.057503
  43 C :   -0.060883
  44 C :   -0.087675
  45 C :   -0.084904
  46 S :    0.146636
  47 C :   -0.091176
  48 C :   -0.083174
  49 Ge:    0.446637
  50 C :   -0.196466
  51 C :   -0.189913
  52 C :   -0.069457
  53 C :   -0.030556
  54 S :    0.134543
  55 C :   -0.038998
  56 C :   -0.065117
  57 C :   -0.090103
  58 C :   -0.077774
  59 S :    0.126732
  60 C :   -0.126296
  61 C :   -0.107041
  62 Ge:    0.448332
  63 C :   -0.196381
  64 C :   -0.190394
  65 C :    0.021565
  66 C :   -0.081802
  67 S :    0.127968
  68 H :    0.020804
  69 H :   -0.019408
  70 H :    0.041357
  71 H :    0.043285
  72 H :    0.055553
  73 H :    0.054850
  74 H :    0.043588
  75 H :    0.041390
  76 H :   -0.019299
  77 H :   -0.020098
  78 H :    0.056652
  79 H :    0.041616
  80 H :    0.044383
  81 H :    0.056955
  82 H :    0.044369
  83 H :    0.041990
  84 H :   -0.022127
  85 H :    0.007511
  86 H :    0.008133
  87 H :   -0.021740
  88 H :    0.058187
  89 H :    0.044650
  90 H :    0.042344
  91 H :    0.056411
  92 H :    0.041181
  93 H :    0.043804
  94 H :   -0.019044
  95 H :   -0.018273
  96 H :    0.056541
  97 H :    0.041842
  98 H :    0.043756
  99 H :    0.054609
 100 H :    0.042963
 101 H :    0.040873
 102 H :   -0.019990
 103 H :    0.020825
Sum of atomic charges:   -0.0000000

LOEWDIN ATOMIC CHARGES
----------------------
   0 C :   -0.191865
   1 C :   -0.064381
   2 C :   -0.176569
   3 C :   -0.196941
   4 S :    0.425897
   5 C :   -0.190337
   6 C :   -0.170552
   7 Ge:    0.513732
   8 C :   -0.202425
   9 C :   -0.202270
  10 C :   -0.064401
  11 C :   -0.187242
  12 S :    0.428116
  13 C :   -0.179681
  14 C :   -0.068998
  15 C :   -0.165961
  16 C :   -0.196703
  17 S :    0.431884
  18 C :   -0.185351
  19 C :   -0.171695
  20 Ge:    0.514538
  21 C :   -0.201425
  22 C :   -0.202104
  23 C :   -0.063254
  24 C :   -0.194443
  25 S :    0.439300
  26 C :   -0.172802
  27 C :   -0.044586
  28 C :   -0.072400
  29 C :   -0.184575
  30 S :    0.462934
  31 C :   -0.184922
  32 C :   -0.072345
  33 C :    0.086182
  34 C :   -0.105745
  35 C :   -0.016263
  36 N :   -0.036817
  37 C :   -0.016322
  38 N :   -0.036777
  39 C :   -0.044600
  40 C :   -0.172554
  41 S :    0.462982
  42 C :   -0.194548
  43 C :   -0.063169
  44 C :   -0.171483
  45 C :   -0.185488
  46 S :    0.439431
  47 C :   -0.196755
  48 C :   -0.165703
  49 Ge:    0.514237
  50 C :   -0.202375
  51 C :   -0.200961
  52 C :   -0.069275
  53 C :   -0.179709
  54 S :    0.431806
  55 C :   -0.187192
  56 C :   -0.064586
  57 C :   -0.170342
  58 C :   -0.190411
  59 S :    0.428104
  60 C :   -0.197210
  61 C :   -0.176303
  62 Ge:    0.513517
  63 C :   -0.202855
  64 C :   -0.201810
  65 C :   -0.064197
  66 C :   -0.191894
  67 S :    0.426181
  68 H :    0.020060
  69 H :    0.027122
  70 H :    0.034851
  71 H :    0.035632
  72 H :    0.040692
  73 H :    0.040437
  74 H :    0.035683
  75 H :    0.034812
  76 H :    0.023215
  77 H :    0.022990
  78 H :    0.041257
  79 H :    0.034958
  80 H :    0.036065
  81 H :    0.041233
  82 H :    0.036178
  83 H :    0.035235
  84 H :    0.021902
  85 H :    0.035047
  86 H :    0.035148
  87 H :    0.021819
  88 H :    0.041428
  89 H :    0.036267
  90 H :    0.035307
  91 H :    0.041184
  92 H :    0.034896
  93 H :    0.035825
  94 H :    0.023098
  95 H :    0.023358
  96 H :    0.040753
  97 H :    0.034982
  98 H :    0.035820
  99 H :    0.040325
 100 H :    0.035450
 101 H :    0.034699
 102 H :    0.026973
 103 H :    0.020036

  Mayer bond orders larger than 0.100000
B(  0-C ,  1-C ) :   1.5616 B(  0-C ,  4-S ) :   1.1487 B(  0-C , 68-H ) :   0.9720
B(  1-C ,  2-C ) :   1.2467 B(  1-C , 69-H ) :   0.9972 B(  2-C ,  3-C ) :   1.5465
B(  2-C ,  7-Ge) :   0.8872 B(  3-C ,  4-S ) :   1.1177 B(  3-C ,  5-C ) :   1.1456
B(  5-C ,  6-C ) :   1.5453 B(  5-C , 12-S ) :   1.0986 B(  6-C ,  7-Ge) :   0.8836
B(  6-C , 10-C ) :   1.2468 B(  7-Ge,  8-C ) :   1.0091 B(  7-Ge,  9-C ) :   1.0101
B(  8-C , 70-H ) :   0.9610 B(  8-C , 71-H ) :   0.9612 B(  8-C , 72-H ) :   0.9602
B(  9-C , 73-H ) :   0.9595 B(  9-C , 74-H ) :   0.9614 B(  9-C , 75-H ) :   0.9609
B( 10-C , 11-C ) :   1.4881 B( 10-C , 76-H ) :   0.9959 B( 11-C , 12-S ) :   1.1097
B( 11-C , 13-C ) :   1.1588 B( 13-C , 14-C ) :   1.4823 B( 13-C , 17-S ) :   1.1146
B( 14-C , 15-C ) :   1.2527 B( 14-C , 77-H ) :   0.9957 B( 15-C , 16-C ) :   1.5267
B( 15-C , 20-Ge) :   0.8856 B( 16-C , 17-S ) :   1.0931 B( 16-C , 18-C ) :   1.1538
B( 18-C , 19-C ) :   1.5222 B( 18-C , 25-S ) :   1.1024 B( 19-C , 20-Ge) :   0.8806
B( 19-C , 23-C ) :   1.2659 B( 20-Ge, 21-C ) :   1.0126 B( 20-Ge, 22-C ) :   1.0103
B( 21-C , 78-H ) :   0.9588 B( 21-C , 79-H ) :   0.9605 B( 21-C , 80-H ) :   0.9614
B( 22-C , 81-H ) :   0.9601 B( 22-C , 82-H ) :   0.9612 B( 22-C , 83-H ) :   0.9605
B( 23-C , 24-C ) :   1.4776 B( 23-C , 84-H ) :   0.9919 B( 24-C , 25-S ) :   1.1096
B( 24-C , 26-C ) :   1.1631 B( 26-C , 27-C ) :   1.4653 B( 26-C , 30-S ) :   1.0998
B( 27-C , 28-C ) :   1.2870 B( 27-C , 85-H ) :   0.9899 B( 28-C , 29-C ) :   1.4518
B( 28-C , 33-C ) :   0.9961 B( 29-C , 30-S ) :   1.1090 B( 29-C , 31-C ) :   1.1893
B( 31-C , 32-C ) :   1.4536 B( 31-C , 41-S ) :   1.1087 B( 32-C , 33-C ) :   0.9946
B( 32-C , 39-C ) :   1.2873 B( 33-C , 34-C ) :   1.7077 B( 34-C , 35-C ) :   1.1345
B( 34-C , 37-C ) :   1.1339 B( 35-C , 36-N ) :   2.9934 B( 37-C , 38-N ) :   2.9946
B( 39-C , 40-C ) :   1.4640 B( 39-C , 86-H ) :   0.9906 B( 40-C , 41-S ) :   1.1003
B( 40-C , 42-C ) :   1.1637 B( 42-C , 43-C ) :   1.4743 B( 42-C , 46-S ) :   1.1102
B( 43-C , 44-C ) :   1.2675 B( 43-C , 87-H ) :   0.9925 B( 44-C , 45-C ) :   1.5225
B( 44-C , 49-Ge) :   0.8810 B( 45-C , 46-S ) :   1.1024 B( 45-C , 47-C ) :   1.1556
B( 47-C , 48-C ) :   1.5246 B( 47-C , 54-S ) :   1.0938 B( 48-C , 49-Ge) :   0.8850
B( 48-C , 52-C ) :   1.2560 B( 49-Ge, 50-C ) :   1.0101 B( 49-Ge, 51-C ) :   1.0131
B( 50-C , 88-H ) :   0.9599 B( 50-C , 89-H ) :   0.9612 B( 50-C , 90-H ) :   0.9607
B( 51-C , 91-H ) :   0.9590 B( 51-C , 92-H ) :   0.9607 B( 51-C , 93-H ) :   0.9608
B( 52-C , 53-C ) :   1.4831 B( 52-C , 94-H ) :   0.9951 B( 53-C , 54-S ) :   1.1139
B( 53-C , 55-C ) :   1.1568 B( 55-C , 56-C ) :   1.4892 B( 55-C , 59-S ) :   1.1092
B( 56-C , 57-C ) :   1.2496 B( 56-C , 95-H ) :   0.9953 B( 57-C , 58-C ) :   1.5429
B( 57-C , 62-Ge) :   0.8835 B( 58-C , 59-S ) :   1.0995 B( 58-C , 60-C ) :   1.1473
B( 60-C , 61-C ) :   1.5465 B( 60-C , 67-S ) :   1.1179 B( 61-C , 62-Ge) :   0.8871
B( 61-C , 65-C ) :   1.2484 B( 62-Ge, 63-C ) :   1.0087 B( 62-Ge, 64-C ) :   1.0107
B( 63-C , 96-H ) :   0.9602 B( 63-C , 97-H ) :   0.9611 B( 63-C , 98-H ) :   0.9612
B( 64-C , 99-H ) :   0.9595 B( 64-C ,100-H ) :   0.9609 B( 64-C ,101-H ) :   0.9612
B( 65-C , 66-C ) :   1.5602 B( 65-C ,102-H ) :   0.9975 B( 66-C , 67-S ) :   1.1492
B( 66-C ,103-H ) :   0.9720

-----------------------------------------------------------------------------
         ABSORPTION SPECTRUM VIA TRANSITION ELECTRIC DIPOLE MOMENTS
-----------------------------------------------------------------------------
State   Energy  Wavelength   fosc         T2         TX        TY        TZ
        (cm-1)    (nm)                  (au**2)     (au)      (au)      (au)
-----------------------------------------------------------------------------
   0    8978.5   1113.8   0.204553388   7.50027  -1.69120  -1.00605  -1.90472
   1   16338.8    612.0   0.001878771   0.03786   0.07971  -0.17332   0.03824
   2   19534.1    511.9   2.944587714  49.62582  -4.41643  -2.63044  -4.81683
   3   21397.7    467.3   0.602398471   9.26812  -1.90644  -1.13610  -2.08396
   4   22454.3    445.3   0.059712845   0.87548   0.37291  -0.85395   0.08478
   5   26358.2    379.4   0.000152139   0.00190   0.01378  -0.04069   0.00738
   6   27217.0    367.4   0.002106224   0.02548   0.08562  -0.13377   0.01588
   7   27616.1    362.1   0.206452938   2.46113  -1.07377  -0.65665  -0.93646
   8   29207.1    342.4   0.013870903   0.15635   0.26520   0.14871   0.25279
   9   29902.3    334.4   0.194224393   2.13833   0.79818  -1.22334  -0.06830
  10   30238.2    330.7   0.053091781   0.57803  -0.44954  -0.26472  -0.55305
  11   31500.7    317.5   0.645345468   6.74447  -1.50707   2.10300   0.22496
  12   32315.0    309.5   0.000080633   0.00082   0.01954   0.00917  -0.01886
  13   32571.2    307.0   0.005476616   0.05535  -0.11185   0.20632  -0.01655
  14   33126.5    301.9   0.009008098   0.08952  -0.18374  -0.11733  -0.20492
  15   33721.6    296.5   0.175035817   1.70881   0.78854   0.46475   0.93329
  16   34265.1    291.8   0.115286223   1.10765  -0.62131   0.84562   0.08087
  17   34782.6    287.5   0.087253364   0.82584  -0.51542  -0.32004  -0.67658
  18   35587.7    281.0   0.035017184   0.32393   0.34056  -0.45305  -0.05198
  19   36019.8    277.6   0.000727224   0.00665   0.03580  -0.07148   0.01599
  20   36743.9    272.2   0.236973158   2.12319  -0.90876  -0.54239  -1.00158
  21   37283.6    268.2   0.000191391   0.00169  -0.01498   0.03634  -0.01203
  22   37374.7    267.6   0.000697549   0.00614   0.04232  -0.06587   0.00377
  23   37384.0    267.5   0.006281802   0.05532   0.13177   0.07938   0.17792
  24   37780.5    264.7   0.006237223   0.05435  -0.14152   0.18399   0.02163
  25   38533.9    259.5   0.003234010   0.02763  -0.10185  -0.06013  -0.11679
  26   39879.2    250.8   0.000679081   0.00561   0.05199   0.02384   0.04832
  27   40048.8    249.7   0.015203000   0.12497  -0.20063   0.28908   0.03397
  28   40273.1    248.3   0.009335248   0.07631  -0.13161  -0.05639  -0.23624

FINAL SINGLE POINT ENERGY    -14398.116674326116

DIPOLE MOMENT
-------------
                                X             Y             Z
Electronic contribution:     -3.48880       5.07063       0.42572
Nuclear contribution   :      2.32934      -3.52705      -0.19976
                        -----------------------------------------
Total Dipole Moment    :     -1.15946       1.54358       0.22595
                        -----------------------------------------
Magnitude (a.u.)       :      1.94372
Magnitude (Debye)      :      4.94053

Rotational constants in cm-1:     0.001807     0.000107     0.000102
Rotational constants in MHz :    54.181915     3.217493     3.055668

                             ****ORCA TERMINATED NORMALLY****
TOTAL RUN TIME: 0 days 0 hours 9 minutes 58 seconds 493 msec
