                         Program Version 4.2.0 -  RELEASE  -
|  1> # ORCA input file
|  2> # SCF done       -156.031914775005          0.000374307028
|  3> ! CAM-B3LYP def2-SVP def2/J RIJCOSX Grid4 TightSCF
|  4> %maxcore 5000
|  5> %tddft
|  6>     Mode sTDDFT
|  7>     Ethresh 5.0
|  8>     maxcore 5000
|  9> end
| 10>
| 11> %pal
| 12>   nprocs 6
| 13>   end
| 14> * xyz 0 1
| 15>    C        1.97797         6.65054         3.35298
| 16>    C        1.55784         7.90942         3.68164
| 17>    F        0.61299         8.06627         4.62642
| 18>    C        2.07619         9.05866         3.06959
| 19>    C        3.03865         8.91903         2.10870
| 20>    C        3.50994         7.64469         1.73223
| 21>    C        2.96728         6.48793         2.36400
| 22>    C        3.41726         5.19786         1.99631
| 23>    C        4.38211         5.07346         1.03428
| 24>    C        4.93481         6.23434         0.42067
| 25>    C        4.51187         7.48989         0.74797
| 26>    C        5.98203         5.82656        -0.53472
| 27>    O        6.63124         6.52982        -1.27458
| 28>    C        6.12239         4.35398        -0.35691
| 29>    C        5.01082         3.89439         0.44139
| 30>    C        4.47625         2.63073         0.44765
| 31>    C        4.96215         1.57839        -0.35244
| 32>    N        5.31116         0.70385        -1.00920
| 33>    C        3.33627         2.26456         1.19036
| 34>    N        2.42851         1.90894         1.79670
| 35>    C        7.23870         3.74639        -0.85379
| 36>    C        7.82974         2.51246        -0.51600
| 37>    C        7.64304         1.68692         0.58125
| 38>    C        8.47814         0.57326         0.61953
| 39>    C        8.43241        -0.44370         1.70605
| 40>    C        9.34311         0.52517        -0.47303
| 41>    S        9.10733         1.88792        -1.52232
| 42>    C       10.34468        -0.42504        -0.79502
| 43>    C       11.21810        -0.36281        -1.86473
| 44>    C       12.13599        -1.41178        -1.93128
| 45>    C       13.17232        -1.52249        -2.99410
| 46>    C       11.97080        -2.31912        -0.88985
| 47>    S       10.65998        -1.84391         0.15672
| 48>    C       12.70534        -3.48765        -0.57478
| 49>    C       12.47520        -4.34306         0.48982
| 50>    C       13.36109        -5.41342         0.56972
| 51>    C       13.32931        -6.44412         1.64306
| 52>    C       14.32894        -5.38059        -0.43388
| 53>    S       14.07291        -4.02052        -1.49868
| 54>    C       15.34077        -6.33578        -0.65759
| 55>    C       16.48689        -6.21558        -1.38799
| 56>    C       17.16188        -7.42961        -1.91391
| 57>    O       16.94612        -8.57717        -1.59346
| 58>    C       18.09752        -6.93399        -2.94408
| 59>    C       18.88305        -7.64291        -3.80588
| 60>    C       19.69392        -6.94745        -4.73128
| 61>    C       19.66975        -5.52238        -4.74924
| 62>    C       20.47708        -4.83662        -5.67735
| 63>    C       21.26746        -5.54956        -6.53515
| 64>    C       21.30697        -6.95037        -6.53208
| 65>    C       20.52751        -7.63193        -5.63921
| 66>    F       22.04122        -4.89575        -7.42111
| 67>    C       18.85098        -4.81293        -3.83971
| 68>    C       18.08240        -5.50884        -2.94743
| 69>    C       17.19711        -5.05741        -1.87814
| 70>    C       17.25161        -3.82899        -1.26909
| 71>    C       16.62230        -3.55807        -0.03738
| 72>    N       16.16670        -3.32640         0.99099
| 73>    C       18.00791        -2.74433        -1.75139
| 74>    N       18.57995        -1.82023        -2.12220
| 75>    H        1.55331         5.78806         3.84254
| 76>    H        1.70569        10.02599         3.36966
| 77>    H        3.45395         9.78934         1.62328
| 78>    H        2.99389         4.34025         2.49506
| 79>    H        4.93776         8.35571         0.26357
| 80>    H        7.79798         4.35401        -1.55970
| 81>    H        6.94497         1.91376         1.36766
| 82>    H        7.68499        -0.16636         2.44425
| 83>    H        9.40052        -0.53140         2.19855
| 84>    H        8.17434        -1.42134         1.30007
| 85>    H       11.18820         0.44240        -2.57795
| 86>    H       13.07899        -0.69529        -3.69231
| 87>    H       13.06864        -2.45932        -3.54099
| 88>    H       14.17173        -1.50196        -2.55847
| 89>    H       11.67375        -4.17905         1.18884
| 90>    H       14.19708        -6.33290         2.29234
| 91>    H       13.35515        -7.44700         1.21900
| 92>    H       12.42972        -6.33588         2.24249
| 93>    H       15.14880        -7.33017        -0.26489
| 94>    H       18.88880        -8.72235        -3.78185
| 95>    H       20.47467        -3.75815        -5.70509
| 96>    H       21.95028        -7.45904        -7.23240
| 97>    H       20.54113        -8.71128        -5.61787
| 98>    H       18.84562        -3.73484        -3.87637
| 99> *
|100>
|101>                          ****END OF INPUT****

CARTESIAN COORDINATES (ANGSTROEM)
---------------------------------
  C      1.977970    6.650540    3.352980
  C      1.557840    7.909420    3.681640
  F      0.612990    8.066270    4.626420
  C      2.076190    9.058660    3.069590
  C      3.038650    8.919030    2.108700
  C      3.509940    7.644690    1.732230
  C      2.967280    6.487930    2.364000
  C      3.417260    5.197860    1.996310
  C      4.382110    5.073460    1.034280
  C      4.934810    6.234340    0.420670
  C      4.511870    7.489890    0.747970
  C      5.982030    5.826560   -0.534720
  O      6.631240    6.529820   -1.274580
  C      6.122390    4.353980   -0.356910
  C      5.010820    3.894390    0.441390
  C      4.476250    2.630730    0.447650
  C      4.962150    1.578390   -0.352440
  N      5.311160    0.703850   -1.009200
  C      3.336270    2.264560    1.190360
  N      2.428510    1.908940    1.796700
  C      7.238700    3.746390   -0.853790
  C      7.829740    2.512460   -0.516000
  C      7.643040    1.686920    0.581250
  C      8.478140    0.573260    0.619530
  C      8.432410   -0.443700    1.706050
  C      9.343110    0.525170   -0.473030
  S      9.107330    1.887920   -1.522320
  C     10.344680   -0.425040   -0.795020
  C     11.218100   -0.362810   -1.864730
  C     12.135990   -1.411780   -1.931280
  C     13.172320   -1.522490   -2.994100
  C     11.970800   -2.319120   -0.889850
  S     10.659980   -1.843910    0.156720
  C     12.705340   -3.487650   -0.574780
  C     12.475200   -4.343060    0.489820
  C     13.361090   -5.413420    0.569720
  C     13.329310   -6.444120    1.643060
  C     14.328940   -5.380590   -0.433880
  S     14.072910   -4.020520   -1.498680
  C     15.340770   -6.335780   -0.657590
  C     16.486890   -6.215580   -1.387990
  C     17.161880   -7.429610   -1.913910
  O     16.946120   -8.577170   -1.593460
  C     18.097520   -6.933990   -2.944080
  C     18.883050   -7.642910   -3.805880
  C     19.693920   -6.947450   -4.731280
  C     19.669750   -5.522380   -4.749240
  C     20.477080   -4.836620   -5.677350
  C     21.267460   -5.549560   -6.535150
  C     21.306970   -6.950370   -6.532080
  C     20.527510   -7.631930   -5.639210
  F     22.041220   -4.895750   -7.421110
  C     18.850980   -4.812930   -3.839710
  C     18.082400   -5.508840   -2.947430
  C     17.197110   -5.057410   -1.878140
  C     17.251610   -3.828990   -1.269090
  C     16.622300   -3.558070   -0.037380
  N     16.166700   -3.326400    0.990990
  C     18.007910   -2.744330   -1.751390
  N     18.579950   -1.820230   -2.122200
  H      1.553310    5.788060    3.842540
  H      1.705690   10.025990    3.369660
  H      3.453950    9.789340    1.623280
  H      2.993890    4.340250    2.495060
  H      4.937760    8.355710    0.263570
  H      7.797980    4.354010   -1.559700
  H      6.944970    1.913760    1.367660
  H      7.684990   -0.166360    2.444250
  H      9.400520   -0.531400    2.198550
  H      8.174340   -1.421340    1.300070
  H     11.188200    0.442400   -2.577950
  H     13.078990   -0.695290   -3.692310
  H     13.068640   -2.459320   -3.540990
  H     14.171730   -1.501960   -2.558470
  H     11.673750   -4.179050    1.188840
  H     14.197080   -6.332900    2.292340
  H     13.355150   -7.447000    1.219000
  H     12.429720   -6.335880    2.242490
  H     15.148800   -7.330170   -0.264890
  H     18.888800   -8.722350   -3.781850
  H     20.474670   -3.758150   -5.705090
  H     21.950280   -7.459040   -7.232400
  H     20.541130   -8.711280   -5.617870
  H     18.845620   -3.734840   -3.876370

 Total Charge           Charge          ....    0
 Multiplicity           Mult            ....    1
 Number of Electrons    NEL             ....  428
 Basis Dimension        Dim             ....  972

ORBITAL ENERGIES
----------------

  NO   OCC          E(Eh)            E(eV)
   0   2.0000     -88.974466     -2421.1183
   1   2.0000     -88.971528     -2421.0384
   2   2.0000     -88.971071     -2421.0259
   3   2.0000     -24.785980      -674.4608
   4   2.0000     -24.783633      -674.3969
   5   2.0000     -19.212964      -522.8113
   6   2.0000     -19.208503      -522.6899
   7   2.0000     -14.416635      -392.2966
   8   2.0000     -14.415998      -392.2793
   9   2.0000     -14.412490      -392.1838
  10   2.0000     -14.409212      -392.0946
  11   2.0000     -10.369605      -282.1713
  12   2.0000     -10.367075      -282.1025
  13   2.0000     -10.364518      -282.0329
  14   2.0000     -10.360585      -281.9258
  15   2.0000     -10.343523      -281.4616
  16   2.0000     -10.342418      -281.4315
  17   2.0000     -10.337629      -281.3012
  18   2.0000     -10.336790      -281.2784
  19   2.0000     -10.330766      -281.1144
  20   2.0000     -10.327465      -281.0246
  21   2.0000     -10.326219      -280.9907
  22   2.0000     -10.322484      -280.8891
  23   2.0000     -10.319417      -280.8056
  24   2.0000     -10.318369      -280.7771
  25   2.0000     -10.317981      -280.7665
  26   2.0000     -10.317918      -280.7648
  27   2.0000     -10.316855      -280.7359
  28   2.0000     -10.315431      -280.6971
  29   2.0000     -10.311926      -280.6018
  30   2.0000     -10.308505      -280.5087
  31   2.0000     -10.306315      -280.4491
  32   2.0000     -10.306223      -280.4466
  33   2.0000     -10.304110      -280.3891
  34   2.0000     -10.303351      -280.3684
  35   2.0000     -10.302518      -280.3458
  36   2.0000     -10.301170      -280.3091
  37   2.0000     -10.300894      -280.3016
  38   2.0000     -10.299865      -280.2736
  39   2.0000     -10.298577      -280.2385
  40   2.0000     -10.298518      -280.2369
  41   2.0000     -10.298252      -280.2297
  42   2.0000     -10.297815      -280.2178
  43   2.0000     -10.297095      -280.1982
  44   2.0000     -10.296591      -280.1845
  45   2.0000     -10.296335      -280.1775
  46   2.0000     -10.295268      -280.1485
  47   2.0000     -10.294959      -280.1401
  48   2.0000     -10.294540      -280.1287
  49   2.0000     -10.292021      -280.0601
  50   2.0000     -10.290302      -280.0134
  51   2.0000     -10.289657      -279.9958
  52   2.0000     -10.289239      -279.9844
  53   2.0000     -10.288643      -279.9682
  54   2.0000     -10.286647      -279.9139
  55   2.0000     -10.286411      -279.9075
  56   2.0000     -10.284501      -279.8555
  57   2.0000     -10.280264      -279.7402
  58   2.0000     -10.280252      -279.7399
  59   2.0000     -10.279995      -279.7329
  60   2.0000      -8.069157      -219.5729
  61   2.0000      -8.067156      -219.5185
  62   2.0000      -8.065444      -219.4719
  63   2.0000      -6.038623      -164.3193
  64   2.0000      -6.036424      -164.2594
  65   2.0000      -6.034914      -164.2184
  66   2.0000      -6.034344      -164.2028
  67   2.0000      -6.032397      -164.1499
  68   2.0000      -6.031135      -164.1155
  69   2.0000      -6.030610      -164.1013
  70   2.0000      -6.029150      -164.0615
  71   2.0000      -6.027442      -164.0150
  72   2.0000      -1.300884       -35.3989
  73   2.0000      -1.298422       -35.3319
  74   2.0000      -1.128478       -30.7074
  75   2.0000      -1.123496       -30.5719
  76   2.0000      -1.020744       -27.7758
  77   2.0000      -1.018020       -27.7017
  78   2.0000      -1.014338       -27.6015
  79   2.0000      -1.003790       -27.3145
  80   2.0000      -1.000746       -27.2317
  81   2.0000      -0.996780       -27.1238
  82   2.0000      -0.994640       -27.0655
  83   2.0000      -0.990102       -26.9421
  84   2.0000      -0.985168       -26.8078
  85   2.0000      -0.975888       -26.5553
  86   2.0000      -0.972324       -26.4583
  87   2.0000      -0.929438       -25.2913
  88   2.0000      -0.925399       -25.1814
  89   2.0000      -0.913812       -24.8661
  90   2.0000      -0.904562       -24.6144
  91   2.0000      -0.894502       -24.3406
  92   2.0000      -0.889104       -24.1937
  93   2.0000      -0.885512       -24.0960
  94   2.0000      -0.882953       -24.0264
  95   2.0000      -0.878795       -23.9132
  96   2.0000      -0.873901       -23.7801
  97   2.0000      -0.871280       -23.7087
  98   2.0000      -0.855329       -23.2747
  99   2.0000      -0.835645       -22.7391
 100   2.0000      -0.832996       -22.6670
 101   2.0000      -0.829239       -22.5647
 102   2.0000      -0.814067       -22.1519
 103   2.0000      -0.802029       -21.8243
 104   2.0000      -0.792650       -21.5691
 105   2.0000      -0.783926       -21.3317
 106   2.0000      -0.779249       -21.2044
 107   2.0000      -0.764247       -20.7962
 108   2.0000      -0.758967       -20.6525
 109   2.0000      -0.751383       -20.4462
 110   2.0000      -0.732317       -19.9274
 111   2.0000      -0.724728       -19.7208
 112   2.0000      -0.712463       -19.3871
 113   2.0000      -0.709253       -19.2997
 114   2.0000      -0.706332       -19.2203
 115   2.0000      -0.703651       -19.1473
 116   2.0000      -0.688219       -18.7274
 117   2.0000      -0.680262       -18.5109
 118   2.0000      -0.676879       -18.4188
 119   2.0000      -0.670623       -18.2486
 120   2.0000      -0.660626       -17.9766
 121   2.0000      -0.645405       -17.5624
 122   2.0000      -0.637732       -17.3536
 123   2.0000      -0.632595       -17.2138
 124   2.0000      -0.630801       -17.1650
 125   2.0000      -0.628804       -17.1106
 126   2.0000      -0.626962       -17.0605
 127   2.0000      -0.622326       -16.9344
 128   2.0000      -0.612320       -16.6621
 129   2.0000      -0.605436       -16.4748
 130   2.0000      -0.598804       -16.2943
 131   2.0000      -0.592658       -16.1271
 132   2.0000      -0.591094       -16.0845
 133   2.0000      -0.581090       -15.8123
 134   2.0000      -0.568087       -15.4584
 135   2.0000      -0.566178       -15.4065
 136   2.0000      -0.560407       -15.2495
 137   2.0000      -0.558433       -15.1957
 138   2.0000      -0.556331       -15.1385
 139   2.0000      -0.555767       -15.1232
 140   2.0000      -0.550900       -14.9907
 141   2.0000      -0.548732       -14.9318
 142   2.0000      -0.544100       -14.8057
 143   2.0000      -0.541076       -14.7234
 144   2.0000      -0.539782       -14.6882
 145   2.0000      -0.536631       -14.6025
 146   2.0000      -0.533802       -14.5255
 147   2.0000      -0.530790       -14.4435
 148   2.0000      -0.528646       -14.3852
 149   2.0000      -0.527223       -14.3465
 150   2.0000      -0.525463       -14.2986
 151   2.0000      -0.523793       -14.2531
 152   2.0000      -0.521072       -14.1791
 153   2.0000      -0.518925       -14.1207
 154   2.0000      -0.517928       -14.0935
 155   2.0000      -0.514229       -13.9929
 156   2.0000      -0.510220       -13.8838
 157   2.0000      -0.504753       -13.7350
 158   2.0000      -0.500682       -13.6242
 159   2.0000      -0.497981       -13.5508
 160   2.0000      -0.496071       -13.4988
 161   2.0000      -0.492037       -13.3890
 162   2.0000      -0.490315       -13.3421
 163   2.0000      -0.486893       -13.2490
 164   2.0000      -0.485762       -13.2183
 165   2.0000      -0.481480       -13.1017
 166   2.0000      -0.481063       -13.0904
 167   2.0000      -0.479231       -13.0406
 168   2.0000      -0.477369       -12.9899
 169   2.0000      -0.474400       -12.9091
 170   2.0000      -0.472516       -12.8578
 171   2.0000      -0.468688       -12.7536
 172   2.0000      -0.467031       -12.7086
 173   2.0000      -0.462676       -12.5900
 174   2.0000      -0.458410       -12.4740
 175   2.0000      -0.456936       -12.4339
 176   2.0000      -0.456109       -12.4114
 177   2.0000      -0.453779       -12.3480
 178   2.0000      -0.451377       -12.2826
 179   2.0000      -0.450233       -12.2515
 180   2.0000      -0.446090       -12.1387
 181   2.0000      -0.442877       -12.0513
 182   2.0000      -0.439559       -11.9610
 183   2.0000      -0.438650       -11.9363
 184   2.0000      -0.435871       -11.8606
 185   2.0000      -0.431493       -11.7415
 186   2.0000      -0.429813       -11.6958
 187   2.0000      -0.427116       -11.6224
 188   2.0000      -0.426003       -11.5921
 189   2.0000      -0.423975       -11.5370
 190   2.0000      -0.423439       -11.5223
 191   2.0000      -0.421729       -11.4758
 192   2.0000      -0.419015       -11.4020
 193   2.0000      -0.414242       -11.2721
 194   2.0000      -0.411617       -11.2007
 195   2.0000      -0.410552       -11.1717
 196   2.0000      -0.401953       -10.9377
 197   2.0000      -0.395481       -10.7616
 198   2.0000      -0.382146       -10.3987
 199   2.0000      -0.379056       -10.3146
 200   2.0000      -0.373323       -10.1586
 201   2.0000      -0.360223        -9.8022
 202   2.0000      -0.338975        -9.2240
 203   2.0000      -0.334229        -9.0948
 204   2.0000      -0.332932        -9.0595
 205   2.0000      -0.331146        -9.0109
 206   2.0000      -0.329093        -8.9551
 207   2.0000      -0.327734        -8.9181
 208   2.0000      -0.314079        -8.5465
 209   2.0000      -0.310100        -8.4382
 210   2.0000      -0.300371        -8.1735
 211   2.0000      -0.296736        -8.0746
 212   2.0000      -0.286826        -7.8049
 213   2.0000      -0.249254        -6.7825
 214   0.0000      -0.104071        -2.8319
 215   0.0000      -0.088065        -2.3964
 216   0.0000      -0.059083        -1.6077
 217   0.0000      -0.051709        -1.4071
 218   0.0000      -0.039482        -1.0744

MULLIKEN ATOMIC CHARGES
-----------------------
   0 C :   -0.094937
   1 C :    0.301527
   2 F :   -0.190883
   3 C :   -0.029336
   4 C :   -0.006644
   5 C :    0.094407
   6 C :    0.099208
   7 C :   -0.083405
   8 C :    0.037642
   9 C :    0.011829
  10 C :   -0.076264
  11 C :    0.136929
  12 O :   -0.144925
  13 C :   -0.144844
  14 C :    0.269047
  15 C :   -0.336760
  16 C :   -0.210330
  17 N :    0.174778
  18 C :   -0.174631
  19 N :    0.152533
  20 C :    0.096528
  21 C :   -0.090705
  22 C :    0.015752
  23 C :   -0.107648
  24 C :    0.116807
  25 C :   -0.046798
  26 S :    0.148423
  27 C :   -0.042076
  28 C :   -0.051348
  29 C :   -0.075897
  30 C :    0.110856
  31 C :   -0.048617
  32 S :    0.105646
  33 C :   -0.036555
  34 C :   -0.053366
  35 C :   -0.000197
  36 C :    0.112918
  37 C :   -0.125930
  38 S :    0.118270
  39 C :    0.034876
  40 C :   -0.143907
  41 C :    0.140223
  42 O :   -0.148381
  43 C :    0.009158
  44 C :   -0.082227
  45 C :    0.099765
  46 C :    0.101284
  47 C :   -0.098210
  48 C :    0.299819
  49 C :   -0.028815
  50 C :   -0.011546
  51 F :   -0.191470
  52 C :   -0.087808
  53 C :    0.041367
  54 C :    0.251867
  55 C :   -0.333091
  56 C :   -0.208717
  57 N :    0.170362
  58 C :   -0.173303
  59 N :    0.146552
  60 H :   -0.003002
  61 H :    0.003382
  62 H :   -0.008753
  63 H :   -0.005924
  64 H :   -0.011953
  65 H :    0.022596
  66 H :   -0.005224
  67 H :    0.018299
  68 H :    0.037958
  69 H :    0.044119
  70 H :   -0.007715
  71 H :    0.019196
  72 H :    0.040647
  73 H :    0.047638
  74 H :   -0.012350
  75 H :    0.053846
  76 H :    0.039606
  77 H :    0.016723
  78 H :    0.016381
  79 H :   -0.011562
  80 H :   -0.002535
  81 H :    0.002880
  82 H :   -0.007919
  83 H :   -0.005136
Sum of atomic charges:   -0.0000000

LOEWDIN ATOMIC CHARGES
----------------------
   0 C :   -0.042192
   1 C :    0.093177
   2 F :   -0.064885
   3 C :   -0.036887
   4 C :    0.004898
   5 C :   -0.019141
   6 C :    0.002999
   7 C :    0.009685
   8 C :   -0.017426
   9 C :   -0.059261
  10 C :    0.034723
  11 C :    0.082307
  12 O :   -0.146241
  13 C :   -0.097377
  14 C :    0.066021
  15 C :   -0.143637
  16 C :   -0.019978
  17 N :   -0.042218
  18 C :   -0.020834
  19 N :   -0.053673
  20 C :    0.049840
  21 C :   -0.181447
  22 C :   -0.010763
  23 C :   -0.050744
  24 C :   -0.055420
  25 C :   -0.161536
  26 S :    0.463957
  27 C :   -0.174220
  28 C :   -0.057530
  29 C :   -0.037425
  30 C :   -0.055457
  31 C :   -0.192503
  32 S :    0.469259
  33 C :   -0.143962
  34 C :   -0.073090
  35 C :   -0.001257
  36 C :   -0.042048
  37 C :   -0.199809
  38 S :    0.484899
  39 C :    0.054264
  40 C :   -0.108935
  41 C :    0.081077
  42 O :   -0.151283
  43 C :   -0.058325
  44 C :    0.032498
  45 C :   -0.019297
  46 C :    0.002999
  47 C :   -0.043199
  48 C :    0.092373
  49 C :   -0.038221
  50 C :    0.004019
  51 F :   -0.065973
  52 C :    0.008007
  53 C :   -0.016134
  54 C :    0.061190
  55 C :   -0.149211
  56 C :   -0.033873
  57 N :   -0.055195
  58 C :   -0.020481
  59 N :   -0.058005
  60 H :    0.042894
  61 H :    0.041842
  62 H :    0.035814
  63 H :    0.038638
  64 H :    0.039734
  65 H :    0.045922
  66 H :    0.033568
  67 H :    0.037958
  68 H :    0.032793
  69 H :    0.036658
  70 H :    0.026858
  71 H :    0.037767
  72 H :    0.035143
  73 H :    0.037569
  74 H :    0.025054
  75 H :    0.049805
  76 H :    0.041482
  77 H :    0.036039
  78 H :    0.047479
  79 H :    0.039377
  80 H :    0.042751
  81 H :    0.041488
  82 H :    0.035692
  83 H :    0.038579

  Mayer bond orders larger than 0.100000
B(  0-C ,  1-C ) :   1.4408 B(  0-C ,  6-C ) :   1.2052 B(  0-C , 60-H ) :   1.0062
B(  1-C ,  2-F ) :   1.0878 B(  1-C ,  3-C ) :   1.2540 B(  3-C ,  4-C ) :   1.4615
B(  3-C , 61-H ) :   0.9937 B(  4-C ,  5-C ) :   1.2352 B(  4-C , 62-H ) :   0.9969
B(  5-C ,  6-C ) :   1.2565 B(  5-C , 10-C ) :   1.1921 B(  6-C ,  7-C ) :   1.2022
B(  7-C ,  8-C ) :   1.4658 B(  7-C , 63-H ) :   0.9946 B(  8-C ,  9-C ) :   1.2180
B(  8-C , 14-C ) :   0.9945 B(  9-C , 10-C ) :   1.4735 B(  9-C , 11-C ) :   0.9196
B( 10-C , 64-H ) :   1.0152 B( 11-C , 12-O ) :   2.2643 B( 11-C , 13-C ) :   0.9453
B( 13-C , 14-C ) :   1.0504 B( 13-C , 20-C ) :   1.6404 B( 14-C , 15-C ) :   1.6387
B( 15-C , 16-C ) :   1.1680 B( 15-C , 18-C ) :   1.1297 B( 16-C , 17-N ) :   3.0020
B( 18-C , 19-N ) :   2.9857 B( 20-C , 21-C ) :   1.1533 B( 20-C , 65-H ) :   0.9258
B( 21-C , 22-C ) :   1.4104 B( 21-C , 26-S ) :   1.1046 B( 22-C , 23-C ) :   1.3441
B( 22-C , 66-H ) :   0.9869 B( 23-C , 24-C ) :   1.1066 B( 23-C , 25-C ) :   1.4515
B( 24-C , 67-H ) :   0.9407 B( 24-C , 68-H ) :   0.9356 B( 24-C , 69-H ) :   0.9373
B( 25-C , 26-S ) :   1.1545 B( 25-C , 27-C ) :   1.1567 B( 27-C , 28-C ) :   1.4503
B( 27-C , 32-S ) :   1.1261 B( 28-C , 29-C ) :   1.3097 B( 28-C , 70-H ) :   0.9911
B( 29-C , 30-C ) :   1.1086 B( 29-C , 31-C ) :   1.4624 B( 30-C , 71-H ) :   0.9417
B( 30-C , 72-H ) :   0.9365 B( 30-C , 73-H ) :   0.9349 B( 31-C , 32-S ) :   1.1037
B( 31-C , 33-C ) :   1.1724 B( 33-C , 34-C ) :   1.4248 B( 33-C , 38-S ) :   1.1494
B( 34-C , 35-C ) :   1.3360 B( 34-C , 74-H ) :   0.9875 B( 35-C , 36-C ) :   1.1108
B( 35-C , 37-C ) :   1.4026 B( 36-C , 75-H ) :   0.9418 B( 36-C , 76-H ) :   0.9339
B( 36-C , 77-H ) :   0.9487 B( 37-C , 38-S ) :   1.0769 B( 37-C , 39-C ) :   1.1787
B( 39-C , 40-C ) :   1.6086 B( 39-C , 78-H ) :   0.9368 B( 40-C , 41-C ) :   0.9482
B( 40-C , 54-C ) :   1.0535 B( 41-C , 42-O ) :   2.2644 B( 41-C , 43-C ) :   0.9189
B( 43-C , 44-C ) :   1.4776 B( 43-C , 53-C ) :   1.2186 B( 44-C , 45-C ) :   1.1914
B( 44-C , 79-H ) :   1.0138 B( 45-C , 46-C ) :   1.2570 B( 45-C , 50-C ) :   1.2364
B( 46-C , 47-C ) :   1.2046 B( 46-C , 52-C ) :   1.2023 B( 47-C , 48-C ) :   1.4419
B( 47-C , 80-H ) :   1.0053 B( 48-C , 49-C ) :   1.2565 B( 48-C , 51-F ) :   1.0883
B( 49-C , 50-C ) :   1.4607 B( 49-C , 81-H ) :   0.9925 B( 50-C , 82-H ) :   0.9959
B( 52-C , 53-C ) :   1.4662 B( 52-C , 83-H ) :   0.9939 B( 53-C , 54-C ) :   1.0005
B( 54-C , 55-C ) :   1.6379 B( 55-C , 56-C ) :   1.1604 B( 55-C , 58-C ) :   1.1377
B( 56-C , 57-N ) :   3.0195 B( 58-C , 59-N ) :   2.9824

-----------------------------------------------------------------------------
         ABSORPTION SPECTRUM VIA TRANSITION ELECTRIC DIPOLE MOMENTS
-----------------------------------------------------------------------------
State   Energy  Wavelength   fosc         T2         TX        TY        TZ
        (cm-1)    (nm)                  (au**2)     (au)      (au)      (au)
-----------------------------------------------------------------------------
   0   16033.7    623.7   1.670189789  34.29323   4.79181  -3.22303  -0.97155
   1   20109.3    497.3   0.056785547   0.92964  -0.26514   0.92678   0.02059
   2   25728.8    388.7   0.018963765   0.24265  -0.28532   0.21322   0.34026
   3   26438.1    378.2   0.249012112   3.10074  -0.74707   1.59326  -0.06449
   4   27122.4    368.7   0.173026165   2.10019   0.48811  -1.25586  -0.53362
   5   27261.6    366.8   0.074208637   0.89615  -0.45502   0.80091   0.21830
   6   27827.4    359.4   0.003895000   0.04608  -0.04238  -0.21011   0.01169
   7   28251.3    354.0   0.228455242   2.66218  -0.14701   1.59706   0.29995
   8   29068.3    344.0   0.017263213   0.19551   0.18604   0.27726  -0.28988
   9   29834.2    335.2   0.105642993   1.16574  -0.23392   0.87786   0.58342
  10   30119.4    332.0   0.059806103   0.65370  -0.34149  -0.60359   0.41564
  11   30301.7    330.0   0.158614049   1.72326  -0.93467   0.72058   0.57482
  12   31430.5    318.2   0.154143420   1.61454   0.92225   0.38876  -0.78285
  13   32012.9    312.4   0.046737938   0.48064   0.53145  -0.41862   0.15152
  14   32150.6    311.0   0.036354078   0.37225   0.31866  -0.43318  -0.28821
  15   33465.6    298.8   0.145737453   1.43367   0.06078  -1.19215  -0.09355
  16   33536.4    298.2   0.367368189   3.60630  -0.83627   1.23355   1.17699
  17   34133.7    293.0   0.062037458   0.59834  -0.33565  -0.09581   0.69029
  18   34429.1    290.5   0.047986543   0.45885   0.08339   0.65811  -0.13705
  19   34603.4    289.0   0.540169692   5.13910  -1.22625   1.11999   1.54306
  20   35136.8    284.6   0.222442366   2.08416   0.78482  -0.65571  -1.01895
  21   35944.3    278.2   0.030150505   0.27615  -0.18969  -0.23336   0.43094
  22   36232.1    276.0   0.080681996   0.73309  -0.50930   0.22139   0.65168
  23   36789.8    271.8   0.042844025   0.38339   0.28475  -0.24152  -0.49394
  24   37695.0    265.3   0.141268909   1.23378  -0.57436   0.77820   0.54616
  25   38040.0    262.9   0.243087860   2.10377  -0.29411   1.32401   0.51408
  26   38179.0    261.9   0.020340875   0.17540  -0.22680   0.30275   0.17972
  27   38434.3    260.2   0.089856031   0.76967  -0.25879  -0.69312   0.47146
  28   38589.3    259.1   0.041183472   0.35134  -0.06209  -0.56244  -0.17648
  29   38708.7    258.3   0.030655595   0.26072   0.29019  -0.41881  -0.03336
  30   39038.7    256.2   0.044628534   0.37635  -0.07148  -0.60918   0.01189
  31   39490.0    253.2   0.174475356   1.45453   0.68467   0.87799  -0.46357
  32   39694.6    251.9   0.096753521   0.80244   0.42703   0.78712  -0.02273

FINAL SINGLE POINT ENERGY     -3641.882572440513

DIPOLE MOMENT
-------------
                                X             Y             Z
Electronic contribution:     -3.51531      14.50938      -6.30226
Nuclear contribution   :      3.51540     -14.51347       6.23195
                        -----------------------------------------
Total Dipole Moment    :      0.00009      -0.00408      -0.07031
                        -----------------------------------------
Magnitude (a.u.)       :      0.07043
Magnitude (Debye)      :      0.17902

Rotational constants in cm-1:     0.003858     0.000302     0.000289
Rotational constants in MHz :   115.665325     9.045026     8.674261

                             ****ORCA TERMINATED NORMALLY****
TOTAL RUN TIME: 0 days 0 hours 6 minutes 46 seconds 210 msec
