                         Program Version 4.2.0 -  RELEASE  -
|  1> # ORCA input file
|  2> # SCF done       -209.973066203976          0.000392611755
|  3> ! CAM-B3LYP def2-SVP def2/J RIJCOSX Grid4 TightSCF
|  4> %maxcore 5000
|  5> %tddft
|  6>     Mode sTDDFT
|  7>     Ethresh 5.0
|  8>     maxcore 5000
|  9> end
| 10>
| 11> %pal
| 12>   nprocs 6
| 13>   end
| 14> * xyz 0 1
| 15>    C       -2.25937         2.90508         3.46619
| 16>    C       -1.62611         3.65934         2.48977
| 17>    C       -1.72632         3.32454         1.14617
| 18>    C       -2.47433         2.23080         0.73761
| 19>    C       -3.11676         1.47412         1.70378
| 20>    C       -3.00379         1.80304         3.07419
| 21>    C       -3.74609         0.82530         3.85732
| 22>    C       -3.99477         0.89010         5.20025
| 23>    C       -3.55532         1.94209         6.03427
| 24>    N       -3.23182         2.76332         6.76705
| 25>    C       -4.75313        -0.04414         5.93886
| 26>    N       -5.35788        -0.76330         6.59817
| 27>    C       -4.16859        -0.22297         2.92747
| 28>    C       -3.98044         0.31163         1.57881
| 29>    C       -4.68983        -0.02593         0.45961
| 30>    C       -5.71266        -0.99622         0.42339
| 31>    N       -6.57667        -1.74758         0.34210
| 32>    C       -4.55129         0.62740        -0.78513
| 33>    N       -4.48707         1.12038        -1.81853
| 34>    C       -4.54761        -1.47642         3.30745
| 35>    C       -4.60803        -2.63904         2.50033
| 36>    C       -3.92065        -2.92360         1.32731
| 37>    C       -4.23329        -4.18156         0.83242
| 38>    C       -5.15889        -4.87174         1.64417
| 39>    S       -5.61994        -3.97831         3.01622
| 40>    C       -5.43291        -6.11827         1.03722
| 41>    C       -4.68644        -6.22232        -0.15891
| 42>    C       -3.91500        -4.99960        -0.32658
| 43>    C       -3.09786        -4.65562        -1.36181
| 44>    C       -2.84806        -5.51014        -2.45764
| 45>    N       -2.62966        -6.19606        -3.34887
| 46>    C       -2.45168        -3.40071        -1.39085
| 47>    N       -1.94033        -2.37443        -1.39292
| 48>    C       -4.90896        -7.41690        -0.82637
| 49>    C       -5.81686        -8.23535        -0.15602
| 50>    S       -6.39417        -7.48734         1.32569
| 51>    C       -6.22372        -9.50426        -0.63562
| 52>    N       -5.71932        -9.93535        -1.78827
| 53>    C       -6.27993       -11.13470        -2.01609
| 54>    C       -7.20847       -11.50489        -0.93964
| 55>    C       -7.81483       -12.81907        -1.20840
| 56>    O       -8.62121       -13.42827        -0.53676
| 57>    C       -7.19933       -13.20145        -2.48976
| 58>    C       -6.26848       -12.14711        -2.94793
| 59>    N       -5.69754       -12.49222        -4.12510
| 60>    C       -6.20302       -13.66586        -4.42100
| 61>    C       -7.14705       -14.16782        -3.44247
| 62>    C       -7.18178       -10.46977        -0.03659
| 63>    C       -7.87497       -10.30635         1.18966
| 64>    C       -8.77534       -11.19121         1.68645
| 65>    C       -9.45020       -10.98383         2.91672
| 66>    C       -9.31003        -9.92684         3.80744
| 67>    C      -10.14182       -10.05849         4.91120
| 68>    C      -10.93334       -11.22488         4.87029
| 69>    S      -10.63820       -12.15192         3.46833
| 70>    C      -11.74589       -11.25385         6.03036
| 71>    C      -11.45687       -10.10905         6.80603
| 72>    C      -10.45196        -9.31655         6.12131
| 73>    C       -9.94408        -8.11124         6.51127
| 74>    C      -10.36801        -7.49304         7.70673
| 75>    N      -10.72833        -7.01448         8.68444
| 76>    C       -8.98000        -7.42363         5.74509
| 77>    N       -8.19186        -6.87744         5.11565
| 78>    C      -12.22110       -10.02863         7.96006
| 79>    C      -13.10969       -11.08958         8.07670
| 80>    S      -12.94718       -12.22538         6.73966
| 81>    C      -14.03200       -11.38177         9.10518
| 82>    C      -14.53988       -10.52755        10.04302
| 83>    C      -15.14224       -10.96434        11.30116
| 84>    C      -15.65254       -12.20000        11.59227
| 85>    C      -15.72665       -13.28665        10.69473
| 86>    N      -15.82374       -14.20759        10.01585
| 87>    C      -16.22874       -12.54211        12.83507
| 88>    N      -16.71018       -12.88608        13.81820
| 89>    C      -15.10983        -9.81828        12.19975
| 90>    C      -14.68863        -8.68103        11.47394
| 91>    C      -14.53892        -7.45511        12.10039
| 92>    C      -14.81985        -7.36884        13.45572
| 93>    C      -15.24745        -8.48058        14.16832
| 94>    C      -15.39634        -9.71418        13.55196
| 95>    C      -14.49230        -9.06824        10.08586
| 96>    C      -14.54223        -8.21509         9.01741
| 97>    C      -14.64249        -6.81162         9.13668
| 98>    N      -14.73168        -5.66859         9.16848
| 99>    C      -14.59781        -8.62759         7.67051
|100>    N      -14.67691        -8.90980         6.56052
|101>    H       -2.16175         3.17505         4.50472
|102>    H       -1.04110         4.51720         2.78373
|103>    H       -1.21414         3.92105         0.40715
|104>    H       -2.53601         1.97155        -0.30677
|105>    H       -4.78382        -1.63666         4.35097
|106>    H       -3.20434        -2.25342         0.88782
|107>    H       -4.46444        -7.72826        -1.75426
|108>    H       -5.90960       -14.17072        -5.32490
|109>    H       -7.66730       -15.10333        -3.49986
|110>    H       -7.66326        -9.41277         1.75480
|111>    H       -9.00638       -12.09427         1.13665
|112>    H       -8.63387        -9.10637         3.65566
|113>    H      -12.11542        -9.26335         8.70737
|114>    H      -14.31015       -12.42477         9.17843
|115>    H      -14.19534        -6.58925        11.55806
|116>    H      -14.70059        -6.42317        13.96163
|117>    H      -15.46243        -8.38884        15.22192
|118>    H      -15.71985       -10.56813        14.12395
|119> *
|120>
|121>                          ****END OF INPUT****

CARTESIAN COORDINATES (ANGSTROEM)
---------------------------------
  C     -2.259370    2.905080    3.466190
  C     -1.626110    3.659340    2.489770
  C     -1.726320    3.324540    1.146170
  C     -2.474330    2.230800    0.737610
  C     -3.116760    1.474120    1.703780
  C     -3.003790    1.803040    3.074190
  C     -3.746090    0.825300    3.857320
  C     -3.994770    0.890100    5.200250
  C     -3.555320    1.942090    6.034270
  N     -3.231820    2.763320    6.767050
  C     -4.753130   -0.044140    5.938860
  N     -5.357880   -0.763300    6.598170
  C     -4.168590   -0.222970    2.927470
  C     -3.980440    0.311630    1.578810
  C     -4.689830   -0.025930    0.459610
  C     -5.712660   -0.996220    0.423390
  N     -6.576670   -1.747580    0.342100
  C     -4.551290    0.627400   -0.785130
  N     -4.487070    1.120380   -1.818530
  C     -4.547610   -1.476420    3.307450
  C     -4.608030   -2.639040    2.500330
  C     -3.920650   -2.923600    1.327310
  C     -4.233290   -4.181560    0.832420
  C     -5.158890   -4.871740    1.644170
  S     -5.619940   -3.978310    3.016220
  C     -5.432910   -6.118270    1.037220
  C     -4.686440   -6.222320   -0.158910
  C     -3.915000   -4.999600   -0.326580
  C     -3.097860   -4.655620   -1.361810
  C     -2.848060   -5.510140   -2.457640
  N     -2.629660   -6.196060   -3.348870
  C     -2.451680   -3.400710   -1.390850
  N     -1.940330   -2.374430   -1.392920
  C     -4.908960   -7.416900   -0.826370
  C     -5.816860   -8.235350   -0.156020
  S     -6.394170   -7.487340    1.325690
  C     -6.223720   -9.504260   -0.635620
  N     -5.719320   -9.935350   -1.788270
  C     -6.279930  -11.134700   -2.016090
  C     -7.208470  -11.504890   -0.939640
  C     -7.814830  -12.819070   -1.208400
  O     -8.621210  -13.428270   -0.536760
  C     -7.199330  -13.201450   -2.489760
  C     -6.268480  -12.147110   -2.947930
  N     -5.697540  -12.492220   -4.125100
  C     -6.203020  -13.665860   -4.421000
  C     -7.147050  -14.167820   -3.442470
  C     -7.181780  -10.469770   -0.036590
  C     -7.874970  -10.306350    1.189660
  C     -8.775340  -11.191210    1.686450
  C     -9.450200  -10.983830    2.916720
  C     -9.310030   -9.926840    3.807440
  C    -10.141820  -10.058490    4.911200
  C    -10.933340  -11.224880    4.870290
  S    -10.638200  -12.151920    3.468330
  C    -11.745890  -11.253850    6.030360
  C    -11.456870  -10.109050    6.806030
  C    -10.451960   -9.316550    6.121310
  C     -9.944080   -8.111240    6.511270
  C    -10.368010   -7.493040    7.706730
  N    -10.728330   -7.014480    8.684440
  C     -8.980000   -7.423630    5.745090
  N     -8.191860   -6.877440    5.115650
  C    -12.221100  -10.028630    7.960060
  C    -13.109690  -11.089580    8.076700
  S    -12.947180  -12.225380    6.739660
  C    -14.032000  -11.381770    9.105180
  C    -14.539880  -10.527550   10.043020
  C    -15.142240  -10.964340   11.301160
  C    -15.652540  -12.200000   11.592270
  C    -15.726650  -13.286650   10.694730
  N    -15.823740  -14.207590   10.015850
  C    -16.228740  -12.542110   12.835070
  N    -16.710180  -12.886080   13.818200
  C    -15.109830   -9.818280   12.199750
  C    -14.688630   -8.681030   11.473940
  C    -14.538920   -7.455110   12.100390
  C    -14.819850   -7.368840   13.455720
  C    -15.247450   -8.480580   14.168320
  C    -15.396340   -9.714180   13.551960
  C    -14.492300   -9.068240   10.085860
  C    -14.542230   -8.215090    9.017410
  C    -14.642490   -6.811620    9.136680
  N    -14.731680   -5.668590    9.168480
  C    -14.597810   -8.627590    7.670510
  N    -14.676910   -8.909800    6.560520
  H     -2.161750    3.175050    4.504720
  H     -1.041100    4.517200    2.783730
  H     -1.214140    3.921050    0.407150
  H     -2.536010    1.971550   -0.306770
  H     -4.783820   -1.636660    4.350970
  H     -3.204340   -2.253420    0.887820
  H     -4.464440   -7.728260   -1.754260
  H     -5.909600  -14.170720   -5.324900
  H     -7.667300  -15.103330   -3.499860
  H     -7.663260   -9.412770    1.754800
  H     -9.006380  -12.094270    1.136650
  H     -8.633870   -9.106370    3.655660
  H    -12.115420   -9.263350    8.707370
  H    -14.310150  -12.424770    9.178430
  H    -14.195340   -6.589250   11.558060
  H    -14.700590   -6.423170   13.961630
  H    -15.462430   -8.388840   15.221920
  H    -15.719850  -10.568130   14.123950

 Total Charge           Charge          ....    0
 Multiplicity           Mult            ....    1
 Number of Electrons    NEL             ....  590
 Basis Dimension        Dim             .... 1310

ORBITAL ENERGIES
----------------

  NO   OCC          E(Eh)            E(eV)
   0   2.0000     -89.015941     -2422.2469
   1   2.0000     -89.011219     -2422.1184
   2   2.0000     -89.007934     -2422.0290
   3   2.0000     -89.004624     -2421.9389
   4   2.0000     -19.222421      -523.0687
   5   2.0000     -14.447713      -393.1423
   6   2.0000     -14.446273      -393.1031
   7   2.0000     -14.444535      -393.0558
   8   2.0000     -14.440895      -392.9567
   9   2.0000     -14.433425      -392.7535
  10   2.0000     -14.433357      -392.7516
  11   2.0000     -14.429647      -392.6507
  12   2.0000     -14.429485      -392.6462
  13   2.0000     -14.429138      -392.6368
  14   2.0000     -14.428793      -392.6274
  15   2.0000     -14.424728      -392.5168
  16   2.0000     -14.424277      -392.5045
  17   2.0000     -14.419947      -392.3867
  18   2.0000     -14.410620      -392.1329
  19   2.0000     -10.381996      -282.5085
  20   2.0000     -10.381800      -282.5031
  21   2.0000     -10.379817      -282.4492
  22   2.0000     -10.368479      -282.1407
  23   2.0000     -10.367596      -282.1166
  24   2.0000     -10.363721      -282.0112
  25   2.0000     -10.363284      -281.9993
  26   2.0000     -10.362025      -281.9650
  27   2.0000     -10.359888      -281.9069
  28   2.0000     -10.359456      -281.8951
  29   2.0000     -10.358742      -281.8757
  30   2.0000     -10.358551      -281.8705
  31   2.0000     -10.356776      -281.8222
  32   2.0000     -10.356569      -281.8166
  33   2.0000     -10.356433      -281.8129
  34   2.0000     -10.355421      -281.7853
  35   2.0000     -10.354738      -281.7668
  36   2.0000     -10.348634      -281.6007
  37   2.0000     -10.346693      -281.5478
  38   2.0000     -10.346689      -281.5477
  39   2.0000     -10.346193      -281.5342
  40   2.0000     -10.344701      -281.4936
  41   2.0000     -10.344248      -281.4813
  42   2.0000     -10.342564      -281.4355
  43   2.0000     -10.340933      -281.3911
  44   2.0000     -10.340439      -281.3777
  45   2.0000     -10.339955      -281.3645
  46   2.0000     -10.339741      -281.3587
  47   2.0000     -10.339128      -281.3420
  48   2.0000     -10.335934      -281.2551
  49   2.0000     -10.334936      -281.2279
  50   2.0000     -10.334630      -281.2196
  51   2.0000     -10.331438      -281.1327
  52   2.0000     -10.331298      -281.1289
  53   2.0000     -10.330708      -281.1129
  54   2.0000     -10.330306      -281.1019
  55   2.0000     -10.329665      -281.0845
  56   2.0000     -10.329482      -281.0795
  57   2.0000     -10.328841      -281.0620
  58   2.0000     -10.327217      -281.0179
  59   2.0000     -10.327005      -281.0121
  60   2.0000     -10.326295      -280.9928
  61   2.0000     -10.326089      -280.9872
  62   2.0000     -10.326083      -280.9870
  63   2.0000     -10.324690      -280.9491
  64   2.0000     -10.323929      -280.9284
  65   2.0000     -10.322748      -280.8963
  66   2.0000     -10.322254      -280.8828
  67   2.0000     -10.322075      -280.8779
  68   2.0000     -10.321040      -280.8498
  69   2.0000     -10.319912      -280.8191
  70   2.0000     -10.318363      -280.7769
  71   2.0000     -10.317945      -280.7656
  72   2.0000     -10.316069      -280.7145
  73   2.0000     -10.309606      -280.5387
  74   2.0000     -10.309565      -280.5375
  75   2.0000     -10.309148      -280.5262
  76   2.0000     -10.307968      -280.4941
  77   2.0000     -10.307378      -280.4780
  78   2.0000     -10.307139      -280.4715
  79   2.0000     -10.305707      -280.4326
  80   2.0000     -10.305332      -280.4223
  81   2.0000     -10.304239      -280.3926
  82   2.0000     -10.303623      -280.3758
  83   2.0000     -10.301266      -280.3117
  84   2.0000     -10.295740      -280.1613
  85   2.0000     -10.294543      -280.1288
  86   2.0000      -8.109520      -220.6713
  87   2.0000      -8.105726      -220.5680
  88   2.0000      -8.102485      -220.4798
  89   2.0000      -8.099157      -220.3893
  90   2.0000      -6.078734      -165.4108
  91   2.0000      -6.074855      -165.3052
  92   2.0000      -6.074512      -165.2959
  93   2.0000      -6.072114      -165.2306
  94   2.0000      -6.071620      -165.2172
  95   2.0000      -6.070639      -165.1905
  96   2.0000      -6.068279      -165.1263
  97   2.0000      -6.068267      -165.1259
  98   2.0000      -6.067448      -165.1037
  99   2.0000      -6.065028      -165.0378
 100   2.0000      -6.064093      -165.0124
 101   2.0000      -6.061756      -164.9488
 102   2.0000      -1.136493       -30.9255
 103   2.0000      -1.089490       -29.6465
 104   2.0000      -1.068117       -29.0650
 105   2.0000      -1.064510       -28.9668
 106   2.0000      -1.061971       -28.8977
 107   2.0000      -1.047795       -28.5119
 108   2.0000      -1.043367       -28.3915
 109   2.0000      -1.037388       -28.2288
 110   2.0000      -1.036473       -28.2039
 111   2.0000      -1.028987       -28.0002
 112   2.0000      -1.024860       -27.8879
 113   2.0000      -1.023527       -27.8516
 114   2.0000      -1.021099       -27.7855
 115   2.0000      -1.018773       -27.7222
 116   2.0000      -1.017923       -27.6991
 117   2.0000      -1.015105       -27.6224
 118   2.0000      -1.013936       -27.5906
 119   2.0000      -1.009274       -27.4638
 120   2.0000      -1.008048       -27.4304
 121   2.0000      -1.005181       -27.3524
 122   2.0000      -1.003903       -27.3176
 123   2.0000      -0.979710       -26.6593
 124   2.0000      -0.977753       -26.6060
 125   2.0000      -0.967749       -26.3338
 126   2.0000      -0.964022       -26.2324
 127   2.0000      -0.951583       -25.8939
 128   2.0000      -0.947282       -25.7769
 129   2.0000      -0.946935       -25.7674
 130   2.0000      -0.942096       -25.6357
 131   2.0000      -0.933841       -25.4111
 132   2.0000      -0.924993       -25.1703
 133   2.0000      -0.908107       -24.7108
 134   2.0000      -0.903668       -24.5901
 135   2.0000      -0.900582       -24.5061
 136   2.0000      -0.896669       -24.3996
 137   2.0000      -0.889474       -24.2038
 138   2.0000      -0.885447       -24.0942
 139   2.0000      -0.877615       -23.8811
 140   2.0000      -0.875165       -23.8144
 141   2.0000      -0.872836       -23.7511
 142   2.0000      -0.871198       -23.7065
 143   2.0000      -0.867383       -23.6027
 144   2.0000      -0.860736       -23.4218
 145   2.0000      -0.841571       -22.9003
 146   2.0000      -0.823963       -22.4212
 147   2.0000      -0.817087       -22.2341
 148   2.0000      -0.802274       -21.8310
 149   2.0000      -0.799799       -21.7636
 150   2.0000      -0.797371       -21.6976
 151   2.0000      -0.795129       -21.6366
 152   2.0000      -0.787528       -21.4297
 153   2.0000      -0.771103       -20.9828
 154   2.0000      -0.764287       -20.7973
 155   2.0000      -0.743682       -20.2366
 156   2.0000      -0.737702       -20.0739
 157   2.0000      -0.728357       -19.8196
 158   2.0000      -0.728066       -19.8117
 159   2.0000      -0.724339       -19.7103
 160   2.0000      -0.723748       -19.6942
 161   2.0000      -0.721439       -19.6314
 162   2.0000      -0.720111       -19.5952
 163   2.0000      -0.708070       -19.2676
 164   2.0000      -0.707160       -19.2428
 165   2.0000      -0.700632       -19.0652
 166   2.0000      -0.697106       -18.9692
 167   2.0000      -0.684776       -18.6337
 168   2.0000      -0.678937       -18.4748
 169   2.0000      -0.676766       -18.4157
 170   2.0000      -0.673190       -18.3184
 171   2.0000      -0.671825       -18.2813
 172   2.0000      -0.666374       -18.1329
 173   2.0000      -0.660495       -17.9730
 174   2.0000      -0.655769       -17.8444
 175   2.0000      -0.650242       -17.6940
 176   2.0000      -0.649400       -17.6711
 177   2.0000      -0.644615       -17.5409
 178   2.0000      -0.638312       -17.3694
 179   2.0000      -0.635371       -17.2893
 180   2.0000      -0.632439       -17.2095
 181   2.0000      -0.629904       -17.1406
 182   2.0000      -0.623443       -16.9647
 183   2.0000      -0.614474       -16.7207
 184   2.0000      -0.602031       -16.3821
 185   2.0000      -0.598917       -16.2974
 186   2.0000      -0.596641       -16.2354
 187   2.0000      -0.593103       -16.1391
 188   2.0000      -0.591779       -16.1031
 189   2.0000      -0.587469       -15.9858
 190   2.0000      -0.581429       -15.8215
 191   2.0000      -0.572014       -15.5653
 192   2.0000      -0.568730       -15.4759
 193   2.0000      -0.565657       -15.3923
 194   2.0000      -0.563766       -15.3409
 195   2.0000      -0.559004       -15.2113
 196   2.0000      -0.555858       -15.1257
 197   2.0000      -0.554340       -15.0844
 198   2.0000      -0.553670       -15.0661
 199   2.0000      -0.552506       -15.0344
 200   2.0000      -0.547670       -14.9029
 201   2.0000      -0.545872       -14.8539
 202   2.0000      -0.543047       -14.7771
 203   2.0000      -0.542030       -14.7494
 204   2.0000      -0.538215       -14.6456
 205   2.0000      -0.535223       -14.5642
 206   2.0000      -0.530614       -14.4387
 207   2.0000      -0.525215       -14.2918
 208   2.0000      -0.523216       -14.2374
 209   2.0000      -0.521726       -14.1969
 210   2.0000      -0.521475       -14.1901
 211   2.0000      -0.520771       -14.1709
 212   2.0000      -0.518561       -14.1108
 213   2.0000      -0.517849       -14.0914
 214   2.0000      -0.515782       -14.0351
 215   2.0000      -0.514733       -14.0066
 216   2.0000      -0.511253       -13.9119
 217   2.0000      -0.509742       -13.8708
 218   2.0000      -0.507987       -13.8230
 219   2.0000      -0.504443       -13.7266
 220   2.0000      -0.502305       -13.6684
 221   2.0000      -0.495778       -13.4908
 222   2.0000      -0.495728       -13.4894
 223   2.0000      -0.491937       -13.3863
 224   2.0000      -0.488431       -13.2909
 225   2.0000      -0.487253       -13.2588
 226   2.0000      -0.483044       -13.1443
 227   2.0000      -0.482125       -13.1193
 228   2.0000      -0.480522       -13.0757
 229   2.0000      -0.476427       -12.9642
 230   2.0000      -0.474681       -12.9167
 231   2.0000      -0.473410       -12.8821
 232   2.0000      -0.473252       -12.8778
 233   2.0000      -0.471254       -12.8235
 234   2.0000      -0.470532       -12.8038
 235   2.0000      -0.469047       -12.7634
 236   2.0000      -0.467743       -12.7279
 237   2.0000      -0.464806       -12.6480
 238   2.0000      -0.464580       -12.6419
 239   2.0000      -0.464089       -12.6285
 240   2.0000      -0.463745       -12.6191
 241   2.0000      -0.462928       -12.5969
 242   2.0000      -0.461082       -12.5467
 243   2.0000      -0.459758       -12.5106
 244   2.0000      -0.457408       -12.4467
 245   2.0000      -0.456547       -12.4233
 246   2.0000      -0.456473       -12.4213
 247   2.0000      -0.455883       -12.4052
 248   2.0000      -0.455639       -12.3986
 249   2.0000      -0.455224       -12.3873
 250   2.0000      -0.452880       -12.3235
 251   2.0000      -0.452831       -12.3222
 252   2.0000      -0.452189       -12.3047
 253   2.0000      -0.452049       -12.3009
 254   2.0000      -0.451629       -12.2894
 255   2.0000      -0.448029       -12.1915
 256   2.0000      -0.443588       -12.0707
 257   2.0000      -0.442085       -12.0297
 258   2.0000      -0.441593       -12.0164
 259   2.0000      -0.441453       -12.0125
 260   2.0000      -0.440751       -11.9934
 261   2.0000      -0.439020       -11.9463
 262   2.0000      -0.438582       -11.9344
 263   2.0000      -0.437706       -11.9106
 264   2.0000      -0.436830       -11.8867
 265   2.0000      -0.434788       -11.8312
 266   2.0000      -0.427342       -11.6286
 267   2.0000      -0.425964       -11.5911
 268   2.0000      -0.424350       -11.5471
 269   2.0000      -0.421213       -11.4618
 270   2.0000      -0.421152       -11.4601
 271   2.0000      -0.417753       -11.3676
 272   2.0000      -0.417315       -11.3557
 273   2.0000      -0.401711       -10.9311
 274   2.0000      -0.395182       -10.7535
 275   2.0000      -0.393333       -10.7031
 276   2.0000      -0.390591       -10.6285
 277   2.0000      -0.374501       -10.1907
 278   2.0000      -0.372118       -10.1259
 279   2.0000      -0.367966       -10.0129
 280   2.0000      -0.364196        -9.9103
 281   2.0000      -0.361851        -9.8465
 282   2.0000      -0.359738        -9.7890
 283   2.0000      -0.343844        -9.3565
 284   2.0000      -0.342173        -9.3110
 285   2.0000      -0.340091        -9.2543
 286   2.0000      -0.339553        -9.2397
 287   2.0000      -0.339538        -9.2393
 288   2.0000      -0.337599        -9.1865
 289   2.0000      -0.335882        -9.1398
 290   2.0000      -0.327098        -8.9008
 291   2.0000      -0.316792        -8.6203
 292   2.0000      -0.306124        -8.3301
 293   2.0000      -0.279960        -7.6181
 294   2.0000      -0.265191        -7.2162
 295   0.0000      -0.137400        -3.7389
 296   0.0000      -0.126217        -3.4345
 297   0.0000      -0.112302        -3.0559
 298   0.0000      -0.103637        -2.8201
 299   0.0000      -0.101260        -2.7554

MULLIKEN ATOMIC CHARGES
-----------------------
   0 C :   -0.033036
   1 C :    0.047934
   2 C :    0.048938
   3 C :   -0.025562
   4 C :    0.001379
   5 C :    0.017826
   6 C :    0.287828
   7 C :   -0.339190
   8 C :   -0.187336
   9 N :    0.165102
  10 C :   -0.177871
  11 N :    0.162202
  12 C :   -0.063106
  13 C :    0.223931
  14 C :   -0.337991
  15 C :   -0.187970
  16 N :    0.185049
  17 C :   -0.182418
  18 N :    0.179949
  19 C :    0.080739
  20 C :   -0.141940
  21 C :   -0.011111
  22 C :    0.004737
  23 C :   -0.058245
  24 S :    0.265693
  25 C :   -0.066485
  26 C :    0.050468
  27 C :    0.303111
  28 C :   -0.282833
  29 C :   -0.192344
  30 N :    0.198747
  31 C :   -0.184020
  32 N :    0.171711
  33 C :   -0.036031
  34 C :   -0.107939
  35 S :    0.173104
  36 C :    0.049393
  37 N :   -0.041837
  38 C :    0.085885
  39 C :   -0.183054
  40 C :    0.221003
  41 O :   -0.147856
  42 C :   -0.010571
  43 C :   -0.040807
  44 N :   -0.047710
  45 C :    0.092720
  46 C :   -0.096121
  47 C :    0.072494
  48 C :   -0.067333
  49 C :    0.068485
  50 C :   -0.080963
  51 C :   -0.041415
  52 C :    0.020367
  53 C :   -0.106982
  54 S :    0.232179
  55 C :   -0.067635
  56 C :   -0.010158
  57 C :    0.312021
  58 C :   -0.289471
  59 C :   -0.183089
  60 N :    0.173558
  61 C :   -0.165611
  62 N :    0.148331
  63 C :   -0.003575
  64 C :   -0.143483
  65 S :    0.236501
  66 C :    0.092627
  67 C :   -0.073016
  68 C :    0.289299
  69 C :   -0.348992
  70 C :   -0.177667
  71 N :    0.158317
  72 C :   -0.188685
  73 N :    0.165697
  74 C :    0.017940
  75 C :   -0.000533
  76 C :   -0.024822
  77 C :    0.047868
  78 C :    0.046674
  79 C :   -0.033482
  80 C :    0.225225
  81 C :   -0.336016
  82 C :   -0.179342
  83 N :    0.175714
  84 C :   -0.192555
  85 N :    0.179399
  86 H :    0.008355
  87 H :    0.007914
  88 H :    0.009976
  89 H :    0.016499
  90 H :    0.021203
  91 H :    0.031136
  92 H :    0.038538
  93 H :    0.011552
  94 H :   -0.004427
  95 H :   -0.013000
  96 H :    0.001436
  97 H :    0.006117
  98 H :    0.032501
  99 H :    0.013494
 100 H :    0.014686
 101 H :    0.007955
 102 H :    0.006978
 103 H :    0.007156
Sum of atomic charges:   -0.0000000

LOEWDIN ATOMIC CHARGES
----------------------
   0 C :    0.006362
   1 C :    0.005285
   2 C :    0.008918
   3 C :    0.006841
   4 C :   -0.010031
   5 C :   -0.013518
   6 C :    0.077462
   7 C :   -0.127971
   8 C :   -0.019290
   9 N :   -0.039504
  10 C :   -0.022196
  11 N :   -0.038935
  12 C :   -0.044572
  13 C :    0.065515
  14 C :   -0.122772
  15 C :   -0.017818
  16 N :   -0.038910
  17 C :   -0.020617
  18 N :   -0.032252
  19 C :    0.032839
  20 C :   -0.175005
  21 C :    0.000296
  22 C :   -0.054120
  23 C :   -0.165090
  24 S :    0.535699
  25 C :   -0.162471
  26 C :   -0.060838
  27 C :    0.076379
  28 C :   -0.088453
  29 C :   -0.022529
  30 N :   -0.010689
  31 C :   -0.011162
  32 N :   -0.029534
  33 C :    0.030834
  34 C :   -0.185909
  35 S :    0.518830
  36 C :    0.054004
  37 N :   -0.101979
  38 C :    0.044587
  39 C :   -0.042784
  40 C :    0.070249
  41 O :   -0.146105
  42 C :   -0.042819
  43 C :    0.023350
  44 N :   -0.092493
  45 C :    0.075828
  46 C :   -0.033224
  47 C :   -0.031347
  48 C :   -0.040144
  49 C :   -0.003435
  50 C :   -0.156600
  51 C :   -0.024148
  52 C :   -0.054646
  53 C :   -0.188994
  54 S :    0.508211
  55 C :   -0.152188
  56 C :   -0.067559
  57 C :    0.084266
  58 C :   -0.099967
  59 C :   -0.013666
  60 N :   -0.029212
  61 C :   -0.007925
  62 N :   -0.044465
  63 C :    0.007641
  64 C :   -0.182527
  65 S :    0.517004
  66 C :    0.033978
  67 C :   -0.054159
  68 C :    0.079028
  69 C :   -0.133433
  70 C :   -0.021743
  71 N :   -0.044450
  72 C :   -0.019600
  73 N :   -0.043369
  74 C :   -0.013719
  75 C :   -0.010007
  76 C :    0.006019
  77 C :    0.007372
  78 C :    0.003692
  79 C :    0.005726
  80 C :    0.065757
  81 C :   -0.127085
  82 C :   -0.020739
  83 N :   -0.035430
  84 C :   -0.017464
  85 N :   -0.040184
  86 H :    0.042271
  87 H :    0.039263
  88 H :    0.039880
  89 H :    0.044353
  90 H :    0.047454
  91 H :    0.042591
  92 H :    0.054040
  93 H :    0.024753
  94 H :    0.034915
  95 H :    0.006225
  96 H :    0.034548
  97 H :    0.037056
  98 H :    0.042988
  99 H :    0.045883
 100 H :    0.043871
 101 H :    0.039123
 102 H :    0.038703
 103 H :    0.041902

  Mayer bond orders larger than 0.100000
B(  0-C ,  1-C ) :   1.3731 B(  0-C ,  5-C ) :   1.3794 B(  0-C , 86-H ) :   0.9849
B(  1-C ,  2-C ) :   1.3737 B(  1-C , 87-H ) :   0.9863 B(  2-C ,  3-C ) :   1.3677
B(  2-C , 88-H ) :   0.9871 B(  3-C ,  4-C ) :   1.3801 B(  3-C , 89-H ) :   0.9877
B(  4-C ,  5-C ) :   1.3081 B(  4-C , 13-C ) :   1.0108 B(  5-C ,  6-C ) :   1.0034
B(  6-C ,  7-C ) :   1.6508 B(  6-C , 12-C ) :   1.0475 B(  7-C ,  8-C ) :   1.1450
B(  7-C , 10-C ) :   1.1326 B(  8-C ,  9-N ) :   2.9802 B( 10-C , 11-N ) :   2.9726
B( 12-C , 13-C ) :   1.0025 B( 12-C , 19-C ) :   1.6652 B( 13-C , 14-C ) :   1.6734
B( 14-C , 15-C ) :   1.1580 B( 14-C , 17-C ) :   1.1386 B( 15-C , 16-N ) :   3.0067
B( 17-C , 18-N ) :   3.0022 B( 19-C , 20-C ) :   1.1459 B( 19-C , 90-H ) :   0.9130
B( 20-C , 21-C ) :   1.3941 B( 20-C , 24-S ) :   1.1141 B( 21-C , 22-C ) :   1.3531
B( 21-C , 91-H ) :   0.9851 B( 22-C , 23-C ) :   1.3993 B( 22-C , 27-C ) :   0.9993
B( 23-C , 24-S ) :   1.1549 B( 23-C , 25-C ) :   1.1947 B( 25-C , 26-C ) :   1.3878
B( 25-C , 35-S ) :   1.1706 B( 26-C , 27-C ) :   0.9763 B( 26-C , 33-C ) :   1.2765
B( 27-C , 28-C ) :   1.7295 B( 28-C , 29-C ) :   1.1297 B( 28-C , 31-C ) :   1.1381
B( 29-C , 30-N ) :   3.0028 B( 31-C , 32-N ) :   2.9747 B( 33-C , 34-C ) :   1.4044
B( 33-C , 92-H ) :   1.0131 B( 34-C , 35-S ) :   1.0870 B( 34-C , 36-C ) :   1.1374
B( 36-C , 37-N ) :   1.6199 B( 36-C , 38-C ) :   0.1192 B( 36-C , 47-C ) :   1.0208
B( 37-N , 38-C ) :   1.3607 B( 38-C , 39-C ) :   1.0593 B( 38-C , 43-C ) :   1.3924
B( 39-C , 40-C ) :   0.8980 B( 39-C , 47-C ) :   1.5431 B( 40-C , 41-O ) :   2.1723
B( 40-C , 42-C ) :   0.9332 B( 41-O , 96-H ) :   0.1087 B( 42-C , 43-C ) :   1.0717
B( 42-C , 46-C ) :   1.5930 B( 43-C , 44-N ) :   1.3245 B( 44-N , 45-C ) :   1.6445
B( 45-C , 46-C ) :   1.0742 B( 45-C , 93-H ) :   0.9894 B( 46-C , 94-H ) :   1.0110
B( 47-C , 48-C ) :   1.1175 B( 48-C , 49-C ) :   1.6942 B( 48-C , 95-H ) :   0.9503
B( 49-C , 50-C ) :   1.1082 B( 49-C , 96-H ) :   0.9459 B( 50-C , 51-C ) :   1.4294
B( 50-C , 54-S ) :   1.1257 B( 51-C , 52-C ) :   1.3167 B( 51-C , 97-H ) :   0.9855
B( 52-C , 53-C ) :   1.4143 B( 52-C , 57-C ) :   1.0010 B( 53-C , 54-S ) :   1.1239
B( 53-C , 55-C ) :   1.2068 B( 55-C , 56-C ) :   1.3973 B( 55-C , 65-S ) :   1.1643
B( 56-C , 57-C ) :   1.0001 B( 56-C , 63-C ) :   1.3660 B( 57-C , 58-C ) :   1.7116
B( 58-C , 59-C ) :   1.1340 B( 58-C , 61-C ) :   1.1367 B( 59-C , 60-N ) :   2.9791
B( 61-C , 62-N ) :   2.9706 B( 63-C , 64-C ) :   1.3844 B( 63-C , 98-H ) :   0.9807
B( 64-C , 65-S ) :   1.0967 B( 64-C , 66-C ) :   1.1782 B( 66-C , 67-C ) :   1.6337
B( 66-C , 99-H ) :   0.9120 B( 67-C , 68-C ) :   1.0574 B( 67-C , 80-C ) :   1.0100
B( 68-C , 69-C ) :   1.6437 B( 68-C , 74-C ) :   0.9998 B( 69-C , 70-C ) :   1.1337
B( 69-C , 72-C ) :   1.1487 B( 70-C , 71-N ) :   2.9737 B( 72-C , 73-N ) :   2.9817
B( 74-C , 75-C ) :   1.3109 B( 74-C , 79-C ) :   1.3814 B( 75-C , 76-C ) :   1.3848
B( 75-C , 80-C ) :   1.0078 B( 76-C , 77-C ) :   1.3664 B( 76-C ,100-H ) :   0.9867
B( 77-C , 78-C ) :   1.3769 B( 77-C ,101-H ) :   0.9866 B( 78-C , 79-C ) :   1.3719
B( 78-C ,102-H ) :   0.9858 B( 79-C ,103-H ) :   0.9841 B( 80-C , 81-C ) :   1.6631
B( 81-C , 82-C ) :   1.1368 B( 81-C , 84-C ) :   1.1604 B( 82-C , 83-N ) :   3.0019
B( 84-C , 85-N ) :   3.0043

-----------------------------------------------------------------------------
         ABSORPTION SPECTRUM VIA TRANSITION ELECTRIC DIPOLE MOMENTS
-----------------------------------------------------------------------------
State   Energy  Wavelength   fosc         T2         TX        TY        TZ
        (cm-1)    (nm)                  (au**2)     (au)      (au)      (au)
-----------------------------------------------------------------------------
   0   12663.8    789.7   0.297818800   7.74219   1.77015   0.39508  -2.11014
   1   14428.0    693.1   0.390019592   8.89931   0.21265   2.56245   1.51259
   2   14718.3    679.4   0.253919516   5.67954  -0.86688  -2.20869  -0.22301
   3   18442.1    542.2   0.719825990  12.84967   2.51496   0.78109  -2.43198
   4   18842.1    530.7   1.129360961  19.73231  -0.45975   3.57092   2.60182
   5   20569.3    486.2   0.015621457   0.25002   0.31026   0.31601   0.23216
   6   21591.7    463.1   0.042958668   0.65500   0.23798  -0.50981   0.58177
   7   21842.5    457.8   0.000210939   0.00318  -0.04362   0.02558  -0.02494
   8   22699.4    440.5   0.249376149   3.61673   1.08055   1.09481  -1.11827
   9   22778.0    439.0   0.092412659   1.33565  -0.20177   0.16021   1.12662
  10   23805.6    420.1   0.115173869   1.59276  -0.26319  -0.68673  -1.02562
  11   24284.9    411.8   0.010507670   0.14244   0.29463   0.22665  -0.06532
  12   24494.0    408.3   0.116906508   1.57128  -0.31930  -0.80970  -0.90206
  13   24622.4    406.1   0.045583523   0.60947   0.50511   0.47704  -0.35605
  14   25367.5    394.2   0.057845669   0.75070   0.14955  -0.32349  -0.78974
  15   25532.8    391.7   0.000135290   0.00174  -0.02431  -0.00504  -0.03358
  16   25862.1    386.7   0.203995305   2.59676   0.41708  -0.65979  -1.40978
  17   27024.3    370.0   0.119800490   1.45942   0.42152  -0.01189  -1.13208
  18   27576.1    362.6   0.030599591   0.36531   0.14186  -0.36808  -0.45793
  19   27743.0    360.5   0.049282830   0.58481  -0.17017   0.48108   0.56958
  20   27888.0    358.6   0.004351657   0.05137   0.06522   0.02172   0.21597
  21   28672.9    348.8   0.081121178   0.93141   0.36788   0.87843   0.15630
  22   28769.2    347.6   0.213922762   2.44796  -0.92282  -0.15022   1.25451
  23   29136.9    343.2   0.027851124   0.31468  -0.13367  -0.24595  -0.48613
  24   29262.3    341.7   0.172909579   1.94530   0.25321   0.95178   0.98758
  25   29561.8    338.3   0.047197169   0.52561   0.46954   0.19287  -0.51763
  26   30101.2    332.2   0.092552379   1.01223  -0.59357  -0.77241  -0.25156
  27   30147.8    331.7   0.000044909   0.00049   0.00422   0.01863  -0.01121
  28   30324.7    329.8   0.041908965   0.45497  -0.30896  -0.37542   0.46752
  29   30655.9    326.2   0.204094210   2.19176  -0.25166  -1.44036  -0.23194
  30   30985.6    322.7   0.019084853   0.20277   0.12820   0.43150  -0.01189
  31   31123.9    321.3   0.086794874   0.91807  -0.27810  -0.74245  -0.53805
  32   31523.2    317.2   0.252051393   2.63230   1.14910   1.00733  -0.54512
  33   31885.6    313.6   0.123682286   1.27699   0.26364  -0.83407  -0.71541
  34   32063.7    311.9   0.158614516   1.62857   0.38008   0.35033  -1.16678
  35   32085.7    311.7   0.190150286   1.95102  -0.22932   0.13008   1.37168
  36   32350.3    309.1   0.460369737   4.68494  -0.68882  -1.04930  -1.76336
  37   32417.0    308.5   0.214358919   2.17693  -0.14310  -0.40696   1.41097
  38   32582.3    306.9   0.372791236   3.76669   0.24585   1.79723  -0.69008
  39   32880.6    304.1   0.031607485   0.31646   0.00456   0.54323   0.14611
  40   32998.5    303.0   0.207485126   2.06999  -0.07566   1.16459   0.84143
  41   33350.1    299.8   0.218351792   2.15544   0.63307   0.93882  -0.93449
  42   33542.6    298.1   0.214390687   2.10419  -1.04415  -0.49588   0.87638
  43   33676.3    296.9   0.069237225   0.67685   0.33005   0.66080  -0.36230
  44   34163.9    292.7   0.283304307   2.72999   0.67646  -0.12998  -1.50183
  45   34397.7    290.7   0.010540957   0.10088  -0.19946  -0.24716   0.00332
  46   34434.1    290.4   0.059173506   0.56574   0.44149   0.60840  -0.02603
  47   34629.9    288.8   0.176843958   1.68118  -0.82249  -0.97734  -0.22247
  48   34772.3    287.6   0.081924172   0.77563  -0.34842  -0.49812   0.63726
  49   35028.6    285.5   0.167828394   1.57731  -0.89407  -0.86790   0.15718
  50   35155.2    284.5   0.011425294   0.10699  -0.01185  -0.24587   0.21541
  51   35295.4    283.3   0.003054014   0.02849  -0.01795   0.02160   0.16642
  52   35352.3    282.9   0.128032617   1.19228   0.11364  -0.10181  -1.08120
  53   35770.3    279.6   0.009175764   0.08445   0.13626   0.02151  -0.25577
  54   35896.7    278.6   0.022991681   0.21086   0.00566  -0.02080   0.45869
  55   35971.9    278.0   0.018057451   0.16526   0.19657   0.22764  -0.27350
  56   36087.3    277.1   0.364496777   3.32518   0.51846   1.53315   0.84012
  57   36301.2    275.5   0.003293824   0.02987   0.10425  -0.03268  -0.13392
  58   36462.9    274.3   0.029020228   0.26201  -0.18474  -0.08185   0.47030
  59   36500.6    274.0   0.003701707   0.03339   0.11064   0.13888  -0.04311
  60   36631.9    273.0   0.023750104   0.21344  -0.18740  -0.41798   0.06016
  61   36917.4    270.9   0.087730824   0.78234  -0.57431  -0.35651   0.57045
  62   36971.5    270.5   0.033990883   0.30267  -0.11082  -0.40845  -0.35151
  63   37158.9    269.1   0.003732711   0.03307  -0.05389  -0.04236   0.16844
  64   37304.2    268.1   0.000064137   0.00057  -0.01923   0.00091   0.01397
  65   37394.3    267.4   0.013344313   0.11748  -0.12711   0.03395   0.31650
  66   37880.8    264.0   0.030134592   0.26189  -0.14763  -0.38535  -0.30265
  67   37998.2    263.2   0.072077662   0.62447  -0.05033  -0.59448  -0.51820
  68   38109.1    262.4   0.005922452   0.05116   0.06961   0.15342   0.15093
  69   38303.0    261.1   0.012105733   0.10405   0.11123   0.30141   0.02880
  70   38326.6    260.9   0.039414864   0.33856  -0.36294  -0.43178   0.14282
  71   38456.6    260.0   0.003018483   0.02584   0.11742   0.01617  -0.10859
  72   38512.0    259.7   0.001172466   0.01002   0.02144   0.02739   0.09388
  73   38542.9    259.5   0.009347349   0.07984   0.10907  -0.11321  -0.23479
  74   38734.3    258.2   0.013127958   0.11158  -0.10861   0.16037   0.27215
  75   39050.8    256.1   0.105725010   0.89130  -0.24027   0.52575   0.74643
  76   39471.1    253.3   0.028332195   0.23631   0.25324  -0.08594  -0.40594
  77   39489.4    253.2   0.011500128   0.09587  -0.15745   0.15512   0.21684
  78   39749.9    251.6   0.137663771   1.14014   0.54194   0.63257  -0.66806
  79   39874.9    250.8   0.112247479   0.92673   0.32883  -0.43826  -0.79154
  80   40109.4    249.3   0.000850861   0.00698   0.02978  -0.07371   0.02574
  81   40249.0    248.5   0.017708221   0.14484  -0.05902  -0.36631  -0.08472

FINAL SINGLE POINT ENERGY     -4993.249735267355

DIPOLE MOMENT
-------------
                                X             Y             Z
Electronic contribution:     -3.38482     -12.62680      -8.37136
Nuclear contribution   :      5.32362      12.09037       9.06870
                        -----------------------------------------
Total Dipole Moment    :      1.93880      -0.53643       0.69734
                        -----------------------------------------
Magnitude (a.u.)       :      2.12908
Magnitude (Debye)      :      5.41169

Rotational constants in cm-1:     0.000698     0.000298     0.000214
Rotational constants in MHz :    20.911466     8.947331     6.424908

                             ****ORCA TERMINATED NORMALLY****
TOTAL RUN TIME: 0 days 0 hours 15 minutes 1 seconds 195 msec
