                         Program Version 4.2.0 -  RELEASE  -
|  1> # ORCA input file
|  2> # SCF done       -176.593747040651          0.000406171137
|  3> ! CAM-B3LYP def2-SVP def2/J RIJCOSX Grid4 TightSCF
|  4> %maxcore 5000
|  5> %tddft
|  6>     Mode sTDDFT
|  7>     Ethresh 5.0
|  8>     maxcore 5000
|  9> end
| 10>
| 11> %pal
| 12>   nprocs 6
| 13>   end
| 14> * xyz 0 1
| 15>    C        5.23683         3.82198         4.29465
| 16>    C        3.98501         3.32396         3.92330
| 17>    C        4.21812         2.02288         3.39476
| 18>    C        5.62942         1.85959         3.45557
| 19>    N        6.21118         2.94422         4.01493
| 20>    O        6.31230         0.83536         3.00244
| 21>    C        7.71933         0.89864         3.16375
| 22>    C        2.96132         1.54030         2.96601
| 23>    N        1.99986         2.47860         3.18919
| 24>    C        2.58335         3.53259         3.76377
| 25>    O        1.92690         4.61366         4.12500
| 26>    C        0.53263         4.60862         3.85980
| 27>    C        2.68330         0.27192         2.39796
| 28>    C        3.38893        -0.93377         2.62058
| 29>    C        2.74313        -1.91674         1.83221
| 30>    C        1.67947        -1.22842         1.18083
| 31>    N        1.65098         0.05433         1.53295
| 32>    O        0.82372        -1.78409         0.34267
| 33>    C       -0.18323        -0.92510        -0.16792
| 34>    C        3.36996        -3.14501         2.12768
| 35>    N        4.35123        -2.95673         3.06033
| 36>    C        4.36652        -1.65874         3.37154
| 37>    O        5.16477        -1.14907         4.28047
| 38>    C        6.05961        -2.05584         4.90288
| 39>    C        3.07708        -4.42341         1.61700
| 40>    C        3.63455        -5.63012         2.02272
| 41>    C        3.10183        -6.70369         1.32388
| 42>    C        2.14162        -6.30982         0.36255
| 43>    S        1.88262        -4.62269         0.34604
| 44>    C        1.66920        -7.46385        -0.30090
| 45>    C        2.31148        -8.59646         0.25223
| 46>    C        3.23145        -8.15148         1.28664
| 47>    C        4.04179        -8.92857         2.06138
| 48>    C        4.07611       -10.33431         1.94441
| 49>    N        4.11295       -11.47742         1.86273
| 50>    C        4.90350        -8.38314         3.03652
| 51>    N        5.60827        -7.95576         3.83362
| 52>    C        1.90246        -9.78575        -0.33329
| 53>    C        0.96746        -9.57034        -1.33880
| 54>    S        0.58455        -7.87085        -1.55466
| 55>    C        0.35852       -10.54896        -2.14636
| 56>    C       -0.51298       -10.36879        -3.24050
| 57>    C       -0.83552       -11.66253        -3.71687
| 58>    C       -0.09529       -12.55161        -2.87632
| 59>    N        0.59108       -11.88122        -1.94831
| 60>    O       -0.04770       -13.85768        -2.99885
| 61>    C        0.75736       -14.54316        -2.05420
| 62>    C       -1.62959       -11.46799        -4.87132
| 63>    N       -1.78138       -10.13383        -5.11247
| 64>    C       -1.13896        -9.47200        -4.15342
| 65>    O       -1.08640        -8.15513        -4.07193
| 66>    C       -1.75106        -7.44761        -5.10643
| 67>    C       -2.20660       -12.47284        -5.68752
| 68>    C       -2.59339       -13.77164        -5.28770
| 69>    C       -3.08621       -14.41723        -6.45676
| 70>    C       -2.96306       -13.43977        -7.48780
| 71>    N       -2.45508       -12.29947        -7.01517
| 72>    O       -3.30103       -13.61295        -8.74711
| 73>    C       -3.10325       -12.49631        -9.60049
| 74>    C       -3.52186       -15.68059        -6.04792
| 75>    N       -3.35659       -15.84760        -4.72772
| 76>    C       -2.81702       -14.70767        -4.24082
| 77>    O       -2.58677       -14.51332        -2.96413
| 78>    C       -2.89896       -15.59181        -2.09859
| 79>    H        5.48369         4.76836         4.74032
| 80>    H        7.97874         0.95091         4.22262
| 81>    H        8.11902         1.78428         2.66599
| 82>    H        8.11896        -0.00792         2.71400
| 83>    H        0.15947         5.57857         4.18134
| 84>    H        0.04544         3.80457         4.41438
| 85>    H        0.34952         4.45476         2.79509
| 86>    H       -0.81593        -1.54334        -0.80106
| 87>    H        0.26743        -0.11522        -0.74429
| 88>    H       -0.75907        -0.48851         0.64989
| 89>    H        6.61356        -1.47935         5.64058
| 90>    H        6.73651        -2.48903         4.16412
| 91>    H        5.50743        -2.86615         5.38273
| 92>    H        4.38063        -5.67059         2.79462
| 93>    H        2.23853       -10.77528        -0.08437
| 94>    H        0.70865       -15.59692        -2.31993
| 95>    H        0.37796       -14.38203        -1.04343
| 96>    H        1.78663       -14.18201        -2.09863
| 97>    H       -1.57103        -6.39196        -4.91515
| 98>    H       -2.82005        -7.66712        -5.08799
| 99>    H       -1.35488        -7.73994        -6.08037
|100>    H       -3.45841       -12.79927       -10.58310
|101>    H       -2.04503       -12.23139        -9.63721
|102>    H       -3.66308       -11.63450        -9.23342
|103>    H       -3.95131       -16.47141        -6.63560
|104>    H       -2.29706       -16.46706        -2.34939
|105>    H       -3.95333       -15.85951        -2.19062
|106>    H       -2.67647       -15.24801        -1.09055
|107> *
|108>
|109>                          ****END OF INPUT****

CARTESIAN COORDINATES (ANGSTROEM)
---------------------------------
  C      5.236830    3.821980    4.294650
  C      3.985010    3.323960    3.923300
  C      4.218120    2.022880    3.394760
  C      5.629420    1.859590    3.455570
  N      6.211180    2.944220    4.014930
  O      6.312300    0.835360    3.002440
  C      7.719330    0.898640    3.163750
  C      2.961320    1.540300    2.966010
  N      1.999860    2.478600    3.189190
  C      2.583350    3.532590    3.763770
  O      1.926900    4.613660    4.125000
  C      0.532630    4.608620    3.859800
  C      2.683300    0.271920    2.397960
  C      3.388930   -0.933770    2.620580
  C      2.743130   -1.916740    1.832210
  C      1.679470   -1.228420    1.180830
  N      1.650980    0.054330    1.532950
  O      0.823720   -1.784090    0.342670
  C     -0.183230   -0.925100   -0.167920
  C      3.369960   -3.145010    2.127680
  N      4.351230   -2.956730    3.060330
  C      4.366520   -1.658740    3.371540
  O      5.164770   -1.149070    4.280470
  C      6.059610   -2.055840    4.902880
  C      3.077080   -4.423410    1.617000
  C      3.634550   -5.630120    2.022720
  C      3.101830   -6.703690    1.323880
  C      2.141620   -6.309820    0.362550
  S      1.882620   -4.622690    0.346040
  C      1.669200   -7.463850   -0.300900
  C      2.311480   -8.596460    0.252230
  C      3.231450   -8.151480    1.286640
  C      4.041790   -8.928570    2.061380
  C      4.076110  -10.334310    1.944410
  N      4.112950  -11.477420    1.862730
  C      4.903500   -8.383140    3.036520
  N      5.608270   -7.955760    3.833620
  C      1.902460   -9.785750   -0.333290
  C      0.967460   -9.570340   -1.338800
  S      0.584550   -7.870850   -1.554660
  C      0.358520  -10.548960   -2.146360
  C     -0.512980  -10.368790   -3.240500
  C     -0.835520  -11.662530   -3.716870
  C     -0.095290  -12.551610   -2.876320
  N      0.591080  -11.881220   -1.948310
  O     -0.047700  -13.857680   -2.998850
  C      0.757360  -14.543160   -2.054200
  C     -1.629590  -11.467990   -4.871320
  N     -1.781380  -10.133830   -5.112470
  C     -1.138960   -9.472000   -4.153420
  O     -1.086400   -8.155130   -4.071930
  C     -1.751060   -7.447610   -5.106430
  C     -2.206600  -12.472840   -5.687520
  C     -2.593390  -13.771640   -5.287700
  C     -3.086210  -14.417230   -6.456760
  C     -2.963060  -13.439770   -7.487800
  N     -2.455080  -12.299470   -7.015170
  O     -3.301030  -13.612950   -8.747110
  C     -3.103250  -12.496310   -9.600490
  C     -3.521860  -15.680590   -6.047920
  N     -3.356590  -15.847600   -4.727720
  C     -2.817020  -14.707670   -4.240820
  O     -2.586770  -14.513320   -2.964130
  C     -2.898960  -15.591810   -2.098590
  H      5.483690    4.768360    4.740320
  H      7.978740    0.950910    4.222620
  H      8.119020    1.784280    2.665990
  H      8.118960   -0.007920    2.714000
  H      0.159470    5.578570    4.181340
  H      0.045440    3.804570    4.414380
  H      0.349520    4.454760    2.795090
  H     -0.815930   -1.543340   -0.801060
  H      0.267430   -0.115220   -0.744290
  H     -0.759070   -0.488510    0.649890
  H      6.613560   -1.479350    5.640580
  H      6.736510   -2.489030    4.164120
  H      5.507430   -2.866150    5.382730
  H      4.380630   -5.670590    2.794620
  H      2.238530  -10.775280   -0.084370
  H      0.708650  -15.596920   -2.319930
  H      0.377960  -14.382030   -1.043430
  H      1.786630  -14.182010   -2.098630
  H     -1.571030   -6.391960   -4.915150
  H     -2.820050   -7.667120   -5.087990
  H     -1.354880   -7.739940   -6.080370
  H     -3.458410  -12.799270  -10.583100
  H     -2.045030  -12.231390   -9.637210
  H     -3.663080  -11.634500   -9.233420
  H     -3.951310  -16.471410   -6.635600
  H     -2.297060  -16.467060   -2.349390
  H     -3.953330  -15.859510   -2.190620
  H     -2.676470  -15.248010   -1.090550

 Total Charge           Charge          ....    0
 Multiplicity           Mult            ....    1
 Number of Electrons    NEL             ....  458
 Basis Dimension        Dim             .... 1044

ORBITAL ENERGIES
----------------

  NO   OCC          E(Eh)            E(eV)
   0   2.0000     -88.991235     -2421.5746
   1   2.0000     -88.991155     -2421.5724
   2   2.0000     -19.271993      -524.4176
   3   2.0000     -19.271951      -524.4164
   4   2.0000     -19.269705      -524.3553
   5   2.0000     -19.269629      -524.3533
   6   2.0000     -19.268625      -524.3260
   7   2.0000     -19.268527      -524.3233
   8   2.0000     -19.260950      -524.1171
   9   2.0000     -19.260914      -524.1161
  10   2.0000     -14.429325      -392.6419
  11   2.0000     -14.429229      -392.6393
  12   2.0000     -14.385239      -391.4423
  13   2.0000     -14.385233      -391.4421
  14   2.0000     -14.377282      -391.2257
  15   2.0000     -14.377279      -391.2256
  16   2.0000     -14.373881      -391.1332
  17   2.0000     -14.373853      -391.1324
  18   2.0000     -14.372156      -391.0863
  19   2.0000     -14.372104      -391.0848
  20   2.0000     -10.376993      -282.3723
  21   2.0000     -10.376826      -282.3678
  22   2.0000     -10.369104      -282.1577
  23   2.0000     -10.369073      -282.1568
  24   2.0000     -10.367178      -282.1053
  25   2.0000     -10.367099      -282.1031
  26   2.0000     -10.364772      -282.0398
  27   2.0000     -10.364718      -282.0383
  28   2.0000     -10.364695      -282.0377
  29   2.0000     -10.352399      -281.7031
  30   2.0000     -10.337305      -281.2924
  31   2.0000     -10.337079      -281.2862
  32   2.0000     -10.335776      -281.2508
  33   2.0000     -10.335762      -281.2504
  34   2.0000     -10.329301      -281.0746
  35   2.0000     -10.329254      -281.0733
  36   2.0000     -10.322615      -280.8926
  37   2.0000     -10.322518      -280.8900
  38   2.0000     -10.321179      -280.8536
  39   2.0000     -10.321171      -280.8533
  40   2.0000     -10.321007      -280.8489
  41   2.0000     -10.320981      -280.8482
  42   2.0000     -10.320332      -280.8305
  43   2.0000     -10.320279      -280.8291
  44   2.0000     -10.317003      -280.7399
  45   2.0000     -10.316994      -280.7397
  46   2.0000     -10.315392      -280.6961
  47   2.0000     -10.315311      -280.6939
  48   2.0000     -10.313855      -280.6543
  49   2.0000     -10.313844      -280.6540
  50   2.0000     -10.310921      -280.5744
  51   2.0000     -10.310900      -280.5739
  52   2.0000     -10.307074      -280.4698
  53   2.0000     -10.307032      -280.4686
  54   2.0000     -10.304623      -280.4030
  55   2.0000     -10.304520      -280.4002
  56   2.0000     -10.253930      -279.0236
  57   2.0000     -10.253770      -279.0193
  58   2.0000     -10.252268      -278.9784
  59   2.0000     -10.252215      -278.9770
  60   2.0000     -10.244539      -278.7681
  61   2.0000     -10.244465      -278.7661
  62   2.0000     -10.239470      -278.6301
  63   2.0000     -10.239413      -278.6286
  64   2.0000      -8.085344      -220.0134
  65   2.0000      -8.085276      -220.0116
  66   2.0000      -6.054441      -164.7497
  67   2.0000      -6.054417      -164.7491
  68   2.0000      -6.050222      -164.6349
  69   2.0000      -6.050184      -164.6339
  70   2.0000      -6.047935      -164.5727
  71   2.0000      -6.047920      -164.5723
  72   2.0000      -1.186689       -32.2915
  73   2.0000      -1.186653       -32.2905
  74   2.0000      -1.180031       -32.1103
  75   2.0000      -1.179990       -32.1091
  76   2.0000      -1.179477       -32.0952
  77   2.0000      -1.179413       -32.0935
  78   2.0000      -1.173758       -31.9396
  79   2.0000      -1.173749       -31.9393
  80   2.0000      -1.055279       -28.7156
  81   2.0000      -1.054307       -28.6891
  82   2.0000      -1.045921       -28.4609
  83   2.0000      -1.042412       -28.3655
  84   2.0000      -1.041150       -28.3311
  85   2.0000      -1.024649       -27.8821
  86   2.0000      -1.024142       -27.8683
  87   2.0000      -1.020300       -27.7638
  88   2.0000      -1.009631       -27.4735
  89   2.0000      -1.009253       -27.4632
  90   2.0000      -1.006459       -27.3871
  91   2.0000      -0.993678       -27.0394
  92   2.0000      -0.957824       -26.0637
  93   2.0000      -0.914411       -24.8824
  94   2.0000      -0.873415       -23.7668
  95   2.0000      -0.866887       -23.5892
  96   2.0000      -0.859972       -23.4010
  97   2.0000      -0.858286       -23.3551
  98   2.0000      -0.850746       -23.1500
  99   2.0000      -0.849007       -23.1026
 100   2.0000      -0.846886       -23.0449
 101   2.0000      -0.839099       -22.8330
 102   2.0000      -0.838467       -22.8158
 103   2.0000      -0.836455       -22.7611
 104   2.0000      -0.827339       -22.5130
 105   2.0000      -0.824289       -22.4301
 106   2.0000      -0.815877       -22.2011
 107   2.0000      -0.813251       -22.1297
 108   2.0000      -0.812278       -22.1032
 109   2.0000      -0.795790       -21.6546
 110   2.0000      -0.793658       -21.5965
 111   2.0000      -0.792061       -21.5531
 112   2.0000      -0.775807       -21.1108
 113   2.0000      -0.756081       -20.5740
 114   2.0000      -0.755648       -20.5622
 115   2.0000      -0.740944       -20.1621
 116   2.0000      -0.714564       -19.4443
 117   2.0000      -0.707479       -19.2515
 118   2.0000      -0.699211       -19.0265
 119   2.0000      -0.689977       -18.7752
 120   2.0000      -0.683345       -18.5948
 121   2.0000      -0.679378       -18.4868
 122   2.0000      -0.675533       -18.3822
 123   2.0000      -0.668973       -18.2037
 124   2.0000      -0.667663       -18.1680
 125   2.0000      -0.661657       -18.0046
 126   2.0000      -0.657656       -17.8957
 127   2.0000      -0.654398       -17.8071
 128   2.0000      -0.648858       -17.6563
 129   2.0000      -0.645504       -17.5651
 130   2.0000      -0.636969       -17.3328
 131   2.0000      -0.636477       -17.3194
 132   2.0000      -0.630398       -17.1540
 133   2.0000      -0.629700       -17.1350
 134   2.0000      -0.622068       -16.9273
 135   2.0000      -0.619086       -16.8462
 136   2.0000      -0.615090       -16.7375
 137   2.0000      -0.607878       -16.5412
 138   2.0000      -0.594153       -16.1677
 139   2.0000      -0.592295       -16.1172
 140   2.0000      -0.586251       -15.9527
 141   2.0000      -0.583749       -15.8846
 142   2.0000      -0.574943       -15.6450
 143   2.0000      -0.574100       -15.6221
 144   2.0000      -0.569451       -15.4955
 145   2.0000      -0.568816       -15.4783
 146   2.0000      -0.567622       -15.4458
 147   2.0000      -0.567028       -15.4296
 148   2.0000      -0.560816       -15.2606
 149   2.0000      -0.560523       -15.2526
 150   2.0000      -0.557771       -15.1777
 151   2.0000      -0.556691       -15.1483
 152   2.0000      -0.556118       -15.1327
 153   2.0000      -0.552938       -15.0462
 154   2.0000      -0.548558       -14.9270
 155   2.0000      -0.542538       -14.7632
 156   2.0000      -0.542443       -14.7606
 157   2.0000      -0.532230       -14.4827
 158   2.0000      -0.532110       -14.4795
 159   2.0000      -0.520529       -14.1643
 160   2.0000      -0.516402       -14.0520
 161   2.0000      -0.514464       -13.9993
 162   2.0000      -0.512021       -13.9328
 163   2.0000      -0.510989       -13.9047
 164   2.0000      -0.510021       -13.8784
 165   2.0000      -0.506959       -13.7951
 166   2.0000      -0.505257       -13.7487
 167   2.0000      -0.501118       -13.6361
 168   2.0000      -0.498203       -13.5568
 169   2.0000      -0.495529       -13.4840
 170   2.0000      -0.492749       -13.4084
 171   2.0000      -0.491387       -13.3713
 172   2.0000      -0.490050       -13.3349
 173   2.0000      -0.483022       -13.1437
 174   2.0000      -0.481574       -13.1043
 175   2.0000      -0.477700       -12.9989
 176   2.0000      -0.473576       -12.8867
 177   2.0000      -0.460446       -12.5294
 178   2.0000      -0.458186       -12.4679
 179   2.0000      -0.457269       -12.4429
 180   2.0000      -0.456501       -12.4220
 181   2.0000      -0.454594       -12.3701
 182   2.0000      -0.451421       -12.2838
 183   2.0000      -0.449799       -12.2397
 184   2.0000      -0.449441       -12.2299
 185   2.0000      -0.443823       -12.0770
 186   2.0000      -0.442418       -12.0388
 187   2.0000      -0.439160       -11.9502
 188   2.0000      -0.438352       -11.9282
 189   2.0000      -0.438179       -11.9235
 190   2.0000      -0.436729       -11.8840
 191   2.0000      -0.431720       -11.7477
 192   2.0000      -0.431463       -11.7407
 193   2.0000      -0.428760       -11.6672
 194   2.0000      -0.427872       -11.6430
 195   2.0000      -0.427789       -11.6407
 196   2.0000      -0.425190       -11.5700
 197   2.0000      -0.423167       -11.5150
 198   2.0000      -0.421258       -11.4630
 199   2.0000      -0.411634       -11.2011
 200   2.0000      -0.411353       -11.1935
 201   2.0000      -0.408979       -11.1289
 202   2.0000      -0.408260       -11.1093
 203   2.0000      -0.406882       -11.0718
 204   2.0000      -0.403791       -10.9877
 205   2.0000      -0.395264       -10.7557
 206   2.0000      -0.392893       -10.6912
 207   2.0000      -0.378337       -10.2951
 208   2.0000      -0.376099       -10.2342
 209   2.0000      -0.369866       -10.0646
 210   2.0000      -0.369741       -10.0612
 211   2.0000      -0.358555        -9.7568
 212   2.0000      -0.358148        -9.7457
 213   2.0000      -0.356954        -9.7132
 214   2.0000      -0.349952        -9.5227
 215   2.0000      -0.325280        -8.8513
 216   2.0000      -0.325228        -8.8499
 217   2.0000      -0.322517        -8.7761
 218   2.0000      -0.315127        -8.5750
 219   2.0000      -0.315068        -8.5734
 220   2.0000      -0.306133        -8.3303
 221   2.0000      -0.289025        -7.8648
 222   2.0000      -0.288849        -7.8600
 223   2.0000      -0.283036        -7.7018
 224   2.0000      -0.278717        -7.5843
 225   2.0000      -0.278448        -7.5770
 226   2.0000      -0.276347        -7.5198
 227   2.0000      -0.255081        -6.9411
 228   2.0000      -0.237628        -6.4662
 229   0.0000      -0.118285        -3.2187
 230   0.0000      -0.094232        -2.5642
 231   0.0000      -0.091041        -2.4774
 232   0.0000      -0.048160        -1.3105
 233   0.0000      -0.038314        -1.0426

MULLIKEN ATOMIC CHARGES
-----------------------
   0 C :    0.041496
   1 C :   -0.023625
   2 C :    0.018244
   3 C :    0.080858
   4 N :   -0.219295
   5 O :   -0.240018
   6 C :    0.202586
   7 C :    0.014782
   8 N :   -0.165579
   9 C :    0.134622
  10 O :   -0.250651
  11 C :    0.203863
  12 C :   -0.011376
  13 C :    0.037065
  14 C :   -0.046346
  15 C :    0.079657
  16 N :   -0.149410
  17 O :   -0.271952
  18 C :    0.204038
  19 C :    0.080384
  20 N :   -0.193686
  21 C :    0.085089
  22 O :   -0.238481
  23 C :    0.200239
  24 C :   -0.103577
  25 C :   -0.062415
  26 C :    0.036105
  27 C :   -0.089276
  28 S :    0.237529
  29 C :   -0.089657
  30 C :    0.036028
  31 C :    0.302208
  32 C :   -0.296556
  33 C :   -0.193877
  34 N :    0.180103
  35 C :   -0.191907
  36 N :    0.179637
  37 C :   -0.057386
  38 C :   -0.105472
  39 S :    0.236668
  40 C :    0.079185
  41 C :   -0.044622
  42 C :    0.037146
  43 C :    0.084838
  44 N :   -0.192630
  45 O :   -0.238996
  46 C :    0.199217
  47 C :   -0.011755
  48 N :   -0.148243
  49 C :    0.077616
  50 O :   -0.271129
  51 C :    0.202870
  52 C :    0.014850
  53 C :    0.020783
  54 C :   -0.020770
  55 C :    0.132209
  56 N :   -0.165164
  57 O :   -0.249776
  58 C :    0.203539
  59 C :    0.037943
  60 N :   -0.217587
  61 C :    0.075359
  62 O :   -0.239009
  63 C :    0.202801
  64 H :   -0.004166
  65 H :    0.030629
  66 H :    0.036481
  67 H :    0.031758
  68 H :    0.029934
  69 H :    0.031509
  70 H :    0.035213
  71 H :    0.028228
  72 H :    0.035025
  73 H :    0.037410
  74 H :    0.035422
  75 H :    0.031000
  76 H :    0.038182
  77 H :    0.022828
  78 H :    0.021143
  79 H :    0.036088
  80 H :    0.031063
  81 H :    0.038377
  82 H :    0.028858
  83 H :    0.035407
  84 H :    0.037343
  85 H :    0.030167
  86 H :    0.032283
  87 H :    0.034493
  88 H :   -0.003366
  89 H :    0.030367
  90 H :    0.036810
  91 H :    0.032180
Sum of atomic charges:   -0.0000000

LOEWDIN ATOMIC CHARGES
----------------------
   0 C :    0.098484
   1 C :   -0.156145
   2 C :   -0.130806
   3 C :    0.112445
   4 N :   -0.195490
   5 O :   -0.030392
   6 C :    0.085083
   7 C :    0.065368
   8 N :   -0.173216
   9 C :    0.105239
  10 O :   -0.052931
  11 C :    0.086312
  12 C :    0.049905
  13 C :   -0.115583
  14 C :   -0.146978
  15 C :    0.086447
  16 N :   -0.163690
  17 O :   -0.067638
  18 C :    0.086533
  19 C :    0.054529
  20 N :   -0.194003
  21 C :    0.112682
  22 O :   -0.030837
  23 C :    0.085529
  24 C :   -0.173226
  25 C :    0.010528
  26 C :   -0.066534
  27 C :   -0.173681
  28 S :    0.517146
  29 C :   -0.173624
  30 C :   -0.066644
  31 C :    0.078156
  32 C :   -0.098933
  33 C :   -0.017838
  34 N :   -0.029050
  35 C :   -0.017806
  36 N :   -0.029090
  37 C :    0.011035
  38 C :   -0.173308
  39 S :    0.516845
  40 C :    0.054464
  41 C :   -0.146860
  42 C :   -0.115568
  43 C :    0.112601
  44 N :   -0.193885
  45 O :   -0.031046
  46 C :    0.085454
  47 C :    0.049684
  48 N :   -0.163643
  49 C :    0.086331
  50 O :   -0.067491
  51 C :    0.086394
  52 C :    0.065367
  53 C :   -0.130605
  54 C :   -0.156171
  55 C :    0.105086
  56 N :   -0.173339
  57 O :   -0.052676
  58 C :    0.086179
  59 C :    0.098156
  60 N :   -0.195358
  61 C :    0.112042
  62 O :   -0.030148
  63 C :    0.085154
  64 H :    0.023115
  65 H :    0.024148
  66 H :    0.026976
  67 H :    0.023420
  68 H :    0.023176
  69 H :    0.024853
  70 H :    0.025694
  71 H :    0.022465
  72 H :    0.026176
  73 H :    0.027008
  74 H :    0.025022
  75 H :    0.024465
  76 H :    0.027171
  77 H :    0.048570
  78 H :    0.048329
  79 H :    0.025218
  80 H :    0.024381
  81 H :    0.027265
  82 H :    0.022628
  83 H :    0.026304
  84 H :    0.026913
  85 H :    0.023211
  86 H :    0.024981
  87 H :    0.025619
  88 H :    0.023278
  89 H :    0.024138
  90 H :    0.027035
  91 H :    0.023492

  Mayer bond orders larger than 0.100000
B(  0-C ,  1-C ) :   1.2515 B(  0-C ,  4-N ) :   1.4702 B(  0-C , 64-H ) :   1.0076
B(  1-C ,  2-C ) :   1.2356 B(  1-C ,  9-C ) :   1.0860 B(  2-C ,  3-C ) :   1.0916
B(  2-C ,  7-C ) :   1.2359 B(  3-C ,  4-N ) :   1.4148 B(  3-C ,  5-O ) :   1.3100
B(  5-O ,  6-C ) :   0.9157 B(  6-C , 65-H ) :   0.9719 B(  6-C , 66-H ) :   0.9712
B(  6-C , 67-H ) :   0.9783 B(  7-C ,  8-N ) :   1.4737 B(  7-C , 12-C ) :   1.0661
B(  8-N ,  9-C ) :   1.4314 B(  9-C , 10-O ) :   1.3145 B( 10-O , 11-C ) :   0.9168
B( 11-C , 68-H ) :   0.9793 B( 11-C , 69-H ) :   0.9738 B( 11-C , 70-H ) :   0.9722
B( 12-C , 13-C ) :   1.2435 B( 12-C , 16-N ) :   1.4538 B( 13-C , 14-C ) :   1.2623
B( 13-C , 21-C ) :   1.0687 B( 14-C , 15-C ) :   1.1002 B( 14-C , 19-C ) :   1.1613
B( 15-C , 16-N ) :   1.4738 B( 15-C , 17-O ) :   1.2862 B( 17-O , 18-C ) :   0.9141
B( 18-C , 71-H ) :   0.9790 B( 18-C , 72-H ) :   0.9736 B( 18-C , 73-H ) :   0.9727
B( 19-C , 20-N ) :   1.4544 B( 19-C , 24-C ) :   1.1776 B( 20-N , 21-C ) :   1.4492
B( 21-C , 22-O ) :   1.3165 B( 22-O , 23-C ) :   0.9136 B( 23-C , 74-H ) :   0.9782
B( 23-C , 75-H ) :   0.9725 B( 23-C , 76-H ) :   0.9710 B( 24-C , 25-C ) :   1.3812
B( 24-C , 28-S ) :   1.1053 B( 25-C , 26-C ) :   1.2746 B( 25-C , 77-H ) :   1.0191
B( 26-C , 27-C ) :   1.3854 B( 26-C , 31-C ) :   0.9896 B( 27-C , 28-S ) :   1.1353
B( 27-C , 29-C ) :   1.2144 B( 29-C , 30-C ) :   1.3848 B( 29-C , 39-S ) :   1.1351
B( 30-C , 31-C ) :   0.9895 B( 30-C , 37-C ) :   1.2749 B( 31-C , 32-C ) :   1.7228
B( 32-C , 33-C ) :   1.1360 B( 32-C , 35-C ) :   1.1338 B( 33-C , 34-N ) :   2.9976
B( 35-C , 36-N ) :   2.9981 B( 37-C , 38-C ) :   1.3818 B( 37-C , 78-H ) :   1.0186
B( 38-C , 39-S ) :   1.1046 B( 38-C , 40-C ) :   1.1785 B( 40-C , 41-C ) :   1.1605
B( 40-C , 44-N ) :   1.4555 B( 41-C , 42-C ) :   1.2637 B( 41-C , 49-C ) :   1.0996
B( 42-C , 43-C ) :   1.0684 B( 42-C , 47-C ) :   1.2431 B( 43-C , 44-N ) :   1.4496
B( 43-C , 45-O ) :   1.3155 B( 45-O , 46-C ) :   0.9131 B( 46-C , 79-H ) :   0.9782
B( 46-C , 80-H ) :   0.9726 B( 46-C , 81-H ) :   0.9710 B( 47-C , 48-N ) :   1.4544
B( 47-C , 52-C ) :   1.0667 B( 48-N , 49-C ) :   1.4738 B( 49-C , 50-O ) :   1.2877
B( 50-O , 51-C ) :   0.9141 B( 51-C , 82-H ) :   0.9789 B( 51-C , 83-H ) :   0.9739
B( 51-C , 84-H ) :   0.9725 B( 52-C , 53-C ) :   1.2361 B( 52-C , 56-N ) :   1.4731
B( 53-C , 54-C ) :   1.2351 B( 53-C , 61-C ) :   1.0910 B( 54-C , 55-C ) :   1.0853
B( 54-C , 59-C ) :   1.2510 B( 55-C , 56-N ) :   1.4313 B( 55-C , 57-O ) :   1.3155
B( 57-O , 58-C ) :   0.9168 B( 58-C , 85-H ) :   0.9793 B( 58-C , 86-H ) :   0.9734
B( 58-C , 87-H ) :   0.9726 B( 59-C , 60-N ) :   1.4704 B( 59-C , 88-H ) :   1.0077
B( 60-N , 61-C ) :   1.4152 B( 61-C , 62-O ) :   1.3130 B( 62-O , 63-C ) :   0.9148
B( 63-C , 89-H ) :   0.9720 B( 63-C , 90-H ) :   0.9709 B( 63-C , 91-H ) :   0.9784

-----------------------------------------------------------------------------
         ABSORPTION SPECTRUM VIA TRANSITION ELECTRIC DIPOLE MOMENTS
-----------------------------------------------------------------------------
State   Energy  Wavelength   fosc         T2         TX        TY        TZ
        (cm-1)    (nm)                  (au**2)     (au)      (au)      (au)
-----------------------------------------------------------------------------
   0   11040.0    905.8   0.740081129  22.06908  -1.68072  -3.85107  -2.10084
   1   15174.1    659.0   0.370914387   8.04724   1.15514   2.33927   1.11387
   2   15308.4    653.2   0.020387958   0.43845   0.40873  -0.36937   0.36737
   3   15800.6    632.9   0.262152036   5.46205   0.90002   1.91062   1.00077
   4   16114.7    620.6   0.029876070   0.61035  -0.45698   0.47907  -0.41473
   5   16476.4    606.9   0.200122528   3.99861  -0.85501  -1.63225  -0.77674
   6   16717.1    598.2   0.047565949   0.93672  -0.56799   0.59496  -0.51003
   7   18505.9    540.4   0.060443925   1.07527  -0.63032   0.59534  -0.56881
   8   20659.0    484.1   0.044451264   0.70835  -0.45713   0.15356   0.68979
   9   21019.8    475.7   0.122884629   1.92462  -0.84556   0.78770  -0.76758
  10   23251.8    430.1   0.004972976   0.07041   0.06742   0.17829   0.18460
  11   23266.2    429.8   0.006270478   0.08873  -0.01886  -0.25331  -0.15557
  12   23521.9    425.1   0.018458423   0.25834   0.30860  -0.28149   0.28961
  13   23799.3    420.2   0.031903520   0.44132  -0.48544  -0.07623   0.44705
  14   23999.2    416.7   0.145435512   1.99503   0.34884   1.12852   0.77446
  15   24405.7    409.7   0.000052919   0.00071  -0.01726  -0.01577   0.01294
  16   24412.9    409.6   0.000268433   0.00362   0.04896   0.02787  -0.02112
  17   24794.6    403.3   0.000015409   0.00020  -0.01041   0.00735  -0.00649
  18   25022.8    399.6   0.016944487   0.22293   0.17983  -0.19275  -0.39171
  19   25819.8    387.3   0.001301771   0.01660   0.04445   0.07579   0.09423
  20   25841.9    387.0   0.001884707   0.02401   0.08495  -0.11115   0.06663
  21   26901.9    371.7   0.016545760   0.20248  -0.23925  -0.36064  -0.12317
  22   27038.6    369.8   0.013187907   0.16057   0.23629  -0.23907   0.21813
  23   28218.3    354.4   0.098514180   1.14932  -0.49479   0.32365   0.89429
  24   28596.2    349.7   0.393511569   4.53028   1.28758  -1.20547   1.19133
  25   29535.7    338.6   0.674190887   7.51468   1.64224  -1.55500   1.54909
  26   29723.8    336.4   0.271710012   3.00938  -0.97658  -1.38899  -0.35549
  27   30524.5    327.6   0.000705294   0.00761  -0.01825  -0.02546   0.08140
  28   30536.7    327.5   0.000840899   0.00907   0.07439  -0.05540   0.02152
  29   31111.5    321.4   0.011733378   0.12416   0.21050  -0.19096   0.20829
  30   31646.5    316.0   0.053499752   0.55655  -0.09516   0.46356   0.57671
  31   32212.3    310.4   0.089654715   0.91628   0.57735  -0.54677   0.53290
  32   32409.7    308.5   0.150390646   1.52764   0.16102   0.95355   0.76971
  33   32471.7    308.0   0.005332284   0.05406   0.12872  -0.00552   0.19355
  34   32496.1    307.7   0.026093569   0.26435   0.01904   0.37897   0.34694
  35   32626.0    306.5   0.000693680   0.00700   0.04746   0.01337   0.06759
  36   32677.0    306.0   0.010602477   0.10682   0.07174   0.26243   0.18110
  37   32953.4    303.5   0.007981171   0.07973  -0.14180  -0.21115   0.12266
  38   32971.8    303.3   0.015298632   0.15275  -0.28363   0.17670  -0.20269
  39   33076.3    302.3   0.009884289   0.09838   0.16636  -0.10140  -0.24581
  40   33211.4    301.1   0.022249796   0.22055   0.26443  -0.26788   0.28084
  41   33548.6    298.1   0.001403417   0.01377  -0.01168  -0.05124   0.10493
  42   33562.2    298.0   0.002049059   0.02010  -0.12282   0.01512   0.06918
  43   34052.2    293.7   0.008592924   0.08308  -0.18998   0.15713  -0.14932
  44   34056.9    293.6   0.002036202   0.01968   0.06325   0.06065  -0.10956
  45   34255.3    291.9   0.026568483   0.25534  -0.29971   0.28780  -0.28754
  46   34281.4    291.7   0.002928250   0.02812   0.14611  -0.02189  -0.07934
  47   34389.0    290.8   0.127228845   1.21798   0.66359  -0.62492   0.62219
  48   34680.8    288.3   0.074951168   0.71148  -0.49811   0.48396  -0.47870
  49   35104.3    284.9   0.100416205   0.94171   0.73616   0.20070  -0.59959
  50   35552.5    281.3   0.007711889   0.07141   0.14031  -0.16255   0.15907
  51   35754.7    279.7   0.031881820   0.29355   0.41989   0.32155  -0.11769
  52   36453.7    274.3   0.032391850   0.29253   0.34959  -0.26306   0.31799
  53   36784.0    271.9   0.539781866   4.83097  -0.47586  -1.74849  -1.24392
  54   38172.2    262.0   0.005156527   0.04447  -0.06668   0.19974  -0.01144
  55   38191.4    261.8   0.023494430   0.20252   0.13703   0.32985   0.27376
  56   38842.8    257.4   0.277251444   2.34985  -0.59730  -1.26022  -0.63634
  57   38984.3    256.5   0.002064954   0.01744  -0.07587  -0.05043  -0.09560
  58   38996.7    256.4   0.007045107   0.05948  -0.04896  -0.21855  -0.09651
  59   39495.9    253.2   0.135974929   1.13340  -0.51323  -0.87320  -0.32789

FINAL SINGLE POINT ENERGY     -3635.235613505627

DIPOLE MOMENT
-------------
                                X             Y             Z
Electronic contribution:      8.00122      -7.47617       7.28900
Nuclear contribution   :     -8.69677       8.15452      -7.96574
                        -----------------------------------------
Total Dipole Moment    :     -0.69555       0.67836      -0.67674
                        -----------------------------------------
Magnitude (a.u.)       :      1.18404
Magnitude (Debye)      :      3.00958

Rotational constants in cm-1:     0.002677     0.000350     0.000319
Rotational constants in MHz :    80.253274    10.483903     9.576412

                             ****ORCA TERMINATED NORMALLY****
TOTAL RUN TIME: 0 days 0 hours 7 minutes 37 seconds 609 msec
