                         Program Version 4.2.0 -  RELEASE  -
|  1> # ORCA input file
|  2> # SCF done       -213.657895923092          0.000622776377
|  3> ! CAM-B3LYP def2-SVP def2/J RIJCOSX Grid4 TightSCF
|  4> %maxcore 5000
|  5> %tddft
|  6>     Mode sTDDFT
|  7>     Ethresh 5.0
|  8>     maxcore 5000
|  9> end
| 10>
| 11> %pal
| 12>   nprocs 6
| 13>   end
| 14> * xyz 0 1
| 15>    C       -0.24842        -4.59284        -2.70592
| 16>    C       -0.13252        -3.24906        -2.69324
| 17>    C        1.14369        -2.80573        -2.23969
| 18>    C        1.60548        -1.48644        -2.08743
| 19>    C        0.77738        -0.32226        -2.33548
| 20>    C        1.15437         0.85971        -2.90654
| 21>    C        0.11332         1.81254        -2.92864
| 22>    C       -1.05740         1.38494        -2.37348
| 23>    S       -0.88364        -0.24391        -1.81358
| 24>    C       -2.33975         2.11739        -2.22403
| 25>   Cl        0.32596         3.38394        -3.60071
| 26>    C        2.92414        -1.33532        -1.66394
| 27>    C        3.77417        -2.42803        -1.36520
| 28>    C        3.29541        -3.74984        -1.47148
| 29>    C        1.99294        -3.89911        -1.93594
| 30>    S        1.17369        -5.41727        -2.17759
| 31>    C        4.12052        -4.87384        -1.08063
| 32>    C        4.93099        -4.97125         0.01513
| 33>    C        5.58887        -6.21701         0.09621
| 34>    C        5.30078        -7.07391        -0.92694
| 35>    S        4.17792        -6.33934        -2.01993
| 36>    C        5.81315        -8.44704        -1.16112
| 37>   Cl        6.66128        -6.60600         1.38643
| 38>    C        5.06850        -1.99690        -0.98997
| 39>    C        5.19644        -0.63634        -0.95453
| 40>    S        3.72745         0.18769        -1.40554
| 41>    C        6.38713         0.06801        -0.59899
| 42>    C        6.67247         1.40127        -0.34626
| 43>    C        5.79107         2.58287        -0.33657
| 44>    O        5.78044         3.40910         0.53386
| 45>    O        4.99848         2.62850        -1.41145
| 46>    C        8.05023         1.37375         0.01701
| 47>    N        8.51736         0.14813        -0.03301
| 48>    O        7.50559        -0.65320        -0.39551
| 49>    C        8.90152         2.48500         0.35456
| 50>    C       10.17623         2.50086         0.88044
| 51>    C       11.05210         1.34702         1.20743
| 52>    O       12.10436         1.14121         0.67405
| 53>    O       10.51778         0.58065         2.15149
| 54>    C       10.48213         3.88856         0.94157
| 55>    N        9.46327         4.59108         0.49317
| 56>    O        8.50022         3.73835         0.12165
| 57>    C       11.68182         4.49448         1.45885
| 58>    C       12.20493         5.77527         1.41886
| 59>    C       11.77769         7.00308         0.69610
| 60>    O       12.56280         7.88687         0.47001
| 61>    O       10.51550         7.09183         0.30063
| 62>    C       13.43035         5.64010         2.15733
| 63>    N       13.56839         4.40049         2.57329
| 64>    O       12.51044         3.69577         2.14698
| 65>    C       14.42867         6.61930         2.49924
| 66>    C       15.73149         6.33172         2.77618
| 67>    C       16.48572         7.46936         3.15727
| 68>    C       17.85817         7.54111         3.46488
| 69>    C       18.71825         6.38537         3.30912
| 70>    C       18.72742         5.48495         2.28284
| 71>    C       19.70722         4.48210         2.44811
| 72>    C       20.44443         4.59566         3.59037
| 73>    S       19.93127         5.98198         4.49201
| 74>    C       21.54245         3.72460         4.08067
| 75>   Cl       19.94106         3.22743         1.29106
| 76>    C       18.33432         8.77626         3.89088
| 77>    C       17.52548         9.93605         3.97055
| 78>    C       16.16661         9.87565         3.61844
| 79>    C       15.67603         8.62913         3.22984
| 80>    S       14.04599         8.30160         2.72019
| 81>    C       15.29557        11.03447         3.63926
| 82>    C       13.99178        11.08983         4.03989
| 83>    C       13.42386        12.37167         3.87677
| 84>    C       14.26787        13.30169         3.34480
| 85>    S       15.81454        12.58695         3.04036
| 86>    C       14.00127        14.72758         3.02737
| 87>   Cl       11.79824        12.71918         4.32294
| 88>    C       18.27046        11.05885         4.43912
| 89>    C       19.56652        10.77109         4.67163
| 90>    S       19.97975         9.12440         4.34847
| 91>    H       -1.09753        -5.17580        -3.00459
| 92>    H       -0.91806        -2.58551        -3.00245
| 93>    H        2.12196         1.04384        -3.33430
| 94>    H       -2.23969         3.11772        -2.63773
| 95>    H       -2.61782         2.19517        -1.17344
| 96>    H       -3.14293         1.59755        -2.74529
| 97>    H        5.02380        -4.20839         0.76576
| 98>    H        6.34559        -8.50177        -2.11008
| 99>    H        4.99142        -9.16135        -1.19672
|100>    H        6.49136        -8.72709        -0.35905
|101>    H        5.88594        -2.65853        -0.77106
|102>    H        4.41531         3.40421        -1.37381
|103>    H       11.08426        -0.18871         2.32529
|104>    H        9.96664         6.29189         0.44779
|105>    H       16.12244         5.33337         2.72002
|106>    H       18.09278         5.55232         1.41885
|107>    H       21.28527         3.28916         5.04570
|108>    H       22.45950         4.29920         4.20588
|109>    H       21.72060         2.92359         3.36756
|110>    H       13.45749        10.26290         4.46831
|111>    H       13.92301        14.87174         1.94937
|112>    H       14.80785        15.36031         3.39361
|113>    H       13.06569        15.03586         3.48786
|114>    H       17.84391        12.03123         4.59947
|115>    H       20.33323        11.43112         5.02738
|116> *
|117>
|118>                          ****END OF INPUT****

CARTESIAN COORDINATES (ANGSTROEM)
---------------------------------
  C     -0.248420   -4.592840   -2.705920
  C     -0.132520   -3.249060   -2.693240
  C      1.143690   -2.805730   -2.239690
  C      1.605480   -1.486440   -2.087430
  C      0.777380   -0.322260   -2.335480
  C      1.154370    0.859710   -2.906540
  C      0.113320    1.812540   -2.928640
  C     -1.057400    1.384940   -2.373480
  S     -0.883640   -0.243910   -1.813580
  C     -2.339750    2.117390   -2.224030
  Cl     0.325960    3.383940   -3.600710
  C      2.924140   -1.335320   -1.663940
  C      3.774170   -2.428030   -1.365200
  C      3.295410   -3.749840   -1.471480
  C      1.992940   -3.899110   -1.935940
  S      1.173690   -5.417270   -2.177590
  C      4.120520   -4.873840   -1.080630
  C      4.930990   -4.971250    0.015130
  C      5.588870   -6.217010    0.096210
  C      5.300780   -7.073910   -0.926940
  S      4.177920   -6.339340   -2.019930
  C      5.813150   -8.447040   -1.161120
  Cl     6.661280   -6.606000    1.386430
  C      5.068500   -1.996900   -0.989970
  C      5.196440   -0.636340   -0.954530
  S      3.727450    0.187690   -1.405540
  C      6.387130    0.068010   -0.598990
  C      6.672470    1.401270   -0.346260
  C      5.791070    2.582870   -0.336570
  O      5.780440    3.409100    0.533860
  O      4.998480    2.628500   -1.411450
  C      8.050230    1.373750    0.017010
  N      8.517360    0.148130   -0.033010
  O      7.505590   -0.653200   -0.395510
  C      8.901520    2.485000    0.354560
  C     10.176230    2.500860    0.880440
  C     11.052100    1.347020    1.207430
  O     12.104360    1.141210    0.674050
  O     10.517780    0.580650    2.151490
  C     10.482130    3.888560    0.941570
  N      9.463270    4.591080    0.493170
  O      8.500220    3.738350    0.121650
  C     11.681820    4.494480    1.458850
  C     12.204930    5.775270    1.418860
  C     11.777690    7.003080    0.696100
  O     12.562800    7.886870    0.470010
  O     10.515500    7.091830    0.300630
  C     13.430350    5.640100    2.157330
  N     13.568390    4.400490    2.573290
  O     12.510440    3.695770    2.146980
  C     14.428670    6.619300    2.499240
  C     15.731490    6.331720    2.776180
  C     16.485720    7.469360    3.157270
  C     17.858170    7.541110    3.464880
  C     18.718250    6.385370    3.309120
  C     18.727420    5.484950    2.282840
  C     19.707220    4.482100    2.448110
  C     20.444430    4.595660    3.590370
  S     19.931270    5.981980    4.492010
  C     21.542450    3.724600    4.080670
  Cl    19.941060    3.227430    1.291060
  C     18.334320    8.776260    3.890880
  C     17.525480    9.936050    3.970550
  C     16.166610    9.875650    3.618440
  C     15.676030    8.629130    3.229840
  S     14.045990    8.301600    2.720190
  C     15.295570   11.034470    3.639260
  C     13.991780   11.089830    4.039890
  C     13.423860   12.371670    3.876770
  C     14.267870   13.301690    3.344800
  S     15.814540   12.586950    3.040360
  C     14.001270   14.727580    3.027370
  Cl    11.798240   12.719180    4.322940
  C     18.270460   11.058850    4.439120
  C     19.566520   10.771090    4.671630
  S     19.979750    9.124400    4.348470
  H     -1.097530   -5.175800   -3.004590
  H     -0.918060   -2.585510   -3.002450
  H      2.121960    1.043840   -3.334300
  H     -2.239690    3.117720   -2.637730
  H     -2.617820    2.195170   -1.173440
  H     -3.142930    1.597550   -2.745290
  H      5.023800   -4.208390    0.765760
  H      6.345590   -8.501770   -2.110080
  H      4.991420   -9.161350   -1.196720
  H      6.491360   -8.727090   -0.359050
  H      5.885940   -2.658530   -0.771060
  H      4.415310    3.404210   -1.373810
  H     11.084260   -0.188710    2.325290
  H      9.966640    6.291890    0.447790
  H     16.122440    5.333370    2.720020
  H     18.092780    5.552320    1.418850
  H     21.285270    3.289160    5.045700
  H     22.459500    4.299200    4.205880
  H     21.720600    2.923590    3.367560
  H     13.457490   10.262900    4.468310
  H     13.923010   14.871740    1.949370
  H     14.807850   15.360310    3.393610
  H     13.065690   15.035860    3.487860
  H     17.843910   12.031230    4.599470
  H     20.333230   11.431120    5.027380

 Total Charge           Charge          ....    0
 Multiplicity           Mult            ....    1
 Number of Electrons    NEL             ....  626
 Basis Dimension        Dim             .... 1237

ORBITAL ENERGIES
----------------

  NO   OCC          E(Eh)            E(eV)
   0   2.0000    -101.591757     -2764.4522
   1   2.0000    -101.589317     -2764.3859
   2   2.0000    -101.573511     -2763.9558
   3   2.0000    -101.571475     -2763.9004
   4   2.0000     -88.968038     -2420.9434
   5   2.0000     -88.966132     -2420.8915
   6   2.0000     -88.965083     -2420.8630
   7   2.0000     -88.959686     -2420.7161
   8   2.0000     -88.946648     -2420.3613
   9   2.0000     -88.945657     -2420.3344
  10   2.0000     -88.938839     -2420.1489
  11   2.0000     -88.938024     -2420.1267
  12   2.0000     -19.357552      -526.7458
  13   2.0000     -19.345725      -526.4240
  14   2.0000     -19.332969      -526.0768
  15   2.0000     -19.284274      -524.7518
  16   2.0000     -19.272328      -524.4267
  17   2.0000     -19.237127      -523.4689
  18   2.0000     -19.223951      -523.1103
  19   2.0000     -19.215886      -522.8908
  20   2.0000     -19.187593      -522.1210
  21   2.0000     -14.504719      -394.6935
  22   2.0000     -14.490418      -394.3043
  23   2.0000     -14.466947      -393.6656
  24   2.0000     -10.430404      -283.8257
  25   2.0000     -10.423717      -283.6438
  26   2.0000     -10.401194      -283.0309
  27   2.0000     -10.391405      -282.7645
  28   2.0000     -10.386572      -282.6330
  29   2.0000     -10.376509      -282.3592
  30   2.0000     -10.365047      -282.0473
  31   2.0000     -10.356555      -281.8162
  32   2.0000     -10.329620      -281.0833
  33   2.0000     -10.329083      -281.0686
  34   2.0000     -10.326056      -280.9863
  35   2.0000     -10.325626      -280.9746
  36   2.0000     -10.324927      -280.9556
  37   2.0000     -10.319643      -280.8118
  38   2.0000     -10.317192      -280.7451
  39   2.0000     -10.315330      -280.6944
  40   2.0000     -10.314697      -280.6772
  41   2.0000     -10.314442      -280.6702
  42   2.0000     -10.311738      -280.5967
  43   2.0000     -10.311521      -280.5908
  44   2.0000     -10.310733      -280.5693
  45   2.0000     -10.308838      -280.5177
  46   2.0000     -10.308446      -280.5071
  47   2.0000     -10.307682      -280.4863
  48   2.0000     -10.307584      -280.4836
  49   2.0000     -10.305721      -280.4329
  50   2.0000     -10.300750      -280.2977
  51   2.0000     -10.300325      -280.2861
  52   2.0000     -10.299783      -280.2714
  53   2.0000     -10.297040      -280.1967
  54   2.0000     -10.295159      -280.1455
  55   2.0000     -10.293687      -280.1055
  56   2.0000     -10.292948      -280.0853
  57   2.0000     -10.292041      -280.0607
  58   2.0000     -10.291416      -280.0437
  59   2.0000     -10.291049      -280.0337
  60   2.0000     -10.287655      -279.9413
  61   2.0000     -10.287013      -279.9238
  62   2.0000     -10.286961      -279.9225
  63   2.0000     -10.286679      -279.9148
  64   2.0000     -10.284792      -279.8634
  65   2.0000     -10.283030      -279.8155
  66   2.0000     -10.282739      -279.8076
  67   2.0000     -10.281319      -279.7689
  68   2.0000     -10.276210      -279.6299
  69   2.0000     -10.274420      -279.5812
  70   2.0000     -10.267794      -279.4009
  71   2.0000     -10.267514      -279.3933
  72   2.0000     -10.266894      -279.3764
  73   2.0000     -10.266469      -279.3648
  74   2.0000     -10.265615      -279.3416
  75   2.0000     -10.262609      -279.2598
  76   2.0000      -9.546481      -259.7729
  77   2.0000      -9.544038      -259.7065
  78   2.0000      -9.528252      -259.2769
  79   2.0000      -9.526301      -259.2238
  80   2.0000      -8.062629      -219.3953
  81   2.0000      -8.061795      -219.3726
  82   2.0000      -8.060804      -219.3456
  83   2.0000      -8.055640      -219.2051
  84   2.0000      -8.042424      -218.8455
  85   2.0000      -8.041256      -218.8137
  86   2.0000      -8.034682      -218.6348
  87   2.0000      -8.032732      -218.5818
  88   2.0000      -7.316717      -199.0980
  89   2.0000      -7.314306      -199.0324
  90   2.0000      -7.306565      -198.8217
  91   2.0000      -7.306484      -198.8195
  92   2.0000      -7.304097      -198.7546
  93   2.0000      -7.304031      -198.7528
  94   2.0000      -7.298466      -198.6014
  95   2.0000      -7.296500      -198.5479
  96   2.0000      -7.288343      -198.3259
  97   2.0000      -7.288273      -198.3240
  98   2.0000      -7.286405      -198.2732
  99   2.0000      -7.286304      -198.2704
 100   2.0000      -6.032487      -164.1523
 101   2.0000      -6.031140      -164.1157
 102   2.0000      -6.030098      -164.0873
 103   2.0000      -6.027981      -164.0297
 104   2.0000      -6.026906      -164.0005
 105   2.0000      -6.025884      -163.9726
 106   2.0000      -6.025320      -163.9573
 107   2.0000      -6.023848      -163.9172
 108   2.0000      -6.023826      -163.9167
 109   2.0000      -6.022919      -163.8920
 110   2.0000      -6.020844      -163.8355
 111   2.0000      -6.017139      -163.7347
 112   2.0000      -6.011707      -163.5869
 113   2.0000      -6.010551      -163.5554
 114   2.0000      -6.007526      -163.4731
 115   2.0000      -6.006425      -163.4431
 116   2.0000      -6.004521      -163.3913
 117   2.0000      -6.004383      -163.3876
 118   2.0000      -6.003346      -163.3593
 119   2.0000      -6.002487      -163.3360
 120   2.0000      -5.999922      -163.2662
 121   2.0000      -5.998037      -163.2149
 122   2.0000      -5.996192      -163.1647
 123   2.0000      -5.994100      -163.1077
 124   2.0000      -1.300843       -35.3977
 125   2.0000      -1.286956       -35.0199
 126   2.0000      -1.273055       -34.6416
 127   2.0000      -1.212029       -32.9810
 128   2.0000      -1.202528       -32.7225
 129   2.0000      -1.170228       -31.8435
 130   2.0000      -1.116656       -30.3857
 131   2.0000      -1.108459       -30.1627
 132   2.0000      -1.084768       -29.5180
 133   2.0000      -1.025368       -27.9017
 134   2.0000      -1.021476       -27.7958
 135   2.0000      -1.009680       -27.4748
 136   2.0000      -1.008250       -27.4359
 137   2.0000      -1.002594       -27.2820
 138   2.0000      -1.000669       -27.2296
 139   2.0000      -0.990827       -26.9618
 140   2.0000      -0.990225       -26.9454
 141   2.0000      -0.986645       -26.8480
 142   2.0000      -0.978714       -26.6322
 143   2.0000      -0.958153       -26.0727
 144   2.0000      -0.953147       -25.9365
 145   2.0000      -0.951054       -25.8795
 146   2.0000      -0.944212       -25.6933
 147   2.0000      -0.933078       -25.3903
 148   2.0000      -0.932558       -25.3762
 149   2.0000      -0.927915       -25.2498
 150   2.0000      -0.914994       -24.8982
 151   2.0000      -0.911772       -24.8106
 152   2.0000      -0.908991       -24.7349
 153   2.0000      -0.893767       -24.3206
 154   2.0000      -0.886976       -24.1359
 155   2.0000      -0.867838       -23.6151
 156   2.0000      -0.857288       -23.3280
 157   2.0000      -0.851010       -23.1572
 158   2.0000      -0.849050       -23.1038
 159   2.0000      -0.838235       -22.8095
 160   2.0000      -0.831887       -22.6368
 161   2.0000      -0.825411       -22.4606
 162   2.0000      -0.816752       -22.2250
 163   2.0000      -0.813607       -22.1394
 164   2.0000      -0.813266       -22.1301
 165   2.0000      -0.808890       -22.0110
 166   2.0000      -0.806370       -21.9424
 167   2.0000      -0.796710       -21.6796
 168   2.0000      -0.795525       -21.6473
 169   2.0000      -0.793960       -21.6047
 170   2.0000      -0.789337       -21.4789
 171   2.0000      -0.785757       -21.3815
 172   2.0000      -0.773421       -21.0458
 173   2.0000      -0.769202       -20.9311
 174   2.0000      -0.758790       -20.6477
 175   2.0000      -0.753248       -20.4969
 176   2.0000      -0.746507       -20.3135
 177   2.0000      -0.741540       -20.1783
 178   2.0000      -0.733524       -19.9602
 179   2.0000      -0.721548       -19.6343
 180   2.0000      -0.712675       -19.3929
 181   2.0000      -0.705373       -19.1942
 182   2.0000      -0.691643       -18.8206
 183   2.0000      -0.686325       -18.6758
 184   2.0000      -0.685629       -18.6569
 185   2.0000      -0.679791       -18.4981
 186   2.0000      -0.662315       -18.0225
 187   2.0000      -0.660067       -17.9613
 188   2.0000      -0.658380       -17.9154
 189   2.0000      -0.648723       -17.6527
 190   2.0000      -0.648449       -17.6452
 191   2.0000      -0.639615       -17.4048
 192   2.0000      -0.638310       -17.3693
 193   2.0000      -0.636282       -17.3141
 194   2.0000      -0.630785       -17.1645
 195   2.0000      -0.627511       -17.0755
 196   2.0000      -0.620418       -16.8824
 197   2.0000      -0.617944       -16.8151
 198   2.0000      -0.615212       -16.7408
 199   2.0000      -0.614906       -16.7325
 200   2.0000      -0.611124       -16.6295
 201   2.0000      -0.605761       -16.4836
 202   2.0000      -0.603069       -16.4103
 203   2.0000      -0.596886       -16.2421
 204   2.0000      -0.593577       -16.1521
 205   2.0000      -0.590718       -16.0743
 206   2.0000      -0.589479       -16.0405
 207   2.0000      -0.586763       -15.9666
 208   2.0000      -0.583103       -15.8670
 209   2.0000      -0.574076       -15.6214
 210   2.0000      -0.571499       -15.5513
 211   2.0000      -0.565729       -15.3943
 212   2.0000      -0.564670       -15.3654
 213   2.0000      -0.562687       -15.3115
 214   2.0000      -0.561610       -15.2822
 215   2.0000      -0.554080       -15.0773
 216   2.0000      -0.548790       -14.9333
 217   2.0000      -0.546935       -14.8828
 218   2.0000      -0.544912       -14.8278
 219   2.0000      -0.534155       -14.5351
 220   2.0000      -0.531436       -14.4611
 221   2.0000      -0.530974       -14.4485
 222   2.0000      -0.528305       -14.3759
 223   2.0000      -0.525385       -14.2965
 224   2.0000      -0.522994       -14.2314
 225   2.0000      -0.522231       -14.2106
 226   2.0000      -0.520928       -14.1752
 227   2.0000      -0.519890       -14.1469
 228   2.0000      -0.516986       -14.0679
 229   2.0000      -0.514733       -14.0066
 230   2.0000      -0.511451       -13.9173
 231   2.0000      -0.509221       -13.8566
 232   2.0000      -0.508409       -13.8345
 233   2.0000      -0.508200       -13.8288
 234   2.0000      -0.503117       -13.6905
 235   2.0000      -0.502015       -13.6605
 236   2.0000      -0.500861       -13.6291
 237   2.0000      -0.497896       -13.5484
 238   2.0000      -0.494397       -13.4532
 239   2.0000      -0.493760       -13.4359
 240   2.0000      -0.488736       -13.2992
 241   2.0000      -0.486509       -13.2386
 242   2.0000      -0.484677       -13.1887
 243   2.0000      -0.483961       -13.1693
 244   2.0000      -0.482523       -13.1301
 245   2.0000      -0.480541       -13.0762
 246   2.0000      -0.479319       -13.0429
 247   2.0000      -0.475567       -12.9408
 248   2.0000      -0.472903       -12.8683
 249   2.0000      -0.470396       -12.8001
 250   2.0000      -0.468115       -12.7380
 251   2.0000      -0.466867       -12.7041
 252   2.0000      -0.465262       -12.6604
 253   2.0000      -0.465059       -12.6549
 254   2.0000      -0.459428       -12.5017
 255   2.0000      -0.455868       -12.4048
 256   2.0000      -0.454628       -12.3711
 257   2.0000      -0.454187       -12.3591
 258   2.0000      -0.452238       -12.3060
 259   2.0000      -0.450272       -12.2525
 260   2.0000      -0.449247       -12.2246
 261   2.0000      -0.448305       -12.1990
 262   2.0000      -0.445980       -12.1357
 263   2.0000      -0.443077       -12.0567
 264   2.0000      -0.436219       -11.8701
 265   2.0000      -0.436102       -11.8669
 266   2.0000      -0.432842       -11.7782
 267   2.0000      -0.428613       -11.6632
 268   2.0000      -0.427558       -11.6344
 269   2.0000      -0.423400       -11.5213
 270   2.0000      -0.421780       -11.4772
 271   2.0000      -0.421114       -11.4591
 272   2.0000      -0.419414       -11.4128
 273   2.0000      -0.415097       -11.2954
 274   2.0000      -0.410764       -11.1775
 275   2.0000      -0.409959       -11.1556
 276   2.0000      -0.408088       -11.1046
 277   2.0000      -0.405984       -11.0474
 278   2.0000      -0.404432       -11.0052
 279   2.0000      -0.403558       -10.9814
 280   2.0000      -0.401088       -10.9142
 281   2.0000      -0.400486       -10.8978
 282   2.0000      -0.398904       -10.8547
 283   2.0000      -0.388820       -10.5803
 284   2.0000      -0.388359       -10.5678
 285   2.0000      -0.386327       -10.5125
 286   2.0000      -0.385089       -10.4788
 287   2.0000      -0.383012       -10.4223
 288   2.0000      -0.380876       -10.3642
 289   2.0000      -0.374056       -10.1786
 290   2.0000      -0.373635       -10.1671
 291   2.0000      -0.369323       -10.0498
 292   2.0000      -0.367640       -10.0040
 293   2.0000      -0.362739        -9.8706
 294   2.0000      -0.362419        -9.8619
 295   2.0000      -0.354255        -9.6398
 296   2.0000      -0.349066        -9.4986
 297   2.0000      -0.345761        -9.4086
 298   2.0000      -0.336926        -9.1682
 299   2.0000      -0.334840        -9.1114
 300   2.0000      -0.324324        -8.8253
 301   2.0000      -0.322150        -8.7661
 302   2.0000      -0.309609        -8.4249
 303   2.0000      -0.309549        -8.4232
 304   2.0000      -0.304024        -8.2729
 305   2.0000      -0.302488        -8.2311
 306   2.0000      -0.300342        -8.1727
 307   2.0000      -0.298348        -8.1185
 308   2.0000      -0.286684        -7.8011
 309   2.0000      -0.281531        -7.6609
 310   2.0000      -0.277408        -7.5487
 311   2.0000      -0.257061        -6.9950
 312   2.0000      -0.234209        -6.3731
 313   0.0000      -0.067358        -1.8329
 314   0.0000      -0.055711        -1.5160
 315   0.0000      -0.034831        -0.9478
 316   0.0000      -0.032081        -0.8730
 317   0.0000      -0.026490        -0.7208

MULLIKEN ATOMIC CHARGES
-----------------------
   0 C :   -0.042299
   1 C :    0.005833
   2 C :    0.048617
   3 C :    0.141093
   4 C :   -0.209339
   5 C :    0.025926
   6 C :    0.084513
   7 C :   -0.264868
   8 S :    0.140864
   9 C :    0.121809
  10 Cl:   -0.090332
  11 C :   -0.117093
  12 C :    0.089691
  13 C :    0.145300
  14 C :   -0.157970
  15 S :    0.119600
  16 C :   -0.215158
  17 C :    0.029270
  18 C :    0.082792
  19 C :   -0.263629
  20 S :    0.148629
  21 C :    0.122851
  22 Cl:   -0.086217
  23 C :   -0.056698
  24 C :   -0.100022
  25 S :    0.134848
  26 C :    0.244996
  27 C :   -0.095851
  28 C :    0.118307
  29 O :   -0.166640
  30 O :   -0.169659
  31 C :   -0.015961
  32 N :    0.035954
  33 O :   -0.161102
  34 C :    0.196845
  35 C :   -0.091853
  36 C :    0.140384
  37 O :   -0.163403
  38 O :   -0.153583
  39 C :    0.068187
  40 N :   -0.040288
  41 O :   -0.130251
  42 C :    0.147325
  43 C :   -0.148653
  44 C :    0.167557
  45 O :   -0.178670
  46 O :   -0.152044
  47 C :    0.013528
  48 N :    0.033572
  49 O :   -0.163829
  50 C :   -0.067176
  51 C :   -0.055322
  52 C :    0.086185
  53 C :    0.136592
  54 C :   -0.211431
  55 C :    0.033124
  56 C :    0.081170
  57 C :   -0.262477
  58 S :    0.141404
  59 C :    0.121147
  60 Cl:   -0.091796
  61 C :   -0.160832
  62 C :    0.053470
  63 C :    0.136675
  64 C :   -0.134161
  65 S :    0.174528
  66 C :   -0.214085
  67 C :    0.040414
  68 C :    0.086428
  69 C :   -0.268705
  70 S :    0.135355
  71 C :    0.124246
  72 Cl:   -0.092525
  73 C :    0.003077
  74 C :   -0.046428
  75 S :    0.107986
  76 H :    0.031309
  77 H :   -0.007655
  78 H :   -0.003797
  79 H :    0.025313
  80 H :    0.038024
  81 H :    0.035179
  82 H :   -0.007721
  83 H :    0.036883
  84 H :    0.036540
  85 H :    0.026126
  86 H :    0.007374
  87 H :    0.204763
  88 H :    0.200935
  89 H :    0.175332
  90 H :   -0.001174
  91 H :   -0.007518
  92 H :    0.033107
  93 H :    0.032176
  94 H :    0.023098
  95 H :   -0.008636
  96 H :    0.041351
  97 H :    0.024039
  98 H :    0.023276
  99 H :   -0.012603
 100 H :    0.024535
Sum of atomic charges:   -0.0000000

LOEWDIN ATOMIC CHARGES
----------------------
   0 C :   -0.153544
   1 C :   -0.071066
   2 C :   -0.035458
   3 C :   -0.056214
   4 C :   -0.173261
   5 C :   -0.079679
   6 C :   -0.178839
   7 C :   -0.196765
   8 S :    0.448641
   9 C :   -0.060916
  10 Cl:    0.127416
  11 C :   -0.140928
  12 C :   -0.044051
  13 C :   -0.044153
  14 C :   -0.154799
  15 S :    0.406551
  16 C :   -0.177521
  17 C :   -0.066147
  18 C :   -0.178234
  19 C :   -0.195459
  20 S :    0.440410
  21 C :   -0.060881
  22 Cl:    0.130290
  23 C :   -0.015401
  24 C :   -0.194454
  25 S :    0.448174
  26 C :    0.063653
  27 C :   -0.123521
  28 C :    0.066358
  29 O :   -0.151193
  30 O :   -0.028218
  31 C :   -0.035445
  32 N :   -0.016256
  33 O :    0.048731
  34 C :    0.064224
  35 C :   -0.082577
  36 C :    0.069225
  37 O :   -0.144284
  38 O :   -0.014988
  39 C :   -0.013967
  40 N :   -0.014117
  41 O :    0.071578
  42 C :    0.038341
  43 C :   -0.116151
  44 C :    0.068914
  45 O :   -0.164250
  46 O :   -0.022704
  47 C :   -0.021715
  48 N :   -0.019468
  49 O :    0.050084
  50 C :   -0.177536
  51 C :   -0.026247
  52 C :   -0.042290
  53 C :   -0.050915
  54 C :   -0.172741
  55 C :   -0.066442
  56 C :   -0.178133
  57 C :   -0.199901
  58 S :    0.435218
  59 C :   -0.061699
  60 Cl:    0.125777
  61 C :   -0.156311
  62 C :   -0.041165
  63 C :   -0.056613
  64 C :   -0.143759
  65 S :    0.466616
  66 C :   -0.171033
  67 C :   -0.074395
  68 C :   -0.176734
  69 C :   -0.200598
  70 S :    0.445184
  71 C :   -0.061288
  72 Cl:    0.126108
  73 C :   -0.071157
  74 C :   -0.161583
  75 S :    0.395312
  76 H :    0.027795
  77 H :    0.021165
  78 H :    0.026169
  79 H :    0.034692
  80 H :    0.040305
  81 H :    0.039562
  82 H :    0.034225
  83 H :    0.040288
  84 H :    0.040003
  85 H :    0.034764
  86 H :    0.038308
  87 H :    0.108182
  88 H :    0.109043
  89 H :    0.046289
  90 H :    0.035889
  91 H :    0.035035
  92 H :    0.038221
  93 H :    0.037936
  94 H :    0.033158
  95 H :    0.026205
  96 H :    0.040995
  97 H :    0.035074
  98 H :    0.033426
  99 H :    0.019021
 100 H :    0.024608

  Mayer bond orders larger than 0.100000
B(  0-C ,  1-C ) :   1.6438 B(  0-C , 15-S ) :   1.1130 B(  0-C , 76-H ) :   0.9662
B(  1-C ,  2-C ) :   1.1885 B(  1-C , 77-H ) :   0.9770 B(  2-C ,  3-C ) :   1.3187
B(  2-C , 14-C ) :   1.2711 B(  3-C ,  4-C ) :   0.9861 B(  3-C , 11-C ) :   1.4082
B(  4-C ,  5-C ) :   1.5508 B(  4-C ,  8-S ) :   1.1338 B(  5-C ,  6-C ) :   1.2205
B(  5-C , 78-H ) :   0.9941 B(  6-C ,  7-C ) :   1.6045 B(  6-C , 10-Cl) :   1.0038
B(  7-C ,  8-S ) :   1.1308 B(  7-C ,  9-C ) :   1.0833 B(  9-C , 79-H ) :   0.9441
B(  9-C , 80-H ) :   0.9488 B(  9-C , 81-H ) :   0.9481 B( 11-C , 12-C ) :   1.2715
B( 11-C , 25-S ) :   1.0461 B( 12-C , 13-C ) :   1.3154 B( 12-C , 23-C ) :   1.1556
B( 13-C , 14-C ) :   1.4076 B( 13-C , 16-C ) :   0.9921 B( 14-C , 15-S ) :   1.0743
B( 16-C , 17-C ) :   1.5423 B( 16-C , 20-S ) :   1.1346 B( 17-C , 18-C ) :   1.2209
B( 17-C , 82-H ) :   1.0086 B( 18-C , 19-C ) :   1.5977 B( 18-C , 22-Cl) :   1.0085
B( 19-C , 20-S ) :   1.1305 B( 19-C , 21-C ) :   1.0835 B( 21-C , 83-H ) :   0.9485
B( 21-C , 84-H ) :   0.9477 B( 21-C , 85-H ) :   0.9441 B( 23-C , 24-C ) :   1.5350
B( 23-C , 86-H ) :   1.0064 B( 24-C , 25-S ) :   1.0768 B( 24-C , 26-C ) :   1.0972
B( 26-C , 27-C ) :   1.4720 B( 26-C , 33-O ) :   1.1907 B( 27-C , 28-C ) :   0.8801
B( 27-C , 31-C ) :   1.2418 B( 28-C , 29-O ) :   2.1851 B( 28-C , 30-O ) :   1.2604
B( 30-O , 87-H ) :   0.9358 B( 31-C , 32-N ) :   1.7141 B( 31-C , 34-C ) :   0.9850
B( 32-N , 33-O ) :   1.0102 B( 34-C , 35-C ) :   1.5759 B( 34-C , 40-N ) :   0.1038
B( 34-C , 41-O ) :   1.2012 B( 35-C , 36-C ) :   0.8454 B( 35-C , 39-C ) :   1.2722
B( 36-C , 37-O ) :   2.1890 B( 36-C , 38-O ) :   1.3054 B( 38-O , 88-H ) :   0.9412
B( 39-C , 40-N ) :   1.6138 B( 39-C , 42-C ) :   0.9671 B( 40-N , 41-O ) :   1.0400
B( 40-N , 89-H ) :   0.1438 B( 42-C , 43-C ) :   1.4955 B( 42-C , 48-N ) :   0.1090
B( 42-C , 49-O ) :   1.2085 B( 43-C , 44-C ) :   0.8887 B( 43-C , 47-C ) :   1.1877
B( 44-C , 45-O ) :   2.1367 B( 44-C , 46-O ) :   1.3150 B( 46-O , 89-H ) :   0.9009
B( 47-C , 48-N ) :   1.7261 B( 47-C , 50-C ) :   1.0153 B( 48-N , 49-O ) :   0.9997
B( 50-C , 51-C ) :   1.5917 B( 50-C , 65-S ) :   1.0899 B( 51-C , 52-C ) :   1.1475
B( 51-C , 90-H ) :   1.0067 B( 52-C , 53-C ) :   1.3156 B( 52-C , 64-C ) :   1.2715
B( 53-C , 54-C ) :   0.9867 B( 53-C , 61-C ) :   1.4069 B( 54-C , 55-C ) :   1.5509
B( 54-C , 58-S ) :   1.1340 B( 55-C , 56-C ) :   1.2158 B( 55-C , 91-H ) :   1.0095
B( 56-C , 57-C ) :   1.6010 B( 56-C , 60-Cl) :   1.0034 B( 57-C , 58-S ) :   1.1278
B( 57-C , 59-C ) :   1.0838 B( 59-C , 92-H ) :   0.9493 B( 59-C , 93-H ) :   0.9486
B( 59-C , 94-H ) :   0.9444 B( 61-C , 62-C ) :   1.2768 B( 61-C , 75-S ) :   1.0705
B( 62-C , 63-C ) :   1.3245 B( 62-C , 73-C ) :   1.1813 B( 63-C , 64-C ) :   1.3992
B( 63-C , 66-C ) :   0.9838 B( 64-C , 65-S ) :   1.0859 B( 66-C , 67-C ) :   1.5576
B( 66-C , 70-S ) :   1.1317 B( 67-C , 68-C ) :   1.2223 B( 67-C , 95-H ) :   0.9941
B( 68-C , 69-C ) :   1.6061 B( 68-C , 72-Cl) :   1.0049 B( 69-C , 70-S ) :   1.1284
B( 69-C , 71-C ) :   1.0837 B( 71-C , 96-H ) :   0.9491 B( 71-C , 97-H ) :   0.9475
B( 71-C , 98-H ) :   0.9445 B( 73-C , 74-C ) :   1.6503 B( 73-C , 99-H ) :   0.9771
B( 74-C , 75-S ) :   1.1062 B( 74-C ,100-H ) :   0.9655

-----------------------------------------------------------------------------
         ABSORPTION SPECTRUM VIA TRANSITION ELECTRIC DIPOLE MOMENTS
-----------------------------------------------------------------------------
State   Energy  Wavelength   fosc         T2         TX        TY        TZ
        (cm-1)    (nm)                  (au**2)     (au)      (au)      (au)
-----------------------------------------------------------------------------
   0   24474.8    408.6   0.452105615   6.08130  -0.04821  -2.46554  -0.00903
   1   25637.5    390.1   0.014175587   0.18203   0.34784   0.10520   0.22353
   2   27020.2    370.1   0.586295227   7.14337   2.23449  -1.44881   0.22662
   3   29402.3    340.1   0.000871459   0.00976   0.09053  -0.02132   0.03326
   4   31274.6    319.7   0.312682073   3.29145   0.57314   1.70763   0.21668
   5   31488.5    317.6   0.196584997   2.05529   1.22060  -0.67391   0.33359
   6   32002.1    312.5   0.079787439   0.82079  -0.64472   0.63492  -0.04474
   7   32087.7    311.6   0.002334222   0.02395  -0.13741   0.06878   0.01830
   8   32527.4    307.4   0.996622525  10.08688   2.84904   1.02828   0.95524
   9   33196.1    301.2   0.007953096   0.07887   0.20773   0.01992   0.18795
  10   33844.6    295.5   0.280238309   2.72592  -1.56837  -0.14774  -0.49427
  11   35243.3    283.7   0.072361443   0.67594   0.21339   0.76464   0.21384
  12   35287.3    283.4   0.689857484   6.43601  -1.54124  -1.90090  -0.66869
  13   36557.7    273.5   0.002957919   0.02664   0.14638  -0.01535   0.07052
  14   36789.4    271.8   0.002779960   0.02488   0.06030   0.05111   0.13649
  15   36975.8    270.4   0.269645944   2.40078   0.11506  -1.53922  -0.13544
  16   37499.3    266.7   0.019074300   0.16746  -0.01592  -0.37516   0.16267
  17   37763.1    264.8   0.074529400   0.64973  -0.61356  -0.46040  -0.24761
  18   38083.4    262.6   0.000388217   0.00336   0.03056  -0.04339   0.02323
  19   38229.4    261.6   0.175411085   1.51055  -0.78766  -0.88251  -0.33364
  20   38345.1    260.8   0.081827885   0.70253   0.77542   0.15826   0.27607
  21   38399.4    260.4   0.003389589   0.02906  -0.04145  -0.15101  -0.06737
  22   38629.1    258.9   0.101303932   0.86335  -0.64419  -0.57376  -0.34522
  23   38896.1    257.1   0.039977957   0.33837   0.31382   0.48490  -0.06894
  24   38962.7    256.7   0.000927188   0.00783   0.07252   0.04451   0.02435
  25   40112.8    249.3   0.057818447   0.47452   0.34894   0.56686   0.17730
  26   40169.7    248.9   0.074224440   0.60831  -0.40925  -0.65655  -0.09883
  27   40209.5    248.7   0.014181580   0.11611   0.28153   0.19057   0.02314

FINAL SINGLE POINT ENERGY     -7859.170334125724

DIPOLE MOMENT
-------------
                                X             Y             Z
Electronic contribution:     -0.23657      -1.65118      -1.26804
Nuclear contribution   :     -3.11542      -1.17346       0.78831
                        -----------------------------------------
Total Dipole Moment    :     -3.35199      -2.82464      -0.47973
                        -----------------------------------------
Magnitude (a.u.)       :      4.40960
Magnitude (Debye)      :     11.20832

Rotational constants in cm-1:     0.001047     0.000191     0.000165
Rotational constants in MHz :    31.395437     5.728193     4.934823

                             ****ORCA TERMINATED NORMALLY****
TOTAL RUN TIME: 0 days 0 hours 9 minutes 7 seconds 505 msec
