                         Program Version 4.2.0 -  RELEASE  -
|  1> # ORCA input file
|  2> # SCF done       -170.222802917481          0.000213103909
|  3> ! CAM-B3LYP def2-SVP def2/J RIJCOSX Grid4 TightSCF
|  4> %maxcore 5000
|  5> %tddft
|  6>     Mode sTDDFT
|  7>     Ethresh 5.0
|  8>     maxcore 5000
|  9> end
| 10>
| 11> %pal
| 12>   nprocs 6
| 13>   end
| 14> * xyz 0 1
| 15>    C       -3.84112        -1.50138        -0.31690
| 16>    C       -3.19382        -0.36289        -0.63434
| 17>    C       -1.77547        -0.51497        -0.65324
| 18>    C       -0.80390         0.45448        -0.95639
| 19>    C       -1.18039         1.78789        -1.38625
| 20>    C       -2.14284         2.13557        -2.28920
| 21>    C       -2.23303         3.53244        -2.47497
| 22>    C       -1.35795         4.25984        -1.72295
| 23>    S       -0.38251         3.20306        -0.75902
| 24>    C       -1.18023         5.73277        -1.66326
| 25>   Cl       -3.36145         4.24162        -3.56826
| 26>    C        0.52560         0.06083        -0.84729
| 27>    C        0.91622        -1.25853        -0.50795
| 28>    C       -0.05695        -2.24012        -0.23331
| 29>    C       -1.38595        -1.82813        -0.29860
| 30>    S       -2.78196        -2.83319        -0.00764
| 31>    C        0.28866        -3.60854         0.09443
| 32>    C       -0.32176        -4.43162         0.99786
| 33>    C        0.24775        -5.72190         1.03546
| 34>    C        1.27937        -5.91048         0.16299
| 35>    S        1.57357        -4.45487        -0.72602
| 36>    C        2.10443        -7.12847        -0.04655
| 37>   Cl       -0.32151        -6.95208         2.09757
| 38>    C        2.32330        -1.39387        -0.48189
| 39>    C        2.99388        -0.24869        -0.80516
| 40>    S        1.90352         1.07716        -1.14575
| 41>    C        4.41999        -0.10647        -0.88160
| 42>    C        5.08229         1.09869        -1.07098
| 43>    F        4.37622         2.23957        -1.18409
| 44>    C        6.47584         1.20824        -1.14691
| 45>    F        6.98109         2.44834        -1.31796
| 46>    C        7.35463         0.13270        -1.06277
| 47>    C        6.70504        -1.11382        -0.87680
| 48>    C        5.28472        -1.22514        -0.77966
| 49>    N        5.00115        -2.52378        -0.60689
| 50>    N        6.16220        -3.11624        -0.60548
| 51>    N        7.20735        -2.35108        -0.75752
| 52>    C        6.27138        -4.53252        -0.43688
| 53>    C        8.76906         0.32172        -1.15864
| 54>    C        9.67974        -0.68000        -1.15491
| 55>    C       11.09388        -0.52351        -1.24050
| 56>    C       11.76889         0.64706        -1.14438
| 57>    C       13.18520         0.75687        -1.26064
| 58>    C       14.05463         1.80640        -1.00318
| 59>    O       13.80812         3.02990        -0.46260
| 60>    C       12.56911         3.34245         0.12613
| 61>    C       15.41253         1.49967        -1.33309
| 62>    O       16.51058         2.27140        -1.15173
| 63>    C       16.38512         3.67908        -1.14220
| 64>    C       15.57300         0.21837        -1.81190
| 65>    S       14.06967        -0.63508        -1.85098
| 66>    C       16.80438        -0.37443        -2.28735
| 67>    C       17.70100         0.30039        -3.06249
| 68>    F       17.58301         1.54681        -3.51418
| 69>    S       19.08610        -0.62224        -3.53364
| 70>    C       18.42379        -1.96903        -2.66876
| 71>    F       19.13048        -3.09926        -2.63594
| 72>    C       17.23129        -1.73127        -2.05235
| 73>    C       16.49970        -2.67099        -1.22013
| 74>    C       16.64727        -3.98983        -1.23155
| 75>    H       -4.89842        -1.65784        -0.22905
| 76>    H       -3.69022         0.56910        -0.83133
| 77>    H       -2.73823         1.42870        -2.83707
| 78>    H       -0.15163         6.00231        -1.89951
| 79>    H       -1.40367         6.10660        -0.66433
| 80>    H       -1.84614         6.21257        -2.37629
| 81>    H       -1.12521        -4.12925         1.64286
| 82>    H        1.54541        -8.00814         0.26439
| 83>    H        3.01971        -7.07958         0.54558
| 84>    H        2.38026        -7.22907        -1.09391
| 85>    H        2.84386        -2.29631        -0.22792
| 86>    H        6.66967        -4.76381         0.55246
| 87>    H        6.94497        -4.93828        -1.19054
| 88>    H        5.27630        -4.95829        -0.54426
| 89>    H        9.08554         1.35028        -1.25909
| 90>    H        9.31135        -1.69379        -1.09378
| 91>    H       11.66803        -1.43191        -1.37223
| 92>    H       11.21026         1.55415        -0.98756
| 93>    H       12.21749         2.54032         0.77986
| 94>    H       11.81288         3.57301        -0.62973
| 95>    H       12.75298         4.23854         0.71970
| 96>    H       15.75668         4.02896        -1.96313
| 97>    H       17.39866         4.05493        -1.27587
| 98>    H       15.98034         4.03934        -0.19429
| 99>    H       15.78356        -2.21369        -0.55206
|100>    H       17.33214        -4.49233        -1.89153
|101>    H       16.07239        -4.61566        -0.57167
|102> *
|103>
|104>                          ****END OF INPUT****

CARTESIAN COORDINATES (ANGSTROEM)
---------------------------------
  C     -3.841120   -1.501380   -0.316900
  C     -3.193820   -0.362890   -0.634340
  C     -1.775470   -0.514970   -0.653240
  C     -0.803900    0.454480   -0.956390
  C     -1.180390    1.787890   -1.386250
  C     -2.142840    2.135570   -2.289200
  C     -2.233030    3.532440   -2.474970
  C     -1.357950    4.259840   -1.722950
  S     -0.382510    3.203060   -0.759020
  C     -1.180230    5.732770   -1.663260
  Cl    -3.361450    4.241620   -3.568260
  C      0.525600    0.060830   -0.847290
  C      0.916220   -1.258530   -0.507950
  C     -0.056950   -2.240120   -0.233310
  C     -1.385950   -1.828130   -0.298600
  S     -2.781960   -2.833190   -0.007640
  C      0.288660   -3.608540    0.094430
  C     -0.321760   -4.431620    0.997860
  C      0.247750   -5.721900    1.035460
  C      1.279370   -5.910480    0.162990
  S      1.573570   -4.454870   -0.726020
  C      2.104430   -7.128470   -0.046550
  Cl    -0.321510   -6.952080    2.097570
  C      2.323300   -1.393870   -0.481890
  C      2.993880   -0.248690   -0.805160
  S      1.903520    1.077160   -1.145750
  C      4.419990   -0.106470   -0.881600
  C      5.082290    1.098690   -1.070980
  F      4.376220    2.239570   -1.184090
  C      6.475840    1.208240   -1.146910
  F      6.981090    2.448340   -1.317960
  C      7.354630    0.132700   -1.062770
  C      6.705040   -1.113820   -0.876800
  C      5.284720   -1.225140   -0.779660
  N      5.001150   -2.523780   -0.606890
  N      6.162200   -3.116240   -0.605480
  N      7.207350   -2.351080   -0.757520
  C      6.271380   -4.532520   -0.436880
  C      8.769060    0.321720   -1.158640
  C      9.679740   -0.680000   -1.154910
  C     11.093880   -0.523510   -1.240500
  C     11.768890    0.647060   -1.144380
  C     13.185200    0.756870   -1.260640
  C     14.054630    1.806400   -1.003180
  O     13.808120    3.029900   -0.462600
  C     12.569110    3.342450    0.126130
  C     15.412530    1.499670   -1.333090
  O     16.510580    2.271400   -1.151730
  C     16.385120    3.679080   -1.142200
  C     15.573000    0.218370   -1.811900
  S     14.069670   -0.635080   -1.850980
  C     16.804380   -0.374430   -2.287350
  C     17.701000    0.300390   -3.062490
  F     17.583010    1.546810   -3.514180
  S     19.086100   -0.622240   -3.533640
  C     18.423790   -1.969030   -2.668760
  F     19.130480   -3.099260   -2.635940
  C     17.231290   -1.731270   -2.052350
  C     16.499700   -2.670990   -1.220130
  C     16.647270   -3.989830   -1.231550
  H     -4.898420   -1.657840   -0.229050
  H     -3.690220    0.569100   -0.831330
  H     -2.738230    1.428700   -2.837070
  H     -0.151630    6.002310   -1.899510
  H     -1.403670    6.106600   -0.664330
  H     -1.846140    6.212570   -2.376290
  H     -1.125210   -4.129250    1.642860
  H      1.545410   -8.008140    0.264390
  H      3.019710   -7.079580    0.545580
  H      2.380260   -7.229070   -1.093910
  H      2.843860   -2.296310   -0.227920
  H      6.669670   -4.763810    0.552460
  H      6.944970   -4.938280   -1.190540
  H      5.276300   -4.958290   -0.544260
  H      9.085540    1.350280   -1.259090
  H      9.311350   -1.693790   -1.093780
  H     11.668030   -1.431910   -1.372230
  H     11.210260    1.554150   -0.987560
  H     12.217490    2.540320    0.779860
  H     11.812880    3.573010   -0.629730
  H     12.752980    4.238540    0.719700
  H     15.756680    4.028960   -1.963130
  H     17.398660    4.054930   -1.275870
  H     15.980340    4.039340   -0.194290
  H     15.783560   -2.213690   -0.552060
  H     17.332140   -4.492330   -1.891530
  H     16.072390   -4.615660   -0.571670

 Total Charge           Charge          ....    0
 Multiplicity           Mult            ....    1
 Number of Electrons    NEL             ....  488
 Basis Dimension        Dim             .... 1007

ORBITAL ENERGIES
----------------

  NO   OCC          E(Eh)            E(eV)
   0   2.0000    -101.579832     -2764.1277
   1   2.0000    -101.577577     -2764.0664
   2   2.0000     -88.966969     -2420.9143
   3   2.0000     -88.953311     -2420.5426
   4   2.0000     -88.949770     -2420.4463
   5   2.0000     -88.946662     -2420.3617
   6   2.0000     -88.942880     -2420.2588
   7   2.0000     -88.940923     -2420.2056
   8   2.0000     -24.796824      -674.7559
   9   2.0000     -24.792339      -674.6339
  10   2.0000     -24.791957      -674.6234
  11   2.0000     -24.786706      -674.4806
  12   2.0000     -19.255391      -523.9658
  13   2.0000     -19.234953      -523.4097
  14   2.0000     -14.545156      -395.7938
  15   2.0000     -14.447198      -393.1282
  16   2.0000     -14.446886      -393.1197
  17   2.0000     -10.371611      -282.2259
  18   2.0000     -10.371269      -282.2166
  19   2.0000     -10.369169      -282.1594
  20   2.0000     -10.364559      -282.0340
  21   2.0000     -10.340594      -281.3819
  22   2.0000     -10.330757      -281.1142
  23   2.0000     -10.327835      -281.0347
  24   2.0000     -10.327586      -281.0279
  25   2.0000     -10.313188      -280.6361
  26   2.0000     -10.311073      -280.5786
  27   2.0000     -10.310342      -280.5587
  28   2.0000     -10.309623      -280.5391
  29   2.0000     -10.307938      -280.4932
  30   2.0000     -10.303380      -280.3692
  31   2.0000     -10.301743      -280.3247
  32   2.0000     -10.300994      -280.3043
  33   2.0000     -10.298932      -280.2482
  34   2.0000     -10.298333      -280.2319
  35   2.0000     -10.297785      -280.2170
  36   2.0000     -10.297140      -280.1994
  37   2.0000     -10.296235      -280.1748
  38   2.0000     -10.295951      -280.1671
  39   2.0000     -10.294449      -280.1262
  40   2.0000     -10.294425      -280.1256
  41   2.0000     -10.290669      -280.0233
  42   2.0000     -10.290357      -280.0148
  43   2.0000     -10.289016      -279.9784
  44   2.0000     -10.287802      -279.9453
  45   2.0000     -10.282951      -279.8133
  46   2.0000     -10.282772      -279.8085
  47   2.0000     -10.279230      -279.7121
  48   2.0000     -10.278069      -279.6805
  49   2.0000     -10.277354      -279.6610
  50   2.0000     -10.272682      -279.5339
  51   2.0000     -10.271416      -279.4994
  52   2.0000     -10.271045      -279.4893
  53   2.0000     -10.271029      -279.4889
  54   2.0000     -10.269962      -279.4599
  55   2.0000     -10.269104      -279.4365
  56   2.0000     -10.267280      -279.3869
  57   2.0000     -10.266886      -279.3762
  58   2.0000     -10.261586      -279.2319
  59   2.0000     -10.258001      -279.1344
  60   2.0000      -9.534597      -259.4496
  61   2.0000      -9.532273      -259.3863
  62   2.0000      -8.064290      -219.4405
  63   2.0000      -8.048678      -219.0157
  64   2.0000      -8.045420      -218.9270
  65   2.0000      -8.041893      -218.8310
  66   2.0000      -8.038605      -218.7416
  67   2.0000      -8.036105      -218.6735
  68   2.0000      -7.304825      -198.7744
  69   2.0000      -7.302491      -198.7109
  70   2.0000      -7.294746      -198.5001
  71   2.0000      -7.294549      -198.4948
  72   2.0000      -7.292370      -198.4355
  73   2.0000      -7.292302      -198.4336
  74   2.0000      -6.033446      -164.1784
  75   2.0000      -6.029902      -164.0820
  76   2.0000      -6.025639      -163.9660
  77   2.0000      -6.017980      -163.7576
  78   2.0000      -6.014721      -163.6689
  79   2.0000      -6.013847      -163.6451
  80   2.0000      -6.011355      -163.5773
  81   2.0000      -6.010750      -163.5608
  82   2.0000      -6.010496      -163.5539
  83   2.0000      -6.008320      -163.4947
  84   2.0000      -6.007567      -163.4742
  85   2.0000      -6.007521      -163.4730
  86   2.0000      -6.005826      -163.4268
  87   2.0000      -6.003875      -163.3738
  88   2.0000      -6.003315      -163.3585
  89   2.0000      -6.001470      -163.3083
  90   2.0000      -6.000091      -163.2708
  91   2.0000      -5.997392      -163.1973
  92   2.0000      -1.311908       -35.6988
  93   2.0000      -1.311826       -35.6966
  94   2.0000      -1.307881       -35.5893
  95   2.0000      -1.293186       -35.1894
  96   2.0000      -1.223953       -33.3054
  97   2.0000      -1.160713       -31.5846
  98   2.0000      -1.134333       -30.8668
  99   2.0000      -1.005149       -27.3515
 100   2.0000      -0.997473       -27.1426
 101   2.0000      -0.995696       -27.0943
 102   2.0000      -0.991948       -26.9923
 103   2.0000      -0.991185       -26.9715
 104   2.0000      -0.985430       -26.8149
 105   2.0000      -0.971513       -26.4362
 106   2.0000      -0.966190       -26.2914
 107   2.0000      -0.938675       -25.5426
 108   2.0000      -0.934411       -25.4266
 109   2.0000      -0.928831       -25.2748
 110   2.0000      -0.913554       -24.8591
 111   2.0000      -0.901854       -24.5407
 112   2.0000      -0.891624       -24.2623
 113   2.0000      -0.886872       -24.1330
 114   2.0000      -0.879313       -23.9273
 115   2.0000      -0.859860       -23.3980
 116   2.0000      -0.854376       -23.2488
 117   2.0000      -0.846207       -23.0265
 118   2.0000      -0.842689       -22.9307
 119   2.0000      -0.829879       -22.5821
 120   2.0000      -0.824906       -22.4468
 121   2.0000      -0.815990       -22.2042
 122   2.0000      -0.809376       -22.0242
 123   2.0000      -0.805450       -21.9174
 124   2.0000      -0.799595       -21.7581
 125   2.0000      -0.795790       -21.6546
 126   2.0000      -0.793871       -21.6023
 127   2.0000      -0.785624       -21.3779
 128   2.0000      -0.776319       -21.1247
 129   2.0000      -0.771372       -20.9901
 130   2.0000      -0.754327       -20.5263
 131   2.0000      -0.740999       -20.1636
 132   2.0000      -0.738795       -20.1036
 133   2.0000      -0.734163       -19.9776
 134   2.0000      -0.714714       -19.4483
 135   2.0000      -0.708144       -19.2696
 136   2.0000      -0.697555       -18.9814
 137   2.0000      -0.688547       -18.7363
 138   2.0000      -0.680174       -18.5085
 139   2.0000      -0.671070       -18.2608
 140   2.0000      -0.663963       -18.0674
 141   2.0000      -0.652022       -17.7424
 142   2.0000      -0.650058       -17.6890
 143   2.0000      -0.647328       -17.6147
 144   2.0000      -0.644685       -17.5428
 145   2.0000      -0.638155       -17.3651
 146   2.0000      -0.634882       -17.2760
 147   2.0000      -0.631545       -17.1852
 148   2.0000      -0.621989       -16.9252
 149   2.0000      -0.619346       -16.8533
 150   2.0000      -0.614237       -16.7142
 151   2.0000      -0.609538       -16.5864
 152   2.0000      -0.608698       -16.5635
 153   2.0000      -0.601674       -16.3724
 154   2.0000      -0.599764       -16.3204
 155   2.0000      -0.594317       -16.1722
 156   2.0000      -0.589094       -16.0301
 157   2.0000      -0.585480       -15.9317
 158   2.0000      -0.580427       -15.7942
 159   2.0000      -0.576052       -15.6752
 160   2.0000      -0.575627       -15.6636
 161   2.0000      -0.572694       -15.5838
 162   2.0000      -0.568477       -15.4690
 163   2.0000      -0.566678       -15.4201
 164   2.0000      -0.563862       -15.3435
 165   2.0000      -0.562800       -15.3146
 166   2.0000      -0.556618       -15.1463
 167   2.0000      -0.555547       -15.1172
 168   2.0000      -0.541466       -14.7340
 169   2.0000      -0.539662       -14.6850
 170   2.0000      -0.537184       -14.6175
 171   2.0000      -0.536911       -14.6101
 172   2.0000      -0.534364       -14.5408
 173   2.0000      -0.525986       -14.3128
 174   2.0000      -0.523832       -14.2542
 175   2.0000      -0.518906       -14.1202
 176   2.0000      -0.517767       -14.0892
 177   2.0000      -0.514402       -13.9976
 178   2.0000      -0.513933       -13.9848
 179   2.0000      -0.512598       -13.9485
 180   2.0000      -0.510244       -13.8845
 181   2.0000      -0.509183       -13.8556
 182   2.0000      -0.507142       -13.8000
 183   2.0000      -0.503116       -13.6905
 184   2.0000      -0.498477       -13.5643
 185   2.0000      -0.495993       -13.4967
 186   2.0000      -0.493514       -13.4292
 187   2.0000      -0.488658       -13.2971
 188   2.0000      -0.488600       -13.2955
 189   2.0000      -0.487961       -13.2781
 190   2.0000      -0.478859       -13.0304
 191   2.0000      -0.474849       -12.9213
 192   2.0000      -0.473523       -12.8852
 193   2.0000      -0.470813       -12.8115
 194   2.0000      -0.467413       -12.7189
 195   2.0000      -0.464565       -12.6415
 196   2.0000      -0.464243       -12.6327
 197   2.0000      -0.461060       -12.5461
 198   2.0000      -0.459065       -12.4918
 199   2.0000      -0.458319       -12.4715
 200   2.0000      -0.455082       -12.3834
 201   2.0000      -0.452762       -12.3203
 202   2.0000      -0.448722       -12.2103
 203   2.0000      -0.447245       -12.1702
 204   2.0000      -0.443152       -12.0588
 205   2.0000      -0.440877       -11.9969
 206   2.0000      -0.439069       -11.9477
 207   2.0000      -0.437805       -11.9133
 208   2.0000      -0.432192       -11.7605
 209   2.0000      -0.430913       -11.7257
 210   2.0000      -0.423569       -11.5259
 211   2.0000      -0.419236       -11.4080
 212   2.0000      -0.417177       -11.3520
 213   2.0000      -0.415347       -11.3022
 214   2.0000      -0.413522       -11.2525
 215   2.0000      -0.410117       -11.1598
 216   2.0000      -0.409554       -11.1445
 217   2.0000      -0.406705       -11.0670
 218   2.0000      -0.404711       -11.0127
 219   2.0000      -0.402166       -10.9435
 220   2.0000      -0.392446       -10.6790
 221   2.0000      -0.387692       -10.5496
 222   2.0000      -0.384187       -10.4543
 223   2.0000      -0.376509       -10.2453
 224   2.0000      -0.375067       -10.2061
 225   2.0000      -0.373700       -10.1689
 226   2.0000      -0.373156       -10.1541
 227   2.0000      -0.370912       -10.0930
 228   2.0000      -0.369726       -10.0608
 229   2.0000      -0.365792        -9.9537
 230   2.0000      -0.346220        -9.4211
 231   2.0000      -0.323157        -8.7936
 232   2.0000      -0.319716        -8.6999
 233   2.0000      -0.314710        -8.5637
 234   2.0000      -0.310242        -8.4421
 235   2.0000      -0.306802        -8.3485
 236   2.0000      -0.299603        -8.1526
 237   2.0000      -0.292971        -7.9721
 238   2.0000      -0.286882        -7.8065
 239   2.0000      -0.279252        -7.5988
 240   2.0000      -0.276658        -7.5283
 241   2.0000      -0.266391        -7.2489
 242   2.0000      -0.241973        -6.5844
 243   2.0000      -0.227644        -6.1945
 244   0.0000      -0.065391        -1.7794
 245   0.0000      -0.026881        -0.7315
 246   0.0000      -0.010919        -0.2971
 247   0.0000       0.009341         0.2542
 248   0.0000       0.014276         0.3885

MULLIKEN ATOMIC CHARGES
-----------------------
   0 C :   -0.045940
   1 C :   -0.000379
   2 C :    0.062814
   3 C :    0.123754
   4 C :   -0.212851
   5 C :    0.033895
   6 C :    0.080527
   7 C :   -0.265207
   8 S :    0.147742
   9 C :    0.123010
  10 Cl:   -0.095195
  11 C :   -0.127510
  12 C :    0.090932
  13 C :    0.144124
  14 C :   -0.163039
  15 S :    0.101716
  16 C :   -0.210113
  17 C :    0.030780
  18 C :    0.087291
  19 C :   -0.269036
  20 S :    0.142564
  21 C :    0.118576
  22 Cl:   -0.093813
  23 C :   -0.090322
  24 C :   -0.096446
  25 S :    0.133697
  26 C :    0.085158
  27 C :    0.120097
  28 F :   -0.176863
  29 C :    0.157246
  30 F :   -0.186093
  31 C :    0.006546
  32 C :   -0.014023
  33 C :   -0.030390
  34 N :   -0.061536
  35 N :   -0.060798
  36 N :   -0.071594
  37 C :    0.149560
  38 C :   -0.042686
  39 C :    0.034518
  40 C :   -0.013655
  41 C :    0.033375
  42 C :   -0.173017
  43 C :    0.173486
  44 O :   -0.324606
  45 C :    0.176479
  46 C :    0.192509
  47 O :   -0.310983
  48 C :    0.208107
  49 C :   -0.215094
  50 S :    0.121201
  51 C :    0.088467
  52 C :    0.064979
  53 F :   -0.156091
  54 S :    0.088703
  55 C :    0.030232
  56 F :   -0.163555
  57 C :    0.079758
  58 C :   -0.033093
  59 C :   -0.009607
  60 H :    0.026770
  61 H :   -0.010179
  62 H :   -0.011451
  63 H :    0.033602
  64 H :    0.033967
  65 H :    0.022675
  66 H :   -0.007253
  67 H :    0.029301
  68 H :    0.035267
  69 H :    0.022093
  70 H :    0.000017
  71 H :    0.054535
  72 H :    0.053571
  73 H :    0.046207
  74 H :   -0.031702
  75 H :   -0.002680
  76 H :   -0.008098
  77 H :   -0.028642
  78 H :    0.037346
  79 H :    0.039858
  80 H :    0.034480
  81 H :    0.014450
  82 H :    0.026205
  83 H :    0.022626
  84 H :    0.007451
  85 H :    0.022403
  86 H :    0.018875
Sum of atomic charges:   -0.0000000

LOEWDIN ATOMIC CHARGES
----------------------
   0 C :   -0.162681
   1 C :   -0.062925
   2 C :   -0.038305
   3 C :   -0.056896
   4 C :   -0.172605
   5 C :   -0.069631
   6 C :   -0.179111
   7 C :   -0.199867
   8 S :    0.439658
   9 C :   -0.061422
  10 Cl:    0.122977
  11 C :   -0.153250
  12 C :   -0.043802
  13 C :   -0.053155
  14 C :   -0.148270
  15 S :    0.409955
  16 C :   -0.168765
  17 C :   -0.076662
  18 C :   -0.177962
  19 C :   -0.204827
  20 S :    0.455075
  21 C :   -0.061977
  22 Cl:    0.124210
  23 C :   -0.056807
  24 C :   -0.155319
  25 S :    0.409606
  26 C :   -0.068175
  27 C :    0.059668
  28 F :   -0.053373
  29 C :    0.059941
  30 F :   -0.060951
  31 C :   -0.047756
  32 C :   -0.042959
  33 C :   -0.042183
  34 N :   -0.080941
  35 N :    0.153740
  36 N :   -0.087115
  37 C :    0.033981
  38 C :   -0.035199
  39 C :   -0.007153
  40 C :   -0.053612
  41 C :   -0.025170
  42 C :   -0.214565
  43 C :    0.005304
  44 O :   -0.097727
  45 C :    0.080935
  46 C :    0.004007
  47 O :   -0.104051
  48 C :    0.080032
  49 C :   -0.201262
  50 S :    0.443756
  51 C :   -0.101669
  52 C :   -0.078156
  53 F :   -0.047319
  54 S :    0.413918
  55 C :   -0.082457
  56 F :   -0.051072
  57 C :   -0.091361
  58 C :   -0.034021
  59 C :   -0.036690
  60 H :    0.025105
  61 H :    0.031927
  62 H :    0.033315
  63 H :    0.038755
  64 H :    0.038530
  65 H :    0.032990
  66 H :    0.025762
  67 H :    0.036460
  68 H :    0.036734
  69 H :    0.033805
  70 H :    0.013749
  71 H :    0.040979
  72 H :    0.041646
  73 H :    0.039281
  74 H :    0.022744
  75 H :    0.027938
  76 H :    0.019648
  77 H :    0.027242
  78 H :    0.021662
  79 H :    0.017510
  80 H :    0.029030
  81 H :    0.014492
  82 H :    0.022126
  83 H :    0.012561
  84 H :    0.023311
  85 H :    0.020702
  86 H :    0.024408

  Mayer bond orders larger than 0.100000
B(  0-C ,  1-C ) :   1.6392 B(  0-C , 15-S ) :   1.1032 B(  0-C , 60-H ) :   0.9671
B(  1-C ,  2-C ) :   1.1791 B(  1-C , 61-H ) :   0.9899 B(  2-C ,  3-C ) :   1.3422
B(  2-C , 14-C ) :   1.2746 B(  3-C ,  4-C ) :   0.9738 B(  3-C , 11-C ) :   1.3925
B(  4-C ,  5-C ) :   1.5539 B(  4-C ,  8-S ) :   1.1399 B(  5-C ,  6-C ) :   1.2144
B(  5-C , 62-H ) :   1.0089 B(  6-C ,  7-C ) :   1.6039 B(  6-C , 10-Cl) :   0.9996
B(  7-C ,  8-S ) :   1.1292 B(  7-C ,  9-C ) :   1.0825 B(  9-C , 63-H ) :   0.9481
B(  9-C , 64-H ) :   0.9493 B(  9-C , 65-H ) :   0.9449 B( 11-C , 12-C ) :   1.2744
B( 11-C , 25-S ) :   1.0458 B( 12-C , 13-C ) :   1.3058 B( 12-C , 23-C ) :   1.1488
B( 13-C , 14-C ) :   1.4238 B( 13-C , 16-C ) :   0.9886 B( 14-C , 15-S ) :   1.0669
B( 16-C , 17-C ) :   1.5486 B( 16-C , 20-S ) :   1.1381 B( 17-C , 18-C ) :   1.2275
B( 17-C , 66-H ) :   0.9947 B( 18-C , 19-C ) :   1.5979 B( 18-C , 22-Cl) :   1.0121
B( 19-C , 20-S ) :   1.1340 B( 19-C , 21-C ) :   1.0862 B( 21-C , 67-H ) :   0.9449
B( 21-C , 68-H ) :   0.9500 B( 21-C , 69-H ) :   0.9479 B( 23-C , 24-C ) :   1.6070
B( 23-C , 70-H ) :   0.9621 B( 24-C , 25-S ) :   1.0601 B( 24-C , 26-C ) :   1.1202
B( 26-C , 27-C ) :   1.3634 B( 26-C , 31-C ) :   0.1283 B( 26-C , 33-C ) :   1.1764
B( 27-C , 28-F ) :   1.1442 B( 27-C , 29-C ) :   1.1887 B( 29-C , 30-F ) :   1.1260
B( 29-C , 31-C ) :   1.3679 B( 31-C , 32-C ) :   1.1344 B( 31-C , 38-C ) :   1.1548
B( 32-C , 33-C ) :   1.2262 B( 32-C , 36-N ) :   1.4688 B( 33-C , 34-N ) :   1.4790
B( 34-N , 35-N ) :   1.2313 B( 34-N , 36-N ) :   0.1627 B( 35-N , 36-N ) :   1.2121
B( 35-N , 37-C ) :   0.9547 B( 37-C , 71-H ) :   0.9701 B( 37-C , 72-H ) :   0.9686
B( 37-C , 73-H ) :   0.9658 B( 38-C , 39-C ) :   1.6521 B( 38-C , 74-H ) :   0.9614
B( 39-C , 40-C ) :   1.1312 B( 39-C , 75-H ) :   0.9561 B( 40-C , 41-C ) :   1.6768
B( 40-C , 76-H ) :   0.9718 B( 41-C , 42-C ) :   1.1440 B( 41-C , 77-H ) :   0.9674
B( 42-C , 43-C ) :   1.4334 B( 42-C , 49-C ) :   0.1253 B( 42-C , 50-S ) :   1.0708
B( 43-C , 44-O ) :   1.1625 B( 43-C , 46-C ) :   1.1799 B( 44-O , 45-C ) :   0.9488
B( 45-C , 78-H ) :   0.9664 B( 45-C , 79-H ) :   0.9689 B( 45-C , 80-H ) :   0.9738
B( 46-C , 47-O ) :   1.2001 B( 46-C , 49-C ) :   1.5871 B( 47-O , 48-C ) :   0.9359
B( 48-C , 81-H ) :   0.9723 B( 48-C , 82-H ) :   0.9791 B( 48-C , 83-H ) :   0.9753
B( 49-C , 50-S ) :   1.1065 B( 49-C , 51-C ) :   0.9792 B( 51-C , 52-C ) :   1.5032
B( 51-C , 57-C ) :   1.1808 B( 52-C , 53-F ) :   1.1372 B( 52-C , 54-S ) :   1.1097
B( 54-S , 55-C ) :   1.1163 B( 55-C , 56-F ) :   1.1116 B( 55-C , 57-C ) :   1.4706
B( 57-C , 58-C ) :   1.0675 B( 58-C , 59-C ) :   1.9710 B( 58-C , 84-H ) :   0.9467
B( 59-C , 85-H ) :   0.9571 B( 59-C , 86-H ) :   0.9461

-----------------------------------------------------------------------------
         ABSORPTION SPECTRUM VIA TRANSITION ELECTRIC DIPOLE MOMENTS
-----------------------------------------------------------------------------
State   Energy  Wavelength   fosc         T2         TX        TY        TZ
        (cm-1)    (nm)                  (au**2)     (au)      (au)      (au)
-----------------------------------------------------------------------------
   0   20476.8    488.4   1.838852557  29.56382  -5.32038  -0.99372   0.51950
   1   24142.0    414.2   0.197507532   2.69331  -1.16144   1.14461  -0.18504
   2   29035.8    344.4   0.204704038   2.32096  -0.03783   1.51871  -0.11419
   3   29261.0    341.8   0.264025562   2.97052  -1.36108   0.96516  -0.43179
   4   30557.8    327.2   0.074377181   0.80130  -0.74609   0.25842   0.42175
   5   31473.9    317.7   0.191585897   2.00396   0.56265   1.27778  -0.23381
   6   33480.1    298.7   0.035476655   0.34884   0.13232  -0.56796   0.09359
   7   33990.2    294.2   0.039088972   0.37860  -0.28490   0.53658  -0.09750
   8   34377.1    290.9   0.014184341   0.13584   0.34960   0.11490  -0.02033
   9   34978.6    285.9   0.152947267   1.43951   0.95307  -0.72664   0.05627
  10   35236.3    283.8   0.065527086   0.61222   0.77356   0.11441  -0.02719
  11   36009.9    277.7   0.033847107   0.30944   0.18154   0.52410   0.04238
  12   36204.4    276.2   0.079928615   0.72680   0.05085   0.83048  -0.18582
  13   36940.9    270.7   0.234771067   2.09225  -1.41637   0.25107   0.15198
  14   37946.9    263.5   0.020140130   0.17473  -0.38400   0.00536   0.16505
  15   38346.0    260.8   0.008844972   0.07594  -0.16142  -0.21982   0.03949
  16   38620.8    258.9   0.006467383   0.05513   0.07771   0.05667   0.21419
  17   39000.9    256.4   0.043413017   0.36646   0.57093  -0.13383  -0.15027
  18   39636.1    252.3   0.062329285   0.51770   0.59892  -0.36722   0.15538
  19   39857.8    250.9   0.065000760   0.53688   0.65155  -0.25265  -0.22029

FINAL SINGLE POINT ENERGY     -5674.453424852852

DIPOLE MOMENT
-------------
                                X             Y             Z
Electronic contribution:    -19.81653       2.38161     -12.45340
Nuclear contribution   :     20.19572      -2.63560      13.07309
                        -----------------------------------------
Total Dipole Moment    :      0.37919      -0.25399       0.61969
                        -----------------------------------------
Magnitude (a.u.)       :      0.76962
Magnitude (Debye)      :      1.95622

Rotational constants in cm-1:     0.001704     0.000310     0.000268
Rotational constants in MHz :    51.076552     9.298054     8.046316

                             ****ORCA TERMINATED NORMALLY****
TOTAL RUN TIME: 0 days 0 hours 12 minutes 55 seconds 797 msec
