                         Program Version 4.2.0 -  RELEASE  -
|  1> # ORCA input file
|  2> # SCF done       -213.160191224914          0.000698703730
|  3> ! CAM-B3LYP def2-SVP def2/J RIJCOSX Grid4 TightSCF
|  4> %maxcore 5000
|  5> %tddft
|  6>     Mode sTDDFT
|  7>     Ethresh 5.0
|  8>     maxcore 5000
|  9> end
| 10>
| 11> %pal
| 12>   nprocs 6
| 13>   end
| 14> * xyz 0 1
| 15>    C       -4.26713        -1.74537        -1.61735
| 16>    C       -5.09858        -2.78682        -1.30771
| 17>    C       -4.85315        -4.13045        -1.66437
| 18>    N       -4.70761        -5.24012        -1.91916
| 19>    C       -6.32331        -2.67269        -0.61429
| 20>    N       -7.33628        -2.66761        -0.07425
| 21>    C       -3.04099        -1.83301        -2.39598
| 22>    C       -2.52496        -0.52655        -2.59241
| 23>    C       -1.37186        -0.28656        -3.30139
| 24>    C       -0.69888        -1.38280        -3.84790
| 25>    C       -1.22000        -2.68417        -3.64417
| 26>    C       -2.38215        -2.92889        -2.92384
| 27>    S       -0.22419        -3.88573        -4.40312
| 28>    C        0.85577        -2.66298        -4.97694
| 29>    C        0.49621        -1.41042        -4.62023
| 30>    C       -3.39363         0.45731        -1.92472
| 31>    O       -3.20324         1.64868        -1.83493
| 32>    C       -4.48989        -0.34077        -1.29901
| 33>    C       -5.42069         0.16306        -0.46070
| 34>    C       -5.68848         1.57341        -0.25702
| 35>    C       -5.87258         2.03372         1.04904
| 36>    F       -5.72633         1.10859         2.02837
| 37>    C       -6.15392         3.35934         1.35530
| 38>    O       -6.40703         3.89320         2.56977
| 39>    C       -6.22260         3.12292         3.74091
| 40>    C       -6.24396         4.24696         0.26606
| 41>    C       -6.08632         3.79230        -1.03838
| 42>    C       -5.83635         2.45589        -1.34840
| 43>    O       -5.78629         1.90052        -2.57097
| 44>    C       -6.02116         2.67865        -3.72776
| 45>    F       -6.12091         4.72641        -2.01694
| 46>    C       -6.54062         5.65981         0.51851
| 47>    C       -7.62127         6.29419        -0.11167
| 48>    C       -7.91365         7.69093         0.10512
| 49>    N       -8.98092         8.25584        -0.49391
| 50>    C       -9.70057         7.53728        -1.30897
| 51>    C       -9.40581         6.14344        -1.53116
| 52>    N       -8.41376         5.56087        -0.91875
| 53>    C      -10.21365         5.38152        -2.41318
| 54>    N      -10.86896         4.79563        -3.14744
| 55>    C      -10.80353         8.13663        -1.96905
| 56>    N      -11.69147         8.59344        -2.52986
| 57>    C       -7.12793         8.47921         0.95518
| 58>    C       -6.06595         7.84316         1.60187
| 59>    C       -5.76859         6.44152         1.38088
| 60>    N       -4.67624         6.06053         2.05612
| 61>    S       -4.11414         7.31023         2.87431
| 62>    N       -5.18037         8.40839         2.43236
| 63>    C       -7.38999         9.90980         1.13882
| 64>    C       -7.58616        10.41251         2.41865
| 65>    F       -7.60621         9.51353         3.42923
| 66>    C       -7.81833        11.76280         2.66597
| 67>    O       -7.99242        12.36111         3.86016
| 68>    C       -7.85006        11.62769         5.06132
| 69>    C       -7.84774        12.62602         1.54913
| 70>    C       -7.67542        12.10503         0.26386
| 71>    C       -7.42718        10.75980         0.01758
| 72>    O       -7.16929        10.17324        -1.17075
| 73>    C       -7.13375        10.93466        -2.36076
| 74>    F       -7.79664        12.97740        -0.76803
| 75>    C       -8.12431        14.02597         1.78523
| 76>    C       -7.64896        15.12048         1.15666
| 77>    C       -6.60491        15.31756         0.16386
| 78>    C       -5.48400        14.55026         0.00328
| 79>    C       -4.48055        14.81026        -0.95344
| 80>    N       -3.64570        14.95758        -1.72700
| 81>    C       -5.15797        13.44642         0.81760
| 82>    N       -4.81524        12.56764         1.47194
| 83>    C       -6.85902        16.59828        -0.47936
| 84>    C       -7.86883        17.28427         0.24592
| 85>    C       -8.34260        16.43287         1.34978
| 86>    O       -9.14721        16.70055         2.20976
| 87>    C       -8.29598        18.54414        -0.10057
| 88>    C       -7.71019        19.14972        -1.21595
| 89>    C       -6.71381        18.45053        -1.94090
| 90>    C       -6.27444        17.18060        -1.58799
| 91>    S       -6.14179        19.38660        -3.28491
| 92>    C       -7.21253        20.68036        -2.87144
| 93>    C       -7.96935        20.43027        -1.78072
| 94>    H       -1.00362         0.71927        -3.43178
| 95>    H       -2.73479        -3.93805        -2.79116
| 96>    H        1.70801        -2.96292        -5.55527
| 97>    H        1.04757        -0.52688        -4.88645
| 98>    H       -6.00730        -0.50900         0.15360
| 99>    H       -5.19814         2.75324         3.82069
|100>    H       -6.91990         2.28319         3.78769
|101>    H       -6.42601         3.80643         4.56380
|102>    H       -6.00381         1.96893        -4.55360
|103>    H       -5.23693         3.42420        -3.87379
|104>    H       -6.99661         3.16967        -3.69160
|105>    H       -6.86915        11.15213         5.12364
|106>    H       -8.63175        10.87244         5.16994
|107>    H       -7.94814        12.36661         5.85498
|108>    H       -8.10475        11.38220        -2.58407
|109>    H       -6.87731        10.22263        -3.14386
|110>    H       -6.36847        11.71386        -2.31930
|111>    H       -8.84835        14.21939         2.57066
|112>    H       -9.06009        19.04605         0.47240
|113>    H       -5.51928        16.68230        -2.17326
|114>    H       -7.20981        21.56234        -3.48199
|115>    H       -8.69078        21.11773        -1.37780
|116> *
|117>
|118>                          ****END OF INPUT****

CARTESIAN COORDINATES (ANGSTROEM)
---------------------------------
  C     -4.267130   -1.745370   -1.617350
  C     -5.098580   -2.786820   -1.307710
  C     -4.853150   -4.130450   -1.664370
  N     -4.707610   -5.240120   -1.919160
  C     -6.323310   -2.672690   -0.614290
  N     -7.336280   -2.667610   -0.074250
  C     -3.040990   -1.833010   -2.395980
  C     -2.524960   -0.526550   -2.592410
  C     -1.371860   -0.286560   -3.301390
  C     -0.698880   -1.382800   -3.847900
  C     -1.220000   -2.684170   -3.644170
  C     -2.382150   -2.928890   -2.923840
  S     -0.224190   -3.885730   -4.403120
  C      0.855770   -2.662980   -4.976940
  C      0.496210   -1.410420   -4.620230
  C     -3.393630    0.457310   -1.924720
  O     -3.203240    1.648680   -1.834930
  C     -4.489890   -0.340770   -1.299010
  C     -5.420690    0.163060   -0.460700
  C     -5.688480    1.573410   -0.257020
  C     -5.872580    2.033720    1.049040
  F     -5.726330    1.108590    2.028370
  C     -6.153920    3.359340    1.355300
  O     -6.407030    3.893200    2.569770
  C     -6.222600    3.122920    3.740910
  C     -6.243960    4.246960    0.266060
  C     -6.086320    3.792300   -1.038380
  C     -5.836350    2.455890   -1.348400
  O     -5.786290    1.900520   -2.570970
  C     -6.021160    2.678650   -3.727760
  F     -6.120910    4.726410   -2.016940
  C     -6.540620    5.659810    0.518510
  C     -7.621270    6.294190   -0.111670
  C     -7.913650    7.690930    0.105120
  N     -8.980920    8.255840   -0.493910
  C     -9.700570    7.537280   -1.308970
  C     -9.405810    6.143440   -1.531160
  N     -8.413760    5.560870   -0.918750
  C    -10.213650    5.381520   -2.413180
  N    -10.868960    4.795630   -3.147440
  C    -10.803530    8.136630   -1.969050
  N    -11.691470    8.593440   -2.529860
  C     -7.127930    8.479210    0.955180
  C     -6.065950    7.843160    1.601870
  C     -5.768590    6.441520    1.380880
  N     -4.676240    6.060530    2.056120
  S     -4.114140    7.310230    2.874310
  N     -5.180370    8.408390    2.432360
  C     -7.389990    9.909800    1.138820
  C     -7.586160   10.412510    2.418650
  F     -7.606210    9.513530    3.429230
  C     -7.818330   11.762800    2.665970
  O     -7.992420   12.361110    3.860160
  C     -7.850060   11.627690    5.061320
  C     -7.847740   12.626020    1.549130
  C     -7.675420   12.105030    0.263860
  C     -7.427180   10.759800    0.017580
  O     -7.169290   10.173240   -1.170750
  C     -7.133750   10.934660   -2.360760
  F     -7.796640   12.977400   -0.768030
  C     -8.124310   14.025970    1.785230
  C     -7.648960   15.120480    1.156660
  C     -6.604910   15.317560    0.163860
  C     -5.484000   14.550260    0.003280
  C     -4.480550   14.810260   -0.953440
  N     -3.645700   14.957580   -1.727000
  C     -5.157970   13.446420    0.817600
  N     -4.815240   12.567640    1.471940
  C     -6.859020   16.598280   -0.479360
  C     -7.868830   17.284270    0.245920
  C     -8.342600   16.432870    1.349780
  O     -9.147210   16.700550    2.209760
  C     -8.295980   18.544140   -0.100570
  C     -7.710190   19.149720   -1.215950
  C     -6.713810   18.450530   -1.940900
  C     -6.274440   17.180600   -1.587990
  S     -6.141790   19.386600   -3.284910
  C     -7.212530   20.680360   -2.871440
  C     -7.969350   20.430270   -1.780720
  H     -1.003620    0.719270   -3.431780
  H     -2.734790   -3.938050   -2.791160
  H      1.708010   -2.962920   -5.555270
  H      1.047570   -0.526880   -4.886450
  H     -6.007300   -0.509000    0.153600
  H     -5.198140    2.753240    3.820690
  H     -6.919900    2.283190    3.787690
  H     -6.426010    3.806430    4.563800
  H     -6.003810    1.968930   -4.553600
  H     -5.236930    3.424200   -3.873790
  H     -6.996610    3.169670   -3.691600
  H     -6.869150   11.152130    5.123640
  H     -8.631750   10.872440    5.169940
  H     -7.948140   12.366610    5.854980
  H     -8.104750   11.382200   -2.584070
  H     -6.877310   10.222630   -3.143860
  H     -6.368470   11.713860   -2.319300
  H     -8.848350   14.219390    2.570660
  H     -9.060090   19.046050    0.472400
  H     -5.519280   16.682300   -2.173260
  H     -7.209810   21.562340   -3.481990
  H     -8.690780   21.117730   -1.377800

 Total Charge           Charge          ....    0
 Multiplicity           Mult            ....    1
 Number of Electrons    NEL             ....  560
 Basis Dimension        Dim             .... 1228

ORBITAL ENERGIES
----------------

  NO   OCC          E(Eh)            E(eV)
   0   2.0000     -89.047255     -2423.0990
   1   2.0000     -88.967832     -2420.9378
   2   2.0000     -88.967591     -2420.9312
   3   2.0000     -24.800907      -674.8670
   4   2.0000     -24.796351      -674.7430
   5   2.0000     -24.794804      -674.7009
   6   2.0000     -24.791725      -674.6171
   7   2.0000     -19.262145      -524.1496
   8   2.0000     -19.258354      -524.0465
   9   2.0000     -19.256134      -523.9860
  10   2.0000     -19.255151      -523.9593
  11   2.0000     -19.215156      -522.8710
  12   2.0000     -19.214755      -522.8601
  13   2.0000     -14.460422      -393.4881
  14   2.0000     -14.460065      -393.4784
  15   2.0000     -14.449414      -393.1885
  16   2.0000     -14.449227      -393.1835
  17   2.0000     -14.429441      -392.6451
  18   2.0000     -14.429366      -392.6430
  19   2.0000     -14.418043      -392.3349
  20   2.0000     -14.415524      -392.2663
  21   2.0000     -14.415204      -392.2576
  22   2.0000     -14.414650      -392.2426
  23   2.0000     -10.380830      -282.4767
  24   2.0000     -10.380440      -282.4661
  25   2.0000     -10.371421      -282.2207
  26   2.0000     -10.369986      -282.1817
  27   2.0000     -10.368552      -282.1426
  28   2.0000     -10.366491      -282.0866
  29   2.0000     -10.365653      -282.0637
  30   2.0000     -10.365125      -282.0494
  31   2.0000     -10.356342      -281.8104
  32   2.0000     -10.355250      -281.7807
  33   2.0000     -10.354343      -281.7560
  34   2.0000     -10.352612      -281.7089
  35   2.0000     -10.346227      -281.5351
  36   2.0000     -10.345676      -281.5202
  37   2.0000     -10.343781      -281.4686
  38   2.0000     -10.343306      -281.4557
  39   2.0000     -10.341314      -281.4015
  40   2.0000     -10.340803      -281.3876
  41   2.0000     -10.340626      -281.3827
  42   2.0000     -10.340408      -281.3768
  43   2.0000     -10.326313      -280.9933
  44   2.0000     -10.325245      -280.9642
  45   2.0000     -10.324853      -280.9535
  46   2.0000     -10.322753      -280.8964
  47   2.0000     -10.322647      -280.8935
  48   2.0000     -10.322311      -280.8844
  49   2.0000     -10.321711      -280.8680
  50   2.0000     -10.321044      -280.8499
  51   2.0000     -10.320742      -280.8417
  52   2.0000     -10.320632      -280.8387
  53   2.0000     -10.320523      -280.8357
  54   2.0000     -10.317977      -280.7664
  55   2.0000     -10.317110      -280.7428
  56   2.0000     -10.316976      -280.7392
  57   2.0000     -10.316233      -280.7190
  58   2.0000     -10.315461      -280.6980
  59   2.0000     -10.315390      -280.6960
  60   2.0000     -10.314943      -280.6839
  61   2.0000     -10.308193      -280.5002
  62   2.0000     -10.307134      -280.4714
  63   2.0000     -10.307115      -280.4709
  64   2.0000     -10.305722      -280.4330
  65   2.0000     -10.304732      -280.4060
  66   2.0000     -10.304712      -280.4055
  67   2.0000     -10.304047      -280.3874
  68   2.0000     -10.303128      -280.3624
  69   2.0000     -10.303117      -280.3621
  70   2.0000     -10.301067      -280.3063
  71   2.0000     -10.300386      -280.2877
  72   2.0000     -10.299585      -280.2659
  73   2.0000     -10.298940      -280.2484
  74   2.0000     -10.298036      -280.2238
  75   2.0000     -10.292060      -280.0612
  76   2.0000     -10.290859      -280.0285
  77   2.0000     -10.290216      -280.0110
  78   2.0000     -10.290215      -280.0110
  79   2.0000      -8.138531      -221.4607
  80   2.0000      -8.064194      -219.4379
  81   2.0000      -8.063902      -219.4299
  82   2.0000      -6.109282      -166.2420
  83   2.0000      -6.101995      -166.0437
  84   2.0000      -6.101485      -166.0299
  85   2.0000      -6.033707      -164.1855
  86   2.0000      -6.033426      -164.1779
  87   2.0000      -6.029403      -164.0684
  88   2.0000      -6.029093      -164.0600
  89   2.0000      -6.025830      -163.9712
  90   2.0000      -6.025557      -163.9637
  91   2.0000      -1.313191       -35.7338
  92   2.0000      -1.308820       -35.6148
  93   2.0000      -1.308083       -35.5947
  94   2.0000      -1.305064       -35.5126
  95   2.0000      -1.166656       -31.7463
  96   2.0000      -1.163240       -31.6534
  97   2.0000      -1.162179       -31.6245
  98   2.0000      -1.161079       -31.5946
  99   2.0000      -1.141520       -31.0623
 100   2.0000      -1.130682       -30.7674
 101   2.0000      -1.128931       -30.7198
 102   2.0000      -1.118979       -30.4490
 103   2.0000      -1.046605       -28.4796
 104   2.0000      -1.021143       -27.7867
 105   2.0000      -1.019974       -27.7549
 106   2.0000      -1.013905       -27.5898
 107   2.0000      -1.009461       -27.4688
 108   2.0000      -1.008668       -27.4473
 109   2.0000      -1.003939       -27.3186
 110   2.0000      -0.996082       -27.1048
 111   2.0000      -0.994653       -27.0659
 112   2.0000      -0.993475       -27.0338
 113   2.0000      -0.987874       -26.8814
 114   2.0000      -0.985629       -26.8203
 115   2.0000      -0.984794       -26.7976
 116   2.0000      -0.974353       -26.5135
 117   2.0000      -0.966110       -26.2892
 118   2.0000      -0.932782       -25.3823
 119   2.0000      -0.931284       -25.3415
 120   2.0000      -0.918441       -24.9921
 121   2.0000      -0.909760       -24.7558
 122   2.0000      -0.904162       -24.6035
 123   2.0000      -0.895717       -24.3737
 124   2.0000      -0.886416       -24.1206
 125   2.0000      -0.882646       -24.0180
 126   2.0000      -0.881898       -23.9977
 127   2.0000      -0.871282       -23.7088
 128   2.0000      -0.860949       -23.4276
 129   2.0000      -0.857705       -23.3393
 130   2.0000      -0.845190       -22.9988
 131   2.0000      -0.831034       -22.6136
 132   2.0000      -0.829066       -22.5600
 133   2.0000      -0.824284       -22.4299
 134   2.0000      -0.823824       -22.4174
 135   2.0000      -0.815627       -22.1943
 136   2.0000      -0.812257       -22.1026
 137   2.0000      -0.799961       -21.7680
 138   2.0000      -0.791873       -21.5480
 139   2.0000      -0.783678       -21.3250
 140   2.0000      -0.775881       -21.1128
 141   2.0000      -0.766310       -20.8524
 142   2.0000      -0.759970       -20.6798
 143   2.0000      -0.756121       -20.5751
 144   2.0000      -0.747732       -20.3468
 145   2.0000      -0.734214       -19.9790
 146   2.0000      -0.732352       -19.9283
 147   2.0000      -0.710840       -19.3429
 148   2.0000      -0.709154       -19.2971
 149   2.0000      -0.706095       -19.2138
 150   2.0000      -0.699561       -19.0360
 151   2.0000      -0.698239       -19.0000
 152   2.0000      -0.691176       -18.8079
 153   2.0000      -0.689073       -18.7506
 154   2.0000      -0.687903       -18.7188
 155   2.0000      -0.675509       -18.3815
 156   2.0000      -0.672908       -18.3108
 157   2.0000      -0.670194       -18.2369
 158   2.0000      -0.662845       -18.0369
 159   2.0000      -0.661895       -18.0111
 160   2.0000      -0.654908       -17.8210
 161   2.0000      -0.649102       -17.6630
 162   2.0000      -0.645156       -17.5556
 163   2.0000      -0.642599       -17.4860
 164   2.0000      -0.635312       -17.2877
 165   2.0000      -0.634146       -17.2560
 166   2.0000      -0.626102       -17.0371
 167   2.0000      -0.623311       -16.9611
 168   2.0000      -0.620442       -16.8831
 169   2.0000      -0.619476       -16.8568
 170   2.0000      -0.608250       -16.5513
 171   2.0000      -0.607585       -16.5332
 172   2.0000      -0.604339       -16.4449
 173   2.0000      -0.602303       -16.3895
 174   2.0000      -0.598031       -16.2732
 175   2.0000      -0.595507       -16.2046
 176   2.0000      -0.594311       -16.1720
 177   2.0000      -0.587721       -15.9927
 178   2.0000      -0.582693       -15.8559
 179   2.0000      -0.581856       -15.8331
 180   2.0000      -0.576072       -15.6757
 181   2.0000      -0.573900       -15.6166
 182   2.0000      -0.571148       -15.5417
 183   2.0000      -0.569637       -15.5006
 184   2.0000      -0.566475       -15.4146
 185   2.0000      -0.560650       -15.2561
 186   2.0000      -0.556803       -15.1514
 187   2.0000      -0.554486       -15.0883
 188   2.0000      -0.549163       -14.9435
 189   2.0000      -0.547518       -14.8987
 190   2.0000      -0.546833       -14.8801
 191   2.0000      -0.545870       -14.8539
 192   2.0000      -0.543597       -14.7920
 193   2.0000      -0.541584       -14.7372
 194   2.0000      -0.540817       -14.7164
 195   2.0000      -0.536318       -14.5940
 196   2.0000      -0.534877       -14.5548
 197   2.0000      -0.533483       -14.5168
 198   2.0000      -0.531966       -14.4755
 199   2.0000      -0.531652       -14.4670
 200   2.0000      -0.529620       -14.4117
 201   2.0000      -0.527039       -14.3414
 202   2.0000      -0.520832       -14.1726
 203   2.0000      -0.518989       -14.1224
 204   2.0000      -0.516905       -14.0657
 205   2.0000      -0.514229       -13.9929
 206   2.0000      -0.508254       -13.8303
 207   2.0000      -0.506384       -13.7794
 208   2.0000      -0.501295       -13.6409
 209   2.0000      -0.498691       -13.5701
 210   2.0000      -0.494486       -13.4556
 211   2.0000      -0.494176       -13.4472
 212   2.0000      -0.493332       -13.4243
 213   2.0000      -0.492504       -13.4017
 214   2.0000      -0.491810       -13.3828
 215   2.0000      -0.490583       -13.3495
 216   2.0000      -0.489981       -13.3331
 217   2.0000      -0.487274       -13.2594
 218   2.0000      -0.486559       -13.2400
 219   2.0000      -0.486481       -13.2378
 220   2.0000      -0.483214       -13.1489
 221   2.0000      -0.479900       -13.0587
 222   2.0000      -0.476733       -12.9726
 223   2.0000      -0.475042       -12.9265
 224   2.0000      -0.471658       -12.8345
 225   2.0000      -0.466304       -12.6888
 226   2.0000      -0.464599       -12.6424
 227   2.0000      -0.455654       -12.3990
 228   2.0000      -0.455097       -12.3838
 229   2.0000      -0.453738       -12.3468
 230   2.0000      -0.453712       -12.3461
 231   2.0000      -0.450338       -12.2543
 232   2.0000      -0.447901       -12.1880
 233   2.0000      -0.447067       -12.1653
 234   2.0000      -0.443688       -12.0734
 235   2.0000      -0.443242       -12.0612
 236   2.0000      -0.442948       -12.0532
 237   2.0000      -0.440276       -11.9805
 238   2.0000      -0.436047       -11.8654
 239   2.0000      -0.435842       -11.8599
 240   2.0000      -0.434083       -11.8120
 241   2.0000      -0.433665       -11.8006
 242   2.0000      -0.433314       -11.7911
 243   2.0000      -0.432640       -11.7727
 244   2.0000      -0.428182       -11.6514
 245   2.0000      -0.426087       -11.5944
 246   2.0000      -0.424802       -11.5595
 247   2.0000      -0.422084       -11.4855
 248   2.0000      -0.421341       -11.4653
 249   2.0000      -0.419751       -11.4220
 250   2.0000      -0.417821       -11.3695
 251   2.0000      -0.415335       -11.3018
 252   2.0000      -0.413780       -11.2595
 253   2.0000      -0.412717       -11.2306
 254   2.0000      -0.409862       -11.1529
 255   2.0000      -0.408920       -11.1273
 256   2.0000      -0.407859       -11.0984
 257   2.0000      -0.403673       -10.9845
 258   2.0000      -0.401052       -10.9132
 259   2.0000      -0.399700       -10.8764
 260   2.0000      -0.380202       -10.3458
 261   2.0000      -0.379605       -10.3296
 262   2.0000      -0.377637       -10.2760
 263   2.0000      -0.371196       -10.1008
 264   2.0000      -0.369882       -10.0650
 265   2.0000      -0.358702        -9.7608
 266   2.0000      -0.353751        -9.6261
 267   2.0000      -0.349618        -9.5136
 268   2.0000      -0.343925        -9.3587
 269   2.0000      -0.337648        -9.1879
 270   2.0000      -0.334963        -9.1148
 271   2.0000      -0.319630        -8.6976
 272   2.0000      -0.314424        -8.5559
 273   2.0000      -0.314138        -8.5481
 274   2.0000      -0.309424        -8.4199
 275   2.0000      -0.295967        -8.0537
 276   2.0000      -0.295299        -8.0355
 277   2.0000      -0.292228        -7.9519
 278   2.0000      -0.277363        -7.5474
 279   2.0000      -0.271613        -7.3910
 280   0.0000      -0.116306        -3.1648
 281   0.0000      -0.085942        -2.3386
 282   0.0000      -0.084929        -2.3110
 283   0.0000      -0.055239        -1.5031
 284   0.0000      -0.053690        -1.4610

MULLIKEN ATOMIC CHARGES
-----------------------
   0 C :    0.300740
   1 C :   -0.337681
   2 C :   -0.185624
   3 N :    0.150846
   4 C :   -0.197338
   5 N :    0.162427
   6 C :    0.018533
   7 C :   -0.020435
   8 C :   -0.068039
   9 C :    0.117583
  10 C :   -0.093456
  11 C :   -0.025607
  12 S :    0.142395
  13 C :   -0.048576
  14 C :    0.023953
  15 C :    0.150948
  16 O :   -0.143114
  17 C :   -0.048324
  18 C :   -0.030537
  19 C :   -0.040512
  20 C :    0.113682
  21 F :   -0.188403
  22 C :    0.192563
  23 O :   -0.303327
  24 C :    0.185908
  25 C :   -0.135562
  26 C :    0.172292
  27 C :    0.174127
  28 O :   -0.300699
  29 C :    0.182090
  30 F :   -0.193072
  31 C :    0.068111
  32 C :   -0.049672
  33 C :   -0.040249
  34 N :    0.079843
  35 C :   -0.147115
  36 C :   -0.140758
  37 N :    0.071062
  38 C :   -0.206556
  39 N :    0.236928
  40 C :   -0.207040
  41 N :    0.236516
  42 C :    0.059094
  43 C :    0.011705
  44 C :    0.025267
  45 N :   -0.261614
  46 S :    0.557570
  47 N :   -0.255549
  48 C :   -0.121914
  49 C :    0.169733
  50 F :   -0.189971
  51 C :    0.157899
  52 O :   -0.297328
  53 C :    0.180291
  54 C :   -0.073724
  55 C :    0.121573
  56 C :    0.202627
  57 O :   -0.304642
  58 C :    0.181814
  59 F :   -0.189773
  60 C :    0.039425
  61 C :   -0.095132
  62 C :    0.290720
  63 C :   -0.339972
  64 C :   -0.189779
  65 N :    0.157034
  66 C :   -0.202481
  67 N :    0.173209
  68 C :    0.006858
  69 C :    0.000160
  70 C :    0.131006
  71 O :   -0.138659
  72 C :   -0.066805
  73 C :    0.110034
  74 C :   -0.089133
  75 C :   -0.026122
  76 S :    0.139905
  77 C :   -0.049295
  78 C :    0.025773
  79 H :   -0.013667
  80 H :   -0.006549
  81 H :    0.039615
  82 H :   -0.006625
  83 H :    0.044582
  84 H :    0.029080
  85 H :    0.033569
  86 H :    0.030448
  87 H :    0.034320
  88 H :    0.033870
  89 H :    0.034554
  90 H :    0.037720
  91 H :    0.031148
  92 H :    0.039371
  93 H :    0.035064
  94 H :    0.034156
  95 H :    0.031210
  96 H :    0.038806
  97 H :   -0.009725
  98 H :   -0.003795
  99 H :    0.039690
 100 H :   -0.005499
Sum of atomic charges:   -0.0000000

LOEWDIN ATOMIC CHARGES
----------------------
   0 C :    0.075754
   1 C :   -0.132740
   2 C :   -0.017348
   3 N :   -0.050654
   4 C :   -0.022464
   5 N :   -0.045005
   6 C :   -0.022938
   7 C :   -0.052389
   8 C :    0.022591
   9 C :   -0.033976
  10 C :   -0.144901
  11 C :   -0.008357
  12 S :    0.430464
  13 C :   -0.148361
  14 C :   -0.058034
  15 C :    0.084084
  16 O :   -0.133437
  17 C :   -0.071497
  18 C :    0.082851
  19 C :   -0.066657
  20 C :    0.062606
  21 F :   -0.061411
  22 C :    0.031153
  23 O :   -0.093614
  24 C :    0.078956
  25 C :   -0.045634
  26 C :    0.063299
  27 C :    0.046631
  28 O :   -0.081425
  29 C :    0.079710
  30 F :   -0.059548
  31 C :    0.004272
  32 C :   -0.004277
  33 C :   -0.002126
  34 N :    0.013394
  35 C :   -0.030152
  36 C :   -0.028801
  37 N :    0.008492
  38 C :   -0.036138
  39 N :   -0.006604
  40 C :   -0.036177
  41 N :   -0.007358
  42 C :    0.002729
  43 C :   -0.038497
  44 C :   -0.036298
  45 N :   -0.281342
  46 S :    0.703400
  47 N :   -0.279056
  48 C :   -0.041026
  49 C :    0.066281
  50 F :   -0.058272
  51 C :    0.042250
  52 O :   -0.087649
  53 C :    0.080797
  54 C :   -0.071923
  55 C :    0.059600
  56 C :    0.039910
  57 O :   -0.091965
  58 C :    0.078407
  59 F :   -0.055288
  60 C :    0.081802
  61 C :   -0.078235
  62 C :    0.073145
  63 C :   -0.136758
  64 C :   -0.019577
  65 N :   -0.052623
  66 C :   -0.021095
  67 N :   -0.046288
  68 C :   -0.018314
  69 C :   -0.055116
  70 C :    0.085835
  71 O :   -0.136648
  72 C :    0.025176
  73 C :   -0.034855
  74 C :   -0.144026
  75 C :   -0.011020
  76 S :    0.429270
  77 C :   -0.148945
  78 C :   -0.057082
  79 H :    0.039842
  80 H :    0.040823
  81 H :    0.029781
  82 H :    0.035393
  83 H :    0.046788
  84 H :    0.018476
  85 H :    0.018428
  86 H :    0.025227
  87 H :    0.026601
  88 H :    0.019209
  89 H :    0.019937
  90 H :    0.022034
  91 H :    0.017636
  92 H :    0.028572
  93 H :    0.019529
  94 H :    0.026885
  95 H :    0.018237
  96 H :    0.050397
  97 H :    0.041217
  98 H :    0.040490
  99 H :    0.029734
 100 H :    0.035829

  Mayer bond orders larger than 0.100000
B(  0-C ,  1-C ) :   1.6559 B(  0-C ,  6-C ) :   1.0127 B(  0-C , 17-C ) :   1.0443
B(  1-C ,  2-C ) :   1.1363 B(  1-C ,  4-C ) :   1.1405 B(  2-C ,  3-N ) :   2.9730
B(  4-C ,  5-N ) :   2.9841 B(  6-C ,  7-C ) :   1.2679 B(  6-C , 11-C ) :   1.4006
B(  7-C ,  8-C ) :   1.4231 B(  7-C , 15-C ) :   0.9485 B(  8-C ,  9-C ) :   1.2459
B(  8-C , 79-H ) :   1.0175 B(  9-C , 10-C ) :   1.2975 B(  9-C , 14-C ) :   1.1710
B( 10-C , 11-C ) :   1.3302 B( 10-C , 12-S ) :   1.0994 B( 11-C , 80-H ) :   0.9834
B( 12-S , 13-C ) :   1.1264 B( 13-C , 14-C ) :   1.6278 B( 13-C , 81-H ) :   0.9687
B( 14-C , 82-H ) :   0.9999 B( 15-C , 16-O ) :   2.2294 B( 15-C , 17-C ) :   0.9221
B( 17-C , 18-C ) :   1.7318 B( 18-C , 19-C ) :   1.0284 B( 18-C , 83-H ) :   0.9350
B( 19-C , 20-C ) :   1.3237 B( 19-C , 25-C ) :   0.1268 B( 19-C , 27-C ) :   1.3446
B( 20-C , 21-F ) :   1.1307 B( 20-C , 22-C ) :   1.2552 B( 22-C , 23-O ) :   1.2088
B( 22-C , 25-C ) :   1.3675 B( 23-O , 24-C ) :   0.9317 B( 24-C , 84-H ) :   0.9746
B( 24-C , 85-H ) :   0.9757 B( 24-C , 86-H ) :   0.9793 B( 25-C , 26-C ) :   1.3755
B( 25-C , 31-C ) :   0.9230 B( 26-C , 27-C ) :   1.2483 B( 26-C , 30-F ) :   1.1190
B( 27-C , 28-O ) :   1.2076 B( 28-O , 29-C ) :   0.9273 B( 29-C , 87-H ) :   0.9789
B( 29-C , 88-H ) :   0.9752 B( 29-C , 89-H ) :   0.9749 B( 31-C , 32-C ) :   1.3552
B( 31-C , 42-C ) :   0.1418 B( 31-C , 44-C ) :   1.3015 B( 32-C , 33-C ) :   1.0936
B( 32-C , 37-N ) :   1.4141 B( 33-C , 34-N ) :   1.4173 B( 33-C , 42-C ) :   1.3584
B( 34-N , 35-C ) :   1.7747 B( 35-C , 36-C ) :   1.1757 B( 35-C , 40-C ) :   1.1460
B( 36-C , 37-N ) :   1.7750 B( 36-C , 38-C ) :   1.1440 B( 38-C , 39-N ) :   3.0519
B( 40-C , 41-N ) :   3.0534 B( 42-C , 43-C ) :   1.3057 B( 42-C , 48-C ) :   0.9203
B( 43-C , 44-C ) :   1.1005 B( 43-C , 47-N ) :   1.4866 B( 44-C , 45-N ) :   1.4867
B( 45-N , 46-S ) :   1.3152 B( 45-N , 47-N ) :   0.1641 B( 46-S , 47-N ) :   1.3159
B( 48-C , 49-C ) :   1.3750 B( 48-C , 54-C ) :   0.1331 B( 48-C , 56-C ) :   1.3839
B( 49-C , 50-F ) :   1.1269 B( 49-C , 51-C ) :   1.2438 B( 51-C , 52-O ) :   1.2421
B( 51-C , 54-C ) :   1.3389 B( 52-O , 53-C ) :   0.9269 B( 53-C , 90-H ) :   0.9752
B( 53-C , 91-H ) :   0.9760 B( 53-C , 92-H ) :   0.9791 B( 54-C , 55-C ) :   1.3108
B( 54-C , 60-C ) :   1.0358 B( 55-C , 56-C ) :   1.2629 B( 55-C , 59-F ) :   1.0995
B( 56-C , 57-O ) :   1.2135 B( 57-O , 58-C ) :   0.9301 B( 58-C , 93-H ) :   0.9749
B( 58-C , 94-H ) :   0.9787 B( 58-C , 95-H ) :   0.9754 B( 60-C , 61-C ) :   1.7530
B( 60-C , 96-H ) :   0.9281 B( 61-C , 62-C ) :   1.0076 B( 61-C , 70-C ) :   0.9280
B( 62-C , 63-C ) :   1.6630 B( 62-C , 68-C ) :   1.0253 B( 63-C , 64-C ) :   1.1320
B( 63-C , 66-C ) :   1.1683 B( 64-C , 65-N ) :   2.9889 B( 66-C , 67-N ) :   2.9992
B( 68-C , 69-C ) :   1.2661 B( 68-C , 75-C ) :   1.4108 B( 69-C , 70-C ) :   0.9254
B( 69-C , 72-C ) :   1.4203 B( 70-C , 71-O ) :   2.2733 B( 72-C , 73-C ) :   1.2556
B( 72-C , 97-H ) :   1.0168 B( 73-C , 74-C ) :   1.3002 B( 73-C , 78-C ) :   1.1707
B( 74-C , 75-C ) :   1.3222 B( 74-C , 76-S ) :   1.0977 B( 75-C , 98-H ) :   0.9859
B( 76-S , 77-C ) :   1.1260 B( 77-C , 78-C ) :   1.6295 B( 77-C , 99-H ) :   0.9685
B( 78-C ,100-H ) :   1.0001

-----------------------------------------------------------------------------
         ABSORPTION SPECTRUM VIA TRANSITION ELECTRIC DIPOLE MOMENTS
-----------------------------------------------------------------------------
State   Energy  Wavelength   fosc         T2         TX        TY        TZ
        (cm-1)    (nm)                  (au**2)     (au)      (au)      (au)
-----------------------------------------------------------------------------
   0   15472.1    646.3   0.134496383   2.86179  -0.31614   1.66150  -0.03541
   1   16516.3    605.5   0.015210409   0.30318   0.07471   0.54471  -0.02982
   2   20400.3    490.2   0.291566749   4.70519   0.46669  -2.07013  -0.44939
   3   22327.9    447.9   0.160692128   2.36931   0.51548  -1.44981   0.04050
   4   22573.9    443.0   0.113873580   1.66071  -0.51291  -0.98336   0.65623
   5   24803.1    403.2   0.012157212   0.16136   0.34071   0.18505  -0.10507
   6   26888.1    371.9   0.008155083   0.09985   0.00836  -0.25317   0.18891
   7   27332.5    365.9   0.016780725   0.20212  -0.37737  -0.24426  -0.00690
   8   27626.4    362.0   0.159433057   1.89989   0.07932   1.29099  -0.47639
   9   27761.3    360.2   0.136236409   1.61558   0.11217  -1.26235  -0.09729
  10   27972.8    357.5   0.131679355   1.54973   0.53428  -0.79132  -0.79880
  11   28098.9    355.9   0.064616522   0.75706  -0.78087   0.21247   0.31962
  12   28252.2    354.0   0.050636851   0.59005   0.61811   0.45598  -0.00904
  13   29203.7    342.4   0.072605314   0.81848   0.10357   0.79500  -0.41920
  14   29335.9    340.9   0.145447009   1.63223   0.96858   0.14226   0.82087
  15   29758.8    336.0   0.006676976   0.07387  -0.05649   0.22485   0.14183
  16   30165.9    331.5   0.022514038   0.24570   0.47336   0.06906   0.12988
  17   30372.5    329.2   0.272297536   2.95147   1.11576  -1.29944  -0.13419
  18   30769.4    325.0   0.035873758   0.38382  -0.21223  -0.56589  -0.13621
  19   30857.2    324.1   0.176941311   1.88777   1.21560   0.30039  -0.56554
  20   31137.0    321.2   0.007028179   0.07431   0.13698  -0.23565   0.00414
  21   31520.0    317.3   0.211731696   2.21144  -0.25960   1.44585  -0.23144
  22   31568.0    316.8   0.083583529   0.87166   0.05675  -0.71933   0.59246
  23   32189.6    310.7   0.048878877   0.49990   0.37296   0.29663   0.52232
  24   32716.1    305.7   0.095795401   0.96396  -0.53672  -0.20480  -0.79621
  25   32797.9    304.9   0.081494786   0.81801   0.66577  -0.59412   0.14757
  26   32836.1    304.5   0.015356364   0.15396  -0.23816   0.28812  -0.11929
  27   32927.4    303.7   0.033365014   0.33359  -0.39838  -0.14556   0.39204
  28   33157.6    301.6   0.099353401   0.98645  -0.95641   0.10643   0.24579
  29   33303.2    300.3   0.015097458   0.14924   0.00551  -0.26934   0.27689
  30   33458.2    298.9   0.087122226   0.85724  -0.63392   0.62967  -0.24269
  31   34003.7    294.1   0.086716598   0.83956  -0.25911   0.28355   0.83188
  32   34174.1    292.6   0.094404170   0.90943   0.77917  -0.51818  -0.18391
  33   34503.2    289.8   0.413255683   3.94307   1.73723   0.51873  -0.80995
  34   34704.7    288.1   0.084885943   0.80523  -0.83130  -0.17747   0.28755
  35   34875.6    286.7   0.155070574   1.46381   0.60859   0.37283  -0.97695
  36   34983.6    285.8   0.453258610   4.26538  -0.81924   1.85984  -0.36771
  37   35207.7    284.0   0.009812461   0.09175  -0.02859  -0.26485   0.14419
  38   35434.6    282.2   0.016778585   0.15588  -0.37895  -0.10936  -0.01787
  39   36099.7    277.0   0.073842533   0.67341   0.37720  -0.50607  -0.52443
  40   36448.9    274.4   0.296967148   2.68225  -0.32112  -1.59628  -0.17610
  41   36973.1    270.5   0.010407944   0.09267  -0.00023  -0.27936   0.12097
  42   37270.6    268.3   0.064595218   0.57057  -0.65167   0.26525  -0.27484
  43   37483.7    266.8   0.881847205   7.74508  -2.20693   0.17657  -1.68623
  44   38579.9    259.2   0.017193051   0.14671   0.30518  -0.04815   0.22640
  45   38749.1    258.1   0.015294374   0.12994  -0.15607  -0.17904   0.27116
  46   39079.1    255.9   0.033379186   0.28119   0.33218  -0.27519  -0.30841
  47   39222.6    255.0   0.017012798   0.14280  -0.27043   0.19427  -0.17867
  48   39639.3    252.3   0.141388463   1.17426   0.14708   1.07062   0.07997
  49   39771.4    251.4   0.009444791   0.07818   0.03509   0.27738   0.00285
  50   39829.7    251.1   0.025514231   0.21089  -0.09969   0.22668   0.38674
  51   40055.9    249.7   0.127031858   1.04405   0.28641  -0.96661  -0.16637

FINAL SINGLE POINT ENERGY     -4735.120752964001

DIPOLE MOMENT
-------------
                                X             Y             Z
Electronic contribution:     -4.68153      -8.71207       5.63651
Nuclear contribution   :      7.30382      11.27225      -5.42594
                        -----------------------------------------
Total Dipole Moment    :      2.62229       2.56018       0.21057
                        -----------------------------------------
Magnitude (a.u.)       :      3.67086
Magnitude (Debye)      :      9.33059

Rotational constants in cm-1:     0.001688     0.000273     0.000262
Rotational constants in MHz :    50.603703     8.189305     7.845374

                             ****ORCA TERMINATED NORMALLY****
TOTAL RUN TIME: 0 days 0 hours 10 minutes 28 seconds 545 msec
