                         Program Version 4.2.0 -  RELEASE  -
|  1> # ORCA input file
|  2> # SCF done       -197.630624438002          0.000978864752
|  3> ! CAM-B3LYP def2-SVP def2/J RIJCOSX Grid4 TightSCF
|  4> %maxcore 5000
|  5> %tddft
|  6>     Mode sTDDFT
|  7>     Ethresh 5.0
|  8>     maxcore 5000
|  9> end
| 10>
| 11> %pal
| 12>   nprocs 6
| 13>   end
| 14> * xyz 0 1
| 15>    C        3.10910        -1.71274        -2.07178
| 16>    O        2.44380        -2.43068        -2.78493
| 17>    C        3.79706        -0.47453        -2.49651
| 18>    C        4.43798         0.11802        -1.39592
| 19>    C        5.13659         1.30194        -1.56761
| 20>    C        5.18381         1.86864        -2.83637
| 21>    C        4.54706         1.26817        -3.92484
| 22>    C        3.84242         0.08328        -3.75696
| 23>   Br        4.63399         2.06086        -5.63754
| 24>   Br        6.13416         3.48575        -3.07152
| 25>    C        4.21247        -0.71575        -0.21748
| 26>    C        4.78613        -0.51422         1.01050
| 27>    C        5.62832         0.57662         1.31734
| 28>    N        6.31861         1.43887         1.62750
| 29>    C        4.65692        -1.36476         2.12965
| 30>    N        4.61748        -2.01002         3.07873
| 31>    C        3.35582        -1.81915        -0.61552
| 32>    C        2.77941        -2.69871         0.26388
| 33>    C        2.03640        -3.86865         0.02751
| 34>    C        1.84603        -4.64268        -1.11311
| 35>    C        1.07874        -5.76840        -0.85991
| 36>    C        0.65864        -5.86556         0.48830
| 37>    S        1.23818        -4.58404         1.43903
| 38>    C       -0.12903        -7.03174         0.62915
| 39>    C       -0.20217        -7.67899        -0.61786
| 40>    C        0.55982        -6.91356        -1.59176
| 41>    C        0.76027        -7.22453        -2.90349
| 42>    C        0.19575        -8.37676        -3.49353
| 43>    N       -0.25853        -9.30994        -3.98037
| 44>    C        1.56192        -6.44218        -3.76408
| 45>    N        2.22345        -5.83836        -4.47882
| 46>    C       -0.95264        -8.85158        -0.57922
| 47>    C       -1.46053        -9.10944         0.68023
| 48>    S       -0.99610        -7.86615         1.83913
| 49>    C       -2.27755       -10.20948         1.10727
| 50>    C       -2.91039       -10.18763         2.34271
| 51>    C       -3.71749       -11.22496         2.77947
| 52>    C       -3.94260       -12.36376         2.01745
| 53>    C       -3.29868       -12.43653         0.74182
| 54>    N       -3.48370       -13.51167        -0.04487
| 55>    C       -2.88647       -13.56137        -1.20441
| 56>    C       -2.04787       -12.51916        -1.63642
| 57>    N       -1.85584       -11.45776        -0.90138
| 58>    C       -2.47217       -11.36747         0.29080
| 59>    C       -4.80039       -13.40944         2.49728
| 60>    C       -5.01382       -14.66562         1.96181
| 61>    C       -5.93277       -15.40711         2.70001
| 62>    C       -6.43550       -14.71090         3.81475
| 63>    S       -5.76250       -13.15065         3.95246
| 64>    C       -7.37791       -15.53534         4.47745
| 65>    C       -7.45969       -16.76053         3.78125
| 66>    C       -6.56280       -16.71461         2.63902
| 67>    C       -6.39791       -17.68068         1.69054
| 68>    C       -7.11772       -18.89280         1.75338
| 69>    N       -7.71267       -19.87012         1.82894
| 70>    C       -5.51576       -17.52699         0.59997
| 71>    N       -4.79372       -17.40494        -0.28186
| 72>    C       -8.39721       -17.62765         4.32008
| 73>    C       -9.05037       -17.08175         5.41796
| 74>    S       -8.44041       -15.47430         5.80395
| 75>    C      -10.05941       -17.65100         6.21929
| 76>    C      -10.87130       -18.71296         5.94473
| 77>    C      -11.55569       -19.39431         7.07771
| 78>    O      -11.65111       -18.99436         8.21340
| 79>    C      -12.03732       -20.67658         6.52016
| 80>    C      -11.77945       -20.71204         5.13750
| 81>    C      -11.19456       -19.43373         4.73149
| 82>    C      -11.22291       -18.94245         3.45291
| 83>    C      -10.88962       -17.61811         3.10692
| 84>    N      -10.65197       -16.54353         2.78071
| 85>    C      -11.68681       -19.67590         2.33913
| 86>    N      -12.05946       -20.22438         1.40347
| 87>    C      -12.10048       -21.84054         4.40355
| 88>    C      -12.69047       -22.91418         5.06167
| 89>    C      -12.96416       -22.86281         6.43057
| 90>    C      -12.63265       -21.73612         7.17262
| 91>   Br      -13.78297       -24.33002         7.29463
| 92>   Br      -13.11944       -24.46283         4.06818
| 93>    H        5.63795         1.79805        -0.75268
| 94>    H        3.34392        -0.39239        -4.58732
| 95>    H        2.89476        -2.46888         1.31680
| 96>    H        2.25262        -4.37504        -2.07086
| 97>    H       -1.13368        -9.50785        -1.40944
| 98>    H       -2.77946        -9.32806         2.98433
| 99>    H       -4.18725       -11.14145         3.74898
|100>    H       -3.06767       -14.44310        -1.80301
|101>    H       -1.53178       -12.54874        -2.58578
|102>    H       -4.51491       -14.99461         1.06957
|103>    H       -8.57738       -18.62753         3.97008
|104>    H      -10.17628       -17.23687         7.21621
|105>    H      -11.89513       -21.91520         3.34771
|106>    H      -12.83463       -21.68954         8.23143
|107> *
|108>
|109>                          ****END OF INPUT****

CARTESIAN COORDINATES (ANGSTROEM)
---------------------------------
  C      3.109100   -1.712740   -2.071780
  O      2.443800   -2.430680   -2.784930
  C      3.797060   -0.474530   -2.496510
  C      4.437980    0.118020   -1.395920
  C      5.136590    1.301940   -1.567610
  C      5.183810    1.868640   -2.836370
  C      4.547060    1.268170   -3.924840
  C      3.842420    0.083280   -3.756960
  Br     4.633990    2.060860   -5.637540
  Br     6.134160    3.485750   -3.071520
  C      4.212470   -0.715750   -0.217480
  C      4.786130   -0.514220    1.010500
  C      5.628320    0.576620    1.317340
  N      6.318610    1.438870    1.627500
  C      4.656920   -1.364760    2.129650
  N      4.617480   -2.010020    3.078730
  C      3.355820   -1.819150   -0.615520
  C      2.779410   -2.698710    0.263880
  C      2.036400   -3.868650    0.027510
  C      1.846030   -4.642680   -1.113110
  C      1.078740   -5.768400   -0.859910
  C      0.658640   -5.865560    0.488300
  S      1.238180   -4.584040    1.439030
  C     -0.129030   -7.031740    0.629150
  C     -0.202170   -7.678990   -0.617860
  C      0.559820   -6.913560   -1.591760
  C      0.760270   -7.224530   -2.903490
  C      0.195750   -8.376760   -3.493530
  N     -0.258530   -9.309940   -3.980370
  C      1.561920   -6.442180   -3.764080
  N      2.223450   -5.838360   -4.478820
  C     -0.952640   -8.851580   -0.579220
  C     -1.460530   -9.109440    0.680230
  S     -0.996100   -7.866150    1.839130
  C     -2.277550  -10.209480    1.107270
  C     -2.910390  -10.187630    2.342710
  C     -3.717490  -11.224960    2.779470
  C     -3.942600  -12.363760    2.017450
  C     -3.298680  -12.436530    0.741820
  N     -3.483700  -13.511670   -0.044870
  C     -2.886470  -13.561370   -1.204410
  C     -2.047870  -12.519160   -1.636420
  N     -1.855840  -11.457760   -0.901380
  C     -2.472170  -11.367470    0.290800
  C     -4.800390  -13.409440    2.497280
  C     -5.013820  -14.665620    1.961810
  C     -5.932770  -15.407110    2.700010
  C     -6.435500  -14.710900    3.814750
  S     -5.762500  -13.150650    3.952460
  C     -7.377910  -15.535340    4.477450
  C     -7.459690  -16.760530    3.781250
  C     -6.562800  -16.714610    2.639020
  C     -6.397910  -17.680680    1.690540
  C     -7.117720  -18.892800    1.753380
  N     -7.712670  -19.870120    1.828940
  C     -5.515760  -17.526990    0.599970
  N     -4.793720  -17.404940   -0.281860
  C     -8.397210  -17.627650    4.320080
  C     -9.050370  -17.081750    5.417960
  S     -8.440410  -15.474300    5.803950
  C    -10.059410  -17.651000    6.219290
  C    -10.871300  -18.712960    5.944730
  C    -11.555690  -19.394310    7.077710
  O    -11.651110  -18.994360    8.213400
  C    -12.037320  -20.676580    6.520160
  C    -11.779450  -20.712040    5.137500
  C    -11.194560  -19.433730    4.731490
  C    -11.222910  -18.942450    3.452910
  C    -10.889620  -17.618110    3.106920
  N    -10.651970  -16.543530    2.780710
  C    -11.686810  -19.675900    2.339130
  N    -12.059460  -20.224380    1.403470
  C    -12.100480  -21.840540    4.403550
  C    -12.690470  -22.914180    5.061670
  C    -12.964160  -22.862810    6.430570
  C    -12.632650  -21.736120    7.172620
  Br   -13.782970  -24.330020    7.294630
  Br   -13.119440  -24.462830    4.068180
  H      5.637950    1.798050   -0.752680
  H      3.343920   -0.392390   -4.587320
  H      2.894760   -2.468880    1.316800
  H      2.252620   -4.375040   -2.070860
  H     -1.133680   -9.507850   -1.409440
  H     -2.779460   -9.328060    2.984330
  H     -4.187250  -11.141450    3.748980
  H     -3.067670  -14.443100   -1.803010
  H     -1.531780  -12.548740   -2.585780
  H     -4.514910  -14.994610    1.069570
  H     -8.577380  -18.627530    3.970080
  H    -10.176280  -17.236870    7.216210
  H    -11.895130  -21.915200    3.347710
  H    -12.834630  -21.689540    8.231430

 Total Charge           Charge          ....    0
 Multiplicity           Mult            ....    1
 Number of Electrons    NEL             ....  652
 Basis Dimension        Dim             .... 1250

ORBITAL ENERGIES
----------------

  NO   OCC          E(Eh)            E(eV)
   0   2.0000    -482.878542    -13139.7931
   1   2.0000    -482.877700    -13139.7702
   2   2.0000    -482.876968    -13139.7503
   3   2.0000    -482.876387    -13139.7345
   4   2.0000     -89.003753     -2421.9153
   5   2.0000     -89.002897     -2421.8920
   6   2.0000     -88.999995     -2421.8130
   7   2.0000     -88.998917     -2421.7836
   8   2.0000     -62.556152     -1702.2394
   9   2.0000     -62.555315     -1702.2167
  10   2.0000     -62.554579     -1702.1966
  11   2.0000     -62.553996     -1702.1808
  12   2.0000     -56.390100     -1534.4526
  13   2.0000     -56.389265     -1534.4299
  14   2.0000     -56.388546     -1534.4103
  15   2.0000     -56.387958     -1534.3944
  16   2.0000     -56.387445     -1534.3804
  17   2.0000     -56.387356     -1534.3780
  18   2.0000     -56.386612     -1534.3577
  19   2.0000     -56.386512     -1534.3550
  20   2.0000     -56.385870     -1534.3375
  21   2.0000     -56.385771     -1534.3348
  22   2.0000     -56.385287     -1534.3217
  23   2.0000     -56.385191     -1534.3191
  24   2.0000     -19.227959      -523.2194
  25   2.0000     -19.225992      -523.1658
  26   2.0000     -14.444447      -393.0534
  27   2.0000     -14.444315      -393.0498
  28   2.0000     -14.438684      -392.8966
  29   2.0000     -14.437457      -392.8632
  30   2.0000     -14.437127      -392.8542
  31   2.0000     -14.434323      -392.7779
  32   2.0000     -14.426407      -392.5625
  33   2.0000     -14.425050      -392.5256
  34   2.0000     -14.420986      -392.4150
  35   2.0000     -14.420645      -392.4057
  36   2.0000     -10.379538      -282.4416
  37   2.0000     -10.377430      -282.3842
  38   2.0000     -10.373488      -282.2770
  39   2.0000     -10.373099      -282.2664
  40   2.0000     -10.359730      -281.9026
  41   2.0000     -10.359550      -281.8977
  42   2.0000     -10.356223      -281.8072
  43   2.0000     -10.355576      -281.7896
  44   2.0000     -10.355207      -281.7795
  45   2.0000     -10.354838      -281.7695
  46   2.0000     -10.354084      -281.7489
  47   2.0000     -10.354041      -281.7478
  48   2.0000     -10.352867      -281.7158
  49   2.0000     -10.351591      -281.6811
  50   2.0000     -10.351239      -281.6715
  51   2.0000     -10.350553      -281.6529
  52   2.0000     -10.343948      -281.4731
  53   2.0000     -10.343624      -281.4643
  54   2.0000     -10.342184      -281.4251
  55   2.0000     -10.342032      -281.4210
  56   2.0000     -10.338915      -281.3362
  57   2.0000     -10.338020      -281.3118
  58   2.0000     -10.337718      -281.3036
  59   2.0000     -10.337435      -281.2959
  60   2.0000     -10.337211      -281.2898
  61   2.0000     -10.336756      -281.2774
  62   2.0000     -10.335874      -281.2534
  63   2.0000     -10.335097      -281.2323
  64   2.0000     -10.334937      -281.2279
  65   2.0000     -10.334567      -281.2179
  66   2.0000     -10.333812      -281.1973
  67   2.0000     -10.333424      -281.1868
  68   2.0000     -10.327681      -281.0305
  69   2.0000     -10.327334      -281.0210
  70   2.0000     -10.323523      -280.9174
  71   2.0000     -10.322801      -280.8977
  72   2.0000     -10.322534      -280.8904
  73   2.0000     -10.322249      -280.8827
  74   2.0000     -10.321370      -280.8588
  75   2.0000     -10.320159      -280.8258
  76   2.0000     -10.319676      -280.8127
  77   2.0000     -10.315226      -280.6916
  78   2.0000     -10.315208      -280.6911
  79   2.0000     -10.314698      -280.6772
  80   2.0000     -10.314634      -280.6755
  81   2.0000     -10.314333      -280.6673
  82   2.0000     -10.313804      -280.6529
  83   2.0000     -10.313123      -280.6343
  84   2.0000     -10.312907      -280.6285
  85   2.0000     -10.312605      -280.6203
  86   2.0000     -10.311905      -280.6012
  87   2.0000     -10.311076      -280.5786
  88   2.0000     -10.308764      -280.5157
  89   2.0000     -10.308748      -280.5153
  90   2.0000     -10.307061      -280.4694
  91   2.0000     -10.305198      -280.4187
  92   2.0000     -10.301543      -280.3192
  93   2.0000     -10.300259      -280.2843
  94   2.0000      -8.785477      -239.0650
  95   2.0000      -8.784645      -239.0423
  96   2.0000      -8.783901      -239.0221
  97   2.0000      -8.783319      -239.0063
  98   2.0000      -8.098345      -220.3672
  99   2.0000      -8.097710      -220.3499
 100   2.0000      -8.094445      -220.2610
 101   2.0000      -8.093381      -220.2321
 102   2.0000      -6.621611      -180.1832
 103   2.0000      -6.620792      -180.1609
 104   2.0000      -6.620095      -180.1419
 105   2.0000      -6.619495      -180.1256
 106   2.0000      -6.607594      -179.8018
 107   2.0000      -6.606814      -179.7805
 108   2.0000      -6.606765      -179.7792
 109   2.0000      -6.606009      -179.7586
 110   2.0000      -6.605975      -179.7577
 111   2.0000      -6.605411      -179.7424
 112   2.0000      -6.605185      -179.7362
 113   2.0000      -6.604639      -179.7214
 114   2.0000      -6.067504      -165.1052
 115   2.0000      -6.066798      -165.0860
 116   2.0000      -6.063702      -165.0017
 117   2.0000      -6.063334      -164.9917
 118   2.0000      -6.062685      -164.9740
 119   2.0000      -6.062599      -164.9717
 120   2.0000      -6.060890      -164.9252
 121   2.0000      -6.060241      -164.9076
 122   2.0000      -6.059504      -164.8875
 123   2.0000      -6.058449      -164.8588
 124   2.0000      -6.056854      -164.8154
 125   2.0000      -6.055812      -164.7870
 126   2.0000      -2.737524       -74.4918
 127   2.0000      -2.736650       -74.4680
 128   2.0000      -2.735979       -74.4498
 129   2.0000      -2.735365       -74.4331
 130   2.0000      -2.733738       -74.3888
 131   2.0000      -2.733152       -74.3728
 132   2.0000      -2.732959       -74.3676
 133   2.0000      -2.732320       -74.3502
 134   2.0000      -2.732182       -74.3465
 135   2.0000      -2.731610       -74.3309
 136   2.0000      -2.731610       -74.3309
 137   2.0000      -2.731018       -74.3148
 138   2.0000      -2.721998       -74.0693
 139   2.0000      -2.721985       -74.0690
 140   2.0000      -2.721169       -74.0468
 141   2.0000      -2.721145       -74.0461
 142   2.0000      -2.720379       -74.0253
 143   2.0000      -2.720357       -74.0247
 144   2.0000      -2.719805       -74.0097
 145   2.0000      -2.719791       -74.0093
 146   2.0000      -1.144072       -31.1318
 147   2.0000      -1.141990       -31.0751
 148   2.0000      -1.103278       -30.0217
 149   2.0000      -1.055971       -28.7344
 150   2.0000      -1.055794       -28.7296
 151   2.0000      -1.030847       -28.0508
 152   2.0000      -1.029638       -28.0179
 153   2.0000      -1.029400       -28.0114
 154   2.0000      -1.028448       -27.9855
 155   2.0000      -1.026421       -27.9303
 156   2.0000      -1.015599       -27.6358
 157   2.0000      -1.013741       -27.5853
 158   2.0000      -1.013092       -27.5676
 159   2.0000      -1.012901       -27.5624
 160   2.0000      -1.011245       -27.5174
 161   2.0000      -1.007852       -27.4251
 162   2.0000      -1.001390       -27.2492
 163   2.0000      -1.000847       -27.2344
 164   2.0000      -0.985835       -26.8259
 165   2.0000      -0.981457       -26.7068
 166   2.0000      -0.979473       -26.6528
 167   2.0000      -0.969262       -26.3749
 168   2.0000      -0.962291       -26.1853
 169   2.0000      -0.933462       -25.4008
 170   2.0000      -0.929332       -25.2884
 171   2.0000      -0.923952       -25.1420
 172   2.0000      -0.922640       -25.1063
 173   2.0000      -0.915105       -24.9013
 174   2.0000      -0.913863       -24.8675
 175   2.0000      -0.908712       -24.7273
 176   2.0000      -0.901867       -24.5411
 177   2.0000      -0.890754       -24.2386
 178   2.0000      -0.885348       -24.0916
 179   2.0000      -0.879384       -23.9292
 180   2.0000      -0.878094       -23.8942
 181   2.0000      -0.867126       -23.5957
 182   2.0000      -0.865753       -23.5583
 183   2.0000      -0.861790       -23.4505
 184   2.0000      -0.857507       -23.3339
 185   2.0000      -0.855708       -23.2850
 186   2.0000      -0.854524       -23.2528
 187   2.0000      -0.821018       -22.3410
 188   2.0000      -0.807017       -21.9600
 189   2.0000      -0.795820       -21.6554
 190   2.0000      -0.789703       -21.4889
 191   2.0000      -0.784598       -21.3500
 192   2.0000      -0.777745       -21.1635
 193   2.0000      -0.775093       -21.0914
 194   2.0000      -0.770935       -20.9782
 195   2.0000      -0.767316       -20.8797
 196   2.0000      -0.764105       -20.7924
 197   2.0000      -0.744877       -20.2691
 198   2.0000      -0.730158       -19.8686
 199   2.0000      -0.722314       -19.6552
 200   2.0000      -0.709791       -19.3144
 201   2.0000      -0.707827       -19.2610
 202   2.0000      -0.702057       -19.1040
 203   2.0000      -0.700338       -19.0572
 204   2.0000      -0.696443       -18.9512
 205   2.0000      -0.694504       -18.8984
 206   2.0000      -0.688508       -18.7353
 207   2.0000      -0.685022       -18.6404
 208   2.0000      -0.676906       -18.4196
 209   2.0000      -0.671824       -18.2813
 210   2.0000      -0.660773       -17.9805
 211   2.0000      -0.656539       -17.8653
 212   2.0000      -0.650750       -17.7078
 213   2.0000      -0.646781       -17.5998
 214   2.0000      -0.639585       -17.4040
 215   2.0000      -0.636769       -17.3274
 216   2.0000      -0.627713       -17.0809
 217   2.0000      -0.624643       -16.9974
 218   2.0000      -0.624213       -16.9857
 219   2.0000      -0.621415       -16.9096
 220   2.0000      -0.620284       -16.8788
 221   2.0000      -0.609260       -16.5788
 222   2.0000      -0.604607       -16.4522
 223   2.0000      -0.595871       -16.2145
 224   2.0000      -0.590057       -16.0563
 225   2.0000      -0.587427       -15.9847
 226   2.0000      -0.583712       -15.8836
 227   2.0000      -0.575812       -15.6686
 228   2.0000      -0.566159       -15.4060
 229   2.0000      -0.561465       -15.2782
 230   2.0000      -0.560810       -15.2604
 231   2.0000      -0.558198       -15.1893
 232   2.0000      -0.556594       -15.1457
 233   2.0000      -0.553398       -15.0587
 234   2.0000      -0.552453       -15.0330
 235   2.0000      -0.550848       -14.9893
 236   2.0000      -0.549488       -14.9523
 237   2.0000      -0.548701       -14.9309
 238   2.0000      -0.547411       -14.8958
 239   2.0000      -0.539573       -14.6825
 240   2.0000      -0.538123       -14.6431
 241   2.0000      -0.537130       -14.6161
 242   2.0000      -0.532057       -14.4780
 243   2.0000      -0.527371       -14.3505
 244   2.0000      -0.522478       -14.2174
 245   2.0000      -0.522228       -14.2105
 246   2.0000      -0.515680       -14.0324
 247   2.0000      -0.513570       -13.9749
 248   2.0000      -0.512969       -13.9586
 249   2.0000      -0.511376       -13.9152
 250   2.0000      -0.509545       -13.8654
 251   2.0000      -0.507961       -13.8223
 252   2.0000      -0.505503       -13.7554
 253   2.0000      -0.504630       -13.7317
 254   2.0000      -0.500988       -13.6326
 255   2.0000      -0.499479       -13.5915
 256   2.0000      -0.496716       -13.5163
 257   2.0000      -0.494957       -13.4685
 258   2.0000      -0.492002       -13.3880
 259   2.0000      -0.489866       -13.3299
 260   2.0000      -0.486718       -13.2443
 261   2.0000      -0.484461       -13.1829
 262   2.0000      -0.480113       -13.0645
 263   2.0000      -0.476251       -12.9594
 264   2.0000      -0.468871       -12.7586
 265   2.0000      -0.468300       -12.7431
 266   2.0000      -0.467546       -12.7226
 267   2.0000      -0.466475       -12.6934
 268   2.0000      -0.465374       -12.6635
 269   2.0000      -0.464951       -12.6520
 270   2.0000      -0.463135       -12.6025
 271   2.0000      -0.462738       -12.5917
 272   2.0000      -0.461283       -12.5522
 273   2.0000      -0.458828       -12.4853
 274   2.0000      -0.458146       -12.4668
 275   2.0000      -0.457271       -12.4430
 276   2.0000      -0.456344       -12.4178
 277   2.0000      -0.454944       -12.3796
 278   2.0000      -0.449985       -12.2447
 279   2.0000      -0.449164       -12.2224
 280   2.0000      -0.448312       -12.1992
 281   2.0000      -0.447604       -12.1799
 282   2.0000      -0.445833       -12.1317
 283   2.0000      -0.445351       -12.1186
 284   2.0000      -0.444684       -12.1005
 285   2.0000      -0.442827       -12.0499
 286   2.0000      -0.436392       -11.8748
 287   2.0000      -0.436112       -11.8672
 288   2.0000      -0.435540       -11.8517
 289   2.0000      -0.435040       -11.8380
 290   2.0000      -0.433624       -11.7995
 291   2.0000      -0.432238       -11.7618
 292   2.0000      -0.431908       -11.7528
 293   2.0000      -0.430521       -11.7151
 294   2.0000      -0.425553       -11.5799
 295   2.0000      -0.423329       -11.5194
 296   2.0000      -0.417403       -11.3581
 297   2.0000      -0.416212       -11.3257
 298   2.0000      -0.407191       -11.0802
 299   2.0000      -0.404392       -11.0041
 300   2.0000      -0.401191       -10.9170
 301   2.0000      -0.400855       -10.9078
 302   2.0000      -0.398511       -10.8440
 303   2.0000      -0.391704       -10.6588
 304   2.0000      -0.390991       -10.6394
 305   2.0000      -0.387988       -10.5577
 306   2.0000      -0.377453       -10.2710
 307   2.0000      -0.365537        -9.9468
 308   2.0000      -0.360821        -9.8184
 309   2.0000      -0.357998        -9.7416
 310   2.0000      -0.354099        -9.6355
 311   2.0000      -0.352837        -9.6012
 312   2.0000      -0.350933        -9.5494
 313   2.0000      -0.348083        -9.4718
 314   2.0000      -0.345871        -9.4116
 315   2.0000      -0.344084        -9.3630
 316   2.0000      -0.339274        -9.2321
 317   2.0000      -0.338189        -9.2026
 318   2.0000      -0.335011        -9.1161
 319   2.0000      -0.331063        -9.0087
 320   2.0000      -0.329555        -8.9676
 321   2.0000      -0.317783        -8.6473
 322   2.0000      -0.314701        -8.5634
 323   2.0000      -0.311637        -8.4801
 324   2.0000      -0.282512        -7.6875
 325   2.0000      -0.258692        -7.0394
 326   0.0000      -0.124415        -3.3855
 327   0.0000      -0.116067        -3.1583
 328   0.0000      -0.095795        -2.6067
 329   0.0000      -0.094646        -2.5754
 330   0.0000      -0.079520        -2.1638

MULLIKEN ATOMIC CHARGES
-----------------------
   0 C :    0.155746
   1 O :   -0.142664
   2 C :   -0.019631
   3 C :    0.034459
   4 C :   -0.008993
   5 C :   -0.025784
   6 C :   -0.012884
   7 C :   -0.019508
   8 Br:    0.017018
   9 Br:    0.022512
  10 C :    0.304750
  11 C :   -0.345992
  12 C :   -0.185718
  13 N :    0.156775
  14 C :   -0.196664
  15 N :    0.159285
  16 C :   -0.095446
  17 C :    0.034922
  18 C :   -0.112534
  19 C :    0.010871
  20 C :   -0.013656
  21 C :   -0.079669
  22 S :    0.208070
  23 C :   -0.095091
  24 C :    0.037424
  25 C :    0.312486
  26 C :   -0.297949
  27 C :   -0.187577
  28 N :    0.176785
  29 C :   -0.191001
  30 N :    0.191432
  31 C :   -0.044178
  32 C :   -0.108369
  33 S :    0.169643
  34 C :    0.154322
  35 C :   -0.063028
  36 C :   -0.069512
  37 C :    0.167877
  38 C :   -0.045364
  39 N :   -0.029967
  40 C :    0.044580
  41 C :    0.045589
  42 N :   -0.036491
  43 C :   -0.036776
  44 C :   -0.116359
  45 C :   -0.043481
  46 C :    0.036421
  47 C :   -0.093002
  48 S :    0.165855
  49 C :   -0.070277
  50 C :   -0.004306
  51 C :    0.310670
  52 C :   -0.287981
  53 C :   -0.184730
  54 N :    0.168079
  55 C :   -0.182259
  56 N :    0.175138
  57 C :   -0.004549
  58 C :   -0.113483
  59 S :    0.216302
  60 C :    0.087489
  61 C :   -0.138609
  62 C :    0.135561
  63 O :   -0.137343
  64 C :    0.006327
  65 C :    0.015519
  66 C :    0.265436
  67 C :   -0.329885
  68 C :   -0.199762
  69 N :    0.173441
  70 C :   -0.173183
  71 N :    0.169910
  72 C :   -0.008289
  73 C :   -0.025021
  74 C :   -0.014608
  75 C :   -0.023398
  76 Br:    0.015134
  77 Br:    0.024554
  78 H :    0.007463
  79 H :    0.009712
  80 H :    0.015562
  81 H :    0.037230
  82 H :    0.023960
  83 H :   -0.004761
  84 H :   -0.005135
  85 H :    0.032297
  86 H :    0.031637
  87 H :    0.023934
  88 H :    0.026038
  89 H :    0.022070
  90 H :    0.016899
  91 H :    0.007684
Sum of atomic charges:   -0.0000000

LOEWDIN ATOMIC CHARGES
----------------------
   0 C :    0.085343
   1 O :   -0.131361
   2 C :   -0.041362
   3 C :   -0.012951
   4 C :   -0.006835
   5 C :   -0.118966
   6 C :   -0.122411
   7 C :    0.008109
   8 Br:    0.139654
   9 Br:    0.141822
  10 C :    0.075131
  11 C :   -0.137059
  12 C :   -0.020107
  13 N :   -0.045107
  14 C :   -0.024163
  15 N :   -0.049056
  16 C :   -0.101648
  17 C :    0.045518
  18 C :   -0.178826
  19 C :    0.023537
  20 C :   -0.073846
  21 C :   -0.155132
  22 S :    0.496444
  23 C :   -0.190301
  24 C :   -0.054944
  25 C :    0.075575
  26 C :   -0.091854
  27 C :   -0.013625
  28 N :   -0.030497
  29 C :   -0.021680
  30 N :   -0.016217
  31 C :   -0.019263
  32 C :   -0.144846
  33 S :    0.476991
  34 C :   -0.036743
  35 C :   -0.015526
  36 C :   -0.017938
  37 C :   -0.032560
  38 C :    0.002305
  39 N :   -0.024158
  40 C :    0.022286
  41 C :    0.022113
  42 N :   -0.025375
  43 C :    0.003178
  44 C :   -0.149782
  45 C :   -0.016623
  46 C :   -0.059605
  47 C :   -0.183442
  48 S :    0.477512
  49 C :   -0.156039
  50 C :   -0.065379
  51 C :    0.082414
  52 C :   -0.095585
  53 C :   -0.012232
  54 N :   -0.032272
  55 C :   -0.014510
  56 N :   -0.029606
  57 C :    0.011518
  58 C :   -0.184043
  59 S :    0.500052
  60 C :    0.046149
  61 C :   -0.095731
  62 C :    0.083383
  63 O :   -0.137062
  64 C :   -0.044933
  65 C :   -0.008462
  66 C :    0.064044
  67 C :   -0.130861
  68 C :   -0.015049
  69 N :   -0.042177
  70 C :   -0.021141
  71 N :   -0.037202
  72 C :   -0.006660
  73 C :   -0.117695
  74 C :   -0.123642
  75 C :    0.007045
  76 Br:    0.138344
  77 Br:    0.144494
  78 H :    0.044595
  79 H :    0.047677
  80 H :    0.043473
  81 H :    0.044585
  82 H :    0.038624
  83 H :    0.025590
  84 H :    0.025160
  85 H :    0.035246
  86 H :    0.034976
  87 H :    0.038382
  88 H :    0.042740
  89 H :    0.046688
  90 H :    0.046715
  91 H :    0.046678

  Mayer bond orders larger than 0.100000
B(  0-C ,  1-O ) :   2.1916 B(  0-C ,  2-C ) :   0.9470 B(  0-C , 16-C ) :   0.9477
B(  2-C ,  3-C ) :   1.3287 B(  2-C ,  7-C ) :   1.3737 B(  3-C ,  4-C ) :   1.3622
B(  3-C , 10-C ) :   0.9890 B(  4-C ,  5-C ) :   1.3710 B(  4-C , 78-H ) :   0.9801
B(  5-C ,  6-C ) :   1.4204 B(  5-C ,  9-Br) :   1.0581 B(  6-C ,  7-C ) :   1.3474
B(  6-C ,  8-Br) :   1.0355 B(  7-C , 79-H ) :   1.0093 B( 10-C , 11-C ) :   1.6360
B( 10-C , 16-C ) :   1.0861 B( 11-C , 12-C ) :   1.1410 B( 11-C , 14-C ) :   1.1392
B( 12-C , 13-N ) :   2.9715 B( 14-C , 15-N ) :   2.9829 B( 16-C , 17-C ) :   1.5753
B( 17-C , 18-C ) :   1.2221 B( 17-C , 80-H ) :   0.9186 B( 18-C , 19-C ) :   1.3881
B( 18-C , 22-S ) :   1.0722 B( 19-C , 20-C ) :   1.3372 B( 19-C , 81-H ) :   0.9723
B( 20-C , 21-C ) :   1.3735 B( 20-C , 25-C ) :   0.9899 B( 21-C , 22-S ) :   1.1692
B( 21-C , 23-C ) :   1.2033 B( 23-C , 24-C ) :   1.4261 B( 23-C , 33-S ) :   1.1162
B( 24-C , 25-C ) :   0.9978 B( 24-C , 31-C ) :   1.2430 B( 25-C , 26-C ) :   1.7173
B( 26-C , 27-C ) :   1.1403 B( 26-C , 29-C ) :   1.1337 B( 27-C , 28-N ) :   2.9883
B( 29-C , 30-N ) :   2.9953 B( 31-C , 32-C ) :   1.4746 B( 31-C , 82-H ) :   0.9816
B( 32-C , 33-S ) :   1.1036 B( 32-C , 34-C ) :   1.1044 B( 34-C , 35-C ) :   1.3926
B( 34-C , 37-C ) :   0.1201 B( 34-C , 43-C ) :   1.2160 B( 35-C , 36-C ) :   1.3037
B( 35-C , 83-H ) :   0.9868 B( 36-C , 37-C ) :   1.3873 B( 36-C , 84-H ) :   0.9868
B( 37-C , 38-C ) :   1.2159 B( 37-C , 44-C ) :   1.1121 B( 38-C , 39-N ) :   1.4745
B( 38-C , 43-C ) :   1.2418 B( 39-N , 40-C ) :   1.6294 B( 40-C , 41-C ) :   1.2289
B( 40-C , 85-H ) :   0.9750 B( 41-C , 42-N ) :   1.6325 B( 41-C , 86-H ) :   0.9749
B( 42-N , 43-C ) :   1.4692 B( 44-C , 45-C ) :   1.4757 B( 44-C , 48-S ) :   1.0999
B( 45-C , 46-C ) :   1.2336 B( 45-C , 87-H ) :   0.9815 B( 46-C , 47-C ) :   1.4307
B( 46-C , 51-C ) :   0.9993 B( 47-C , 48-S ) :   1.1223 B( 47-C , 49-C ) :   1.1933
B( 49-C , 50-C ) :   1.4038 B( 49-C , 59-S ) :   1.1574 B( 50-C , 51-C ) :   0.9948
B( 50-C , 57-C ) :   1.3681 B( 51-C , 52-C ) :   1.7169 B( 52-C , 53-C ) :   1.1330
B( 52-C , 55-C ) :   1.1349 B( 53-C , 54-N ) :   2.9798 B( 55-C , 56-N ) :   2.9904
B( 57-C , 58-C ) :   1.3859 B( 57-C , 88-H ) :   0.9782 B( 58-C , 59-S ) :   1.0848
B( 58-C , 60-C ) :   1.1494 B( 60-C , 61-C ) :   1.6549 B( 60-C , 89-H ) :   0.9291
B( 61-C , 62-C ) :   0.9498 B( 61-C , 66-C ) :   1.0402 B( 62-C , 63-O ) :   2.2685
B( 62-C , 64-C ) :   0.9206 B( 64-C , 65-C ) :   1.3294 B( 64-C , 75-C ) :   1.3742
B( 65-C , 66-C ) :   1.0003 B( 65-C , 72-C ) :   1.3698 B( 66-C , 67-C ) :   1.6583
B( 67-C , 68-C ) :   1.1740 B( 67-C , 70-C ) :   1.1235 B( 68-C , 69-N ) :   2.9971
B( 70-C , 71-N ) :   2.9957 B( 72-C , 73-C ) :   1.3688 B( 72-C , 90-H ) :   0.9834
B( 73-C , 74-C ) :   1.4211 B( 73-C , 77-Br) :   1.0546 B( 74-C , 75-C ) :   1.3541
B( 74-C , 76-Br) :   1.0346 B( 75-C , 91-H ) :   1.0083

-----------------------------------------------------------------------------
         ABSORPTION SPECTRUM VIA TRANSITION ELECTRIC DIPOLE MOMENTS
-----------------------------------------------------------------------------
State   Energy  Wavelength   fosc         T2         TX        TY        TZ
        (cm-1)    (nm)                  (au**2)     (au)      (au)      (au)
-----------------------------------------------------------------------------
   0   13182.3    758.6   0.865049097  21.60360  -2.92354  -3.42676   1.14624
   1   14244.5    702.0   0.073210031   1.69199   0.51036   1.19251   0.09717
   2   19258.3    519.3   1.599074660  27.33540  -3.45145  -3.78961   1.03041
   3   21024.5    475.6   0.320647230   5.02085   0.73256   2.11576  -0.08823
   4   21997.6    454.6   0.014730644   0.22046   0.15194   0.43657   0.08231
   5   23430.5    426.8   0.101996806   1.43312   0.51512   0.54711   0.93190
   6   24214.3    413.0   0.070323075   0.95609   0.50034   0.58860  -0.59942
   7   26308.2    380.1   0.019680719   0.24628  -0.02268  -0.49487   0.02949
   8   26896.4    371.8   0.059403484   0.72710   0.75445   0.26868  -0.29276
   9   27814.9    359.5   0.210212758   2.48804   0.51572   0.90217  -1.18666
  10   27836.7    359.2   0.012004564   0.14197  -0.36532  -0.09224   0.00141
  11   28074.6    356.2   0.022465504   0.26344  -0.13802  -0.25080   0.42601
  12   28764.9    347.6   0.033208325   0.38007  -0.39025   0.01164   0.47711
  13   28971.6    345.2   0.033971707   0.38603  -0.03147  -0.42889   0.44843
  14   29329.2    341.0   0.056048699   0.62913  -0.23441  -0.16384   0.73982
  15   29833.4    335.2   0.138636218   1.52985  -0.88747  -0.03059   0.86099
  16   30170.8    331.4   0.360452021   3.93311  -0.45108  -1.77374  -0.76385
  17   30379.8    329.2   0.231809318   2.51201  -0.31503  -1.22391   0.95646
  18   30542.8    327.4   0.122162008   1.31675  -0.32448   0.15595   1.08956
  19   30740.8    325.3   0.175755482   1.88222   0.09921   0.65009   1.20406
  20   31278.2    319.7   0.015111345   0.15905   0.01827   0.39648  -0.03901
  21   31815.8    314.3   0.150363353   1.55587   0.42518   0.56587  -1.02708
  22   32353.0    309.1   0.348842356   3.54969   1.09507   1.35576  -0.71585
  23   32459.0    308.1   0.030967371   0.31408  -0.03470  -0.48927  -0.27110
  24   32628.7    306.5   0.041138231   0.41507   0.06504  -0.36655  -0.52581
  25   32697.5    305.8   0.010049908   0.10119  -0.04514  -0.31200   0.04248
  26   32980.1    303.2   0.087605807   0.87449  -0.36007  -0.69486   0.51186
  27   33028.6    302.8   0.058573124   0.58383   0.56421   0.35192   0.37636
  28   33360.5    299.8   0.097272540   0.95992  -0.28994  -0.56084  -0.74921
  29   33618.4    297.5   0.173711613   1.70109  -0.30589  -0.94586   0.84432
  30   33663.8    297.1   0.196734875   1.92395  -0.38586  -1.23823   0.49179
  31   33766.8    296.1   0.003134750   0.03056  -0.05636  -0.11196  -0.12187
  32   34325.1    291.3   0.117040997   1.12254   0.08198  -0.49411  -0.93363
  33   34607.4    289.0   0.171253767   1.62910   0.77227  -0.30927  -0.96801
  34   34661.1    288.5   0.092867677   0.88206   0.26367  -0.02979   0.90092
  35   35083.4    285.0   0.114675628   1.07608  -0.19189  -0.10828   1.01367
  36   35315.0    283.2   0.182626793   1.70247  -0.35082  -0.95028   0.82241
  37   35400.7    282.5   0.077140894   0.71738  -0.39719  -0.18634  -0.72450
  38   35622.2    280.7   0.376917271   3.48338   0.01959  -0.01423   1.86622
  39   35873.8    278.8   0.099117859   0.90960   0.63675   0.67016  -0.23459
  40   35959.9    278.1   0.353006584   3.23177   0.35087   0.90822  -1.51122
  41   36147.8    276.6   0.060694523   0.55277  -0.45196   0.01678  -0.59010
  42   36282.4    275.6   0.082628625   0.74974   0.41396   0.36829  -0.66538
  43   36510.1    273.9   0.223719559   2.01728   0.56433   1.15237   0.60897
  44   36783.7    271.9   0.092598733   0.82875   0.36648  -0.06996  -0.83039
  45   36880.7    271.1   0.029848717   0.26644  -0.06474   0.08713   0.50464
  46   36995.3    270.3   0.002326303   0.02070   0.08096  -0.06982  -0.09629
  47   37235.3    268.6   0.003671894   0.03246  -0.15927   0.07960  -0.02759
  48   37403.5    267.4   0.053826421   0.47376   0.22094   0.32432  -0.56548
  49   37426.1    267.2   0.025117673   0.22094  -0.00723  -0.15016  -0.44536
  50   37557.8    266.3   0.135705574   1.18952   0.19259   0.52439   0.93672
  51   37668.3    265.5   0.017640697   0.15418  -0.16456  -0.35602  -0.01865
  52   37896.2    263.9   0.141250644   1.22707   0.57799   0.91818   0.22348
  53   38484.6    259.8   0.062337071   0.53325  -0.31806   0.00997   0.65726
  54   38546.5    259.4   0.018160542   0.15510   0.05812   0.22980   0.31451
  55   39145.1    255.5   0.097553764   0.82043   0.48205   0.69515   0.32377
  56   39501.6    253.2   0.027584501   0.22989   0.28919   0.18660  -0.33383
  57   39773.6    251.4   0.074381994   0.61567   0.17704  -0.52697  -0.55374
  58   40147.5    249.1   0.026366604   0.21621   0.04000   0.22785   0.40335
  59   40266.6    248.3   0.079328943   0.64858   0.02656   0.20645  -0.77798
  60   40305.1    248.1   0.026558321   0.21693  -0.05017  -0.06469  -0.45851

FINAL SINGLE POINT ENERGY    -14800.810231783435

DIPOLE MOMENT
-------------
                                X             Y             Z
Electronic contribution:    -22.96809       8.02814     -22.01698
Nuclear contribution   :     22.29090      -8.07706      24.02332
                        -----------------------------------------
Total Dipole Moment    :     -0.67719      -0.04892       2.00634
                        -----------------------------------------
Magnitude (a.u.)       :      2.11811
Magnitude (Debye)      :      5.38381

Rotational constants in cm-1:     0.002526     0.000091     0.000089
Rotational constants in MHz :    75.719054     2.729159     2.669340

                             ****ORCA TERMINATED NORMALLY****
TOTAL RUN TIME: 0 days 0 hours 10 minutes 0 seconds 498 msec
