                         Program Version 4.2.0 -  RELEASE  -
|  1> # ORCA input file
|  2> # SCF done       -196.223554807850          0.000941663710
|  3> ! CAM-B3LYP def2-SVP def2/J RIJCOSX Grid4 TightSCF
|  4> %maxcore 5000
|  5> %tddft
|  6>     Mode sTDDFT
|  7>     Ethresh 5.0
|  8>     maxcore 5000
|  9> end
| 10>
| 11> %pal
| 12>   nprocs 6
| 13>   end
| 14> * xyz 0 1
| 15>    C        2.00300        -3.75840        -2.15627
| 16>    O        1.17514        -4.64243        -2.10311
| 17>    C        2.26998        -2.86836        -3.30823
| 18>    C        3.32114        -1.98603        -2.99898
| 19>    C        3.74818        -1.06673        -3.94235
| 20>    C        3.11578        -1.04213        -5.18046
| 21>    C        2.07032        -1.91943        -5.47769
| 22>    C        1.64111        -2.84558        -4.53567
| 23>   Br        1.22852        -1.86037        -7.16846
| 24>   Br        3.69873         0.20538        -6.47490
| 25>    C        3.77433        -2.25510        -1.63834
| 26>    C        4.66866        -1.51360        -0.91658
| 27>    C        5.36209        -0.39704        -1.42941
| 28>    N        5.94542         0.51557        -1.80736
| 29>    C        4.95402        -1.74836         0.44672
| 30>    N        5.19660        -1.86751         1.56163
| 31>    C        3.02634        -3.39566        -1.14875
| 32>    C        3.37614        -4.21148        -0.11170
| 33>    C        2.60325        -5.30103         0.35533
| 34>    C        1.25855        -5.48976         0.52793
| 35>    C        1.02624        -6.87257         0.94768
| 36>    N        2.22768        -7.49719         1.04984
| 37>    C        3.24878        -6.59306         0.75322
| 38>    O        4.42353        -6.85216         0.81026
| 39>    C        2.47481        -8.84855         1.47122
| 40>    C       -0.29195        -7.03989         1.21897
| 41>    C       -0.92769        -5.70662         0.99694
| 42>    O       -2.07928        -5.38287         1.10258
| 43>    N        0.09361        -4.81780         0.59498
| 44>    C       -0.14255        -3.41052         0.42186
| 45>    C       -1.07525        -8.18644         1.60573
| 46>    C       -1.00727        -9.41779         0.92588
| 47>    C       -1.86271       -10.51236         1.28317
| 48>    N       -1.87670       -11.63320         0.52625
| 49>    C       -1.04971       -11.71251        -0.47236
| 50>    C       -0.14863       -10.66487        -0.77748
| 51>    N       -0.14369        -9.54850        -0.10959
| 52>    C       -2.75464       -10.43917         2.37387
| 53>    C       -2.84719        -9.20476         3.03066
| 54>    C       -2.01023        -8.08954         2.64564
| 55>    N       -2.18785        -7.03700         3.45256
| 56>    S       -3.29340        -7.39691         4.54364
| 57>    N       -3.60752        -8.90197         4.09144
| 58>    C       -3.41171       -11.63787         2.82859
| 59>    C       -4.66584       -11.92244         3.26386
| 60>    C       -4.72653       -13.32883         3.64611
| 61>    N       -3.51050       -13.88583         3.47015
| 62>    C       -2.62636       -12.90450         2.98540
| 63>    O       -1.45168       -13.09817         2.82042
| 64>    C       -3.10888       -15.23270         3.77237
| 65>    C       -5.97378       -13.61645         4.12490
| 66>    C       -6.75849       -12.35083         3.96265
| 67>    O       -7.93294       -12.16458         4.17782
| 68>    N       -5.90431       -11.38801         3.43388
| 69>    C       -6.32936       -10.04962         3.12657
| 70>    C       -6.49819       -14.84229         4.60479
| 71>    C       -7.56493       -15.03370         5.42594
| 72>    C       -8.21869       -16.36925         5.47662
| 73>    O       -7.78651       -17.40785         5.03567
| 74>    C       -9.52204       -16.12893         6.13356
| 75>    C       -9.59107       -14.79066         6.56522
| 76>    C       -8.32367       -14.12981         6.26604
| 77>    C       -7.85649       -12.99721         6.87313
| 78>    C       -6.52964       -12.54320         6.73581
| 79>    N       -5.44438       -12.17432         6.67197
| 80>    C       -8.61858       -12.20497         7.75656
| 81>    N       -9.20060       -11.52996         8.47872
| 82>    C      -10.73885       -14.32185         7.18057
| 83>    C      -11.79985       -15.20112         7.36366
| 84>    C      -11.71819       -16.53214         6.94725
| 85>    C      -10.57094       -17.00499         6.32329
| 86>   Br      -13.17092       -17.70892         7.22172
| 87>   Br      -13.37362       -14.56346         8.19164
| 88>    H        4.55641        -0.38013        -3.74794
| 89>    H        0.83729        -3.53066        -4.75656
| 90>    H        4.36243        -4.12221         0.32954
| 91>    H        2.00105        -9.54646         0.78133
| 92>    H        2.07821        -9.01300         2.47486
| 93>    H        3.55378        -8.99799         1.47403
| 94>    H       -1.14755        -3.20515         0.78983
| 95>    H       -0.08478        -3.12622        -0.62867
| 96>    H        0.58735        -2.83584         0.99378
| 97>    H       -1.09601       -12.60865        -1.07534
| 98>    H        0.55393       -10.74494        -1.59622
| 99>    H       -3.39525       -15.49260         4.79236
|100>    H       -2.02511       -15.28030         3.67056
|101>    H       -3.56532       -15.93901         3.07629
|102>    H       -7.38695        -9.97710         3.37651
|103>    H       -6.18629        -9.84023         2.06502
|104>    H       -5.75342        -9.33709         3.71758
|105>    H       -6.04713       -15.75054         4.21734
|106>    H      -10.83432       -13.29835         7.50599
|107>    H      -10.50083       -18.03035         5.99467
|108> *
|109>
|110>                          ****END OF INPUT****

CARTESIAN COORDINATES (ANGSTROEM)
---------------------------------
  C      2.003000   -3.758400   -2.156270
  O      1.175140   -4.642430   -2.103110
  C      2.269980   -2.868360   -3.308230
  C      3.321140   -1.986030   -2.998980
  C      3.748180   -1.066730   -3.942350
  C      3.115780   -1.042130   -5.180460
  C      2.070320   -1.919430   -5.477690
  C      1.641110   -2.845580   -4.535670
  Br     1.228520   -1.860370   -7.168460
  Br     3.698730    0.205380   -6.474900
  C      3.774330   -2.255100   -1.638340
  C      4.668660   -1.513600   -0.916580
  C      5.362090   -0.397040   -1.429410
  N      5.945420    0.515570   -1.807360
  C      4.954020   -1.748360    0.446720
  N      5.196600   -1.867510    1.561630
  C      3.026340   -3.395660   -1.148750
  C      3.376140   -4.211480   -0.111700
  C      2.603250   -5.301030    0.355330
  C      1.258550   -5.489760    0.527930
  C      1.026240   -6.872570    0.947680
  N      2.227680   -7.497190    1.049840
  C      3.248780   -6.593060    0.753220
  O      4.423530   -6.852160    0.810260
  C      2.474810   -8.848550    1.471220
  C     -0.291950   -7.039890    1.218970
  C     -0.927690   -5.706620    0.996940
  O     -2.079280   -5.382870    1.102580
  N      0.093610   -4.817800    0.594980
  C     -0.142550   -3.410520    0.421860
  C     -1.075250   -8.186440    1.605730
  C     -1.007270   -9.417790    0.925880
  C     -1.862710  -10.512360    1.283170
  N     -1.876700  -11.633200    0.526250
  C     -1.049710  -11.712510   -0.472360
  C     -0.148630  -10.664870   -0.777480
  N     -0.143690   -9.548500   -0.109590
  C     -2.754640  -10.439170    2.373870
  C     -2.847190   -9.204760    3.030660
  C     -2.010230   -8.089540    2.645640
  N     -2.187850   -7.037000    3.452560
  S     -3.293400   -7.396910    4.543640
  N     -3.607520   -8.901970    4.091440
  C     -3.411710  -11.637870    2.828590
  C     -4.665840  -11.922440    3.263860
  C     -4.726530  -13.328830    3.646110
  N     -3.510500  -13.885830    3.470150
  C     -2.626360  -12.904500    2.985400
  O     -1.451680  -13.098170    2.820420
  C     -3.108880  -15.232700    3.772370
  C     -5.973780  -13.616450    4.124900
  C     -6.758490  -12.350830    3.962650
  O     -7.932940  -12.164580    4.177820
  N     -5.904310  -11.388010    3.433880
  C     -6.329360  -10.049620    3.126570
  C     -6.498190  -14.842290    4.604790
  C     -7.564930  -15.033700    5.425940
  C     -8.218690  -16.369250    5.476620
  O     -7.786510  -17.407850    5.035670
  C     -9.522040  -16.128930    6.133560
  C     -9.591070  -14.790660    6.565220
  C     -8.323670  -14.129810    6.266040
  C     -7.856490  -12.997210    6.873130
  C     -6.529640  -12.543200    6.735810
  N     -5.444380  -12.174320    6.671970
  C     -8.618580  -12.204970    7.756560
  N     -9.200600  -11.529960    8.478720
  C    -10.738850  -14.321850    7.180570
  C    -11.799850  -15.201120    7.363660
  C    -11.718190  -16.532140    6.947250
  C    -10.570940  -17.004990    6.323290
  Br   -13.170920  -17.708920    7.221720
  Br   -13.373620  -14.563460    8.191640
  H      4.556410   -0.380130   -3.747940
  H      0.837290   -3.530660   -4.756560
  H      4.362430   -4.122210    0.329540
  H      2.001050   -9.546460    0.781330
  H      2.078210   -9.013000    2.474860
  H      3.553780   -8.997990    1.474030
  H     -1.147550   -3.205150    0.789830
  H     -0.084780   -3.126220   -0.628670
  H      0.587350   -2.835840    0.993780
  H     -1.096010  -12.608650   -1.075340
  H      0.553930  -10.744940   -1.596220
  H     -3.395250  -15.492600    4.792360
  H     -2.025110  -15.280300    3.670560
  H     -3.565320  -15.939010    3.076290
  H     -7.386950   -9.977100    3.376510
  H     -6.186290   -9.840230    2.065020
  H     -5.753420   -9.337090    3.717580
  H     -6.047130  -15.750540    4.217340
  H    -10.834320  -13.298350    7.505990
  H    -10.500830  -18.030350    5.994670

 Total Charge           Charge          ....    0
 Multiplicity           Mult            ....    1
 Number of Electrons    NEL             ....  608
 Basis Dimension        Dim             .... 1198

ORBITAL ENERGIES
----------------

  NO   OCC          E(Eh)            E(eV)
   0   2.0000    -482.881259    -13139.8671
   1   2.0000    -482.879352    -13139.8152
   2   2.0000    -482.875671    -13139.7150
   3   2.0000    -482.874337    -13139.6787
   4   2.0000     -89.046012     -2423.0652
   5   2.0000     -62.558898     -1702.3142
   6   2.0000     -62.556982     -1702.2620
   7   2.0000     -62.553279     -1702.1613
   8   2.0000     -62.551965     -1702.1255
   9   2.0000     -56.392850     -1534.5275
  10   2.0000     -56.390950     -1534.4758
  11   2.0000     -56.390194     -1534.4552
  12   2.0000     -56.390095     -1534.4525
  13   2.0000     -56.388272     -1534.4029
  14   2.0000     -56.388172     -1534.4002
  15   2.0000     -56.387224     -1534.3744
  16   2.0000     -56.385921     -1534.3389
  17   2.0000     -56.384578     -1534.3024
  18   2.0000     -56.384487     -1534.2999
  19   2.0000     -56.383257     -1534.2664
  20   2.0000     -56.383167     -1534.2640
  21   2.0000     -19.230117      -523.2781
  22   2.0000     -19.226738      -523.1861
  23   2.0000     -19.224825      -523.1341
  24   2.0000     -19.222594      -523.0734
  25   2.0000     -19.219696      -522.9945
  26   2.0000     -19.218225      -522.9545
  27   2.0000     -14.483147      -394.1065
  28   2.0000     -14.479502      -394.0073
  29   2.0000     -14.474906      -393.8822
  30   2.0000     -14.473849      -393.8535
  31   2.0000     -14.451107      -393.2346
  32   2.0000     -14.450653      -393.2223
  33   2.0000     -14.443149      -393.0181
  34   2.0000     -14.439518      -392.9193
  35   2.0000     -14.423501      -392.4834
  36   2.0000     -14.421674      -392.4337
  37   2.0000     -14.420528      -392.4025
  38   2.0000     -14.416436      -392.2912
  39   2.0000     -10.405077      -283.1365
  40   2.0000     -10.402133      -283.0564
  41   2.0000     -10.400428      -283.0100
  42   2.0000     -10.398759      -282.9646
  43   2.0000     -10.381412      -282.4926
  44   2.0000     -10.373263      -282.2708
  45   2.0000     -10.364057      -282.0203
  46   2.0000     -10.362493      -281.9778
  47   2.0000     -10.358628      -281.8726
  48   2.0000     -10.358251      -281.8623
  49   2.0000     -10.354217      -281.7526
  50   2.0000     -10.353919      -281.7445
  51   2.0000     -10.353829      -281.7420
  52   2.0000     -10.352724      -281.7119
  53   2.0000     -10.351914      -281.6899
  54   2.0000     -10.350053      -281.6392
  55   2.0000     -10.345002      -281.5018
  56   2.0000     -10.342673      -281.4384
  57   2.0000     -10.341578      -281.4086
  58   2.0000     -10.339111      -281.3415
  59   2.0000     -10.338894      -281.3356
  60   2.0000     -10.338304      -281.3196
  61   2.0000     -10.337171      -281.2887
  62   2.0000     -10.335008      -281.2299
  63   2.0000     -10.330544      -281.1084
  64   2.0000     -10.326310      -280.9932
  65   2.0000     -10.325276      -280.9650
  66   2.0000     -10.325090      -280.9600
  67   2.0000     -10.323591      -280.9192
  68   2.0000     -10.322763      -280.8966
  69   2.0000     -10.322293      -280.8839
  70   2.0000     -10.318603      -280.7835
  71   2.0000     -10.318342      -280.7764
  72   2.0000     -10.317499      -280.7534
  73   2.0000     -10.317084      -280.7421
  74   2.0000     -10.316841      -280.7355
  75   2.0000     -10.316483      -280.7258
  76   2.0000     -10.316315      -280.7212
  77   2.0000     -10.312238      -280.6103
  78   2.0000     -10.310929      -280.5746
  79   2.0000     -10.309839      -280.5450
  80   2.0000     -10.309412      -280.5334
  81   2.0000     -10.309408      -280.5333
  82   2.0000     -10.307797      -280.4894
  83   2.0000     -10.307290      -280.4756
  84   2.0000     -10.307193      -280.4730
  85   2.0000     -10.306076      -280.4426
  86   2.0000     -10.303573      -280.3745
  87   2.0000     -10.302627      -280.3487
  88   2.0000     -10.301362      -280.3143
  89   2.0000      -8.788237      -239.1401
  90   2.0000      -8.786313      -239.0877
  91   2.0000      -8.782597      -238.9866
  92   2.0000      -8.781292      -238.9511
  93   2.0000      -8.137077      -221.4211
  94   2.0000      -6.624380      -180.2586
  95   2.0000      -6.622511      -180.2077
  96   2.0000      -6.618698      -180.1039
  97   2.0000      -6.617434      -180.0695
  98   2.0000      -6.610361      -179.8771
  99   2.0000      -6.609565      -179.8554
 100   2.0000      -6.608401      -179.8237
 101   2.0000      -6.607623      -179.8026
 102   2.0000      -6.604727      -179.7238
 103   2.0000      -6.603964      -179.7030
 104   2.0000      -6.603406      -179.6878
 105   2.0000      -6.602630      -179.6667
 106   2.0000      -6.107924      -166.2051
 107   2.0000      -6.100354      -165.9991
 108   2.0000      -6.100172      -165.9941
 109   2.0000      -2.740233       -74.5655
 110   2.0000      -2.738358       -74.5145
 111   2.0000      -2.736524       -74.4646
 112   2.0000      -2.735943       -74.4488
 113   2.0000      -2.734622       -74.4129
 114   2.0000      -2.734616       -74.4127
 115   2.0000      -2.734025       -74.3966
 116   2.0000      -2.733350       -74.3782
 117   2.0000      -2.730822       -74.3094
 118   2.0000      -2.730287       -74.2949
 119   2.0000      -2.729565       -74.2752
 120   2.0000      -2.728966       -74.2589
 121   2.0000      -2.724760       -74.1445
 122   2.0000      -2.724742       -74.1440
 123   2.0000      -2.722800       -74.0912
 124   2.0000      -2.722767       -74.0903
 125   2.0000      -2.719143       -73.9916
 126   2.0000      -2.719124       -73.9911
 127   2.0000      -2.717804       -73.9552
 128   2.0000      -2.717783       -73.9546
 129   2.0000      -1.167923       -31.7808
 130   2.0000      -1.165607       -31.7178
 131   2.0000      -1.158406       -31.5218
 132   2.0000      -1.156710       -31.4757
 133   2.0000      -1.145607       -31.1735
 134   2.0000      -1.140881       -31.0450
 135   2.0000      -1.137916       -30.9643
 136   2.0000      -1.102349       -29.9964
 137   2.0000      -1.100428       -29.9442
 138   2.0000      -1.097362       -29.8607
 139   2.0000      -1.068483       -29.0749
 140   2.0000      -1.066780       -29.0286
 141   2.0000      -1.030094       -28.0303
 142   2.0000      -1.024050       -27.8658
 143   2.0000      -1.022721       -27.8297
 144   2.0000      -1.013341       -27.5744
 145   2.0000      -1.008702       -27.4482
 146   2.0000      -1.001049       -27.2399
 147   2.0000      -0.997151       -27.1339
 148   2.0000      -0.993821       -27.0432
 149   2.0000      -0.983163       -26.7532
 150   2.0000      -0.976868       -26.5819
 151   2.0000      -0.976273       -26.5657
 152   2.0000      -0.941612       -25.6226
 153   2.0000      -0.940802       -25.6005
 154   2.0000      -0.935571       -25.4582
 155   2.0000      -0.925669       -25.1887
 156   2.0000      -0.922450       -25.1011
 157   2.0000      -0.918584       -24.9959
 158   2.0000      -0.916525       -24.9399
 159   2.0000      -0.910838       -24.7852
 160   2.0000      -0.897656       -24.4265
 161   2.0000      -0.892479       -24.2856
 162   2.0000      -0.881477       -23.9862
 163   2.0000      -0.873645       -23.7731
 164   2.0000      -0.859292       -23.3825
 165   2.0000      -0.857336       -23.3293
 166   2.0000      -0.852769       -23.2050
 167   2.0000      -0.851365       -23.1668
 168   2.0000      -0.827388       -22.5144
 169   2.0000      -0.818587       -22.2749
 170   2.0000      -0.809293       -22.0220
 171   2.0000      -0.797303       -21.6957
 172   2.0000      -0.796383       -21.6707
 173   2.0000      -0.781769       -21.2730
 174   2.0000      -0.780187       -21.2300
 175   2.0000      -0.773416       -21.0457
 176   2.0000      -0.769793       -20.9471
 177   2.0000      -0.765256       -20.8237
 178   2.0000      -0.757250       -20.6058
 179   2.0000      -0.752792       -20.4845
 180   2.0000      -0.734957       -19.9992
 181   2.0000      -0.722319       -19.6553
 182   2.0000      -0.716969       -19.5097
 183   2.0000      -0.712510       -19.3884
 184   2.0000      -0.708632       -19.2829
 185   2.0000      -0.701331       -19.0842
 186   2.0000      -0.698898       -19.0180
 187   2.0000      -0.691669       -18.8213
 188   2.0000      -0.684667       -18.6307
 189   2.0000      -0.680209       -18.5094
 190   2.0000      -0.672584       -18.3019
 191   2.0000      -0.657976       -17.9044
 192   2.0000      -0.655356       -17.8332
 193   2.0000      -0.653848       -17.7921
 194   2.0000      -0.644624       -17.5411
 195   2.0000      -0.638366       -17.3708
 196   2.0000      -0.628536       -17.1033
 197   2.0000      -0.625753       -17.0276
 198   2.0000      -0.622778       -16.9467
 199   2.0000      -0.620384       -16.8815
 200   2.0000      -0.617711       -16.8088
 201   2.0000      -0.614645       -16.7253
 202   2.0000      -0.608604       -16.5610
 203   2.0000      -0.603575       -16.4241
 204   2.0000      -0.600338       -16.3360
 205   2.0000      -0.596554       -16.2331
 206   2.0000      -0.592108       -16.1121
 207   2.0000      -0.585961       -15.9448
 208   2.0000      -0.582979       -15.8637
 209   2.0000      -0.572773       -15.5859
 210   2.0000      -0.571064       -15.5394
 211   2.0000      -0.570215       -15.5163
 212   2.0000      -0.569770       -15.5042
 213   2.0000      -0.567738       -15.4489
 214   2.0000      -0.566781       -15.4229
 215   2.0000      -0.563439       -15.3320
 216   2.0000      -0.556319       -15.1382
 217   2.0000      -0.555050       -15.1037
 218   2.0000      -0.551653       -15.0112
 219   2.0000      -0.550127       -14.9697
 220   2.0000      -0.546381       -14.8678
 221   2.0000      -0.545674       -14.8485
 222   2.0000      -0.544529       -14.8174
 223   2.0000      -0.541282       -14.7290
 224   2.0000      -0.537961       -14.6387
 225   2.0000      -0.535596       -14.5743
 226   2.0000      -0.532787       -14.4979
 227   2.0000      -0.530204       -14.4276
 228   2.0000      -0.528217       -14.3735
 229   2.0000      -0.526221       -14.3192
 230   2.0000      -0.522751       -14.2248
 231   2.0000      -0.517673       -14.0866
 232   2.0000      -0.512963       -13.9584
 233   2.0000      -0.511858       -13.9284
 234   2.0000      -0.511319       -13.9137
 235   2.0000      -0.509058       -13.8522
 236   2.0000      -0.507415       -13.8075
 237   2.0000      -0.505384       -13.7522
 238   2.0000      -0.503872       -13.7110
 239   2.0000      -0.500230       -13.6120
 240   2.0000      -0.496096       -13.4994
 241   2.0000      -0.495337       -13.4788
 242   2.0000      -0.494594       -13.4586
 243   2.0000      -0.493405       -13.4262
 244   2.0000      -0.491037       -13.3618
 245   2.0000      -0.490094       -13.3361
 246   2.0000      -0.483468       -13.1558
 247   2.0000      -0.481606       -13.1052
 248   2.0000      -0.480860       -13.0849
 249   2.0000      -0.474651       -12.9159
 250   2.0000      -0.472887       -12.8679
 251   2.0000      -0.468187       -12.7400
 252   2.0000      -0.464872       -12.6498
 253   2.0000      -0.461941       -12.5701
 254   2.0000      -0.459387       -12.5006
 255   2.0000      -0.457367       -12.4456
 256   2.0000      -0.454748       -12.3743
 257   2.0000      -0.452094       -12.3021
 258   2.0000      -0.450262       -12.2523
 259   2.0000      -0.449249       -12.2247
 260   2.0000      -0.445881       -12.1330
 261   2.0000      -0.442412       -12.0386
 262   2.0000      -0.436515       -11.8782
 263   2.0000      -0.436047       -11.8654
 264   2.0000      -0.434424       -11.8213
 265   2.0000      -0.432604       -11.7717
 266   2.0000      -0.431738       -11.7482
 267   2.0000      -0.429364       -11.6836
 268   2.0000      -0.426169       -11.5967
 269   2.0000      -0.420025       -11.4295
 270   2.0000      -0.419353       -11.4112
 271   2.0000      -0.417651       -11.3649
 272   2.0000      -0.415518       -11.3068
 273   2.0000      -0.410350       -11.1662
 274   2.0000      -0.405124       -11.0240
 275   2.0000      -0.404106       -10.9963
 276   2.0000      -0.402194       -10.9443
 277   2.0000      -0.398625       -10.8471
 278   2.0000      -0.395637       -10.7658
 279   2.0000      -0.393969       -10.7204
 280   2.0000      -0.391573       -10.6552
 281   2.0000      -0.388949       -10.5838
 282   2.0000      -0.384541       -10.4639
 283   2.0000      -0.380234       -10.3467
 284   2.0000      -0.374131       -10.1806
 285   2.0000      -0.366760        -9.9801
 286   2.0000      -0.362483        -9.8637
 287   2.0000      -0.356768        -9.7082
 288   2.0000      -0.354128        -9.6363
 289   2.0000      -0.353864        -9.6291
 290   2.0000      -0.348789        -9.4910
 291   2.0000      -0.346986        -9.4420
 292   2.0000      -0.345170        -9.3926
 293   2.0000      -0.341861        -9.3025
 294   2.0000      -0.340992        -9.2789
 295   2.0000      -0.339754        -9.2452
 296   2.0000      -0.338590        -9.2135
 297   2.0000      -0.332434        -9.0460
 298   2.0000      -0.318930        -8.6785
 299   2.0000      -0.316556        -8.6139
 300   2.0000      -0.308206        -8.3867
 301   2.0000      -0.294407        -8.0112
 302   2.0000      -0.293134        -7.9766
 303   2.0000      -0.270997        -7.3742
 304   0.0000      -0.112711        -3.0670
 305   0.0000      -0.098685        -2.6854
 306   0.0000      -0.093011        -2.5310
 307   0.0000      -0.076982        -2.0948
 308   0.0000      -0.068633        -1.8676

MULLIKEN ATOMIC CHARGES
-----------------------
   0 C :    0.134685
   1 O :   -0.152761
   2 C :   -0.017767
   3 C :    0.043999
   4 C :   -0.015442
   5 C :   -0.020457
   6 C :   -0.015364
   7 C :   -0.022662
   8 Br:    0.015716
   9 Br:    0.024308
  10 C :    0.279301
  11 C :   -0.317523
  12 C :   -0.186966
  13 N :    0.161326
  14 C :   -0.208094
  15 N :    0.175444
  16 C :   -0.117168
  17 C :    0.001778
  18 C :   -0.170523
  19 C :    0.204003
  20 C :    0.196049
  21 N :   -0.230074
  22 C :    0.164552
  23 O :   -0.157330
  24 C :    0.128152
  25 C :   -0.227925
  26 C :    0.178044
  27 O :   -0.132414
  28 N :   -0.224845
  29 C :    0.119984
  30 C :    0.081114
  31 C :   -0.094764
  32 C :   -0.054956
  33 N :    0.005347
  34 C :    0.032762
  35 C :    0.038721
  36 N :   -0.032315
  37 C :    0.078355
  38 C :   -0.001568
  39 C :    0.005328
  40 N :   -0.254555
  41 S :    0.554646
  42 N :   -0.291566
  43 C :   -0.233974
  44 C :    0.213380
  45 C :    0.197660
  46 N :   -0.226753
  47 C :    0.176183
  48 O :   -0.140253
  49 C :    0.116660
  50 C :   -0.152766
  51 C :    0.152778
  52 O :   -0.165615
  53 N :   -0.216555
  54 C :    0.127915
  55 C :   -0.017787
  56 C :   -0.128526
  57 C :    0.136093
  58 O :   -0.138775
  59 C :    0.000711
  60 C :    0.017326
  61 C :    0.306747
  62 C :   -0.295945
  63 C :   -0.200386
  64 N :    0.151321
  65 C :   -0.189071
  66 N :    0.162320
  67 C :   -0.007726
  68 C :   -0.021208
  69 C :   -0.018013
  70 C :   -0.021599
  71 Br:    0.011674
  72 Br:    0.019951
  73 H :    0.009433
  74 H :    0.004738
  75 H :    0.047106
  76 H :    0.042885
  77 H :    0.037724
  78 H :    0.055552
  79 H :    0.055924
  80 H :    0.050916
  81 H :    0.043195
  82 H :    0.017073
  83 H :    0.022137
  84 H :    0.050705
  85 H :    0.061712
  86 H :    0.049247
  87 H :    0.053152
  88 H :    0.033479
  89 H :    0.045665
  90 H :    0.008874
  91 H :    0.012648
  92 H :    0.005496
Sum of atomic charges:   -0.0000000

LOEWDIN ATOMIC CHARGES
----------------------
   0 C :    0.078615
   1 O :   -0.142140
   2 C :   -0.042684
   3 C :   -0.011852
   4 C :   -0.005933
   5 C :   -0.118914
   6 C :   -0.122963
   7 C :    0.005189
   8 Br:    0.138651
   9 Br:    0.143401
  10 C :    0.071468
  11 C :   -0.127756
  12 C :   -0.020314
  13 N :   -0.041115
  14 C :   -0.026431
  15 N :   -0.039656
  16 C :   -0.103362
  17 C :    0.089377
  18 C :   -0.132510
  19 C :    0.100638
  20 C :    0.073283
  21 N :   -0.006777
  22 C :    0.100409
  23 O :   -0.157490
  24 C :    0.033680
  25 C :   -0.098897
  26 C :    0.113724
  27 O :   -0.133345
  28 N :    0.003844
  29 C :    0.036176
  30 C :   -0.018547
  31 C :   -0.010207
  32 C :   -0.002042
  33 N :   -0.022248
  34 C :    0.012732
  35 C :    0.014204
  36 N :   -0.037994
  37 C :   -0.025025
  38 C :   -0.041056
  39 C :   -0.042236
  40 N :   -0.274444
  41 S :    0.691982
  42 N :   -0.288054
  43 C :   -0.091199
  44 C :    0.071128
  45 C :    0.093010
  46 N :   -0.006832
  47 C :    0.112587
  48 O :   -0.140787
  49 C :    0.037111
  50 C :   -0.126866
  51 C :    0.098687
  52 O :   -0.160942
  53 N :    0.000214
  54 C :    0.031239
  55 C :    0.064024
  56 C :   -0.085162
  57 C :    0.084856
  58 O :   -0.139028
  59 C :   -0.045259
  60 C :   -0.004054
  61 C :    0.076960
  62 C :   -0.123675
  63 C :   -0.012526
  64 N :   -0.058160
  65 C :   -0.018662
  66 N :   -0.046476
  67 C :   -0.007070
  68 C :   -0.117661
  69 C :   -0.125182
  70 C :    0.006666
  71 Br:    0.135435
  72 Br:    0.141383
  73 H :    0.045337
  74 H :    0.045739
  75 H :    0.053326
  76 H :    0.027616
  77 H :    0.030376
  78 H :    0.040269
  79 H :    0.041446
  80 H :    0.029391
  81 H :    0.032656
  82 H :    0.029315
  83 H :    0.029371
  84 H :    0.035486
  85 H :    0.043769
  86 H :    0.031450
  87 H :    0.039006
  88 H :    0.028058
  89 H :    0.023571
  90 H :    0.045074
  91 H :    0.045677
  92 H :    0.045928

  Mayer bond orders larger than 0.100000
B(  0-C ,  1-O ) :   2.1891 B(  0-C ,  2-C ) :   0.9497 B(  0-C , 16-C ) :   0.9620
B(  2-C ,  3-C ) :   1.3243 B(  2-C ,  7-C ) :   1.3727 B(  3-C ,  4-C ) :   1.3634
B(  3-C , 10-C ) :   1.0007 B(  4-C ,  5-C ) :   1.3660 B(  4-C , 73-H ) :   0.9834
B(  5-C ,  6-C ) :   1.4211 B(  5-C ,  9-Br) :   1.0567 B(  6-C ,  7-C ) :   1.3485
B(  6-C ,  8-Br) :   1.0347 B(  7-C , 74-H ) :   1.0101 B( 10-C , 11-C ) :   1.6768
B( 10-C , 16-C ) :   1.0489 B( 11-C , 12-C ) :   1.1304 B( 11-C , 14-C ) :   1.1382
B( 12-C , 13-N ) :   2.9798 B( 14-C , 15-N ) :   3.0121 B( 16-C , 17-C ) :   1.6029
B( 17-C , 18-C ) :   1.1905 B( 17-C , 75-H ) :   0.9379 B( 18-C , 19-C ) :   1.4645
B( 18-C , 22-C ) :   0.9184 B( 19-C , 20-C ) :   1.0303 B( 19-C , 28-N ) :   1.2434
B( 20-C , 21-N ) :   1.1863 B( 20-C , 25-C ) :   1.6457 B( 21-N , 22-C ) :   1.0231
B( 21-N , 24-C ) :   0.9477 B( 22-C , 23-O ) :   2.2035 B( 24-C , 76-H ) :   0.9655
B( 24-C , 77-H ) :   0.9725 B( 24-C , 78-H ) :   0.9557 B( 25-C , 26-C ) :   0.9387
B( 25-C , 30-C ) :   0.9733 B( 26-C , 27-O ) :   2.2162 B( 26-C , 28-N ) :   0.9831
B( 28-N , 29-C ) :   0.9533 B( 29-C , 79-H ) :   0.9564 B( 29-C , 80-H ) :   0.9666
B( 29-C , 81-H ) :   0.9727 B( 30-C , 31-C ) :   1.3668 B( 30-C , 37-C ) :   0.1540
B( 30-C , 39-C ) :   1.2716 B( 31-C , 32-C ) :   1.1055 B( 31-C , 36-N ) :   1.4170
B( 32-C , 33-N ) :   1.4291 B( 32-C , 37-C ) :   1.3433 B( 33-N , 34-C ) :   1.7175
B( 34-C , 35-C ) :   1.1616 B( 34-C , 82-H ) :   0.9746 B( 35-C , 36-N ) :   1.6858
B( 35-C , 83-H ) :   0.9724 B( 37-C , 38-C ) :   1.2942 B( 37-C , 43-C ) :   0.9840
B( 38-C , 39-C ) :   1.0999 B( 38-C , 42-N ) :   1.4566 B( 39-C , 40-N ) :   1.4917
B( 40-N , 41-S ) :   1.3184 B( 40-N , 42-N ) :   0.1608 B( 41-S , 42-N ) :   1.2811
B( 43-C , 44-C ) :   1.6421 B( 43-C , 47-C ) :   0.9331 B( 44-C , 45-C ) :   1.0348
B( 44-C , 53-N ) :   1.1780 B( 45-C , 46-N ) :   1.2223 B( 45-C , 50-C ) :   1.4974
B( 46-N , 47-C ) :   0.9930 B( 46-N , 49-C ) :   0.9483 B( 47-C , 48-O ) :   2.2046
B( 49-C , 84-H ) :   0.9715 B( 49-C , 85-H ) :   0.9562 B( 49-C , 86-H ) :   0.9735
B( 50-C , 51-C ) :   0.9023 B( 50-C , 55-C ) :   1.1093 B( 51-C , 52-O ) :   2.1472
B( 51-C , 53-N ) :   1.0536 B( 53-N , 54-C ) :   0.9440 B( 54-C , 87-H ) :   0.9552
B( 54-C , 88-H ) :   0.9737 B( 54-C , 89-H ) :   0.9538 B( 55-C , 56-C ) :   1.6806
B( 55-C , 90-H ) :   0.9527 B( 56-C , 57-C ) :   0.9435 B( 56-C , 61-C ) :   1.0276
B( 57-C , 58-O ) :   2.2677 B( 57-C , 59-C ) :   0.9237 B( 59-C , 60-C ) :   1.3263
B( 59-C , 70-C ) :   1.3697 B( 60-C , 61-C ) :   1.0057 B( 60-C , 67-C ) :   1.3735
B( 61-C , 62-C ) :   1.6694 B( 62-C , 63-C ) :   1.1639 B( 62-C , 65-C ) :   1.1358
B( 63-C , 64-N ) :   2.9951 B( 65-C , 66-N ) :   2.9927 B( 67-C , 68-C ) :   1.3659
B( 67-C , 91-H ) :   0.9823 B( 68-C , 69-C ) :   1.4219 B( 68-C , 72-Br) :   1.0521
B( 69-C , 70-C ) :   1.3585 B( 69-C , 71-Br) :   1.0323 B( 70-C , 92-H ) :   1.0075

-----------------------------------------------------------------------------
         ABSORPTION SPECTRUM VIA TRANSITION ELECTRIC DIPOLE MOMENTS
-----------------------------------------------------------------------------
State   Energy  Wavelength   fosc         T2         TX        TY        TZ
        (cm-1)    (nm)                  (au**2)     (au)      (au)      (au)
-----------------------------------------------------------------------------
   0   17084.2    585.3   0.590256076  11.37420   2.43363   2.09488  -1.03107
   1   20478.6    488.3   0.045621930   0.73341  -0.70106  -0.25335   0.42159
   2   21134.0    473.2   0.067947312   1.05844  -0.51201  -0.66677   0.59304
   3   22832.4    438.0   0.498069035   7.18149   2.07447   1.04305  -1.33795
   4   23000.7    434.8   0.222622998   3.18642  -1.04239  -1.27583   0.68710
   5   24962.2    400.6   0.046864309   0.61807   0.46696  -0.08718  -0.62643
   6   25677.7    389.4   0.039972757   0.51249   0.08315   0.70283  -0.10771
   7   26249.7    381.0   0.164478542   2.06282  -1.19206  -0.33025   0.72989
   8   26634.5    375.5   0.041308806   0.51059   0.27328   0.08837  -0.65429
   9   26919.0    371.5   0.005394789   0.06598   0.03709  -0.16374   0.19440
  10   27136.6    368.5   0.069710357   0.84570  -0.84376  -0.33130   0.15498
  11   28921.9    345.8   0.002196630   0.02500  -0.14526  -0.06063   0.01502
  12   29338.9    340.8   0.067448520   0.75684   0.61635   0.61355   0.02249
  13   29454.6    339.5   0.018868156   0.21089  -0.16217   0.42542  -0.06005
  14   30204.9    331.1   0.025710606   0.28023  -0.16736  -0.15447  -0.47787
  15   30263.6    330.4   0.138376635   1.50528  -0.59208  -0.12289  -1.06753
  16   30587.0    326.9   0.031275577   0.33662   0.46839   0.34193   0.01787
  17   31164.1    320.9   0.164965764   1.74267  -0.72911   0.20840   1.08057
  18   31294.0    319.5   0.042621533   0.44838  -0.11332  -0.52359  -0.40173
  19   31466.4    317.8   0.066212604   0.69274   0.43521   0.67981   0.20295
  20   31672.8    315.7   0.145515046   1.51251   0.91121   0.37733  -0.73473
  21   32132.5    311.2   0.254056268   2.60292   0.87290   1.22534  -0.58268
  22   32307.3    309.5   0.059945497   0.61085  -0.70412   0.21283   0.26413
  23   32490.8    307.8   0.081070804   0.82145   0.58898   0.10707  -0.68050
  24   32882.5    304.1   0.041230648   0.41279   0.49188  -0.01395  -0.41310
  25   33004.9    303.0   0.028021357   0.27950   0.36021   0.09286  -0.37567
  26   33143.3    301.7   0.194683878   1.93379  -1.18805  -0.65116   0.31357
  27   33268.1    300.6   0.021867233   0.21639  -0.17676  -0.34721  -0.25415
  28   33364.2    299.7   0.070954023   0.70012  -0.44693   0.16681   0.68742
  29   33660.1    297.1   0.026636001   0.26051   0.29243   0.37456  -0.18629
  30   33853.0    295.4   0.008591724   0.08355   0.06786   0.27594  -0.05298
  31   34021.9    293.9   0.112507626   1.08868   0.84748   0.54213  -0.27667
  32   34123.6    293.1   0.223912120   2.16022   0.64559   0.15242   1.31157
  33   34286.1    291.7   0.039547579   0.37973  -0.21792  -0.56114  -0.13177
  34   34541.7    289.5   0.376126599   3.58481  -1.30320  -1.33261   0.33262
  35   34658.6    288.5   0.423622082   4.02386  -1.03244  -0.98061  -1.41291
  36   35189.4    284.2   0.028536684   0.26697   0.48284   0.13265   0.12746
  37   35535.7    281.4   0.199647503   1.84959   1.24701   0.24983   0.48182
  38   35747.4    279.7   0.091939965   0.84671   0.74724   0.53496  -0.04658
  39   35780.0    279.5   0.029060948   0.26739  -0.40704   0.09621   0.30406
  40   36227.0    276.0   0.035649597   0.32397  -0.32956   0.46366   0.01933
  41   36533.2    273.7   0.034660634   0.31234  -0.16286  -0.38793  -0.36786
  42   36827.2    271.5   0.033438536   0.29892  -0.54052   0.07659  -0.02980
  43   37058.3    269.8   0.002832853   0.02517   0.08970   0.08089  -0.10284
  44   37407.5    267.3   0.001159003   0.01020   0.05022   0.02185   0.08485
  45   38009.0    263.1   0.072195070   0.62531  -0.48086   0.37595   0.50274
  46   38078.2    262.6   0.018278628   0.15803   0.20970   0.19670  -0.27453
  47   38193.0    261.8   0.002384285   0.02055   0.02884  -0.12601   0.06198
  48   38319.2    261.0   0.070121397   0.60243   0.35223   0.43958  -0.53398
  49   38538.1    259.5   0.009030578   0.07714   0.27052  -0.06016  -0.01855
  50   38596.3    259.1   0.018343519   0.15646   0.32256  -0.00931  -0.22876
  51   38739.8    258.1   0.026733410   0.22718  -0.12198   0.35107  -0.29841
  52   38848.2    257.4   0.031447116   0.26649  -0.44050   0.26778   0.02730
  53   38912.3    257.0   0.001016323   0.00860   0.00256  -0.09191   0.01204
  54   38998.3    256.4   0.014576174   0.12305   0.34007   0.04737  -0.07180
  55   39099.1    255.8   0.015306077   0.12888   0.05089   0.35522  -0.01023
  56   39197.3    255.1   0.015081246   0.12666   0.24677   0.04501  -0.25247
  57   39572.5    252.7   0.017644810   0.14679  -0.00168  -0.34606   0.16442
  58   39714.3    251.8   0.015024205   0.12454   0.05314   0.24916  -0.24421
  59   40076.6    249.5   0.025755072   0.21157  -0.01349   0.43083  -0.16054
  60   40224.4    248.6   0.039269105   0.32139   0.19510  -0.42222   0.32413

FINAL SINGLE POINT ENERGY    -13715.856387905545

DIPOLE MOMENT
-------------
                                X             Y             Z
Electronic contribution:   -109.12371      24.29485     -48.34728
Nuclear contribution   :    108.34009     -26.20630      46.26428
                        -----------------------------------------
Total Dipole Moment    :     -0.78363      -1.91145      -2.08301
                        -----------------------------------------
Magnitude (a.u.)       :      2.93371
Magnitude (Debye)      :      7.45689

Rotational constants in cm-1:     0.001894     0.000159     0.000157
Rotational constants in MHz :    56.771010     4.778357     4.709332

                             ****ORCA TERMINATED NORMALLY****
TOTAL RUN TIME: 0 days 0 hours 11 minutes 5 seconds 968 msec
