                         Program Version 4.2.0 -  RELEASE  -
|  1> # ORCA input file
|  2> # SCF done       -216.245514894089          0.000980635105
|  3> ! CAM-B3LYP def2-SVP def2/J RIJCOSX Grid4 TightSCF
|  4> %maxcore 5000
|  5> %tddft
|  6>     Mode sTDDFT
|  7>     Ethresh 5.0
|  8>     maxcore 5000
|  9> end
| 10>
| 11> %pal
| 12>   nprocs 6
| 13>   end
| 14> * xyz 0 1
| 15>    C      -18.43167       -10.15486         8.75663
| 16>    C      -17.06923       -10.34403         8.74959
| 17>    C      -16.42717       -11.48163         9.27775
| 18>    N      -15.83981       -12.37993         9.68722
| 19>    C      -16.11358        -9.43868         8.24651
| 20>    N      -15.26534        -8.75753         7.87607
| 21>    C      -19.40422       -11.08170         9.33285
| 22>    C      -20.69670       -10.51631         9.21115
| 23>    C      -21.82754       -11.14474         9.67041
| 24>    C      -21.67783       -12.39681        10.27707
| 25>    C      -20.38412       -12.95657        10.38919
| 26>    C      -19.23911       -12.31820         9.92662
| 27>    S      -20.42505       -14.51039        11.16684
| 28>    C      -22.15681       -14.38723        11.32839
| 29>    C      -22.67932       -13.24304        10.82774
| 30>   Br      -23.11130       -15.78012        12.14597
| 31>    C      -20.59370        -9.20664         8.53399
| 32>    O      -21.51597        -8.45659         8.27887
| 33>    C      -19.15792        -9.02095         8.24233
| 34>    C      -18.62868        -7.93995         7.56805
| 35>    C      -19.36480        -6.85369         7.10197
| 36>    C      -18.79281        -5.78407         6.44202
| 37>    C      -19.46783        -4.63135         5.97406
| 38>    C      -18.65237        -3.71108         5.38639
| 39>    C      -17.29371        -4.09799         5.35316
| 40>    S      -17.08316        -5.66832         6.08884
| 41>    C      -16.21870        -3.38643         4.84881
| 42>    C      -16.23431        -2.08327         4.29112
| 43>    C      -15.00407        -1.63624         3.93086
| 44>    C      -13.95603        -2.57191         4.16195
| 45>    S      -14.60365        -4.04053         4.85353
| 46>    C      -12.62489        -2.32160         3.95247
| 47>    C      -11.55497        -3.22863         4.08745
| 48>    O      -10.30038        -2.69608         4.21766
| 49>    C      -11.43441        -4.61155         4.08806
| 50>    C      -12.14292        -5.87885         3.89977
| 51>    O      -13.29543        -6.11326         3.63492
| 52>    N      -11.14786        -6.84367         4.03465
| 53>    C       -9.86049        -6.35122         4.22684
| 54>    O       -8.86614        -7.01878         4.33778
| 55>    C      -10.05259        -4.89809         4.23957
| 56>    C       -9.38777        -3.69545         4.31980
| 57>    C       -8.00075        -3.41176         4.51601
| 58>    C       -7.52794        -2.17982         4.74913
| 59>    C       -6.10810        -1.88847         4.96647
| 60>    C       -5.25971        -1.77677         3.91405
| 61>    S       -3.64041        -1.37468         4.34695
| 62>    C       -4.09154        -1.37471         6.02174
| 63>    C       -5.44666        -1.67084         6.22748
| 64>    C       -5.95047        -1.73184         7.54885
| 65>    C       -7.40744        -2.06414         7.74319
| 66>    C       -7.62039        -3.56826         7.92488
| 67>    C       -5.10657        -1.52450         8.62968
| 68>    C       -5.64117        -1.59382        10.03724
| 69>    C       -5.88329        -0.19467        10.60656
| 70>    C       -3.74161        -1.19753         8.41806
| 71>    C       -2.68784        -0.85794         9.34894
| 72>    C       -1.52741        -0.53340         8.70918
| 73>    S       -1.59336        -0.64663         6.99900
| 74>    C       -3.26156        -1.11387         7.10028
| 75>    C       -2.72412        -0.83962        10.79843
| 76>    C       -2.13038         0.10898        11.53918
| 77>    C       -2.10852         0.11484        12.96807
| 78>    S       -3.01796        -1.03952        13.89169
| 79>    C       -2.47908        -0.34620        15.39370
| 80>    C       -1.64051         0.72427        15.17144
| 81>    C       -1.42678         0.97795        13.80111
| 82>    C       -0.54029         2.08557        13.29701
| 83>    C        0.38842         1.58001        12.22854
| 84>    O        0.97445         0.53680        12.21941
| 85>    C        0.65180         2.61629        11.08885
| 86>    F       -0.48936         3.11054        10.57929
| 87>    F        1.34533         3.66685        11.55828
| 88>    F        1.34161         2.09420        10.07843
| 89>    C        0.34498         2.62843        14.43979
| 90>    C       -0.50891         2.87754        15.67678
| 91>    C       -1.00389         1.55106        16.24577
| 92>    C       -2.89501        -0.89032        16.65602
| 93>    C       -3.70128        -1.93904        16.80201
| 94>    H      -22.79815       -10.68589         9.56506
| 95>    H      -18.27648       -12.78860        10.03605
| 96>    H      -23.72690       -13.00360        10.84488
| 97>    H      -17.56210        -7.92109         7.38047
| 98>    H      -20.43184        -6.83424         7.27145
| 99>    H      -20.53094        -4.52008         6.09221
|100>    H      -18.99056        -2.77637         4.97691
|101>    H      -17.14178        -1.51715         4.18466
|102>    H      -14.80556        -0.67150         3.49888
|103>    H      -12.33989        -1.31123         3.69074
|104>    H      -11.34676        -7.83149         3.96278
|105>    H       -7.35257        -4.27568         4.51362
|106>    H       -8.20599        -1.33392         4.73017
|107>    H       -5.50661        -1.89526         2.87692
|108>    H       -7.96591        -1.73893         6.86627
|109>    H       -7.81513        -1.52454         8.59798
|110>    H       -7.26631        -4.10851         7.05078
|111>    H       -8.67797        -3.78569         8.05829
|112>    H       -7.07832        -3.93890         8.79126
|113>    H       -4.93929        -2.13357        10.66854
|114>    H       -6.57268        -2.15334        10.06802
|115>    H       -4.96696         0.38961        10.59937
|116>    H       -6.24070        -0.26200        11.63152
|117>    H       -6.62771         0.33084        10.01180
|118>    H       -0.59457        -0.27461         9.17185
|119>    H       -3.20828        -1.65740        11.31118
|120>    H       -1.65276         0.94720        11.04831
|121>    H       -1.15537         2.90365        12.90328
|122>    H        0.83212         3.54920        14.11641
|123>    H        1.11686         1.89206        14.67370
|124>    H        0.08228         3.40296        16.42804
|125>    H       -1.36027         3.50838        15.41291
|126>    H       -1.71701         1.73451        17.05179
|127>    H       -0.15966         0.99808        16.67020
|128>    H       -2.49801        -0.38729        17.52762
|129>    H       -4.10482        -2.46005        15.94958
|130>    H       -3.98035        -2.30625        17.77341
|131> *
|132>
|133>                          ****END OF INPUT****

CARTESIAN COORDINATES (ANGSTROEM)
---------------------------------
  C    -18.431670  -10.154860    8.756630
  C    -17.069230  -10.344030    8.749590
  C    -16.427170  -11.481630    9.277750
  N    -15.839810  -12.379930    9.687220
  C    -16.113580   -9.438680    8.246510
  N    -15.265340   -8.757530    7.876070
  C    -19.404220  -11.081700    9.332850
  C    -20.696700  -10.516310    9.211150
  C    -21.827540  -11.144740    9.670410
  C    -21.677830  -12.396810   10.277070
  C    -20.384120  -12.956570   10.389190
  C    -19.239110  -12.318200    9.926620
  S    -20.425050  -14.510390   11.166840
  C    -22.156810  -14.387230   11.328390
  C    -22.679320  -13.243040   10.827740
  Br   -23.111300  -15.780120   12.145970
  C    -20.593700   -9.206640    8.533990
  O    -21.515970   -8.456590    8.278870
  C    -19.157920   -9.020950    8.242330
  C    -18.628680   -7.939950    7.568050
  C    -19.364800   -6.853690    7.101970
  C    -18.792810   -5.784070    6.442020
  C    -19.467830   -4.631350    5.974060
  C    -18.652370   -3.711080    5.386390
  C    -17.293710   -4.097990    5.353160
  S    -17.083160   -5.668320    6.088840
  C    -16.218700   -3.386430    4.848810
  C    -16.234310   -2.083270    4.291120
  C    -15.004070   -1.636240    3.930860
  C    -13.956030   -2.571910    4.161950
  S    -14.603650   -4.040530    4.853530
  C    -12.624890   -2.321600    3.952470
  C    -11.554970   -3.228630    4.087450
  O    -10.300380   -2.696080    4.217660
  C    -11.434410   -4.611550    4.088060
  C    -12.142920   -5.878850    3.899770
  O    -13.295430   -6.113260    3.634920
  N    -11.147860   -6.843670    4.034650
  C     -9.860490   -6.351220    4.226840
  O     -8.866140   -7.018780    4.337780
  C    -10.052590   -4.898090    4.239570
  C     -9.387770   -3.695450    4.319800
  C     -8.000750   -3.411760    4.516010
  C     -7.527940   -2.179820    4.749130
  C     -6.108100   -1.888470    4.966470
  C     -5.259710   -1.776770    3.914050
  S     -3.640410   -1.374680    4.346950
  C     -4.091540   -1.374710    6.021740
  C     -5.446660   -1.670840    6.227480
  C     -5.950470   -1.731840    7.548850
  C     -7.407440   -2.064140    7.743190
  C     -7.620390   -3.568260    7.924880
  C     -5.106570   -1.524500    8.629680
  C     -5.641170   -1.593820   10.037240
  C     -5.883290   -0.194670   10.606560
  C     -3.741610   -1.197530    8.418060
  C     -2.687840   -0.857940    9.348940
  C     -1.527410   -0.533400    8.709180
  S     -1.593360   -0.646630    6.999000
  C     -3.261560   -1.113870    7.100280
  C     -2.724120   -0.839620   10.798430
  C     -2.130380    0.108980   11.539180
  C     -2.108520    0.114840   12.968070
  S     -3.017960   -1.039520   13.891690
  C     -2.479080   -0.346200   15.393700
  C     -1.640510    0.724270   15.171440
  C     -1.426780    0.977950   13.801110
  C     -0.540290    2.085570   13.297010
  C      0.388420    1.580010   12.228540
  O      0.974450    0.536800   12.219410
  C      0.651800    2.616290   11.088850
  F     -0.489360    3.110540   10.579290
  F      1.345330    3.666850   11.558280
  F      1.341610    2.094200   10.078430
  C      0.344980    2.628430   14.439790
  C     -0.508910    2.877540   15.676780
  C     -1.003890    1.551060   16.245770
  C     -2.895010   -0.890320   16.656020
  C     -3.701280   -1.939040   16.802010
  H    -22.798150  -10.685890    9.565060
  H    -18.276480  -12.788600   10.036050
  H    -23.726900  -13.003600   10.844880
  H    -17.562100   -7.921090    7.380470
  H    -20.431840   -6.834240    7.271450
  H    -20.530940   -4.520080    6.092210
  H    -18.990560   -2.776370    4.976910
  H    -17.141780   -1.517150    4.184660
  H    -14.805560   -0.671500    3.498880
  H    -12.339890   -1.311230    3.690740
  H    -11.346760   -7.831490    3.962780
  H     -7.352570   -4.275680    4.513620
  H     -8.205990   -1.333920    4.730170
  H     -5.506610   -1.895260    2.876920
  H     -7.965910   -1.738930    6.866270
  H     -7.815130   -1.524540    8.597980
  H     -7.266310   -4.108510    7.050780
  H     -8.677970   -3.785690    8.058290
  H     -7.078320   -3.938900    8.791260
  H     -4.939290   -2.133570   10.668540
  H     -6.572680   -2.153340   10.068020
  H     -4.966960    0.389610   10.599370
  H     -6.240700   -0.262000   11.631520
  H     -6.627710    0.330840   10.011800
  H     -0.594570   -0.274610    9.171850
  H     -3.208280   -1.657400   11.311180
  H     -1.652760    0.947200   11.048310
  H     -1.155370    2.903650   12.903280
  H      0.832120    3.549200   14.116410
  H      1.116860    1.892060   14.673700
  H      0.082280    3.402960   16.428040
  H     -1.360270    3.508380   15.412910
  H     -1.717010    1.734510   17.051790
  H     -0.159660    0.998080   16.670200
  H     -2.498010   -0.387290   17.527620
  H     -4.104820   -2.460050   15.949580
  H     -3.980350   -2.306250   17.773410

 Total Charge           Charge          ....    0
 Multiplicity           Mult            ....    1
 Number of Electrons    NEL             ....  622
 Basis Dimension        Dim             .... 1333

ORBITAL ENERGIES
----------------

  NO   OCC          E(Eh)            E(eV)
   0   2.0000    -482.878759    -13139.7991
   1   2.0000     -88.966828     -2420.9105
   2   2.0000     -88.961008     -2420.7521
   3   2.0000     -88.960584     -2420.7406
   4   2.0000     -88.948181     -2420.4031
   5   2.0000     -88.946241     -2420.3503
   6   2.0000     -88.945916     -2420.3414
   7   2.0000     -62.556495     -1702.2488
   8   2.0000     -56.390434     -1534.4617
   9   2.0000     -56.387737     -1534.3883
  10   2.0000     -56.387699     -1534.3873
  11   2.0000     -24.816766      -675.2985
  12   2.0000     -24.814450      -675.2355
  13   2.0000     -24.811017      -675.1421
  14   2.0000     -19.311620      -525.4959
  15   2.0000     -19.244180      -523.6608
  16   2.0000     -19.206661      -522.6398
  17   2.0000     -19.205706      -522.6138
  18   2.0000     -19.204158      -522.5717
  19   2.0000     -14.450208      -393.2101
  20   2.0000     -14.403717      -391.9451
  21   2.0000     -14.401630      -391.8883
  22   2.0000     -10.522016      -286.3186
  23   2.0000     -10.397007      -282.9170
  24   2.0000     -10.395382      -282.8727
  25   2.0000     -10.389268      -282.7064
  26   2.0000     -10.366218      -282.0791
  27   2.0000     -10.362310      -281.9728
  28   2.0000     -10.354366      -281.7566
  29   2.0000     -10.350535      -281.6524
  30   2.0000     -10.333608      -281.1918
  31   2.0000     -10.331330      -281.1298
  32   2.0000     -10.329191      -281.0716
  33   2.0000     -10.327411      -281.0231
  34   2.0000     -10.326560      -281.0000
  35   2.0000     -10.326302      -280.9930
  36   2.0000     -10.315587      -280.7014
  37   2.0000     -10.308224      -280.5010
  38   2.0000     -10.307236      -280.4742
  39   2.0000     -10.306987      -280.4674
  40   2.0000     -10.306322      -280.4493
  41   2.0000     -10.305699      -280.4323
  42   2.0000     -10.305600      -280.4296
  43   2.0000     -10.301737      -280.3245
  44   2.0000     -10.299360      -280.2598
  45   2.0000     -10.297696      -280.2146
  46   2.0000     -10.297053      -280.1971
  47   2.0000     -10.296847      -280.1915
  48   2.0000     -10.296791      -280.1899
  49   2.0000     -10.295250      -280.1480
  50   2.0000     -10.294470      -280.1268
  51   2.0000     -10.294438      -280.1259
  52   2.0000     -10.294271      -280.1214
  53   2.0000     -10.293619      -280.1036
  54   2.0000     -10.292934      -280.0850
  55   2.0000     -10.291876      -280.0562
  56   2.0000     -10.290656      -280.0230
  57   2.0000     -10.290056      -280.0067
  58   2.0000     -10.289374      -279.9881
  59   2.0000     -10.288717      -279.9702
  60   2.0000     -10.288217      -279.9566
  61   2.0000     -10.282868      -279.8111
  62   2.0000     -10.282538      -279.8021
  63   2.0000     -10.281741      -279.7804
  64   2.0000     -10.280749      -279.7534
  65   2.0000     -10.278501      -279.6922
  66   2.0000     -10.278281      -279.6862
  67   2.0000     -10.277733      -279.6713
  68   2.0000     -10.277076      -279.6535
  69   2.0000     -10.277049      -279.6527
  70   2.0000     -10.276616      -279.6409
  71   2.0000     -10.275306      -279.6053
  72   2.0000     -10.275217      -279.6029
  73   2.0000     -10.274590      -279.5858
  74   2.0000     -10.274001      -279.5698
  75   2.0000     -10.273982      -279.5693
  76   2.0000     -10.270438      -279.4728
  77   2.0000     -10.269833      -279.4564
  78   2.0000     -10.262412      -279.2544
  79   2.0000     -10.261232      -279.2223
  80   2.0000     -10.259848      -279.1847
  81   2.0000     -10.250964      -278.9429
  82   2.0000     -10.248807      -278.8842
  83   2.0000      -8.785936      -239.0775
  84   2.0000      -8.062866      -219.4017
  85   2.0000      -8.057015      -219.2425
  86   2.0000      -8.056692      -219.2337
  87   2.0000      -8.044294      -218.8964
  88   2.0000      -8.042523      -218.8482
  89   2.0000      -8.041393      -218.8174
  90   2.0000      -6.622201      -180.1993
  91   2.0000      -6.607675      -179.8040
  92   2.0000      -6.607505      -179.7994
  93   2.0000      -6.032561      -164.1543
  94   2.0000      -6.028293      -164.0382
  95   2.0000      -6.026660      -163.9938
  96   2.0000      -6.026268      -163.9831
  97   2.0000      -6.024067      -163.9232
  98   2.0000      -6.022485      -163.8801
  99   2.0000      -6.022263      -163.8741
 100   2.0000      -6.017977      -163.7575
 101   2.0000      -6.017825      -163.7534
 102   2.0000      -6.013836      -163.6448
 103   2.0000      -6.011967      -163.5939
 104   2.0000      -6.010561      -163.5557
 105   2.0000      -6.009609      -163.5298
 106   2.0000      -6.007801      -163.4806
 107   2.0000      -6.006695      -163.4505
 108   2.0000      -6.005901      -163.4289
 109   2.0000      -6.004240      -163.3837
 110   2.0000      -6.003534      -163.3645
 111   2.0000      -2.738085       -74.5071
 112   2.0000      -2.733999       -74.3959
 113   2.0000      -2.733865       -74.3923
 114   2.0000      -2.722329       -74.0783
 115   2.0000      -2.722316       -74.0780
 116   2.0000      -1.402772       -38.1714
 117   2.0000      -1.306120       -35.5413
 118   2.0000      -1.305458       -35.5233
 119   2.0000      -1.227056       -33.3899
 120   2.0000      -1.161903       -31.6170
 121   2.0000      -1.151838       -31.3431
 122   2.0000      -1.130981       -30.7756
 123   2.0000      -1.117596       -30.4113
 124   2.0000      -1.039376       -28.2829
 125   2.0000      -1.014051       -27.5937
 126   2.0000      -1.012085       -27.5402
 127   2.0000      -1.001981       -27.2653
 128   2.0000      -0.998505       -27.1707
 129   2.0000      -0.991794       -26.9881
 130   2.0000      -0.988266       -26.8921
 131   2.0000      -0.981696       -26.7133
 132   2.0000      -0.977624       -26.6025
 133   2.0000      -0.968887       -26.3648
 134   2.0000      -0.934587       -25.4314
 135   2.0000      -0.931972       -25.3602
 136   2.0000      -0.930009       -25.3068
 137   2.0000      -0.923378       -25.1264
 138   2.0000      -0.921369       -25.0717
 139   2.0000      -0.912031       -24.8176
 140   2.0000      -0.907307       -24.6891
 141   2.0000      -0.898641       -24.4533
 142   2.0000      -0.897149       -24.4127
 143   2.0000      -0.880255       -23.9530
 144   2.0000      -0.876132       -23.8408
 145   2.0000      -0.875152       -23.8141
 146   2.0000      -0.866157       -23.5693
 147   2.0000      -0.865595       -23.5540
 148   2.0000      -0.862397       -23.4670
 149   2.0000      -0.854679       -23.2570
 150   2.0000      -0.847969       -23.0744
 151   2.0000      -0.840495       -22.8710
 152   2.0000      -0.836483       -22.7618
 153   2.0000      -0.828615       -22.5478
 154   2.0000      -0.820258       -22.3204
 155   2.0000      -0.819921       -22.3112
 156   2.0000      -0.818368       -22.2689
 157   2.0000      -0.814188       -22.1552
 158   2.0000      -0.797643       -21.7050
 159   2.0000      -0.789779       -21.4910
 160   2.0000      -0.778961       -21.1966
 161   2.0000      -0.772203       -21.0127
 162   2.0000      -0.765852       -20.8399
 163   2.0000      -0.762770       -20.7560
 164   2.0000      -0.754920       -20.5424
 165   2.0000      -0.747008       -20.3271
 166   2.0000      -0.745371       -20.2826
 167   2.0000      -0.731167       -19.8961
 168   2.0000      -0.717360       -19.5204
 169   2.0000      -0.716167       -19.4879
 170   2.0000      -0.711693       -19.3661
 171   2.0000      -0.708363       -19.2755
 172   2.0000      -0.702224       -19.1085
 173   2.0000      -0.696162       -18.9435
 174   2.0000      -0.688982       -18.7482
 175   2.0000      -0.687926       -18.7194
 176   2.0000      -0.685407       -18.6509
 177   2.0000      -0.684502       -18.6262
 178   2.0000      -0.683072       -18.5873
 179   2.0000      -0.681783       -18.5523
 180   2.0000      -0.679657       -18.4944
 181   2.0000      -0.661861       -18.0102
 182   2.0000      -0.654176       -17.8010
 183   2.0000      -0.652100       -17.7445
 184   2.0000      -0.647654       -17.6236
 185   2.0000      -0.642068       -17.4716
 186   2.0000      -0.635146       -17.2832
 187   2.0000      -0.631582       -17.1862
 188   2.0000      -0.627093       -17.0641
 189   2.0000      -0.625444       -17.0192
 190   2.0000      -0.621767       -16.9191
 191   2.0000      -0.614074       -16.7098
 192   2.0000      -0.613027       -16.6813
 193   2.0000      -0.608532       -16.5590
 194   2.0000      -0.607121       -16.5206
 195   2.0000      -0.604645       -16.4532
 196   2.0000      -0.594726       -16.1833
 197   2.0000      -0.590005       -16.0548
 198   2.0000      -0.586474       -15.9588
 199   2.0000      -0.585451       -15.9309
 200   2.0000      -0.584991       -15.9184
 201   2.0000      -0.583392       -15.8749
 202   2.0000      -0.581240       -15.8164
 203   2.0000      -0.571638       -15.5551
 204   2.0000      -0.563965       -15.3463
 205   2.0000      -0.563390       -15.3306
 206   2.0000      -0.560330       -15.2474
 207   2.0000      -0.553608       -15.0644
 208   2.0000      -0.550849       -14.9894
 209   2.0000      -0.547187       -14.8897
 210   2.0000      -0.543486       -14.7890
 211   2.0000      -0.542221       -14.7546
 212   2.0000      -0.539260       -14.6740
 213   2.0000      -0.537393       -14.6232
 214   2.0000      -0.536844       -14.6083
 215   2.0000      -0.532257       -14.4835
 216   2.0000      -0.531809       -14.4713
 217   2.0000      -0.531156       -14.4535
 218   2.0000      -0.528463       -14.3802
 219   2.0000      -0.525368       -14.2960
 220   2.0000      -0.523368       -14.2416
 221   2.0000      -0.520587       -14.1659
 222   2.0000      -0.519822       -14.1451
 223   2.0000      -0.518088       -14.0979
 224   2.0000      -0.515694       -14.0328
 225   2.0000      -0.515039       -14.0149
 226   2.0000      -0.511325       -13.9139
 227   2.0000      -0.510485       -13.8910
 228   2.0000      -0.508557       -13.8385
 229   2.0000      -0.506546       -13.7838
 230   2.0000      -0.505083       -13.7440
 231   2.0000      -0.504012       -13.7149
 232   2.0000      -0.503120       -13.6906
 233   2.0000      -0.501118       -13.6361
 234   2.0000      -0.499923       -13.6036
 235   2.0000      -0.499110       -13.5815
 236   2.0000      -0.499014       -13.5789
 237   2.0000      -0.498320       -13.5600
 238   2.0000      -0.493990       -13.4421
 239   2.0000      -0.488738       -13.2992
 240   2.0000      -0.485993       -13.2245
 241   2.0000      -0.485099       -13.2002
 242   2.0000      -0.483849       -13.1662
 243   2.0000      -0.482825       -13.1383
 244   2.0000      -0.481783       -13.1100
 245   2.0000      -0.480530       -13.0759
 246   2.0000      -0.478730       -13.0269
 247   2.0000      -0.477307       -12.9882
 248   2.0000      -0.475964       -12.9516
 249   2.0000      -0.471441       -12.8285
 250   2.0000      -0.470266       -12.7966
 251   2.0000      -0.469107       -12.7651
 252   2.0000      -0.465414       -12.6645
 253   2.0000      -0.461754       -12.5650
 254   2.0000      -0.460893       -12.5415
 255   2.0000      -0.453572       -12.3423
 256   2.0000      -0.450930       -12.2704
 257   2.0000      -0.448965       -12.2170
 258   2.0000      -0.448847       -12.2137
 259   2.0000      -0.446891       -12.1605
 260   2.0000      -0.440215       -11.9789
 261   2.0000      -0.439387       -11.9563
 262   2.0000      -0.438406       -11.9296
 263   2.0000      -0.437740       -11.9115
 264   2.0000      -0.434666       -11.8279
 265   2.0000      -0.433402       -11.7935
 266   2.0000      -0.431906       -11.7528
 267   2.0000      -0.429211       -11.6794
 268   2.0000      -0.428461       -11.6590
 269   2.0000      -0.426825       -11.6145
 270   2.0000      -0.424708       -11.5569
 271   2.0000      -0.421888       -11.4802
 272   2.0000      -0.420393       -11.4395
 273   2.0000      -0.414885       -11.2896
 274   2.0000      -0.414107       -11.2684
 275   2.0000      -0.413336       -11.2474
 276   2.0000      -0.412071       -11.2130
 277   2.0000      -0.411616       -11.2006
 278   2.0000      -0.406787       -11.0692
 279   2.0000      -0.404618       -11.0102
 280   2.0000      -0.402639       -10.9564
 281   2.0000      -0.395639       -10.7659
 282   2.0000      -0.394571       -10.7368
 283   2.0000      -0.393901       -10.7186
 284   2.0000      -0.391952       -10.6656
 285   2.0000      -0.383246       -10.4287
 286   2.0000      -0.382030       -10.3956
 287   2.0000      -0.377363       -10.2686
 288   2.0000      -0.371278       -10.1030
 289   2.0000      -0.368993       -10.0408
 290   2.0000      -0.368341       -10.0231
 291   2.0000      -0.367508       -10.0004
 292   2.0000      -0.356829        -9.7098
 293   2.0000      -0.356393        -9.6979
 294   2.0000      -0.352795        -9.6000
 295   2.0000      -0.352192        -9.5836
 296   2.0000      -0.349141        -9.5006
 297   2.0000      -0.341697        -9.2980
 298   2.0000      -0.332524        -9.0484
 299   2.0000      -0.329029        -8.9533
 300   2.0000      -0.324120        -8.8198
 301   2.0000      -0.318481        -8.6663
 302   2.0000      -0.314216        -8.5503
 303   2.0000      -0.307683        -8.3725
 304   2.0000      -0.305940        -8.3251
 305   2.0000      -0.286706        -7.8017
 306   2.0000      -0.280822        -7.6415
 307   2.0000      -0.273681        -7.4473
 308   2.0000      -0.265854        -7.2342
 309   2.0000      -0.243665        -6.6304
 310   2.0000      -0.230525        -6.2729
 311   0.0000      -0.113083        -3.0772
 312   0.0000      -0.062810        -1.7091
 313   0.0000      -0.044873        -1.2211
 314   0.0000      -0.037528        -1.0212
 315   0.0000      -0.032875        -0.8946

MULLIKEN ATOMIC CHARGES
-----------------------
   0 C :    0.328894
   1 C :   -0.359152
   2 C :   -0.186857
   3 N :    0.139779
   4 C :   -0.194062
   5 N :    0.136819
   6 C :    0.015654
   7 C :   -0.006412
   8 C :   -0.081364
   9 C :    0.121489
  10 C :   -0.089115
  11 C :   -0.028879
  12 S :    0.181330
  13 C :   -0.122304
  14 C :    0.033900
  15 Br:    0.017040
  16 C :    0.140114
  17 O :   -0.165644
  18 C :   -0.085990
  19 C :   -0.039780
  20 C :   -0.024484
  21 C :    0.003254
  22 C :    0.031064
  23 C :    0.042746
  24 C :   -0.051313
  25 S :    0.123028
  26 C :   -0.041948
  27 C :    0.032883
  28 C :    0.042930
  29 C :   -0.024081
  30 S :    0.177704
  31 C :   -0.044578
  32 C :    0.122207
  33 O :   -0.215289
  34 C :   -0.071696
  35 C :    0.168615
  36 O :   -0.148473
  37 N :   -0.157574
  38 C :    0.166637
  39 O :   -0.139493
  40 C :   -0.037101
  41 C :    0.080948
  42 C :    0.001565
  43 C :   -0.058463
  44 C :    0.030712
  45 C :   -0.103059
  46 S :    0.123362
  47 C :   -0.137419
  48 C :    0.124879
  49 C :   -0.126927
  50 C :    0.053178
  51 C :    0.049043
  52 C :   -0.136554
  53 C :    0.044464
  54 C :    0.039365
  55 C :    0.130369
  56 C :    0.061564
  57 C :   -0.114782
  58 S :    0.129116
  59 C :   -0.158666
  60 C :   -0.046126
  61 C :    0.013845
  62 C :   -0.124175
  63 S :    0.089576
  64 C :   -0.117280
  65 C :   -0.073578
  66 C :    0.039139
  67 C :   -0.012122
  68 C :   -0.076760
  69 O :   -0.117356
  70 C :    0.520906
  71 F :   -0.157487
  72 F :   -0.161655
  73 F :   -0.137393
  74 C :    0.045609
  75 C :    0.043623
  76 C :    0.119470
  77 C :   -0.005214
  78 C :   -0.025071
  79 H :   -0.015225
  80 H :   -0.009315
  81 H :   -0.005539
  82 H :    0.016226
  83 H :    0.018670
  84 H :    0.002385
  85 H :   -0.005620
  86 H :   -0.004921
  87 H :   -0.003293
  88 H :    0.005066
  89 H :    0.142551
  90 H :    0.029906
  91 H :    0.043614
  92 H :    0.016149
  93 H :   -0.016253
  94 H :    0.002055
  95 H :    0.008566
  96 H :    0.014399
  97 H :    0.010728
  98 H :   -0.005188
  99 H :   -0.003388
 100 H :    0.022364
 101 H :    0.013811
 102 H :    0.002479
 103 H :    0.019168
 104 H :    0.018748
 105 H :   -0.030182
 106 H :    0.036030
 107 H :    0.009056
 108 H :    0.021090
 109 H :    0.007620
 110 H :    0.007591
 111 H :    0.016602
 112 H :    0.019012
 113 H :   -0.010385
 114 H :    0.022112
 115 H :    0.022165
Sum of atomic charges:   -0.0000000

LOEWDIN ATOMIC CHARGES
----------------------
   0 C :    0.072492
   1 C :   -0.151778
   2 C :   -0.018798
   3 N :   -0.064896
   4 C :   -0.021700
   5 N :   -0.062251
   6 C :   -0.018147
   7 C :   -0.049172
   8 C :    0.018047
   9 C :   -0.035141
  10 C :   -0.145096
  11 C :   -0.012996
  12 S :    0.428661
  13 C :   -0.274047
  14 C :   -0.071103
  15 Br:    0.131393
  16 C :    0.082934
  17 O :   -0.156694
  18 C :   -0.102797
  19 C :    0.050578
  20 C :   -0.067569
  21 C :   -0.105193
  22 C :   -0.035233
  23 C :   -0.009381
  24 C :   -0.182335
  25 S :    0.419486
  26 C :   -0.156983
  27 C :   -0.028613
  28 C :   -0.017816
  29 C :   -0.134931
  30 S :    0.458479
  31 C :   -0.066133
  32 C :    0.057413
  33 O :    0.010785
  34 C :   -0.103037
  35 C :    0.076507
  36 O :   -0.163301
  37 N :   -0.000641
  38 C :    0.082996
  39 O :   -0.157998
  40 C :   -0.097867
  41 C :    0.072991
  42 C :   -0.038181
  43 C :    0.013481
  44 C :   -0.067970
  45 C :   -0.167991
  46 S :    0.409430
  47 C :   -0.178694
  48 C :   -0.043849
  49 C :   -0.022001
  50 C :   -0.029923
  51 C :   -0.047803
  52 C :   -0.019360
  53 C :   -0.029957
  54 C :   -0.049940
  55 C :   -0.039816
  56 C :   -0.064677
  57 C :   -0.164703
  58 S :    0.416535
  59 C :   -0.178009
  60 C :   -0.011596
  61 C :   -0.045315
  62 C :   -0.162387
  63 S :    0.434370
  64 C :   -0.176267
  65 C :   -0.054251
  66 C :   -0.060302
  67 C :   -0.054703
  68 C :    0.043392
  69 O :   -0.080854
  70 C :    0.133751
  71 F :   -0.056422
  72 F :   -0.056631
  73 F :   -0.036999
  74 C :   -0.010234
  75 C :   -0.025417
  76 C :   -0.025495
  77 C :   -0.039434
  78 C :   -0.050579
  79 H :    0.039044
  80 H :    0.040278
  81 H :    0.037779
  82 H :    0.032560
  83 H :    0.039131
  84 H :    0.039709
  85 H :    0.035260
  86 H :    0.034877
  87 H :    0.037020
  88 H :    0.045601
  89 H :    0.097382
  90 H :    0.047868
  91 H :    0.035126
  92 H :    0.024050
  93 H :    0.026383
  94 H :    0.025472
  95 H :    0.023962
  96 H :    0.024743
  97 H :    0.023257
  98 H :    0.024067
  99 H :    0.025491
 100 H :    0.024771
 101 H :    0.024185
 102 H :    0.021840
 103 H :    0.023099
 104 H :    0.021993
 105 H :    0.023174
 106 H :    0.039622
 107 H :    0.025752
 108 H :    0.029632
 109 H :    0.028419
 110 H :    0.024748
 111 H :    0.031928
 112 H :    0.034426
 113 H :    0.031944
 114 H :    0.017236
 115 H :    0.025856

  Mayer bond orders larger than 0.100000
B(  0-C ,  1-C ) :   1.5919 B(  0-C ,  6-C ) :   0.9908 B(  0-C , 18-C ) :   1.1027
B(  1-C ,  2-C ) :   1.1468 B(  1-C ,  4-C ) :   1.1533 B(  2-C ,  3-N ) :   2.9627
B(  4-C ,  5-N ) :   2.9599 B(  6-C ,  7-C ) :   1.2799 B(  6-C , 11-C ) :   1.4160
B(  7-C ,  8-C ) :   1.4261 B(  7-C , 16-C ) :   0.9369 B(  8-C ,  9-C ) :   1.2392
B(  8-C , 79-H ) :   1.0174 B(  9-C , 10-C ) :   1.3155 B(  9-C , 14-C ) :   1.1584
B( 10-C , 11-C ) :   1.3207 B( 10-C , 12-S ) :   1.0839 B( 11-C , 80-H ) :   0.9802
B( 12-S , 13-C ) :   1.0853 B( 13-C , 14-C ) :   1.6202 B( 13-C , 15-Br) :   1.0155
B( 14-C , 81-H ) :   1.0013 B( 16-C , 17-O ) :   2.1837 B( 16-C , 18-C ) :   0.9614
B( 18-C , 19-C ) :   1.4972 B( 19-C , 20-C ) :   1.2415 B( 19-C , 82-H ) :   0.9450
B( 20-C , 21-C ) :   1.4327 B( 20-C , 83-H ) :   0.9777 B( 21-C , 22-C ) :   1.1669
B( 21-C , 25-S ) :   1.0832 B( 22-C , 23-C ) :   1.5551 B( 22-C , 84-H ) :   1.0024
B( 23-C , 24-C ) :   1.2038 B( 23-C , 85-H ) :   0.9941 B( 24-C , 25-S ) :   1.0523
B( 24-C , 26-C ) :   1.4785 B( 26-C , 27-C ) :   1.1711 B( 26-C , 30-S ) :   1.0984
B( 27-C , 28-C ) :   1.6055 B( 27-C , 86-H ) :   0.9939 B( 28-C , 29-C ) :   1.1297
B( 28-C , 87-H ) :   0.9990 B( 29-C , 30-S ) :   1.0695 B( 29-C , 31-C ) :   1.5667
B( 31-C , 32-C ) :   1.1719 B( 31-C , 88-H ) :   0.9545 B( 32-C , 33-O ) :   1.1129
B( 32-C , 34-C ) :   1.4127 B( 33-O , 41-C ) :   1.1611 B( 34-C , 35-C ) :   0.8868
B( 34-C , 40-C ) :   1.2630 B( 35-C , 36-O ) :   2.2105 B( 35-C , 37-N ) :   1.0873
B( 37-N , 38-C ) :   1.0783 B( 37-N , 89-H ) :   0.9140 B( 38-C , 39-O ) :   2.2712
B( 38-C , 40-C ) :   0.8781 B( 40-C , 41-C ) :   1.4294 B( 41-C , 42-C ) :   1.1441
B( 42-C , 43-C ) :   1.7891 B( 42-C , 90-H ) :   0.9536 B( 43-C , 44-C ) :   0.9418
B( 43-C , 91-H ) :   0.9477 B( 44-C , 45-C ) :   1.6506 B( 44-C , 48-C ) :   1.1862
B( 45-C , 46-S ) :   1.1079 B( 45-C , 92-H ) :   0.9690 B( 46-S , 47-C ) :   1.0804
B( 47-C , 48-C ) :   1.3669 B( 47-C , 59-C ) :   1.3732 B( 48-C , 49-C ) :   1.2616
B( 49-C , 50-C ) :   1.0704 B( 49-C , 52-C ) :   1.5186 B( 50-C , 51-C ) :   1.1149
B( 50-C , 93-H ) :   0.8977 B( 50-C , 94-H ) :   0.9098 B( 51-C , 95-H ) :   0.9547
B( 51-C , 96-H ) :   0.9666 B( 51-C , 97-H ) :   0.9623 B( 52-C , 53-C ) :   1.0701
B( 52-C , 55-C ) :   1.2454 B( 53-C , 54-C ) :   1.1072 B( 53-C , 98-H ) :   0.9237
B( 53-C , 99-H ) :   0.9076 B( 54-C ,100-H ) :   0.9648 B( 54-C ,101-H ) :   0.9659
B( 54-C ,102-H ) :   0.9574 B( 55-C , 56-C ) :   1.1511 B( 55-C , 59-C ) :   1.3709
B( 56-C , 57-C ) :   1.6168 B( 56-C , 60-C ) :   1.0068 B( 57-C , 58-S ) :   1.1151
B( 57-C ,103-H ) :   0.9621 B( 58-S , 59-C ) :   1.0818 B( 60-C , 61-C ) :   1.7732
B( 60-C ,104-H ) :   0.9592 B( 61-C , 62-C ) :   1.1216 B( 61-C ,105-H ) :   0.9424
B( 62-C , 63-S ) :   1.1228 B( 62-C , 66-C ) :   1.5266 B( 63-S , 64-C ) :   1.1005
B( 64-C , 65-C ) :   1.5356 B( 64-C , 77-C ) :   1.1228 B( 65-C , 66-C ) :   1.3158
B( 65-C , 76-C ) :   1.0464 B( 66-C , 67-C ) :   0.9538 B( 67-C , 68-C ) :   0.8945
B( 67-C , 74-C ) :   1.0512 B( 67-C ,106-H ) :   0.8905 B( 68-C , 69-O ) :   2.2524
B( 68-C , 70-C ) :   0.8592 B( 70-C , 71-F ) :   1.1187 B( 70-C , 72-F ) :   1.1423
B( 70-C , 73-F ) :   1.1829 B( 74-C , 75-C ) :   1.0810 B( 74-C ,107-H ) :   0.9310
B( 74-C ,108-H ) :   0.9364 B( 75-C , 76-C ) :   1.0970 B( 75-C ,109-H ) :   0.9321
B( 75-C ,110-H ) :   0.9393 B( 76-C ,111-H ) :   0.9134 B( 76-C ,112-H ) :   0.9109
B( 77-C , 78-C ) :   1.9178 B( 77-C ,113-H ) :   0.9591 B( 78-C ,114-H ) :   0.9563
B( 78-C ,115-H ) :   0.9493

-----------------------------------------------------------------------------
         ABSORPTION SPECTRUM VIA TRANSITION ELECTRIC DIPOLE MOMENTS
-----------------------------------------------------------------------------
State   Energy  Wavelength   fosc         T2         TX        TY        TZ
        (cm-1)    (nm)                  (au**2)     (au)      (au)      (au)
-----------------------------------------------------------------------------
   0   11732.0    852.4   1.165741265  32.71181  -3.89698  -3.47245   2.33825
   1   21220.7    471.2   0.000019406   0.00030  -0.01301   0.00295  -0.01109
   2   21358.3    468.2   0.045513726   0.70154  -0.80570   0.22877   0.00779
   3   22815.5    438.3   0.542394508   7.82638   2.28249  -1.49247   0.62382
   4   23751.3    421.0   0.023363410   0.32384  -0.50480   0.26228   0.01479
   5   24066.8    415.5   0.136530161   1.86761  -1.35939   0.12665   0.06024
   6   25481.7    392.4   0.384823221   4.97174   0.18722  -1.99729   0.97341
   7   26409.0    378.7   0.014353988   0.17894  -0.38263  -0.18031  -0.00476
   8   26519.6    377.1   0.009067021   0.11256  -0.29323  -0.16118  -0.02436
   9   26880.7    372.0   0.000433813   0.00531   0.02929   0.06552   0.01276
  10   27682.5    361.2   0.154727810   1.84009   0.98483   0.80027   0.47934
  11   28075.5    356.2   0.009830103   0.11527  -0.30282   0.15079  -0.02875
  12   29207.1    342.4   0.490210808   5.52548   0.01694  -0.05024  -2.35004
  13   29854.1    335.0   0.384285982   4.23765   0.12418  -0.04354  -2.05435
  14   30459.0    328.3   0.170952093   1.84771  -0.04683  -1.21460   0.60850
  15   31053.2    322.0   0.037156813   0.39392  -0.20317   0.56712  -0.17611
  16   31927.9    313.2   0.453686303   4.67800   1.66203   1.16434  -0.74832
  17   32045.1    312.1   0.068926006   0.70810  -0.65275  -0.43397   0.30608
  18   32087.7    311.6   0.016615582   0.17047  -0.32381  -0.25576   0.01435
  19   32223.5    310.3   0.010465867   0.10692  -0.27066  -0.17751  -0.04645
  20   33109.6    302.0   0.103594115   1.03005  -0.77805  -0.53467   0.37256
  21   33627.6    297.4   0.001238136   0.01212  -0.09724  -0.03925  -0.03356
  22   34027.1    293.9   0.005660808   0.05477  -0.18434  -0.12759   0.06713
  23   34452.9    290.3   0.002282629   0.02181  -0.08581  -0.09800  -0.06961
  24   34731.6    287.9   0.047017234   0.44566   0.57527   0.14597  -0.30566
  25   35524.9    281.5   0.149893121   1.38907  -1.11300   0.38330  -0.05825
  26   35710.9    280.0   0.079417518   0.73213  -0.30754  -0.19393   0.77456
  27   35978.5    277.9   0.000040187   0.00037   0.00184   0.01644   0.00971
  28   36237.9    276.0   0.003359128   0.03052   0.01104  -0.17175   0.02997
  29   36298.8    275.5   0.005330009   0.04834  -0.08632   0.02039  -0.20118
  30   36346.6    275.1   0.001547820   0.01402   0.06936  -0.08847   0.03717
  31   36531.5    273.7   0.002285773   0.02060  -0.09656  -0.02458  -0.10330
  32   36660.4    272.8   0.054829017   0.49237   0.35167  -0.54990   0.25749
  33   37146.2    269.2   0.045320839   0.40166   0.44608   0.44918   0.03011
  34   37164.9    269.1   0.199829665   1.77012   1.03222   0.25680   0.79918
  35   37272.3    268.3   0.000683428   0.00604  -0.03589  -0.02178  -0.06538
  36   37664.4    265.5   0.199718921   1.74568  -1.31120  -0.01978   0.16140
  37   38125.4    262.3   0.000514410   0.00444  -0.02384   0.03477  -0.05162
  38   38217.7    261.7   0.002297262   0.01979   0.06513   0.10028  -0.07410
  39   38427.5    260.2   0.032982304   0.28256   0.05428  -0.50378   0.16068
  40   38469.8    259.9   0.098394964   0.84203  -0.89263   0.06779  -0.20163
  41   39058.7    256.0   0.162619871   1.37066  -0.34565  -0.36073  -1.05880
  42   39140.3    255.5   0.120702249   1.01524  -0.48004  -0.78236   0.41558
  43   39241.3    254.8   0.163239079   1.36948   0.77611   0.87471   0.04485
  44   39510.1    253.1   0.043812819   0.36506  -0.34029  -0.48143  -0.13224
  45   39681.2    252.0   0.002348502   0.01948  -0.08122  -0.11346   0.00379
  46   40266.9    248.3   0.001109485   0.00907  -0.08990   0.02972   0.01031

FINAL SINGLE POINT ENERGY     -8145.063930751728

DIPOLE MOMENT
-------------
                                X             Y             Z
Electronic contribution:   -169.74111    -162.27662      -3.11842
Nuclear contribution   :    168.16915     166.31198       3.18413
                        -----------------------------------------
Total Dipole Moment    :     -1.57196       4.03536       0.06571
                        -----------------------------------------
Magnitude (a.u.)       :      4.33122
Magnitude (Debye)      :     11.00909

Rotational constants in cm-1:     0.000823     0.000148     0.000133
Rotational constants in MHz :    24.685802     4.423337     3.974289

                             ****ORCA TERMINATED NORMALLY****
TOTAL RUN TIME: 0 days 0 hours 12 minutes 14 seconds 188 msec
