                         Program Version 4.2.0 -  RELEASE  -
|  1> # ORCA input file
|  2> # SCF done       -179.127300195533          0.000633812769
|  3> ! CAM-B3LYP def2-SVP def2/J RIJCOSX Grid4 TightSCF
|  4> %maxcore 5000
|  5> %tddft
|  6>     Mode sTDDFT
|  7>     Ethresh 5.0
|  8>     maxcore 5000
|  9> end
| 10>
| 11> %pal
| 12>   nprocs 6
| 13>   end
| 14> * xyz 0 1
| 15>    C       -7.81083         6.28212        -9.08975
| 16>    C       -8.85881         7.16684        -9.16818
| 17>    C       -8.75683         8.53871        -8.86984
| 18>    N       -8.73972         9.65827        -8.61240
| 19>    C      -10.16425         6.81926        -9.56098
| 20>    N      -11.24376         6.58419        -9.87757
| 21>    C       -6.44164         6.62133        -8.72191
| 22>    C       -5.62417         5.47703        -8.89067
| 23>    C       -4.28159         5.47544        -8.60918
| 24>    C       -3.73560         6.63130        -8.04036
| 25>    C       -4.55981         7.76614        -7.86505
| 26>    C       -5.90211         7.79247        -8.22228
| 27>    S       -3.69325         9.06934        -7.10856
| 28>    C       -2.27112         8.06708        -6.99867
| 29>    C       -2.42271         6.83414        -7.53505
| 30>   Br       -0.73552         8.74226        -6.16839
| 31>    C       -6.46560         4.34159        -9.30741
| 32>    O       -6.09909         3.23624        -9.65660
| 33>    C       -7.85130         4.85128        -9.30159
| 34>    C       -8.96558         4.06502        -9.40213
| 35>    N       -9.01454         2.72647        -9.20228
| 36>    C       -8.11504         1.91012        -8.55626
| 37>    S       -7.93638         0.28728        -9.14326
| 38>    C       -6.75608        -0.01885        -7.91969
| 39>    N       -6.11660        -1.25916        -7.91685
| 40>    O       -5.26731        -1.46023        -7.06457
| 41>    O       -6.44501        -2.05488        -8.78396
| 42>    C       -6.53514         1.05675        -7.10273
| 43>    C       -7.32325         2.17769        -7.43575
| 44>    C       -7.25619         3.45990        -6.77591
| 45>    C       -6.22041         3.81230        -5.99125
| 46>    C       -5.91415         5.12687        -5.50039
| 47>    C       -6.79398         6.18184        -5.43902
| 48>    O       -8.06587         6.16791        -5.87633
| 49>    C       -8.86502         7.28869        -5.56713
| 50>    S       -6.09770         7.59516        -4.69855
| 51>    C       -4.57730         6.76211        -4.49435
| 52>    O       -3.47991         7.36626        -4.00659
| 53>    C       -3.64374         8.64615        -3.44006
| 54>    C       -4.61092         5.47897        -4.97395
| 55>    C       -3.45503         4.61554        -4.95123
| 56>    C       -3.23660         3.69101        -5.91579
| 57>    C       -2.28782         2.64687        -5.94763
| 58>    C       -2.35354         1.68935        -6.92810
| 59>    C       -1.60418         0.49388        -7.06935
| 60>    C       -1.98562        -0.29008        -8.11565
| 61>    C       -3.04716         0.24410        -8.87968
| 62>    S       -3.54996         1.78418        -8.22090
| 63>    C       -3.67927        -0.26117        -9.99542
| 64>    C       -3.44945        -1.47512       -10.68608
| 65>    C       -4.24882        -1.64539       -11.76997
| 66>    C       -5.17024        -0.58417       -12.00598
| 67>    S       -4.95884         0.64527       -10.76898
| 68>    C       -6.05690        -0.52407       -13.04231
| 69>    C       -7.04129         0.46162       -13.32173
| 70>    C       -7.82324         0.45458       -14.43086
| 71>    C       -8.83212         1.54563       -14.32519
| 72>    C       -8.10833         2.53989       -13.41077
| 73>    C       -7.41826         1.62310       -12.41155
| 74>    C       -9.17381         3.59617       -13.15811
| 75>    C       -9.78767         3.71905       -14.58998
| 76>    C       -9.16220         4.98165       -15.11061
| 77>    C       -8.52232         5.65190       -14.16820
| 78>    C       -8.60698         4.98265       -12.82810
| 79>    C       -9.40624         2.46014       -15.36014
| 80>    C       -9.55031         2.25687       -16.65486
| 81>    H       -3.67841         4.60117        -8.79400
| 82>    H       -6.48217         8.68949        -8.08111
| 83>    H       -1.65279         6.08482        -7.55019
| 84>    H       -9.92898         4.50653        -9.62098
| 85>    H       -9.79726         2.24293        -9.62552
| 86>    H       -5.84085         1.01197        -6.28447
| 87>    H       -8.03507         4.17141        -6.98847
| 88>    H       -5.48860         3.06375        -5.73479
| 89>    H       -9.84848         7.08699        -5.98735
| 90>    H       -8.45443         8.20078        -6.01263
| 91>    H       -8.94775         7.42693        -4.48509
| 92>    H       -2.65431         8.95891        -3.11302
| 93>    H       -4.32680         8.61486        -2.58565
| 94>    H       -4.03096         9.35667        -4.17851
| 95>    H       -2.76233         4.75143        -4.13274
| 96>    H       -3.89968         3.70947        -6.77008
| 97>    H       -1.55703         2.54757        -5.15817
| 98>    H       -0.81902         0.24297        -6.37792
| 99>    H       -1.54048        -1.23887        -8.35632
|100>    H       -2.70985        -2.18212       -10.35554
|101>    H       -4.22242        -2.50716       -12.41341
|102>    H       -6.01007        -1.34313       -13.75049
|103>    H       -7.78650        -0.27043       -15.22372
|104>    H       -9.69492         1.12824       -13.77308
|105>    H       -7.32309         3.01656       -14.01123
|106>    H       -8.11615         1.26164       -11.65072
|107>    H       -6.57267         2.08798       -11.91135
|108>    H       -9.90433         3.25737       -12.42023
|109>    H      -10.87828         3.82654       -14.57431
|110>    H       -9.25680         5.26673       -16.14331
|111>    H       -8.00514         6.58763       -14.29517
|112>    H       -9.27841         5.54489       -12.17219
|113>    H       -7.63507         4.91659       -12.33421
|114>    H       -9.97937         2.99994       -17.30537
|115>    H       -9.24507         1.33394       -17.11738
|116> *
|117>
|118>                          ****END OF INPUT****

CARTESIAN COORDINATES (ANGSTROEM)
---------------------------------
  C     -7.810830    6.282120   -9.089750
  C     -8.858810    7.166840   -9.168180
  C     -8.756830    8.538710   -8.869840
  N     -8.739720    9.658270   -8.612400
  C    -10.164250    6.819260   -9.560980
  N    -11.243760    6.584190   -9.877570
  C     -6.441640    6.621330   -8.721910
  C     -5.624170    5.477030   -8.890670
  C     -4.281590    5.475440   -8.609180
  C     -3.735600    6.631300   -8.040360
  C     -4.559810    7.766140   -7.865050
  C     -5.902110    7.792470   -8.222280
  S     -3.693250    9.069340   -7.108560
  C     -2.271120    8.067080   -6.998670
  C     -2.422710    6.834140   -7.535050
  Br    -0.735520    8.742260   -6.168390
  C     -6.465600    4.341590   -9.307410
  O     -6.099090    3.236240   -9.656600
  C     -7.851300    4.851280   -9.301590
  C     -8.965580    4.065020   -9.402130
  N     -9.014540    2.726470   -9.202280
  C     -8.115040    1.910120   -8.556260
  S     -7.936380    0.287280   -9.143260
  C     -6.756080   -0.018850   -7.919690
  N     -6.116600   -1.259160   -7.916850
  O     -5.267310   -1.460230   -7.064570
  O     -6.445010   -2.054880   -8.783960
  C     -6.535140    1.056750   -7.102730
  C     -7.323250    2.177690   -7.435750
  C     -7.256190    3.459900   -6.775910
  C     -6.220410    3.812300   -5.991250
  C     -5.914150    5.126870   -5.500390
  C     -6.793980    6.181840   -5.439020
  O     -8.065870    6.167910   -5.876330
  C     -8.865020    7.288690   -5.567130
  S     -6.097700    7.595160   -4.698550
  C     -4.577300    6.762110   -4.494350
  O     -3.479910    7.366260   -4.006590
  C     -3.643740    8.646150   -3.440060
  C     -4.610920    5.478970   -4.973950
  C     -3.455030    4.615540   -4.951230
  C     -3.236600    3.691010   -5.915790
  C     -2.287820    2.646870   -5.947630
  C     -2.353540    1.689350   -6.928100
  C     -1.604180    0.493880   -7.069350
  C     -1.985620   -0.290080   -8.115650
  C     -3.047160    0.244100   -8.879680
  S     -3.549960    1.784180   -8.220900
  C     -3.679270   -0.261170   -9.995420
  C     -3.449450   -1.475120  -10.686080
  C     -4.248820   -1.645390  -11.769970
  C     -5.170240   -0.584170  -12.005980
  S     -4.958840    0.645270  -10.768980
  C     -6.056900   -0.524070  -13.042310
  C     -7.041290    0.461620  -13.321730
  C     -7.823240    0.454580  -14.430860
  C     -8.832120    1.545630  -14.325190
  C     -8.108330    2.539890  -13.410770
  C     -7.418260    1.623100  -12.411550
  C     -9.173810    3.596170  -13.158110
  C     -9.787670    3.719050  -14.589980
  C     -9.162200    4.981650  -15.110610
  C     -8.522320    5.651900  -14.168200
  C     -8.606980    4.982650  -12.828100
  C     -9.406240    2.460140  -15.360140
  C     -9.550310    2.256870  -16.654860
  H     -3.678410    4.601170   -8.794000
  H     -6.482170    8.689490   -8.081110
  H     -1.652790    6.084820   -7.550190
  H     -9.928980    4.506530   -9.620980
  H     -9.797260    2.242930   -9.625520
  H     -5.840850    1.011970   -6.284470
  H     -8.035070    4.171410   -6.988470
  H     -5.488600    3.063750   -5.734790
  H     -9.848480    7.086990   -5.987350
  H     -8.454430    8.200780   -6.012630
  H     -8.947750    7.426930   -4.485090
  H     -2.654310    8.958910   -3.113020
  H     -4.326800    8.614860   -2.585650
  H     -4.030960    9.356670   -4.178510
  H     -2.762330    4.751430   -4.132740
  H     -3.899680    3.709470   -6.770080
  H     -1.557030    2.547570   -5.158170
  H     -0.819020    0.242970   -6.377920
  H     -1.540480   -1.238870   -8.356320
  H     -2.709850   -2.182120  -10.355540
  H     -4.222420   -2.507160  -12.413410
  H     -6.010070   -1.343130  -13.750490
  H     -7.786500   -0.270430  -15.223720
  H     -9.694920    1.128240  -13.773080
  H     -7.323090    3.016560  -14.011230
  H     -8.116150    1.261640  -11.650720
  H     -6.572670    2.087980  -11.911350
  H     -9.904330    3.257370  -12.420230
  H    -10.878280    3.826540  -14.574310
  H     -9.256800    5.266730  -16.143310
  H     -8.005140    6.587630  -14.295170
  H     -9.278410    5.544890  -12.172190
  H     -7.635070    4.916590  -12.334210
  H     -9.979370    2.999940  -17.305370
  H     -9.245070    1.333940  -17.117380

 Total Charge           Charge          ....    0
 Multiplicity           Mult            ....    1
 Number of Electrons    NEL             ....  524
 Basis Dimension        Dim             .... 1137

ORBITAL ENERGIES
----------------

  NO   OCC          E(Eh)            E(eV)
   0   2.0000    -482.883508    -13139.9283
   1   2.0000     -88.972349     -2421.0607
   2   2.0000     -88.972234     -2421.0576
   3   2.0000     -88.969347     -2420.9790
   4   2.0000     -88.934196     -2420.0225
   5   2.0000     -88.929114     -2419.8842
   6   2.0000     -62.561093     -1702.3739
   7   2.0000     -56.395015     -1534.5864
   8   2.0000     -56.392401     -1534.5152
   9   2.0000     -56.392258     -1534.5114
  10   2.0000     -19.273632      -524.4622
  11   2.0000     -19.263244      -524.1795
  12   2.0000     -19.228439      -523.2324
  13   2.0000     -19.227623      -523.2102
  14   2.0000     -19.209463      -522.7161
  15   2.0000     -14.638659      -398.3382
  16   2.0000     -14.498680      -394.5291
  17   2.0000     -14.417986      -392.3334
  18   2.0000     -14.414650      -392.2426
  19   2.0000     -10.360443      -281.9220
  20   2.0000     -10.358407      -281.8666
  21   2.0000     -10.358136      -281.8592
  22   2.0000     -10.354908      -281.7714
  23   2.0000     -10.353742      -281.7397
  24   2.0000     -10.350710      -281.6572
  25   2.0000     -10.342804      -281.4420
  26   2.0000     -10.336982      -281.2836
  27   2.0000     -10.335363      -281.2395
  28   2.0000     -10.332760      -281.1687
  29   2.0000     -10.331467      -281.1335
  30   2.0000     -10.321328      -280.8576
  31   2.0000     -10.319352      -280.8038
  32   2.0000     -10.319015      -280.7947
  33   2.0000     -10.302561      -280.3469
  34   2.0000     -10.302036      -280.3327
  35   2.0000     -10.301452      -280.3168
  36   2.0000     -10.298135      -280.2265
  37   2.0000     -10.297799      -280.2174
  38   2.0000     -10.296376      -280.1786
  39   2.0000     -10.295476      -280.1541
  40   2.0000     -10.293400      -280.0977
  41   2.0000     -10.292634      -280.0768
  42   2.0000     -10.291482      -280.0455
  43   2.0000     -10.290210      -280.0109
  44   2.0000     -10.289815      -280.0001
  45   2.0000     -10.286566      -279.9117
  46   2.0000     -10.279426      -279.7174
  47   2.0000     -10.278924      -279.7037
  48   2.0000     -10.276902      -279.6487
  49   2.0000     -10.274493      -279.5832
  50   2.0000     -10.273515      -279.5566
  51   2.0000     -10.273451      -279.5548
  52   2.0000     -10.272813      -279.5374
  53   2.0000     -10.270740      -279.4810
  54   2.0000     -10.270189      -279.4660
  55   2.0000     -10.268217      -279.4124
  56   2.0000     -10.267986      -279.4061
  57   2.0000     -10.266323      -279.3609
  58   2.0000     -10.265588      -279.3408
  59   2.0000     -10.261877      -279.2399
  60   2.0000     -10.261820      -279.2383
  61   2.0000     -10.261347      -279.2254
  62   2.0000     -10.259176      -279.1664
  63   2.0000     -10.258819      -279.1566
  64   2.0000     -10.255916      -279.0777
  65   2.0000     -10.254555      -279.0406
  66   2.0000     -10.254022      -279.0261
  67   2.0000     -10.251150      -278.9480
  68   2.0000     -10.250174      -278.9214
  69   2.0000     -10.241034      -278.6727
  70   2.0000      -8.790503      -239.2018
  71   2.0000      -8.067747      -219.5346
  72   2.0000      -8.067213      -219.5200
  73   2.0000      -8.064907      -219.4573
  74   2.0000      -8.029014      -218.4806
  75   2.0000      -8.024339      -218.3534
  76   2.0000      -6.626679      -180.3211
  77   2.0000      -6.612283      -179.9294
  78   2.0000      -6.612133      -179.9253
  79   2.0000      -6.037463      -164.2877
  80   2.0000      -6.036903      -164.2725
  81   2.0000      -6.034301      -164.2017
  82   2.0000      -6.033237      -164.1727
  83   2.0000      -6.032515      -164.1531
  84   2.0000      -6.030440      -164.0966
  85   2.0000      -6.029008      -164.0576
  86   2.0000      -6.028710      -164.0496
  87   2.0000      -6.026495      -163.9893
  88   2.0000      -5.998792      -163.2354
  89   2.0000      -5.994727      -163.1248
  90   2.0000      -5.994161      -163.1094
  91   2.0000      -5.990072      -162.9981
  92   2.0000      -5.989930      -162.9943
  93   2.0000      -5.985228      -162.8663
  94   2.0000      -2.742594       -74.6298
  95   2.0000      -2.738528       -74.5191
  96   2.0000      -2.738418       -74.5161
  97   2.0000      -2.726976       -74.2048
  98   2.0000      -2.726949       -74.2041
  99   2.0000      -1.306651       -35.5558
 100   2.0000      -1.178068       -32.0569
 101   2.0000      -1.168989       -31.8098
 102   2.0000      -1.126779       -30.6612
 103   2.0000      -1.125318       -30.6215
 104   2.0000      -1.091022       -29.6882
 105   2.0000      -1.020107       -27.7585
 106   2.0000      -1.011517       -27.5248
 107   2.0000      -0.996630       -27.1197
 108   2.0000      -0.995806       -27.0973
 109   2.0000      -0.985355       -26.8129
 110   2.0000      -0.983301       -26.7570
 111   2.0000      -0.978202       -26.6182
 112   2.0000      -0.970812       -26.4171
 113   2.0000      -0.960197       -26.1283
 114   2.0000      -0.937955       -25.5231
 115   2.0000      -0.923982       -25.1428
 116   2.0000      -0.911441       -24.8016
 117   2.0000      -0.905497       -24.6398
 118   2.0000      -0.901630       -24.5346
 119   2.0000      -0.895314       -24.3627
 120   2.0000      -0.881251       -23.9801
 121   2.0000      -0.878662       -23.9096
 122   2.0000      -0.875554       -23.8250
 123   2.0000      -0.865644       -23.5554
 124   2.0000      -0.859443       -23.3866
 125   2.0000      -0.851471       -23.1697
 126   2.0000      -0.837337       -22.7851
 127   2.0000      -0.837135       -22.7796
 128   2.0000      -0.824675       -22.4406
 129   2.0000      -0.824052       -22.4236
 130   2.0000      -0.820470       -22.3261
 131   2.0000      -0.817171       -22.2364
 132   2.0000      -0.808423       -21.9983
 133   2.0000      -0.800788       -21.7906
 134   2.0000      -0.788609       -21.4591
 135   2.0000      -0.777726       -21.1630
 136   2.0000      -0.775142       -21.0927
 137   2.0000      -0.771567       -20.9954
 138   2.0000      -0.764665       -20.8076
 139   2.0000      -0.755983       -20.5713
 140   2.0000      -0.750588       -20.4245
 141   2.0000      -0.739579       -20.1250
 142   2.0000      -0.718128       -19.5412
 143   2.0000      -0.711873       -19.3711
 144   2.0000      -0.700239       -19.0545
 145   2.0000      -0.689870       -18.7723
 146   2.0000      -0.684357       -18.6223
 147   2.0000      -0.680480       -18.5168
 148   2.0000      -0.676076       -18.3970
 149   2.0000      -0.664380       -18.0787
 150   2.0000      -0.659833       -17.9550
 151   2.0000      -0.654728       -17.8161
 152   2.0000      -0.651868       -17.7382
 153   2.0000      -0.642397       -17.4805
 154   2.0000      -0.641149       -17.4466
 155   2.0000      -0.638180       -17.3658
 156   2.0000      -0.634286       -17.2598
 157   2.0000      -0.624986       -17.0067
 158   2.0000      -0.620565       -16.8864
 159   2.0000      -0.619577       -16.8595
 160   2.0000      -0.617985       -16.8162
 161   2.0000      -0.613906       -16.7052
 162   2.0000      -0.604806       -16.4576
 163   2.0000      -0.603501       -16.4221
 164   2.0000      -0.596611       -16.2346
 165   2.0000      -0.594819       -16.1859
 166   2.0000      -0.593199       -16.1418
 167   2.0000      -0.589483       -16.0407
 168   2.0000      -0.588225       -16.0064
 169   2.0000      -0.586099       -15.9486
 170   2.0000      -0.582529       -15.8514
 171   2.0000      -0.579570       -15.7709
 172   2.0000      -0.578759       -15.7488
 173   2.0000      -0.576345       -15.6831
 174   2.0000      -0.567527       -15.4432
 175   2.0000      -0.562571       -15.3083
 176   2.0000      -0.553969       -15.0743
 177   2.0000      -0.552311       -15.0291
 178   2.0000      -0.549821       -14.9614
 179   2.0000      -0.542355       -14.7582
 180   2.0000      -0.540014       -14.6945
 181   2.0000      -0.537583       -14.6284
 182   2.0000      -0.535532       -14.5726
 183   2.0000      -0.533144       -14.5076
 184   2.0000      -0.530087       -14.4244
 185   2.0000      -0.528391       -14.3783
 186   2.0000      -0.521956       -14.2031
 187   2.0000      -0.519172       -14.1274
 188   2.0000      -0.514644       -14.0042
 189   2.0000      -0.510579       -13.8936
 190   2.0000      -0.508353       -13.8330
 191   2.0000      -0.506989       -13.7959
 192   2.0000      -0.503999       -13.7145
 193   2.0000      -0.498258       -13.5583
 194   2.0000      -0.494879       -13.4663
 195   2.0000      -0.490705       -13.3528
 196   2.0000      -0.490556       -13.3487
 197   2.0000      -0.488156       -13.2834
 198   2.0000      -0.486101       -13.2275
 199   2.0000      -0.484049       -13.1717
 200   2.0000      -0.482018       -13.1164
 201   2.0000      -0.479746       -13.0546
 202   2.0000      -0.477322       -12.9886
 203   2.0000      -0.472760       -12.8644
 204   2.0000      -0.470399       -12.8002
 205   2.0000      -0.468435       -12.7468
 206   2.0000      -0.464955       -12.6521
 207   2.0000      -0.461211       -12.5502
 208   2.0000      -0.457577       -12.4513
 209   2.0000      -0.455252       -12.3880
 210   2.0000      -0.454539       -12.3686
 211   2.0000      -0.452745       -12.3198
 212   2.0000      -0.451382       -12.2827
 213   2.0000      -0.450205       -12.2507
 214   2.0000      -0.445704       -12.1282
 215   2.0000      -0.445300       -12.1172
 216   2.0000      -0.444107       -12.0848
 217   2.0000      -0.439671       -11.9640
 218   2.0000      -0.436139       -11.8679
 219   2.0000      -0.435566       -11.8523
 220   2.0000      -0.433665       -11.8006
 221   2.0000      -0.430021       -11.7015
 222   2.0000      -0.428566       -11.6619
 223   2.0000      -0.425647       -11.5824
 224   2.0000      -0.422817       -11.5054
 225   2.0000      -0.420719       -11.4484
 226   2.0000      -0.418444       -11.3864
 227   2.0000      -0.414989       -11.2924
 228   2.0000      -0.411097       -11.1865
 229   2.0000      -0.408872       -11.1260
 230   2.0000      -0.406056       -11.0493
 231   2.0000      -0.402506       -10.9527
 232   2.0000      -0.400225       -10.8907
 233   2.0000      -0.395066       -10.7503
 234   2.0000      -0.393466       -10.7068
 235   2.0000      -0.391012       -10.6400
 236   2.0000      -0.388258       -10.5650
 237   2.0000      -0.386299       -10.5117
 238   2.0000      -0.379612       -10.3298
 239   2.0000      -0.376593       -10.2476
 240   2.0000      -0.374786       -10.1984
 241   2.0000      -0.372665       -10.1407
 242   2.0000      -0.368490       -10.0271
 243   2.0000      -0.367862       -10.0100
 244   2.0000      -0.361438        -9.8352
 245   2.0000      -0.358742        -9.7619
 246   2.0000      -0.355575        -9.6757
 247   2.0000      -0.342256        -9.3133
 248   2.0000      -0.338482        -9.2106
 249   2.0000      -0.330885        -9.0038
 250   2.0000      -0.329696        -8.9715
 251   2.0000      -0.316782        -8.6201
 252   2.0000      -0.312438        -8.5019
 253   2.0000      -0.309855        -8.4316
 254   2.0000      -0.305357        -8.3092
 255   2.0000      -0.301169        -8.1952
 256   2.0000      -0.293348        -7.9824
 257   2.0000      -0.288032        -7.8377
 258   2.0000      -0.281159        -7.6507
 259   2.0000      -0.261724        -7.1219
 260   2.0000      -0.245836        -6.6895
 261   2.0000      -0.200054        -5.4437
 262   0.0000      -0.081103        -2.2069
 263   0.0000      -0.063625        -1.7313
 264   0.0000      -0.055466        -1.5093
 265   0.0000      -0.036554        -0.9947
 266   0.0000      -0.007648        -0.2081

MULLIKEN ATOMIC CHARGES
-----------------------
   0 C :    0.340841
   1 C :   -0.374822
   2 C :   -0.196496
   3 N :    0.142780
   4 C :   -0.204593
   5 N :    0.145938
   6 C :    0.026756
   7 C :    0.003473
   8 C :   -0.070453
   9 C :    0.138227
  10 C :   -0.103475
  11 C :   -0.038571
  12 S :    0.157910
  13 C :   -0.118392
  14 C :    0.058264
  15 Br:    0.015725
  16 C :    0.164224
  17 O :   -0.152003
  18 C :   -0.178182
  19 C :    0.032012
  20 N :    0.003351
  21 C :   -0.119027
  22 S :    0.168279
  23 C :   -0.010503
  24 N :    0.282194
  25 O :   -0.250878
  26 O :   -0.266957
  27 C :    0.020339
  28 C :    0.131062
  29 C :   -0.012758
  30 C :   -0.034092
  31 C :    0.113090
  32 C :   -0.023712
  33 O :   -0.299864
  34 C :    0.172066
  35 S :    0.022962
  36 C :   -0.012394
  37 O :   -0.282777
  38 C :    0.171103
  39 C :    0.070327
  40 C :   -0.008678
  41 C :   -0.067507
  42 C :   -0.004900
  43 C :   -0.026119
  44 C :    0.033065
  45 C :    0.053991
  46 C :   -0.052490
  47 S :    0.028000
  48 C :   -0.038065
  49 C :    0.038504
  50 C :    0.050372
  51 C :   -0.015793
  52 S :    0.061310
  53 C :   -0.019713
  54 C :   -0.109641
  55 C :   -0.033254
  56 C :    0.075288
  57 C :   -0.164055
  58 C :    0.293304
  59 C :   -0.038538
  60 C :    0.049107
  61 C :    0.002505
  62 C :   -0.065913
  63 C :    0.162014
  64 C :   -0.033311
  65 C :   -0.070230
  66 H :   -0.014827
  67 H :   -0.017460
  68 H :    0.001027
  69 H :    0.032715
  70 H :    0.155727
  71 H :    0.014259
  72 H :    0.010073
  73 H :   -0.001156
  74 H :    0.052902
  75 H :    0.039579
  76 H :    0.035194
  77 H :    0.047085
  78 H :    0.026890
  79 H :    0.029524
  80 H :   -0.007987
  81 H :    0.031287
  82 H :   -0.020895
  83 H :   -0.017967
  84 H :   -0.015763
  85 H :   -0.015443
  86 H :   -0.015021
  87 H :   -0.024058
  88 H :   -0.024972
  89 H :    0.009085
  90 H :    0.007758
  91 H :   -0.041286
  92 H :    0.038786
  93 H :   -0.054057
  94 H :    0.015087
  95 H :   -0.011759
  96 H :   -0.013142
  97 H :    0.011684
  98 H :    0.011360
  99 H :   -0.002619
 100 H :   -0.001838
Sum of atomic charges:   -0.0000000

LOEWDIN ATOMIC CHARGES
----------------------
   0 C :    0.091927
   1 C :   -0.167848
   2 C :   -0.018962
   3 N :   -0.069813
   4 C :   -0.021246
   5 N :   -0.067048
   6 C :   -0.023217
   7 C :   -0.039712
   8 C :    0.017587
   9 C :   -0.025086
  10 C :   -0.148586
  11 C :   -0.014236
  12 S :    0.424568
  13 C :   -0.270621
  14 C :   -0.059208
  15 Br:    0.134517
  16 C :    0.077134
  17 O :   -0.149754
  18 C :   -0.139926
  19 C :    0.098336
  20 N :    0.069102
  21 C :   -0.119505
  22 S :    0.472653
  23 C :   -0.207788
  24 N :    0.278343
  25 O :   -0.218980
  26 O :   -0.232729
  27 C :    0.003267
  28 C :   -0.071091
  29 C :   -0.045693
  30 C :    0.007834
  31 C :   -0.096762
  32 C :   -0.098019
  33 O :   -0.087484
  34 C :    0.067450
  35 S :    0.394271
  36 C :   -0.113819
  37 O :   -0.093817
  38 C :    0.065267
  39 C :   -0.090593
  40 C :   -0.020967
  41 C :   -0.049232
  42 C :   -0.072731
  43 C :   -0.137880
  44 C :   -0.044001
  45 C :   -0.018226
  46 C :   -0.190390
  47 S :    0.391927
  48 C :   -0.178605
  49 C :   -0.032488
  50 C :   -0.021498
  51 C :   -0.148653
  52 S :    0.404178
  53 C :   -0.050072
  54 C :   -0.028560
  55 C :   -0.011299
  56 C :   -0.028474
  57 C :   -0.012755
  58 C :   -0.029606
  59 C :   -0.015746
  60 C :   -0.015027
  61 C :   -0.019542
  62 C :   -0.028495
  63 C :   -0.032274
  64 C :   -0.005821
  65 C :   -0.082430
  66 H :    0.031460
  67 H :    0.035905
  68 H :    0.040876
  69 H :    0.039283
  70 H :    0.098482
  71 H :    0.040889
  72 H :    0.024295
  73 H :    0.032290
  74 H :    0.034628
  75 H :    0.015207
  76 H :    0.018169
  77 H :    0.031069
  78 H :    0.014450
  79 H :    0.003453
  80 H :    0.029180
  81 H :    0.014743
  82 H :    0.029620
  83 H :    0.031386
  84 H :    0.032567
  85 H :    0.031850
  86 H :    0.032233
  87 H :    0.033534
  88 H :    0.017961
  89 H :    0.034757
  90 H :    0.030266
  91 H :    0.007180
  92 H :    0.015283
  93 H :    0.006031
  94 H :    0.033978
  95 H :    0.019992
  96 H :    0.019650
  97 H :    0.026316
  98 H :    0.023694
  99 H :    0.018067
 100 H :    0.019211

  Mayer bond orders larger than 0.100000
B(  0-C ,  1-C ) :   1.6044 B(  0-C ,  6-C ) :   1.0085 B(  0-C , 18-C ) :   1.1086
B(  1-C ,  2-C ) :   1.1488 B(  1-C ,  4-C ) :   1.1603 B(  2-C ,  3-N ) :   2.9410
B(  4-C ,  5-N ) :   2.9356 B(  6-C ,  7-C ) :   1.2864 B(  6-C , 11-C ) :   1.3916
B(  7-C ,  8-C ) :   1.4363 B(  7-C , 16-C ) :   0.9415 B(  8-C ,  9-C ) :   1.2484
B(  8-C , 66-H ) :   0.9892 B(  9-C , 10-C ) :   1.3160 B(  9-C , 14-C ) :   1.1680
B( 10-C , 11-C ) :   1.3209 B( 10-C , 12-S ) :   1.0771 B( 11-C , 67-H ) :   0.9883
B( 12-S , 13-C ) :   1.0781 B( 13-C , 14-C ) :   1.6184 B( 13-C , 15-Br) :   1.0146
B( 14-C , 68-H ) :   0.9988 B( 16-C , 17-O ) :   2.1470 B( 16-C , 18-C ) :   0.9468
B( 18-C , 19-C ) :   1.5241 B( 19-C , 20-N ) :   1.2888 B( 19-C , 69-H ) :   0.9247
B( 20-N , 21-C ) :   1.1107 B( 20-N , 70-H ) :   0.9034 B( 21-C , 22-S ) :   1.1357
B( 21-C , 28-C ) :   1.4119 B( 22-S , 23-C ) :   1.1026 B( 23-C , 24-N ) :   0.9715
B( 23-C , 27-C ) :   1.4796 B( 24-N , 25-O ) :   1.5281 B( 24-N , 26-O ) :   1.5043
B( 25-O , 26-O ) :   0.2534 B( 27-C , 28-C ) :   1.2349 B( 27-C , 71-H ) :   0.9930
B( 28-C , 29-C ) :   1.0621 B( 29-C , 30-C ) :   1.7248 B( 29-C , 72-H ) :   0.9631
B( 30-C , 31-C ) :   1.1151 B( 30-C , 73-H ) :   0.9463 B( 31-C , 32-C ) :   1.4913
B( 31-C , 39-C ) :   1.1660 B( 32-C , 33-O ) :   1.1321 B( 32-C , 35-S ) :   1.0719
B( 33-O , 34-C ) :   0.9316 B( 34-C , 74-H ) :   0.9793 B( 34-C , 75-H ) :   0.9588
B( 34-C , 76-H ) :   0.9651 B( 35-S , 36-C ) :   1.0549 B( 36-C , 37-O ) :   1.1642
B( 36-C , 39-C ) :   1.5144 B( 37-O , 38-C ) :   0.9454 B( 38-C , 77-H ) :   0.9808
B( 38-C , 78-H ) :   0.9665 B( 38-C , 79-H ) :   0.9587 B( 39-C , 40-C ) :   1.0737
B( 40-C , 41-C ) :   1.6672 B( 40-C , 80-H ) :   0.9819 B( 41-C , 42-C ) :   1.1370
B( 41-C , 81-H ) :   0.9493 B( 42-C , 43-C ) :   1.5769 B( 42-C , 82-H ) :   0.9882
B( 43-C , 44-C ) :   1.1306 B( 43-C , 47-S ) :   1.0264 B( 44-C , 45-C ) :   1.5992
B( 44-C , 83-H ) :   0.9970 B( 45-C , 46-C ) :   1.1816 B( 45-C , 84-H ) :   0.9906
B( 46-C , 47-S ) :   1.0427 B( 46-C , 48-C ) :   1.5204 B( 48-C , 49-C ) :   1.1651
B( 48-C , 52-S ) :   1.0506 B( 49-C , 50-C ) :   1.6180 B( 49-C , 85-H ) :   0.9917
B( 50-C , 51-C ) :   1.1191 B( 50-C , 86-H ) :   0.9975 B( 51-C , 52-S ) :   1.0094
B( 51-C , 53-C ) :   1.6081 B( 53-C , 54-C ) :   1.1180 B( 53-C , 87-H ) :   0.9701
B( 54-C , 55-C ) :   1.7224 B( 54-C , 58-C ) :   1.0072 B( 55-C , 56-C ) :   0.9656
B( 55-C , 88-H ) :   1.0027 B( 56-C , 57-C ) :   1.0105 B( 56-C , 64-C ) :   1.0103
B( 56-C , 89-H ) :   0.8585 B( 57-C , 58-C ) :   1.0305 B( 57-C , 59-C ) :   1.0070
B( 57-C , 90-H ) :   0.9236 B( 58-C , 91-H ) :   0.8631 B( 58-C , 92-H ) :   0.9110
B( 59-C , 60-C ) :   1.0596 B( 59-C , 63-C ) :   1.0614 B( 59-C , 93-H ) :   0.8784
B( 60-C , 61-C ) :   0.9796 B( 60-C , 64-C ) :   0.9745 B( 60-C , 94-H ) :   0.8709
B( 61-C , 62-C ) :   1.9019 B( 61-C , 95-H ) :   0.9905 B( 62-C , 63-C ) :   1.0127
B( 62-C , 96-H ) :   0.9894 B( 63-C , 97-H ) :   0.9158 B( 63-C , 98-H ) :   0.9303
B( 64-C , 65-C ) :   2.0675 B( 65-C , 99-H ) :   0.9368 B( 65-C ,100-H ) :   0.9363

-----------------------------------------------------------------------------
         ABSORPTION SPECTRUM VIA TRANSITION ELECTRIC DIPOLE MOMENTS
-----------------------------------------------------------------------------
State   Energy  Wavelength   fosc         T2         TX        TY        TZ
        (cm-1)    (nm)                  (au**2)     (au)      (au)      (au)
-----------------------------------------------------------------------------
   0   10746.2    930.6   0.004589836   0.14061   0.28981   0.16328   0.17308
   1   14234.0    702.5   0.060058297   1.38906  -0.20191  -0.82147  -0.82065
   2   16508.8    605.7   0.793084750  15.81543   1.11375   1.84118   3.34440
   3   17499.0    571.5   0.164276866   3.09058  -0.47246  -0.23416  -1.67706
   4   17725.1    564.2   0.035891696   0.66662  -0.50511   0.13786  -0.62649
   5   22066.3    453.2   0.113867346   1.69881   0.11280   0.82212  -1.00509
   6   22650.1    441.5   0.079073817   1.14931   0.23728   0.87652   0.56985
   7   24335.5    410.9   0.024317145   0.32896   0.29250  -0.45728   0.18521
   8   25185.4    397.1   0.014624356   0.19116   0.29176  -0.09843   0.31041
   9   25591.0    390.8   0.016907715   0.21751   0.24459   0.15261   0.36659
  10   25668.5    389.6   0.155491596   1.99426  -0.29355  -1.31241  -0.43090
  11   26686.6    374.7   0.199472350   2.46074   0.10828  -1.49604   0.45922
  12   27623.3    362.0   0.004709336   0.05613   0.14527   0.11303   0.14915
  13   28563.6    350.1   0.132069135   1.52217  -1.18643   0.22743  -0.25064
  14   28710.9    348.3   0.038119355   0.43709  -0.03082  -0.65233  -0.10301
  15   29067.4    344.0   0.008915875   0.10098   0.18247   0.00717  -0.26006
  16   29397.6    340.2   0.489314703   5.47963   2.20622   0.23995   0.74475
  17   29624.3    337.6   0.287112435   3.19066  -0.94114   1.49525  -0.26294
  18   30686.2    325.9   0.020778102   0.22291   0.19845   0.39276   0.17110
  19   31104.3    321.5   0.014234664   0.15066  -0.31622  -0.14005  -0.17622
  20   31239.7    320.1   0.118844120   1.25241   1.09103   0.10760   0.22469
  21   31601.4    316.4   0.020704801   0.21570   0.39547  -0.24100   0.03486
  22   31945.8    313.0   0.006733449   0.06939   0.15286   0.05053   0.20850
  23   32028.8    312.2   0.045081070   0.46337  -0.45820   0.49734   0.07796
  24   32255.0    310.0   0.000579372   0.00591  -0.01245  -0.01101   0.07508
  25   32762.3    305.2   0.429195262   4.31277   0.85378  -1.89280  -0.03389
  26   33144.5    301.7   0.108454630   1.07724  -0.64564  -0.63773  -0.50368
  27   33368.7    299.7   0.066614476   0.65721  -0.73680   0.31425  -0.12482
  28   33604.0    297.6   0.047945301   0.46971  -0.40560  -0.45475  -0.31369
  29   33962.1    294.4   0.120499950   1.16807  -0.95013   0.45994  -0.23188
  30   34053.3    293.7   0.006644341   0.06423  -0.23589   0.05001  -0.07804
  31   34538.1    289.5   0.059469183   0.56685   0.60459  -0.35729   0.27143
  32   34706.5    288.1   0.010606469   0.10061   0.04527  -0.29294   0.11290
  33   35234.5    283.8   0.018527783   0.17311   0.04208  -0.37551  -0.17416
  34   35278.1    283.5   0.002914205   0.02720  -0.10454   0.02382   0.12530
  35   35554.9    281.3   0.102288679   0.94712  -0.50574   0.83057   0.03870
  36   35935.0    278.3   0.090305643   0.82732   0.64811  -0.61495   0.17061
  37   36242.0    275.9   0.003150833   0.02862  -0.07606   0.01623  -0.15024
  38   36412.1    274.6   0.015561767   0.14070   0.04777   0.18845   0.32079
  39   36740.8    272.2   0.017305502   0.15506   0.18356  -0.25226  -0.24029
  40   36884.1    271.1   0.007405537   0.06610  -0.08436   0.09812   0.22216
  41   37313.2    268.0   0.041607294   0.36710  -0.58059   0.15596  -0.07546
  42   37414.5    267.3   0.024839817   0.21857  -0.35669   0.20749   0.21975
  43   37566.4    266.2   0.051700384   0.45307  -0.55736   0.17219  -0.33582
  44   37951.5    263.5   0.155314279   1.34728   0.67328   0.66243   0.67465
  45   38089.9    262.5   0.207762398   1.79570   0.65937   0.92984   0.70450
  46   38269.6    261.3   0.005666392   0.04874  -0.19386  -0.04127  -0.09727
  47   38487.5    259.8   0.117081558   1.00148  -0.05000   0.96140   0.27330
  48   38660.3    258.7   0.076212436   0.64899  -0.00192  -0.76995  -0.23698
  49   38764.7    258.0   0.108253125   0.91935   0.02814   0.89405   0.34530
  50   38860.3    257.3   0.027321863   0.23146   0.13014   0.44318   0.13460
  51   39173.3    255.3   0.094734562   0.79615   0.40002  -0.79758  -0.00196
  52   39630.5    252.3   0.001104604   0.00918   0.01021  -0.07274   0.06149
  53   39671.5    252.1   0.005650389   0.04689   0.12303  -0.17384   0.03914
  54   39829.7    251.1   0.009507553   0.07858  -0.22085   0.10205  -0.13927
  55   39887.0    250.7   0.022248171   0.18363  -0.22978   0.35647   0.06132
  56   40005.4    250.0   0.014244445   0.11722  -0.24537   0.12604  -0.20280

FINAL SINGLE POINT ENERGY     -7120.397020260836

DIPOLE MOMENT
-------------
                                X             Y             Z
Electronic contribution:     71.50075      57.56764      57.23692
Nuclear contribution   :    -70.69413     -57.07532     -55.89114
                        -----------------------------------------
Total Dipole Moment    :      0.80662       0.49233       1.34578
                        -----------------------------------------
Magnitude (a.u.)       :      1.64443
Magnitude (Debye)      :      4.17981

Rotational constants in cm-1:     0.001460     0.000838     0.000671
Rotational constants in MHz :    43.765329    25.111355    20.113895

                             ****ORCA TERMINATED NORMALLY****
TOTAL RUN TIME: 0 days 0 hours 21 minutes 31 seconds 365 msec
