                         Program Version 4.2.0 -  RELEASE  -
|  1> # ORCA input file
|  2> # SCF done       -188.981383419106          0.000374211177
|  3> ! CAM-B3LYP def2-SVP def2/J RIJCOSX Grid4 TightSCF
|  4> %maxcore 5000
|  5> %tddft
|  6>     Mode sTDDFT
|  7>     Ethresh 5.0
|  8>     maxcore 5000
|  9> end
| 10>
| 11> %pal
| 12>   nprocs 6
| 13>   end
| 14> * xyz 0 1
| 15>    C      -10.00992        -2.78589         1.90691
| 16>    C      -11.09804        -3.20779         1.18290
| 17>    C      -11.42482        -4.56087         0.95866
| 18>    N      -11.74980        -5.64018         0.73817
| 19>    C      -12.04735        -2.37488         0.55648
| 20>    N      -12.86562        -1.77797         0.01363
| 21>    C       -9.03466        -3.66797         2.54261
| 22>    C       -8.05977        -2.87463         3.19372
| 23>    C       -7.00479        -3.41555         3.88646
| 24>    C       -6.90474        -4.80984         3.94012
| 25>    C       -7.88197        -5.59520         3.28505
| 26>    C       -8.94941        -5.04735         2.58435
| 27>    S       -7.56904        -7.29464         3.47548
| 28>    C       -6.14971        -6.93025         4.42049
| 29>    C       -5.91943        -5.60641         4.58584
| 30>   Br       -5.10524        -8.33277         5.09985
| 31>    C       -8.37783        -1.44422         2.99442
| 32>    O       -7.73895        -0.50532         3.42149
| 33>    C       -9.61426        -1.42065         2.18060
| 34>    C      -10.26012        -0.28346         1.76694
| 35>    C       -9.84940         1.03379         2.03956
| 36>    C      -10.56118         2.09913         1.56799
| 37>    C      -10.21808         3.44737         1.77711
| 38>    O      -10.99870         4.42520         1.24073
| 39>    C      -10.46708         5.62926         1.55995
| 40>    C       -9.31990         5.43185         2.32327
| 41>    C       -9.15461         4.04135         2.46595
| 42>    O       -8.17647         3.40718         3.12680
| 43>    O       -8.46860         6.34369         2.86382
| 44>    C      -11.07189         6.83616         1.11594
| 45>    C      -12.21121         6.86512         0.38420
| 46>    C      -12.87535         8.02577        -0.11915
| 47>    C      -12.43830         9.29816        -0.04235
| 48>    C      -13.13675        10.44030        -0.59922
| 49>    C      -14.45197        10.48265        -0.89340
| 50>    N      -12.34390        11.57677        -0.67086
| 51>    N      -12.61147        12.43022        -1.54858
| 52>    C      -11.89247        13.49906        -1.85895
| 53>    C      -10.52027        13.55325        -1.86370
| 54>    C       -9.79086        14.57996        -2.48323
| 55>    O      -10.40547        15.57425        -3.17210
| 56>    C       -9.45627        16.43577        -3.62856
| 57>    C       -8.19887        15.98598        -3.20832
| 58>    C       -8.40717        14.80110        -2.49071
| 59>    O       -7.47969        14.01868        -1.90354
| 60>    O       -6.97448        16.52903        -3.42751
| 61>    C       -9.80539        17.54558        -4.41967
| 62>    C      -11.08509        17.83029        -4.80607
| 63>    C      -11.43025        18.92239        -5.61802
| 64>    C      -12.71377        19.18436        -6.01471
| 65>    C      -13.04587        20.25885        -6.85275
| 66>    C      -14.29048        20.63516        -7.28848
| 67>    C      -15.61558        20.23234        -6.88818
| 68>    C      -16.01190        19.80277        -5.64486
| 69>    C      -17.34003        19.46479        -5.31786
| 70>    N      -18.39946        19.15442        -5.00098
| 71>    C      -15.17436        19.75255        -4.51222
| 72>    N      -14.56171        19.73620        -3.54108
| 73>    C      -16.52297        20.57757        -7.98137
| 74>    C      -15.81857        21.37029        -8.92181
| 75>    C      -14.41046        21.49624        -8.48912
| 76>    O      -13.52573        22.12722        -9.02518
| 77>    C      -16.41387        21.88119       -10.04870
| 78>    C      -17.76430        21.58464       -10.26561
| 79>    C      -18.45378        20.78001        -9.32876
| 80>    C      -17.85463        20.27162        -8.18202
| 81>    S      -20.10682        20.52386        -9.79980
| 82>    C      -19.85325        21.49155       -11.22805
| 83>    C      -18.59684        21.98111       -11.34845
| 84>   Br      -21.27099        21.76011       -12.42700
| 85>    H       -6.27888        -2.78236         4.37211
| 86>    H       -9.66660        -5.69066         2.10301
| 87>    H       -5.09016        -5.20590         5.13990
| 88>    H      -11.16142        -0.39180         1.17680
| 89>    H       -8.95727         1.19518         2.62445
| 90>    H      -11.45637         1.93441         0.98133
| 91>    H       -7.57847         4.06370         3.50961
| 92>    H       -8.76591         7.23556         2.65537
| 93>    H      -10.56962         7.75164         1.39556
| 94>    H      -12.67233         5.91440         0.15516
| 95>    H      -13.81069         7.83337        -0.62667
| 96>    H      -11.48522         9.53362         0.40860
| 97>    H      -15.10878         9.65790        -0.68885
| 98>    H      -14.89093        11.38618        -1.27876
| 99>    H      -12.46306        14.29164        -2.32458
|100>    H       -9.94794        12.75261        -1.42050
|101>    H       -6.61179        14.42053        -2.04216
|102>    H       -7.05998        17.34133        -3.93814
|103>    H       -8.99670        18.18953        -4.74157
|104>    H      -11.87683        17.17532        -4.47168
|105>    H      -10.63914        19.59107        -5.93447
|106>    H      -13.49432        18.51030        -5.69313
|107>    H      -12.22527        20.81647        -7.29310
|108>    H      -15.85631        22.48878       -10.74407
|109>    H      -18.41969        19.65895        -7.49928
|110>    H      -18.26789        22.59552       -12.16656
|111> *
|112>
|113>                          ****END OF INPUT****

CARTESIAN COORDINATES (ANGSTROEM)
---------------------------------
  C    -10.009920   -2.785890    1.906910
  C    -11.098040   -3.207790    1.182900
  C    -11.424820   -4.560870    0.958660
  N    -11.749800   -5.640180    0.738170
  C    -12.047350   -2.374880    0.556480
  N    -12.865620   -1.777970    0.013630
  C     -9.034660   -3.667970    2.542610
  C     -8.059770   -2.874630    3.193720
  C     -7.004790   -3.415550    3.886460
  C     -6.904740   -4.809840    3.940120
  C     -7.881970   -5.595200    3.285050
  C     -8.949410   -5.047350    2.584350
  S     -7.569040   -7.294640    3.475480
  C     -6.149710   -6.930250    4.420490
  C     -5.919430   -5.606410    4.585840
  Br    -5.105240   -8.332770    5.099850
  C     -8.377830   -1.444220    2.994420
  O     -7.738950   -0.505320    3.421490
  C     -9.614260   -1.420650    2.180600
  C    -10.260120   -0.283460    1.766940
  C     -9.849400    1.033790    2.039560
  C    -10.561180    2.099130    1.567990
  C    -10.218080    3.447370    1.777110
  O    -10.998700    4.425200    1.240730
  C    -10.467080    5.629260    1.559950
  C     -9.319900    5.431850    2.323270
  C     -9.154610    4.041350    2.465950
  O     -8.176470    3.407180    3.126800
  O     -8.468600    6.343690    2.863820
  C    -11.071890    6.836160    1.115940
  C    -12.211210    6.865120    0.384200
  C    -12.875350    8.025770   -0.119150
  C    -12.438300    9.298160   -0.042350
  C    -13.136750   10.440300   -0.599220
  C    -14.451970   10.482650   -0.893400
  N    -12.343900   11.576770   -0.670860
  N    -12.611470   12.430220   -1.548580
  C    -11.892470   13.499060   -1.858950
  C    -10.520270   13.553250   -1.863700
  C     -9.790860   14.579960   -2.483230
  O    -10.405470   15.574250   -3.172100
  C     -9.456270   16.435770   -3.628560
  C     -8.198870   15.985980   -3.208320
  C     -8.407170   14.801100   -2.490710
  O     -7.479690   14.018680   -1.903540
  O     -6.974480   16.529030   -3.427510
  C     -9.805390   17.545580   -4.419670
  C    -11.085090   17.830290   -4.806070
  C    -11.430250   18.922390   -5.618020
  C    -12.713770   19.184360   -6.014710
  C    -13.045870   20.258850   -6.852750
  C    -14.290480   20.635160   -7.288480
  C    -15.615580   20.232340   -6.888180
  C    -16.011900   19.802770   -5.644860
  C    -17.340030   19.464790   -5.317860
  N    -18.399460   19.154420   -5.000980
  C    -15.174360   19.752550   -4.512220
  N    -14.561710   19.736200   -3.541080
  C    -16.522970   20.577570   -7.981370
  C    -15.818570   21.370290   -8.921810
  C    -14.410460   21.496240   -8.489120
  O    -13.525730   22.127220   -9.025180
  C    -16.413870   21.881190  -10.048700
  C    -17.764300   21.584640  -10.265610
  C    -18.453780   20.780010   -9.328760
  C    -17.854630   20.271620   -8.182020
  S    -20.106820   20.523860   -9.799800
  C    -19.853250   21.491550  -11.228050
  C    -18.596840   21.981110  -11.348450
  Br   -21.270990   21.760110  -12.427000
  H     -6.278880   -2.782360    4.372110
  H     -9.666600   -5.690660    2.103010
  H     -5.090160   -5.205900    5.139900
  H    -11.161420   -0.391800    1.176800
  H     -8.957270    1.195180    2.624450
  H    -11.456370    1.934410    0.981330
  H     -7.578470    4.063700    3.509610
  H     -8.765910    7.235560    2.655370
  H    -10.569620    7.751640    1.395560
  H    -12.672330    5.914400    0.155160
  H    -13.810690    7.833370   -0.626670
  H    -11.485220    9.533620    0.408600
  H    -15.108780    9.657900   -0.688850
  H    -14.890930   11.386180   -1.278760
  H    -12.463060   14.291640   -2.324580
  H     -9.947940   12.752610   -1.420500
  H     -6.611790   14.420530   -2.042160
  H     -7.059980   17.341330   -3.938140
  H     -8.996700   18.189530   -4.741570
  H    -11.876830   17.175320   -4.471680
  H    -10.639140   19.591070   -5.934470
  H    -13.494320   18.510300   -5.693130
  H    -12.225270   20.816470   -7.293100
  H    -15.856310   22.488780  -10.744070
  H    -18.419690   19.658950   -7.499280
  H    -18.267890   22.595520  -12.166560

 Total Charge           Charge          ....    0
 Multiplicity           Mult            ....    1
 Number of Electrons    NEL             ....  546
 Basis Dimension        Dim             .... 1154

ORBITAL ENERGIES
----------------

  NO   OCC          E(Eh)            E(eV)
   0   2.0000    -482.883071    -13139.9164
   1   2.0000    -482.879385    -13139.8161
   2   2.0000     -88.972279     -2421.0588
   3   2.0000     -88.967485     -2420.9283
   4   2.0000     -62.560793     -1702.3657
   5   2.0000     -62.557112     -1702.2655
   6   2.0000     -56.394739     -1534.5789
   7   2.0000     -56.392032     -1534.5052
   8   2.0000     -56.391996     -1534.5042
   9   2.0000     -56.391054     -1534.4786
  10   2.0000     -56.388352     -1534.4051
  11   2.0000     -56.388317     -1534.4041
  12   2.0000     -19.304078      -525.2907
  13   2.0000     -19.297377      -525.1083
  14   2.0000     -19.288647      -524.8708
  15   2.0000     -19.278042      -524.5822
  16   2.0000     -19.273188      -524.4501
  17   2.0000     -19.273125      -524.4484
  18   2.0000     -19.208570      -522.6918
  19   2.0000     -19.202817      -522.5352
  20   2.0000     -14.458255      -393.4291
  21   2.0000     -14.457074      -393.3970
  22   2.0000     -14.411283      -392.1510
  23   2.0000     -14.408638      -392.0790
  24   2.0000     -14.404462      -391.9653
  25   2.0000     -14.402536      -391.9129
  26   2.0000     -10.361718      -281.9567
  27   2.0000     -10.359584      -281.8986
  28   2.0000     -10.355658      -281.7918
  29   2.0000     -10.354422      -281.7582
  30   2.0000     -10.354270      -281.7540
  31   2.0000     -10.353414      -281.7307
  32   2.0000     -10.351283      -281.6727
  33   2.0000     -10.350611      -281.6545
  34   2.0000     -10.349685      -281.6292
  35   2.0000     -10.349671      -281.6289
  36   2.0000     -10.348187      -281.5885
  37   2.0000     -10.337921      -281.3091
  38   2.0000     -10.337691      -281.3029
  39   2.0000     -10.336635      -281.2741
  40   2.0000     -10.328613      -281.0559
  41   2.0000     -10.327217      -281.0179
  42   2.0000     -10.322079      -280.8780
  43   2.0000     -10.316283      -280.7203
  44   2.0000     -10.315003      -280.6855
  45   2.0000     -10.314236      -280.6646
  46   2.0000     -10.311543      -280.5913
  47   2.0000     -10.310087      -280.5517
  48   2.0000     -10.309262      -280.5293
  49   2.0000     -10.308136      -280.4986
  50   2.0000     -10.308118      -280.4981
  51   2.0000     -10.306400      -280.4514
  52   2.0000     -10.304930      -280.4114
  53   2.0000     -10.304368      -280.3961
  54   2.0000     -10.303655      -280.3767
  55   2.0000     -10.302025      -280.3324
  56   2.0000     -10.301579      -280.3202
  57   2.0000     -10.300342      -280.2866
  58   2.0000     -10.298451      -280.2351
  59   2.0000     -10.297863      -280.2191
  60   2.0000     -10.297388      -280.2062
  61   2.0000     -10.297209      -280.2013
  62   2.0000     -10.296631      -280.1856
  63   2.0000     -10.295246      -280.1479
  64   2.0000     -10.293772      -280.1078
  65   2.0000     -10.291619      -280.0492
  66   2.0000     -10.290889      -280.0293
  67   2.0000     -10.289367      -279.9879
  68   2.0000     -10.288910      -279.9755
  69   2.0000     -10.288847      -279.9738
  70   2.0000     -10.288254      -279.9576
  71   2.0000     -10.286984      -279.9231
  72   2.0000     -10.283642      -279.8321
  73   2.0000     -10.282907      -279.8121
  74   2.0000     -10.280881      -279.7570
  75   2.0000     -10.279975      -279.7324
  76   2.0000     -10.275683      -279.6155
  77   2.0000     -10.270617      -279.4777
  78   2.0000      -8.790224      -239.1942
  79   2.0000      -8.786546      -239.0941
  80   2.0000      -8.068327      -219.5503
  81   2.0000      -8.063462      -219.4179
  82   2.0000      -6.626505      -180.3164
  83   2.0000      -6.622822      -180.2161
  84   2.0000      -6.611954      -179.9204
  85   2.0000      -6.611788      -179.9159
  86   2.0000      -6.608291      -179.8207
  87   2.0000      -6.608100      -179.8155
  88   2.0000      -6.038026      -164.3030
  89   2.0000      -6.033746      -164.1866
  90   2.0000      -6.033161      -164.1706
  91   2.0000      -6.029523      -164.0717
  92   2.0000      -6.028893      -164.0545
  93   2.0000      -6.024667      -163.9395
  94   2.0000      -2.742393       -74.6243
  95   2.0000      -2.738662       -74.5228
  96   2.0000      -2.738303       -74.5130
  97   2.0000      -2.738138       -74.5085
  98   2.0000      -2.734623       -74.4129
  99   2.0000      -2.734508       -74.4097
 100   2.0000      -2.726599       -74.1945
 101   2.0000      -2.726580       -74.1940
 102   2.0000      -2.722935       -74.0948
 103   2.0000      -2.722921       -74.0944
 104   2.0000      -1.224863       -33.3302
 105   2.0000      -1.219024       -33.1713
 106   2.0000      -1.180945       -32.1352
 107   2.0000      -1.174623       -31.9631
 108   2.0000      -1.161629       -31.6095
 109   2.0000      -1.158442       -31.5228
 110   2.0000      -1.126106       -30.6429
 111   2.0000      -1.122982       -30.5579
 112   2.0000      -1.117298       -30.4032
 113   2.0000      -1.018746       -27.7215
 114   2.0000      -1.012624       -27.5549
 115   2.0000      -1.008638       -27.4464
 116   2.0000      -1.002735       -27.2858
 117   2.0000      -0.988631       -26.9020
 118   2.0000      -0.984817       -26.7982
 119   2.0000      -0.982542       -26.7363
 120   2.0000      -0.977829       -26.6081
 121   2.0000      -0.954205       -25.9652
 122   2.0000      -0.943930       -25.6856
 123   2.0000      -0.936739       -25.4900
 124   2.0000      -0.935328       -25.4516
 125   2.0000      -0.929149       -25.2834
 126   2.0000      -0.916784       -24.9470
 127   2.0000      -0.911612       -24.8062
 128   2.0000      -0.908363       -24.7178
 129   2.0000      -0.904280       -24.6067
 130   2.0000      -0.899956       -24.4891
 131   2.0000      -0.898391       -24.4465
 132   2.0000      -0.892626       -24.2896
 133   2.0000      -0.882592       -24.0166
 134   2.0000      -0.882008       -24.0007
 135   2.0000      -0.876271       -23.8445
 136   2.0000      -0.872929       -23.7536
 137   2.0000      -0.862515       -23.4702
 138   2.0000      -0.847455       -23.0604
 139   2.0000      -0.834494       -22.7077
 140   2.0000      -0.825489       -22.4627
 141   2.0000      -0.820584       -22.3292
 142   2.0000      -0.818566       -22.2743
 143   2.0000      -0.795884       -21.6571
 144   2.0000      -0.790019       -21.4975
 145   2.0000      -0.769042       -20.9267
 146   2.0000      -0.764135       -20.7932
 147   2.0000      -0.755716       -20.5641
 148   2.0000      -0.749456       -20.3937
 149   2.0000      -0.744158       -20.2496
 150   2.0000      -0.740996       -20.1635
 151   2.0000      -0.731417       -19.9029
 152   2.0000      -0.723689       -19.6926
 153   2.0000      -0.715248       -19.4629
 154   2.0000      -0.710625       -19.3371
 155   2.0000      -0.699627       -19.0378
 156   2.0000      -0.697513       -18.9803
 157   2.0000      -0.694243       -18.8913
 158   2.0000      -0.684618       -18.6294
 159   2.0000      -0.680763       -18.5245
 160   2.0000      -0.673119       -18.3165
 161   2.0000      -0.670092       -18.2341
 162   2.0000      -0.661466       -17.9994
 163   2.0000      -0.656752       -17.8711
 164   2.0000      -0.649611       -17.6768
 165   2.0000      -0.647762       -17.6265
 166   2.0000      -0.644854       -17.5474
 167   2.0000      -0.636392       -17.3171
 168   2.0000      -0.635400       -17.2901
 169   2.0000      -0.625759       -17.0278
 170   2.0000      -0.619271       -16.8512
 171   2.0000      -0.615733       -16.7549
 172   2.0000      -0.612952       -16.6793
 173   2.0000      -0.608244       -16.5512
 174   2.0000      -0.601473       -16.3669
 175   2.0000      -0.598281       -16.2801
 176   2.0000      -0.592428       -16.1208
 177   2.0000      -0.591228       -16.0881
 178   2.0000      -0.585738       -15.9387
 179   2.0000      -0.583611       -15.8809
 180   2.0000      -0.580290       -15.7905
 181   2.0000      -0.578997       -15.7553
 182   2.0000      -0.575994       -15.6736
 183   2.0000      -0.569065       -15.4851
 184   2.0000      -0.564843       -15.3702
 185   2.0000      -0.559515       -15.2252
 186   2.0000      -0.553601       -15.0642
 187   2.0000      -0.547292       -14.8926
 188   2.0000      -0.544249       -14.8098
 189   2.0000      -0.540899       -14.7186
 190   2.0000      -0.537559       -14.6277
 191   2.0000      -0.535626       -14.5751
 192   2.0000      -0.532373       -14.4866
 193   2.0000      -0.528911       -14.3924
 194   2.0000      -0.528214       -14.3734
 195   2.0000      -0.527102       -14.3432
 196   2.0000      -0.525980       -14.3126
 197   2.0000      -0.522239       -14.2109
 198   2.0000      -0.519327       -14.1316
 199   2.0000      -0.518012       -14.0958
 200   2.0000      -0.510611       -13.8944
 201   2.0000      -0.509429       -13.8623
 202   2.0000      -0.507537       -13.8108
 203   2.0000      -0.503507       -13.7011
 204   2.0000      -0.501174       -13.6376
 205   2.0000      -0.500959       -13.6318
 206   2.0000      -0.499416       -13.5898
 207   2.0000      -0.498820       -13.5736
 208   2.0000      -0.497758       -13.5447
 209   2.0000      -0.496637       -13.5142
 210   2.0000      -0.493054       -13.4167
 211   2.0000      -0.491475       -13.3737
 212   2.0000      -0.489210       -13.3121
 213   2.0000      -0.486024       -13.2254
 214   2.0000      -0.485116       -13.2007
 215   2.0000      -0.483022       -13.1437
 216   2.0000      -0.482618       -13.1327
 217   2.0000      -0.481425       -13.1002
 218   2.0000      -0.481142       -13.0925
 219   2.0000      -0.478497       -13.0206
 220   2.0000      -0.465294       -12.6613
 221   2.0000      -0.463374       -12.6090
 222   2.0000      -0.461303       -12.5527
 223   2.0000      -0.456254       -12.4153
 224   2.0000      -0.454283       -12.3617
 225   2.0000      -0.454008       -12.3542
 226   2.0000      -0.453266       -12.3340
 227   2.0000      -0.448936       -12.2162
 228   2.0000      -0.448232       -12.1970
 229   2.0000      -0.445818       -12.1313
 230   2.0000      -0.443656       -12.0725
 231   2.0000      -0.441966       -12.0265
 232   2.0000      -0.439377       -11.9561
 233   2.0000      -0.438573       -11.9342
 234   2.0000      -0.438533       -11.9331
 235   2.0000      -0.437711       -11.9107
 236   2.0000      -0.434412       -11.8210
 237   2.0000      -0.432777       -11.7764
 238   2.0000      -0.432603       -11.7717
 239   2.0000      -0.430710       -11.7202
 240   2.0000      -0.427882       -11.6433
 241   2.0000      -0.422908       -11.5079
 242   2.0000      -0.421260       -11.4631
 243   2.0000      -0.418579       -11.3901
 244   2.0000      -0.415610       -11.3093
 245   2.0000      -0.414337       -11.2747
 246   2.0000      -0.411953       -11.2098
 247   2.0000      -0.404575       -11.0091
 248   2.0000      -0.403703       -10.9853
 249   2.0000      -0.395884       -10.7726
 250   2.0000      -0.395461       -10.7610
 251   2.0000      -0.387830       -10.5534
 252   2.0000      -0.381770       -10.3885
 253   2.0000      -0.378287       -10.2937
 254   2.0000      -0.372548       -10.1376
 255   2.0000      -0.368959       -10.0399
 256   2.0000      -0.367279        -9.9942
 257   2.0000      -0.358070        -9.7436
 258   2.0000      -0.351689        -9.5700
 259   2.0000      -0.334401        -9.0995
 260   2.0000      -0.330364        -8.9897
 261   2.0000      -0.324707        -8.8357
 262   2.0000      -0.323687        -8.8080
 263   2.0000      -0.322560        -8.7773
 264   2.0000      -0.311715        -8.4822
 265   2.0000      -0.307181        -8.3588
 266   2.0000      -0.306222        -8.3327
 267   2.0000      -0.291472        -7.9313
 268   2.0000      -0.290200        -7.8967
 269   2.0000      -0.286208        -7.7881
 270   2.0000      -0.282714        -7.6930
 271   2.0000      -0.243797        -6.6341
 272   2.0000      -0.238272        -6.4837
 273   0.0000      -0.102325        -2.7844
 274   0.0000      -0.089742        -2.4420
 275   0.0000      -0.068055        -1.8519
 276   0.0000      -0.056493        -1.5373
 277   0.0000      -0.050549        -1.3755

MULLIKEN ATOMIC CHARGES
-----------------------
   0 C :    0.335528
   1 C :   -0.364729
   2 C :   -0.186242
   3 N :    0.139945
   4 C :   -0.190738
   5 N :    0.138306
   6 C :    0.010827
   7 C :   -0.011755
   8 C :   -0.075078
   9 C :    0.119555
  10 C :   -0.093590
  11 C :   -0.022275
  12 S :    0.181587
  13 C :   -0.122468
  14 C :    0.035810
  15 Br:    0.016580
  16 C :    0.138234
  17 O :   -0.152345
  18 C :   -0.072203
  19 C :   -0.035631
  20 C :   -0.032510
  21 C :    0.014753
  22 C :    0.117240
  23 O :   -0.212814
  24 C :    0.103927
  25 C :    0.083538
  26 C :    0.076409
  27 O :   -0.141792
  28 O :   -0.197278
  29 C :   -0.040299
  30 C :    0.022911
  31 C :    0.017951
  32 C :    0.049663
  33 C :   -0.000884
  34 C :   -0.002791
  35 N :   -0.091974
  36 N :   -0.053290
  37 C :    0.034776
  38 C :   -0.023272
  39 C :    0.094518
  40 O :   -0.221786
  41 C :    0.111326
  42 C :    0.093560
  43 C :    0.085561
  44 O :   -0.169297
  45 O :   -0.190043
  46 C :   -0.047230
  47 C :    0.021956
  48 C :    0.038780
  49 C :    0.009971
  50 C :    0.033831
  51 C :   -0.118243
  52 C :    0.279856
  53 C :   -0.339448
  54 C :   -0.180752
  55 N :    0.148014
  56 C :   -0.220243
  57 N :    0.166395
  58 C :    0.007328
  59 C :   -0.003941
  60 C :    0.140079
  61 O :   -0.150517
  62 C :   -0.075932
  63 C :    0.113978
  64 C :   -0.087711
  65 C :   -0.025392
  66 S :    0.183460
  67 C :   -0.124172
  68 C :    0.038222
  69 Br:    0.020529
  70 H :   -0.014454
  71 H :   -0.009152
  72 H :   -0.005430
  73 H :    0.004509
  74 H :    0.038426
  75 H :    0.009847
  76 H :    0.199383
  77 H :    0.194146
  78 H :   -0.029780
  79 H :    0.005080
  80 H :   -0.007138
  81 H :   -0.015987
  82 H :    0.022232
  83 H :    0.033444
  84 H :    0.022868
  85 H :    0.015017
  86 H :    0.196842
  87 H :    0.196286
  88 H :   -0.021344
  89 H :    0.013927
  90 H :   -0.002170
  91 H :    0.015862
  92 H :    0.010394
  93 H :   -0.010662
  94 H :   -0.004279
  95 H :   -0.004104
Sum of atomic charges:   -0.0000000

LOEWDIN ATOMIC CHARGES
----------------------
   0 C :    0.076600
   1 C :   -0.150914
   2 C :   -0.018139
   3 N :   -0.063844
   4 C :   -0.019985
   5 N :   -0.062521
   6 C :   -0.019783
   7 C :   -0.048962
   8 C :    0.017966
   9 C :   -0.034443
  10 C :   -0.145263
  11 C :   -0.011834
  12 S :    0.428454
  13 C :   -0.273481
  14 C :   -0.071280
  15 Br:    0.131553
  16 C :    0.081834
  17 O :   -0.149165
  18 C :   -0.108910
  19 C :    0.066982
  20 C :   -0.040586
  21 C :    0.023726
  22 C :   -0.010152
  23 O :    0.006357
  24 C :    0.007460
  25 C :   -0.023447
  26 C :    0.020627
  27 O :   -0.016857
  28 O :   -0.059447
  29 C :   -0.046659
  30 C :   -0.008983
  31 C :   -0.024603
  32 C :   -0.010897
  33 C :   -0.041160
  34 C :   -0.013604
  35 N :   -0.027793
  36 N :    0.003884
  37 C :   -0.027042
  38 C :   -0.030604
  39 C :    0.017802
  40 O :    0.005785
  41 C :   -0.012707
  42 C :   -0.004130
  43 C :   -0.003922
  44 O :   -0.042253
  45 O :   -0.051570
  46 C :   -0.020291
  47 C :   -0.026594
  48 C :    0.030618
  49 C :   -0.036186
  50 C :    0.064304
  51 C :   -0.100298
  52 C :    0.070290
  53 C :   -0.145485
  54 C :   -0.019634
  55 N :   -0.056967
  56 C :   -0.025281
  57 N :   -0.054324
  58 C :   -0.017269
  59 C :   -0.051727
  60 C :    0.081016
  61 O :   -0.150986
  62 C :    0.020630
  63 C :   -0.034761
  64 C :   -0.143873
  65 C :   -0.014043
  66 S :    0.430152
  67 C :   -0.272992
  68 C :   -0.070357
  69 Br:    0.134119
  70 H :    0.039078
  71 H :    0.040267
  72 H :    0.037797
  73 H :    0.040193
  74 H :    0.034268
  75 H :    0.044438
  76 H :    0.109936
  77 H :    0.100679
  78 H :    0.024418
  79 H :    0.035525
  80 H :    0.030679
  81 H :    0.023701
  82 H :    0.026420
  83 H :    0.028357
  84 H :    0.031911
  85 H :    0.043787
  86 H :    0.106391
  87 H :    0.102371
  88 H :    0.029488
  89 H :    0.038300
  90 H :    0.031865
  91 H :    0.033871
  92 H :    0.042533
  93 H :    0.040634
  94 H :    0.040469
  95 H :    0.038473

  Mayer bond orders larger than 0.100000
B(  0-C ,  1-C ) :   1.6021 B(  0-C ,  6-C ) :   0.9941 B(  0-C , 18-C ) :   1.0911
B(  1-C ,  2-C ) :   1.1457 B(  1-C ,  4-C ) :   1.1521 B(  2-C ,  3-N ) :   2.9638
B(  4-C ,  5-N ) :   2.9586 B(  6-C ,  7-C ) :   1.2791 B(  6-C , 11-C ) :   1.4130
B(  7-C ,  8-C ) :   1.4267 B(  7-C , 16-C ) :   0.9370 B(  8-C ,  9-C ) :   1.2439
B(  8-C , 70-H ) :   1.0160 B(  9-C , 10-C ) :   1.3104 B(  9-C , 14-C ) :   1.1606
B( 10-C , 11-C ) :   1.3289 B( 10-C , 12-S ) :   1.0831 B( 11-C , 71-H ) :   0.9788
B( 12-S , 13-C ) :   1.0856 B( 13-C , 14-C ) :   1.6195 B( 13-C , 15-Br) :   1.0143
B( 14-C , 72-H ) :   1.0002 B( 16-C , 17-O ) :   2.2041 B( 16-C , 18-C ) :   0.9566
B( 18-C , 19-C ) :   1.4792 B( 19-C , 20-C ) :   1.2041 B( 19-C , 73-H ) :   0.9612
B( 20-C , 21-C ) :   1.4910 B( 20-C , 74-H ) :   0.9772 B( 21-C , 22-C ) :   1.1744
B( 21-C , 75-H ) :   0.9727 B( 22-C , 23-O ) :   1.0929 B( 22-C , 24-C ) :   0.1054
B( 22-C , 26-C ) :   1.3660 B( 23-O , 24-C ) :   1.1384 B( 24-C , 25-C ) :   1.2987
B( 24-C , 29-C ) :   1.1581 B( 25-C , 26-C ) :   1.2560 B( 25-C , 28-O ) :   1.2315
B( 26-C , 27-O ) :   1.2830 B( 27-O , 76-H ) :   0.9438 B( 28-O , 77-H ) :   0.9570
B( 29-C , 30-C ) :   1.6929 B( 29-C , 78-H ) :   0.9491 B( 30-C , 31-C ) :   1.1188
B( 30-C , 79-H ) :   0.9803 B( 31-C , 32-C ) :   1.7206 B( 31-C , 80-H ) :   0.9721
B( 32-C , 33-C ) :   1.0522 B( 32-C , 81-H ) :   0.9580 B( 33-C , 34-C ) :   1.8564
B( 33-C , 35-N ) :   1.1320 B( 34-C , 82-H ) :   0.9402 B( 34-C , 83-H ) :   0.9272
B( 35-N , 36-N ) :   1.6084 B( 36-N , 37-C ) :   1.2720 B( 37-C , 38-C ) :   1.5677
B( 37-C , 84-H ) :   0.9756 B( 38-C , 39-C ) :   1.2059 B( 38-C , 85-H ) :   0.9574
B( 39-C , 40-O ) :   1.1232 B( 39-C , 41-C ) :   0.1034 B( 39-C , 43-C ) :   1.3560
B( 40-O , 41-C ) :   1.1127 B( 41-C , 42-C ) :   1.2641 B( 41-C , 46-C ) :   1.1830
B( 42-C , 43-C ) :   1.2616 B( 42-C , 45-O ) :   1.2453 B( 43-C , 44-O ) :   1.2816
B( 44-O , 86-H ) :   0.9521 B( 45-O , 87-H ) :   0.9550 B( 46-C , 47-C ) :   1.5682
B( 46-C , 88-H ) :   0.9636 B( 47-C , 48-C ) :   1.1658 B( 47-C , 89-H ) :   0.9941
B( 48-C , 49-C ) :   1.5673 B( 48-C , 90-H ) :   0.9893 B( 49-C , 50-C ) :   1.1666
B( 49-C , 91-H ) :   0.9680 B( 50-C , 51-C ) :   1.5639 B( 50-C , 92-H ) :   0.9542
B( 51-C , 52-C ) :   1.0605 B( 51-C , 60-C ) :   0.9522 B( 52-C , 53-C ) :   1.6249
B( 52-C , 58-C ) :   1.0099 B( 53-C , 54-C ) :   1.1331 B( 53-C , 56-C ) :   1.1621
B( 54-C , 55-N ) :   2.9819 B( 56-C , 57-N ) :   3.0154 B( 58-C , 59-C ) :   1.2743
B( 58-C , 65-C ) :   1.4178 B( 59-C , 60-C ) :   0.9222 B( 59-C , 62-C ) :   1.4288
B( 60-C , 61-O ) :   2.2563 B( 62-C , 63-C ) :   1.2472 B( 62-C , 93-H ) :   1.0169
B( 63-C , 64-C ) :   1.3119 B( 63-C , 68-C ) :   1.1623 B( 64-C , 65-C ) :   1.3226
B( 64-C , 66-S ) :   1.0844 B( 65-C , 94-H ) :   0.9825 B( 66-S , 67-C ) :   1.0859
B( 67-C , 68-C ) :   1.6210 B( 67-C , 69-Br) :   1.0169 B( 68-C , 95-H ) :   1.0000

-----------------------------------------------------------------------------
         ABSORPTION SPECTRUM VIA TRANSITION ELECTRIC DIPOLE MOMENTS
-----------------------------------------------------------------------------
State   Energy  Wavelength   fosc         T2         TX        TY        TZ
        (cm-1)    (nm)                  (au**2)     (au)      (au)      (au)
-----------------------------------------------------------------------------
   0   15038.6    665.0   1.311556697  28.71154  -1.80638   4.36120  -2.53545
   1   18029.8    554.6   1.526725718  27.87697   0.90866  -5.16160   0.63971
   2   19087.5    523.9   0.239939697   4.13837   1.89523   0.00082   0.73924
   3   20809.2    480.6   0.056893609   0.90009   0.87847   0.23169   0.27330
   4   23225.7    430.6   0.080647510   1.14314  -0.35233  -0.89626   0.46445
   5   24291.6    411.7   0.169305389   2.29451  -0.48347  -1.03172   0.99816
   6   25355.3    394.4   0.093046266   1.20811   0.31535  -0.84230   0.63182
   7   25749.6    388.4   0.048302547   0.61756  -0.75899  -0.20285   0.01835
   8   26341.2    379.6   0.238329415   2.97863   0.54299   0.71887  -1.47208
   9   27237.5    367.1   0.030727717   0.37140  -0.41555   0.29056  -0.33807
  10   27782.3    359.9   0.148545303   1.76022  -0.74920   0.87883  -0.65313
  11   28319.3    353.1   0.876062276  10.18423   3.03249  -0.29139   0.95044
  12   28682.8    348.6   0.000071278   0.00082  -0.02306   0.00983  -0.01377
  13   28857.1    346.5   0.069947755   0.79799   0.18120   0.87473  -0.00097
  14   29040.1    344.4   0.154642085   1.75310  -1.19582   0.50235  -0.26602
  15   29803.0    335.5   0.006530740   0.07214  -0.04705   0.07287  -0.25420
  16   30196.7    331.2   0.066235906   0.72212   0.79348   0.28410  -0.10858
  17   30335.3    329.6   0.067871466   0.73657   0.81433   0.18450   0.19848
  18   30580.9    327.0   0.174174544   1.87504  -1.28889   0.06809  -0.45736
  19   31866.1    313.8   0.012801476   0.13225  -0.31084   0.14498  -0.12087
  20   32514.0    307.6   0.000639313   0.00647   0.04389  -0.02236   0.06361
  21   32524.7    307.5   0.116165160   1.17581  -0.70874   0.32878  -0.75193
  22   32905.5    303.9   0.106939824   1.06991   0.21033  -0.33273   0.95654
  23   32975.2    303.3   0.230644642   2.30267  -0.79689   0.42919  -1.21797
  24   33380.6    299.6   0.006146192   0.06062  -0.19709  -0.14707  -0.01187
  25   33744.4    296.3   0.364628899   3.55734  -0.96580   0.46266  -1.55258
  26   33871.4    295.2   0.473911314   4.60617  -1.73265   0.73554  -1.03105
  27   34228.5    292.2   0.007326221   0.07046   0.05682   0.24833  -0.07462
  28   34728.7    287.9   0.049073135   0.46519   0.59215   0.23643   0.24217
  29   35071.4    285.1   0.054929604   0.51562  -0.51659   0.32433  -0.37890
  30   35174.6    284.3   0.058491884   0.54745   0.63436  -0.18853   0.33089
  31   35749.8    279.7   0.030504728   0.28091  -0.48525   0.19278  -0.09097
  32   36230.4    276.0   0.009707777   0.08821  -0.15883   0.17336   0.18147
  33   36828.9    271.5   0.002228142   0.01992  -0.00926  -0.05459   0.12981
  34   37281.3    268.2   0.013022912   0.11500  -0.17001  -0.08147  -0.28188
  35   37359.1    267.7   0.081348009   0.71685  -0.74324  -0.25478   0.31549
  36   37671.0    265.5   0.019017414   0.16620  -0.38425  -0.08914   0.10299
  37   37991.4    263.2   0.028395735   0.24606  -0.46266  -0.09484   0.15169
  38   38384.5    260.5   0.027288704   0.23405  -0.41559   0.19750  -0.14941
  39   38677.6    258.5   0.104502454   0.88949  -0.48141   0.21109  -0.78306
  40   38831.6    257.5   0.099932412   0.84722  -0.67291  -0.57260  -0.25797
  41   39334.5    254.2   0.183111156   1.53256   0.73623   0.85830   0.50382
  42   39724.6    251.7   0.035882913   0.29737   0.18009   0.50971   0.07169
  43   39925.3    250.5   0.012365697   0.10196   0.03705   0.31619   0.02486
  44   40075.7    249.5   0.064531419   0.53011   0.67064   0.26989   0.08665

FINAL SINGLE POINT ENERGY     -8867.655370755128

DIPOLE MOMENT
-------------
                                X             Y             Z
Electronic contribution:    -36.14282     -73.38698     -37.86872
Nuclear contribution   :     40.04604      76.75208      37.49400
                        -----------------------------------------
Total Dipole Moment    :      3.90322       3.36510      -0.37471
                        -----------------------------------------
Magnitude (a.u.)       :      5.16715
Magnitude (Debye)      :     13.13385

Rotational constants in cm-1:     0.001438     0.000096     0.000091
Rotational constants in MHz :    43.099612     2.865964     2.737378

                             ****ORCA TERMINATED NORMALLY****
TOTAL RUN TIME: 0 days 0 hours 12 minutes 20 seconds 574 msec
