                         Program Version 4.2.0 -  RELEASE  -
|  1> # ORCA input file
|  2> # SCF done       -130.241815386169          0.000302100813
|  3> ! CAM-B3LYP def2-SVP def2/J RIJCOSX Grid4 TightSCF
|  4> %maxcore 5000
|  5> %tddft
|  6>     Mode sTDDFT
|  7>     Ethresh 5.0
|  8>     maxcore 5000
|  9> end
| 10>
| 11> %pal
| 12>   nprocs 6
| 13>   end
| 14> * xyz 0 1
| 15>    C        7.08602        -0.53788        -1.11252
| 16>    C        6.38214        -1.46543        -1.77366
| 17>    C        5.28981        -1.25880        -2.68266
| 18>    C        4.76580        -2.39175        -3.19671
| 19>    C        5.39211        -3.58766        -2.74279
| 20>    S        6.69476        -3.20272        -1.62995
| 21>    C        5.07632        -4.87580        -3.08624
| 22>    C        4.06863        -5.32359        -3.98187
| 23>    C        4.01614        -6.66876        -4.13616
| 24>    C        4.98507        -7.38345        -3.37842
| 25>    S        5.95475        -6.24995        -2.43185
| 26>    C        5.16659        -8.72931        -3.37686
| 27>    N        6.10030        -9.35886        -2.61175
| 28>    C        6.40892       -10.68074        -2.55819
| 29>    S        7.87629       -11.10729        -1.71790
| 30>    C        7.64956       -12.76863        -2.16801
| 31>    N        8.58504       -13.69733        -1.73057
| 32>    O        8.42429       -14.86546        -2.04996
| 33>    O        9.51024       -13.27256        -1.05109
| 34>    C        6.51624       -12.96303        -2.91928
| 35>    C        5.78007       -11.79081        -3.13166
| 36>    C        4.51206       -11.79918        -3.85770
| 37>    C        3.37899       -11.27202        -3.38014
| 38>    C        2.14797       -11.09739        -4.11967
| 39>    C        1.64364       -11.83822        -5.11107
| 40>    C        2.15101       -13.18353        -5.52234
| 41>    C        0.47269       -11.33455        -5.93374
| 42>    N        0.29593        -9.90261        -5.91718
| 43>    C        1.30437        -9.04164        -6.24631
| 44>    C        2.46482        -9.38211        -6.83907
| 45>    C        3.54769        -8.48466        -7.11597
| 46>    S        5.14198        -9.08431        -6.76528
| 47>    C        5.89454        -7.54693        -7.03723
| 48>    C        4.95461        -6.62422        -7.47170
| 49>    C        3.61408        -7.15767        -7.52862
| 50>    C        2.59426        -6.34092        -8.08957
| 51>    S        0.97880        -7.00140        -8.40240
| 52>    C        2.88385        -5.06236        -8.48104
| 53>    C        4.19407        -4.55072        -8.40245
| 54>    C        5.21870        -5.31520        -7.93844
| 55>    C        7.31797        -7.44370        -6.83873
| 56>    C        8.00473        -6.46373        -6.23959
| 57>    C        7.40146        -5.26108        -5.58557
| 58>    C        9.51541        -6.51111        -6.20714
| 59>    N       10.11415        -5.47776        -7.02908
| 60>    C        9.93433        -5.51615        -8.39406
| 61>    C        9.95166        -4.45875        -9.19727
| 62>    H        6.86111         0.50751        -1.22925
| 63>    H        7.88930        -0.80200        -0.44952
| 64>    H        4.94707        -0.26424        -2.90702
| 65>    H        3.94513        -2.42143        -3.89150
| 66>    H        3.42019        -4.63232        -4.48938
| 67>    H        3.32019        -7.18725        -4.77062
| 68>    H        4.55866        -9.34852        -4.01362
| 69>    H        6.69713        -8.74706        -2.06500
| 70>    H        6.22415       -13.93403        -3.27682
| 71>    H        4.54130       -12.26881        -4.82922
| 72>    H        3.39510       -10.81058        -2.39917
| 73>    H        1.61845       -10.19229        -3.84277
| 74>    H        2.80553       -13.10449        -6.39108
| 75>    H        1.31414       -13.82278        -5.80113
| 76>    H        2.70183       -13.65572        -4.71372
| 77>    H       -0.45838       -11.79536        -5.59040
| 78>    H        0.62952       -11.65167        -6.97194
| 79>    H       -0.39717        -9.54448        -5.28179
| 80>    H        1.09592        -8.01007        -6.00110
| 81>    H        2.69543       -10.42458        -6.99873
| 82>    H        0.58650        -5.97795        -9.16431
| 83>    H        2.10925        -4.44092        -8.90790
| 84>    H        4.37645        -3.54919        -8.76198
| 85>    H        6.23548        -4.96111        -7.96053
| 86>    H        7.86985        -8.31606        -7.17349
| 87>    H        7.80949        -5.15274        -4.57967
| 88>    H        6.32118        -5.34673        -5.52263
| 89>    H        7.64103        -4.34978        -6.13458
| 90>    H        9.87054        -7.47869        -6.57278
| 91>    H        9.87765        -6.37255        -5.18381
| 92>    H       10.05549        -4.54764        -6.63637
| 93>    H        9.82849        -6.51695        -8.79114
| 94>    H       10.05556        -3.45730        -8.81395
| 95>    H        9.89182        -4.56624       -10.26340
| 96> *
| 97>
| 98>                          ****END OF INPUT****

CARTESIAN COORDINATES (ANGSTROEM)
---------------------------------
  C      7.086020   -0.537880   -1.112520
  C      6.382140   -1.465430   -1.773660
  C      5.289810   -1.258800   -2.682660
  C      4.765800   -2.391750   -3.196710
  C      5.392110   -3.587660   -2.742790
  S      6.694760   -3.202720   -1.629950
  C      5.076320   -4.875800   -3.086240
  C      4.068630   -5.323590   -3.981870
  C      4.016140   -6.668760   -4.136160
  C      4.985070   -7.383450   -3.378420
  S      5.954750   -6.249950   -2.431850
  C      5.166590   -8.729310   -3.376860
  N      6.100300   -9.358860   -2.611750
  C      6.408920  -10.680740   -2.558190
  S      7.876290  -11.107290   -1.717900
  C      7.649560  -12.768630   -2.168010
  N      8.585040  -13.697330   -1.730570
  O      8.424290  -14.865460   -2.049960
  O      9.510240  -13.272560   -1.051090
  C      6.516240  -12.963030   -2.919280
  C      5.780070  -11.790810   -3.131660
  C      4.512060  -11.799180   -3.857700
  C      3.378990  -11.272020   -3.380140
  C      2.147970  -11.097390   -4.119670
  C      1.643640  -11.838220   -5.111070
  C      2.151010  -13.183530   -5.522340
  C      0.472690  -11.334550   -5.933740
  N      0.295930   -9.902610   -5.917180
  C      1.304370   -9.041640   -6.246310
  C      2.464820   -9.382110   -6.839070
  C      3.547690   -8.484660   -7.115970
  S      5.141980   -9.084310   -6.765280
  C      5.894540   -7.546930   -7.037230
  C      4.954610   -6.624220   -7.471700
  C      3.614080   -7.157670   -7.528620
  C      2.594260   -6.340920   -8.089570
  S      0.978800   -7.001400   -8.402400
  C      2.883850   -5.062360   -8.481040
  C      4.194070   -4.550720   -8.402450
  C      5.218700   -5.315200   -7.938440
  C      7.317970   -7.443700   -6.838730
  C      8.004730   -6.463730   -6.239590
  C      7.401460   -5.261080   -5.585570
  C      9.515410   -6.511110   -6.207140
  N     10.114150   -5.477760   -7.029080
  C      9.934330   -5.516150   -8.394060
  C      9.951660   -4.458750   -9.197270
  H      6.861110    0.507510   -1.229250
  H      7.889300   -0.802000   -0.449520
  H      4.947070   -0.264240   -2.907020
  H      3.945130   -2.421430   -3.891500
  H      3.420190   -4.632320   -4.489380
  H      3.320190   -7.187250   -4.770620
  H      4.558660   -9.348520   -4.013620
  H      6.697130   -8.747060   -2.065000
  H      6.224150  -13.934030   -3.276820
  H      4.541300  -12.268810   -4.829220
  H      3.395100  -10.810580   -2.399170
  H      1.618450  -10.192290   -3.842770
  H      2.805530  -13.104490   -6.391080
  H      1.314140  -13.822780   -5.801130
  H      2.701830  -13.655720   -4.713720
  H     -0.458380  -11.795360   -5.590400
  H      0.629520  -11.651670   -6.971940
  H     -0.397170   -9.544480   -5.281790
  H      1.095920   -8.010070   -6.001100
  H      2.695430  -10.424580   -6.998730
  H      0.586500   -5.977950   -9.164310
  H      2.109250   -4.440920   -8.907900
  H      4.376450   -3.549190   -8.761980
  H      6.235480   -4.961110   -7.960530
  H      7.869850   -8.316060   -7.173490
  H      7.809490   -5.152740   -4.579670
  H      6.321180   -5.346730   -5.522630
  H      7.641030   -4.349780   -6.134580
  H      9.870540   -7.478690   -6.572780
  H      9.877650   -6.372550   -5.183810
  H     10.055490   -4.547640   -6.636370
  H      9.828490   -6.516950   -8.791140
  H     10.055560   -3.457300   -8.813950
  H      9.891820   -4.566240  -10.263400

 Total Charge           Charge          ....    0
 Multiplicity           Mult            ....    1
 Number of Electrons    NEL             ....  374
 Basis Dimension        Dim             ....  848

ORBITAL ENERGIES
----------------

  NO   OCC          E(Eh)            E(eV)
   0   2.0000     -88.972866     -2421.0748
   1   2.0000     -88.951374     -2420.4899
   2   2.0000     -88.943159     -2420.2664
   3   2.0000     -88.932120     -2419.9660
   4   2.0000     -88.924182     -2419.7500
   5   2.0000     -19.222331      -523.0662
   6   2.0000     -19.221542      -523.0448
   7   2.0000     -14.634125      -398.2148
   8   2.0000     -14.479133      -393.9972
   9   2.0000     -14.433512      -392.7558
  10   2.0000     -14.400205      -391.8495
  11   2.0000     -10.363225      -281.9977
  12   2.0000     -10.328715      -281.0586
  13   2.0000     -10.320024      -280.8221
  14   2.0000     -10.315048      -280.6867
  15   2.0000     -10.309614      -280.5389
  16   2.0000     -10.306725      -280.4602
  17   2.0000     -10.300171      -280.2819
  18   2.0000     -10.300164      -280.2817
  19   2.0000     -10.300023      -280.2779
  20   2.0000     -10.299969      -280.2764
  21   2.0000     -10.299246      -280.2567
  22   2.0000     -10.298055      -280.2243
  23   2.0000     -10.290951      -280.0310
  24   2.0000     -10.289291      -279.9858
  25   2.0000     -10.286167      -279.9008
  26   2.0000     -10.283697      -279.8336
  27   2.0000     -10.283473      -279.8275
  28   2.0000     -10.282647      -279.8051
  29   2.0000     -10.281554      -279.7753
  30   2.0000     -10.281326      -279.7691
  31   2.0000     -10.281034      -279.7612
  32   2.0000     -10.278347      -279.6880
  33   2.0000     -10.276747      -279.6445
  34   2.0000     -10.273842      -279.5655
  35   2.0000     -10.272378      -279.5256
  36   2.0000     -10.269518      -279.4478
  37   2.0000     -10.268948      -279.4323
  38   2.0000     -10.266218      -279.3580
  39   2.0000     -10.263492      -279.2838
  40   2.0000     -10.263383      -279.2809
  41   2.0000     -10.262332      -279.2523
  42   2.0000     -10.261719      -279.2356
  43   2.0000     -10.259276      -279.1691
  44   2.0000     -10.257890      -279.1314
  45   2.0000     -10.249121      -278.8928
  46   2.0000     -10.223780      -278.2032
  47   2.0000      -8.068796      -219.5631
  48   2.0000      -8.046359      -218.9526
  49   2.0000      -8.039114      -218.7554
  50   2.0000      -8.028698      -218.4720
  51   2.0000      -8.019128      -218.2116
  52   2.0000      -6.038547      -164.3172
  53   2.0000      -6.034188      -164.1986
  54   2.0000      -6.029986      -164.0843
  55   2.0000      -6.015355      -163.6861
  56   2.0000      -6.011303      -163.5759
  57   2.0000      -6.009160      -163.5176
  58   2.0000      -6.008963      -163.5122
  59   2.0000      -6.005118      -163.4076
  60   2.0000      -5.999758      -163.2617
  61   2.0000      -5.998520      -163.2280
  62   2.0000      -5.994690      -163.1238
  63   2.0000      -5.989540      -162.9837
  64   2.0000      -5.989200      -162.9744
  65   2.0000      -5.985148      -162.8641
  66   2.0000      -5.979298      -162.7050
  67   2.0000      -1.300986       -35.4016
  68   2.0000      -1.119640       -30.4670
  69   2.0000      -1.082994       -29.4698
  70   2.0000      -1.033929       -28.1346
  71   2.0000      -1.004481       -27.3333
  72   2.0000      -0.995687       -27.0940
  73   2.0000      -0.985362       -26.8131
  74   2.0000      -0.983555       -26.7639
  75   2.0000      -0.961127       -26.1536
  76   2.0000      -0.927947       -25.2507
  77   2.0000      -0.922747       -25.1092
  78   2.0000      -0.900257       -24.4973
  79   2.0000      -0.896876       -24.4052
  80   2.0000      -0.886445       -24.1214
  81   2.0000      -0.876796       -23.8588
  82   2.0000      -0.867190       -23.5975
  83   2.0000      -0.853962       -23.2375
  84   2.0000      -0.844455       -22.9788
  85   2.0000      -0.839424       -22.8419
  86   2.0000      -0.834504       -22.7080
  87   2.0000      -0.823777       -22.4161
  88   2.0000      -0.817383       -22.2421
  89   2.0000      -0.814249       -22.1568
  90   2.0000      -0.803406       -21.8618
  91   2.0000      -0.789537       -21.4844
  92   2.0000      -0.783620       -21.3234
  93   2.0000      -0.780121       -21.2282
  94   2.0000      -0.776416       -21.1274
  95   2.0000      -0.753876       -20.5140
  96   2.0000      -0.750535       -20.4231
  97   2.0000      -0.729769       -19.8580
  98   2.0000      -0.724466       -19.7137
  99   2.0000      -0.704028       -19.1576
 100   2.0000      -0.688068       -18.7233
 101   2.0000      -0.684957       -18.6386
 102   2.0000      -0.680638       -18.5211
 103   2.0000      -0.666940       -18.1484
 104   2.0000      -0.664365       -18.0783
 105   2.0000      -0.652789       -17.7633
 106   2.0000      -0.651577       -17.7303
 107   2.0000      -0.635536       -17.2938
 108   2.0000      -0.628120       -17.0920
 109   2.0000      -0.620660       -16.8890
 110   2.0000      -0.616927       -16.7874
 111   2.0000      -0.615179       -16.7399
 112   2.0000      -0.613911       -16.7054
 113   2.0000      -0.609973       -16.5982
 114   2.0000      -0.601938       -16.3796
 115   2.0000      -0.594292       -16.1715
 116   2.0000      -0.592462       -16.1217
 117   2.0000      -0.577834       -15.7237
 118   2.0000      -0.575487       -15.6598
 119   2.0000      -0.572749       -15.5853
 120   2.0000      -0.570816       -15.5327
 121   2.0000      -0.559689       -15.2299
 122   2.0000      -0.557481       -15.1698
 123   2.0000      -0.549858       -14.9624
 124   2.0000      -0.547771       -14.9056
 125   2.0000      -0.543681       -14.7943
 126   2.0000      -0.539012       -14.6673
 127   2.0000      -0.537428       -14.6242
 128   2.0000      -0.532757       -14.4971
 129   2.0000      -0.524673       -14.2771
 130   2.0000      -0.521695       -14.1960
 131   2.0000      -0.519344       -14.1321
 132   2.0000      -0.511218       -13.9109
 133   2.0000      -0.507755       -13.8167
 134   2.0000      -0.504415       -13.7258
 135   2.0000      -0.502142       -13.6640
 136   2.0000      -0.499825       -13.6009
 137   2.0000      -0.495602       -13.4860
 138   2.0000      -0.494389       -13.4530
 139   2.0000      -0.487646       -13.2695
 140   2.0000      -0.485111       -13.2005
 141   2.0000      -0.481998       -13.1158
 142   2.0000      -0.481015       -13.0891
 143   2.0000      -0.477175       -12.9846
 144   2.0000      -0.475439       -12.9374
 145   2.0000      -0.468707       -12.7542
 146   2.0000      -0.464275       -12.6336
 147   2.0000      -0.462428       -12.5833
 148   2.0000      -0.459325       -12.4989
 149   2.0000      -0.456375       -12.4186
 150   2.0000      -0.453040       -12.3278
 151   2.0000      -0.448941       -12.2163
 152   2.0000      -0.445445       -12.1212
 153   2.0000      -0.440285       -11.9808
 154   2.0000      -0.436607       -11.8807
 155   2.0000      -0.436155       -11.8684
 156   2.0000      -0.432062       -11.7570
 157   2.0000      -0.427765       -11.6401
 158   2.0000      -0.426551       -11.6070
 159   2.0000      -0.425793       -11.5864
 160   2.0000      -0.422874       -11.5070
 161   2.0000      -0.420189       -11.4339
 162   2.0000      -0.418039       -11.3754
 163   2.0000      -0.407107       -11.0780
 164   2.0000      -0.400159       -10.8889
 165   2.0000      -0.395492       -10.7619
 166   2.0000      -0.386145       -10.5076
 167   2.0000      -0.383867       -10.4456
 168   2.0000      -0.378555       -10.3010
 169   2.0000      -0.375540       -10.2190
 170   2.0000      -0.373144       -10.1538
 171   2.0000      -0.371402       -10.1064
 172   2.0000      -0.363408        -9.8888
 173   2.0000      -0.350906        -9.5486
 174   2.0000      -0.339534        -9.2392
 175   2.0000      -0.336789        -9.1645
 176   2.0000      -0.333657        -9.0793
 177   2.0000      -0.329930        -8.9779
 178   2.0000      -0.315988        -8.5985
 179   2.0000      -0.305865        -8.3230
 180   2.0000      -0.301456        -8.2030
 181   2.0000      -0.293679        -7.9914
 182   2.0000      -0.278298        -7.5729
 183   2.0000      -0.271291        -7.3822
 184   2.0000      -0.255174        -6.9436
 185   2.0000      -0.219033        -5.9602
 186   2.0000      -0.211382        -5.7520
 187   0.0000      -0.058314        -1.5868
 188   0.0000      -0.034942        -0.9508
 189   0.0000      -0.028327        -0.7708
 190   0.0000      -0.008296        -0.2258
 191   0.0000       0.028155         0.7661

MULLIKEN ATOMIC CHARGES
-----------------------
   0 C :   -0.040905
   1 C :   -0.057184
   2 C :    0.044986
   3 C :    0.031317
   4 C :   -0.070336
   5 S :    0.061341
   6 C :   -0.065916
   7 C :    0.035855
   8 C :    0.055457
   9 C :   -0.042567
  10 S :    0.028562
  11 C :    0.012878
  12 N :   -0.006209
  13 C :   -0.115868
  14 S :    0.153548
  15 C :   -0.015066
  16 N :    0.281506
  17 O :   -0.264357
  18 O :   -0.278388
  19 C :    0.010034
  20 C :    0.062163
  21 C :   -0.046891
  22 C :    0.009311
  23 C :    0.038612
  24 C :   -0.264703
  25 C :    0.094202
  26 C :    0.197385
  27 N :   -0.164979
  28 C :    0.061678
  29 C :   -0.016609
  30 C :   -0.204196
  31 S :    0.119724
  32 C :   -0.162999
  33 C :    0.126019
  34 C :    0.085647
  35 C :   -0.084639
  36 S :    0.017431
  37 C :   -0.030044
  38 C :    0.026654
  39 C :   -0.028997
  40 C :   -0.008556
  41 C :   -0.180857
  42 C :    0.098249
  43 C :    0.181314
  44 N :   -0.190006
  45 C :    0.059190
  46 C :   -0.089743
  47 H :    0.017107
  48 H :    0.018782
  49 H :   -0.015977
  50 H :   -0.011763
  51 H :   -0.014508
  52 H :   -0.020395
  53 H :    0.047025
  54 H :    0.137095
  55 H :    0.003250
  56 H :    0.005472
  57 H :    0.006545
  58 H :   -0.022343
  59 H :    0.029917
  60 H :    0.017300
  61 H :    0.028411
  62 H :    0.029969
  63 H :    0.021017
  64 H :    0.124420
  65 H :    0.021128
  66 H :   -0.018996
  67 H :    0.049345
  68 H :   -0.036941
  69 H :   -0.021330
  70 H :   -0.024302
  71 H :   -0.019399
  72 H :    0.013846
  73 H :    0.044060
  74 H :    0.013186
  75 H :    0.002750
  76 H :    0.008965
  77 H :    0.105263
  78 H :   -0.002781
  79 H :   -0.009455
  80 H :    0.010288
Sum of atomic charges:   -0.0000000

LOEWDIN ATOMIC CHARGES
----------------------
   0 C :   -0.087849
   1 C :   -0.138084
   2 C :   -0.039389
   3 C :   -0.024886
   4 C :   -0.191129
   5 S :    0.336102
   6 C :   -0.170516
   7 C :   -0.046112
   8 C :   -0.019415
   9 C :   -0.189631
  10 S :    0.331968
  11 C :   -0.000880
  12 N :    0.040632
  13 C :   -0.096166
  14 S :    0.440024
  15 C :   -0.220690
  16 N :    0.274778
  17 O :   -0.230396
  18 O :   -0.243553
  19 C :    0.005799
  20 C :   -0.112727
  21 C :   -0.031356
  22 C :   -0.021242
  23 C :   -0.057824
  24 C :   -0.034981
  25 C :   -0.050240
  26 C :    0.037225
  27 N :   -0.012991
  28 C :    0.025720
  29 C :   -0.150675
  30 C :   -0.170963
  31 S :    0.466847
  32 C :   -0.189040
  33 C :   -0.043738
  34 C :   -0.085667
  35 C :   -0.140364
  36 S :    0.241028
  37 C :   -0.076528
  38 C :   -0.031580
  39 C :   -0.022996
  40 C :   -0.077024
  41 C :   -0.032797
  42 C :   -0.056156
  43 C :    0.039056
  44 N :   -0.042968
  45 C :    0.024889
  46 C :   -0.155737
  47 H :    0.027136
  48 H :    0.024709
  49 H :    0.031589
  50 H :    0.032235
  51 H :    0.032393
  52 H :    0.034141
  53 H :    0.031352
  54 H :    0.083008
  55 H :    0.044181
  56 H :    0.028252
  57 H :    0.029680
  58 H :    0.021661
  59 H :    0.034349
  60 H :    0.032231
  61 H :    0.034449
  62 H :    0.037446
  63 H :    0.029631
  64 H :    0.076916
  65 H :    0.016581
  66 H :    0.021487
  67 H :   -0.033105
  68 H :    0.019966
  69 H :    0.027582
  70 H :    0.031702
  71 H :    0.022985
  72 H :    0.025908
  73 H :    0.034561
  74 H :    0.028154
  75 H :    0.023125
  76 H :    0.025355
  77 H :    0.066454
  78 H :    0.022692
  79 H :    0.012263
  80 H :    0.021150

  Mayer bond orders larger than 0.100000
B(  0-C ,  1-C ) :   1.8637 B(  0-C , 47-H ) :   0.9509 B(  0-C , 48-H ) :   0.9423
B(  1-C ,  2-C ) :   1.0796 B(  1-C ,  5-S ) :   1.0060 B(  2-C ,  3-C ) :   1.6615
B(  2-C , 49-H ) :   0.9930 B(  3-C ,  4-C ) :   1.1506 B(  3-C , 50-H ) :   0.9930
B(  4-C ,  5-S ) :   1.0272 B(  4-C ,  6-C ) :   1.5795 B(  6-C ,  7-C ) :   1.1541
B(  6-C , 10-S ) :   1.0365 B(  7-C ,  8-C ) :   1.6291 B(  7-C , 51-H ) :   0.9943
B(  8-C ,  9-C ) :   1.1365 B(  8-C , 52-H ) :   0.9924 B(  9-C , 10-S ) :   0.9896
B(  9-C , 11-C ) :   1.6353 B( 11-C , 12-N ) :   1.1507 B( 11-C , 53-H ) :   0.9396
B( 12-N , 13-C ) :   1.2043 B( 12-N , 54-H ) :   0.9000 B( 13-C , 14-S ) :   1.1323
B( 13-C , 20-C ) :   1.4010 B( 14-S , 15-C ) :   1.0717 B( 15-C , 16-N ) :   0.9927
B( 15-C , 19-C ) :   1.4576 B( 16-N , 17-O ) :   1.5211 B( 16-N , 18-O ) :   1.4972
B( 17-O , 18-O ) :   0.2495 B( 19-C , 20-C ) :   1.2687 B( 19-C , 55-H ) :   1.0086
B( 20-C , 21-C ) :   1.0049 B( 21-C , 22-C ) :   1.8122 B( 21-C , 56-H ) :   0.9584
B( 22-C , 23-C ) :   1.0911 B( 22-C , 57-H ) :   0.9571 B( 23-C , 24-C ) :   1.8714
B( 23-C , 58-H ) :   0.9300 B( 24-C , 25-C ) :   1.0947 B( 24-C , 26-C ) :   0.9781
B( 25-C , 59-H ) :   0.9373 B( 25-C , 60-H ) :   0.9484 B( 25-C , 61-H ) :   0.9477
B( 26-C , 27-N ) :   1.0608 B( 26-C , 62-H ) :   0.9332 B( 26-C , 63-H ) :   0.9356
B( 27-N , 28-C ) :   1.2026 B( 27-N , 64-H ) :   0.9420 B( 28-C , 29-C ) :   1.6925
B( 28-C , 65-H ) :   0.9506 B( 29-C , 30-C ) :   1.0954 B( 29-C , 66-H ) :   0.9295
B( 30-C , 31-S ) :   1.1699 B( 30-C , 32-C ) :   0.1146 B( 30-C , 34-C ) :   1.4033
B( 31-S , 32-C ) :   1.1371 B( 32-C , 33-C ) :   1.4312 B( 32-C , 40-C ) :   1.0282
B( 33-C , 34-C ) :   1.1820 B( 33-C , 39-C ) :   1.1929 B( 34-C , 35-C ) :   1.2127
B( 35-C , 36-S ) :   1.0401 B( 35-C , 37-C ) :   1.5595 B( 36-S , 67-H ) :   0.9461
B( 37-C , 38-C ) :   1.2055 B( 37-C , 68-H ) :   0.9773 B( 38-C , 39-C ) :   1.5514
B( 38-C , 69-H ) :   0.9833 B( 39-C , 70-H ) :   0.9909 B( 40-C , 41-C ) :   1.8481
B( 40-C , 71-H ) :   0.9432 B( 41-C , 42-C ) :   1.0823 B( 41-C , 43-C ) :   1.0185
B( 42-C , 72-H ) :   0.9333 B( 42-C , 73-H ) :   0.9452 B( 42-C , 74-H ) :   0.9352
B( 43-C , 44-N ) :   1.0458 B( 43-C , 75-H ) :   0.9403 B( 43-C , 76-H ) :   0.9432
B( 44-N , 45-C ) :   1.1496 B( 44-N , 77-H ) :   0.9473 B( 45-C , 46-C ) :   1.9067
B( 45-C , 78-H ) :   0.9617 B( 46-C , 79-H ) :   0.9571 B( 46-C , 80-H ) :   0.9542

-----------------------------------------------------------------------------
         ABSORPTION SPECTRUM VIA TRANSITION ELECTRIC DIPOLE MOMENTS
-----------------------------------------------------------------------------
State   Energy  Wavelength   fosc         T2         TX        TY        TZ
        (cm-1)    (nm)                  (au**2)     (au)      (au)      (au)
-----------------------------------------------------------------------------
   0   19037.4    525.3   1.198154013  20.71959  -0.37613   4.51909   0.39492
   1   19261.6    519.2   0.030834955   0.52702  -0.28352  -0.65797  -0.11708
   2   23155.6    431.9   0.046175432   0.65649   0.43011  -0.50248   0.46799
   3   24279.3    411.9   0.395727147   5.36580  -2.00412  -1.12414   0.29256
   4   25173.5    397.2   0.320093250   4.18608   1.34155   1.40120   0.65035
   5   26421.2    378.5   0.000623125   0.00776  -0.06272  -0.05864   0.01978
   6   28279.4    353.6   0.055999488   0.65191  -0.55607   0.57633  -0.10267
   7   28633.9    349.2   0.001664432   0.01914  -0.05333   0.02990  -0.12409
   8   29918.1    334.2   0.002640143   0.02905   0.07334  -0.07011   0.13696
   9   30377.8    329.2   0.032335658   0.35043  -0.46795   0.16307  -0.32382
  10   30646.2    326.3   0.059203541   0.63598  -0.55502   0.21612  -0.53031
  11   32698.2    305.8   0.057293910   0.57685   0.67597  -0.03159   0.34483
  12   32799.8    304.9   0.008359458   0.08390  -0.14769   0.06467  -0.24064
  13   33654.2    297.1   0.016026103   0.15677  -0.06520  -0.31903  -0.22525
  14   34385.1    290.8   0.006526070   0.06248   0.09533   0.22320   0.05982
  15   35173.9    284.3   0.052059427   0.48725   0.55306  -0.41161   0.10936
  16   35709.2    280.0   0.191814316   1.76839  -1.01310   0.63749  -0.57933
  17   36321.0    275.3   0.057189685   0.51836   0.69089   0.20152   0.02057
  18   36783.4    271.9   0.002428059   0.02173   0.10912  -0.06772   0.07238
  19   36867.3    271.2   0.016431566   0.14673  -0.31513   0.20141  -0.08279
  20   36963.4    270.5   0.004842182   0.04313   0.19701   0.00864   0.06511
  21   37128.2    269.3   0.116549467   1.03343   0.82129  -0.43846   0.40825
  22   37671.0    265.5   0.006807038   0.05949  -0.24079   0.02460  -0.03001
  23   37965.3    263.4   0.073092142   0.63381   0.70856  -0.29398   0.21290
  24   38067.1    262.7   0.016065252   0.13894  -0.24351  -0.26230   0.10411
  25   38659.6    258.7   0.073768351   0.62819  -0.48883  -0.45624   0.42552
  26   38870.5    257.3   0.007814495   0.06618   0.04815  -0.23050   0.10360
  27   39099.4    255.8   0.000696211   0.00586   0.04760   0.04121  -0.04356
  28   39834.4    251.0   0.026264068   0.21706  -0.26285  -0.26068   0.28287
  29   40182.7    248.9   0.003321426   0.02721  -0.14174  -0.07180   0.04435

FINAL SINGLE POINT ENERGY     -3749.605475530262

DIPOLE MOMENT
-------------
                                X             Y             Z
Electronic contribution:      8.33120     -16.69164      26.86207
Nuclear contribution   :    -11.67526      18.06322     -27.49615
                        -----------------------------------------
Total Dipole Moment    :     -3.34406       1.37159      -0.63409
                        -----------------------------------------
Magnitude (a.u.)       :      3.66962
Magnitude (Debye)      :      9.32742

Rotational constants in cm-1:     0.001848     0.001412     0.001106
Rotational constants in MHz :    55.398479    42.324872    33.151490

                             ****ORCA TERMINATED NORMALLY****
TOTAL RUN TIME: 0 days 0 hours 6 minutes 13 seconds 961 msec
