                         Program Version 4.2.0 -  RELEASE  -
|  1> # ORCA input file
|  2> # SCF done       -179.022612729741          0.000440395466
|  3> ! CAM-B3LYP def2-SVP def2/J RIJCOSX Grid4 TightSCF
|  4> %maxcore 5000
|  5> %tddft
|  6>     Mode sTDDFT
|  7>     Ethresh 5.0
|  8>     maxcore 5000
|  9> end
| 10>
| 11> %pal
| 12>   nprocs 6
| 13>   end
| 14> * xyz 0 1
| 15>    C        6.44308       -10.86680         5.02623
| 16>    C        6.93273        -9.82091         4.34847
| 17>    C        8.31264        -9.46845         4.15821
| 18>    C        8.50731        -8.35359         3.42417
| 19>    C        7.30611        -7.72873         2.97397
| 20>    S        5.90968        -8.63078         3.52633
| 21>    C        7.19554        -6.58850         2.22166
| 22>    C        8.24651        -5.77533         1.71253
| 23>    C        7.82291        -4.70097         1.00979
| 24>    C        6.40113        -4.57669         0.91820
| 25>    S        5.64020        -5.92298         1.75788
| 26>    C        5.74780        -3.61435         0.22220
| 27>    C        4.32578        -3.45428         0.09069
| 28>    C        3.38653        -3.50747         1.09399
| 29>    C        3.54907        -3.53966         2.57073
| 30>    F        4.78751        -3.24387         2.98025
| 31>    F        2.74017        -2.63450         3.16521
| 32>    F        3.22264        -4.71882         3.13370
| 33>    S        1.76427        -3.28036         0.51795
| 34>    C        2.34586        -3.08170        -1.09786
| 35>    O        1.51197        -2.86030        -2.13216
| 36>    C        0.12845        -2.83855        -1.84132
| 37>    C        3.71755        -3.18177        -1.18639
| 38>    C        4.45908        -3.05863        -2.41061
| 39>    N        3.82678        -2.70598        -3.60910
| 40>    C        4.81215        -2.67281        -4.52471
| 41>    N        5.13059        -2.44469        -5.80946
| 42>    C        6.51741        -2.66170        -5.88505
| 43>    N        7.04109        -3.00002        -4.71878
| 44>    C        6.01295        -3.01236        -3.85540
| 45>    N        5.75227        -3.24167        -2.54585
| 46>    C        7.21476        -2.51362        -7.10659
| 47>    C        8.53513        -2.78895        -7.25265
| 48>    C        9.21856        -2.62851        -8.48144
| 49>    O        8.58430        -2.11151        -9.56724
| 50>    C       10.52527        -2.92080        -8.84474
| 51>    C       11.80150        -3.45852        -8.36349
| 52>    O       12.13495        -3.88067        -7.28908
| 53>    N       12.63043        -3.38181        -9.48604
| 54>    C       12.04061        -2.85976       -10.63255
| 55>    O       12.58635        -2.71245       -11.69342
| 56>    C       10.66612        -2.56341       -10.20368
| 57>    C        9.44643        -2.05996       -10.62310
| 58>    C        9.03788        -1.53793       -11.87091
| 59>    C        7.79607        -1.02523       -12.09508
| 60>    C        7.42270        -0.48542       -13.34321
| 61>    C        6.20815         0.08535       -13.61503
| 62>    C        5.78934         0.67400       -14.87310
| 63>    C        6.48436         0.68225       -16.05580
| 64>    C        6.01005         1.26874       -17.24795
| 65>    N        5.68246         1.72794       -18.24795
| 66>    C        7.75179         0.10188       -16.27340
| 67>    N        8.77300        -0.34878       -16.54340
| 68>    C        4.46416         1.25196       -14.67376
| 69>    C        4.04943         0.99531       -13.34423
| 70>    C        5.10512         0.24419       -12.63682
| 71>    O        5.05395        -0.15045       -11.48895
| 72>    C        2.83853         1.41678       -12.85102
| 73>    C        1.99485         2.12905       -13.70945
| 74>    C        2.41802         2.38272       -15.03578
| 75>    C        3.64195         1.95493       -15.53503
| 76>    S        1.22641         3.28047       -15.92649
| 77>    C        0.19010         3.30222       -14.52452
| 78>    C        0.70753         2.67078       -13.44392
| 79>   Br       -1.47713         4.15652       -14.61788
| 80>    H        7.10266       -11.56584         5.50965
| 81>    H        5.38619       -11.04162         5.10990
| 82>    H        9.09520       -10.07062         4.58482
| 83>    H        9.47285        -7.94473         3.18497
| 84>    H        9.27972        -6.01832         1.88472
| 85>    H        8.46550        -3.97569         0.54448
| 86>    H        6.34061        -2.96168        -0.40184
| 87>    H       -0.19612        -3.79588        -1.42470
| 88>    H       -0.37796        -2.65533        -2.78674
| 89>    H       -0.10723        -2.04125        -1.13091
| 90>    H        2.83894        -2.53751        -3.70500
| 91>    H        4.53527        -2.18443        -6.57844
| 92>    H        6.64339        -2.16684        -7.95752
| 93>    H        9.10830        -3.15428        -6.41543
| 94>    H       13.59366        -3.68535        -9.46494
| 95>    H        9.78576        -1.55571       -12.65188
| 96>    H        7.07275        -1.01648       -11.29326
| 97>    H        8.17092        -0.51940       -14.12437
| 98>    H        2.55144         1.20577       -11.83277
| 99>    H        3.91727         2.17623       -16.55234
|100>    H        0.20329         2.59036       -12.49827
|101> *
|102>
|103>                          ****END OF INPUT****

CARTESIAN COORDINATES (ANGSTROEM)
---------------------------------
  C      6.443080  -10.866800    5.026230
  C      6.932730   -9.820910    4.348470
  C      8.312640   -9.468450    4.158210
  C      8.507310   -8.353590    3.424170
  C      7.306110   -7.728730    2.973970
  S      5.909680   -8.630780    3.526330
  C      7.195540   -6.588500    2.221660
  C      8.246510   -5.775330    1.712530
  C      7.822910   -4.700970    1.009790
  C      6.401130   -4.576690    0.918200
  S      5.640200   -5.922980    1.757880
  C      5.747800   -3.614350    0.222200
  C      4.325780   -3.454280    0.090690
  C      3.386530   -3.507470    1.093990
  C      3.549070   -3.539660    2.570730
  F      4.787510   -3.243870    2.980250
  F      2.740170   -2.634500    3.165210
  F      3.222640   -4.718820    3.133700
  S      1.764270   -3.280360    0.517950
  C      2.345860   -3.081700   -1.097860
  O      1.511970   -2.860300   -2.132160
  C      0.128450   -2.838550   -1.841320
  C      3.717550   -3.181770   -1.186390
  C      4.459080   -3.058630   -2.410610
  N      3.826780   -2.705980   -3.609100
  C      4.812150   -2.672810   -4.524710
  N      5.130590   -2.444690   -5.809460
  C      6.517410   -2.661700   -5.885050
  N      7.041090   -3.000020   -4.718780
  C      6.012950   -3.012360   -3.855400
  N      5.752270   -3.241670   -2.545850
  C      7.214760   -2.513620   -7.106590
  C      8.535130   -2.788950   -7.252650
  C      9.218560   -2.628510   -8.481440
  O      8.584300   -2.111510   -9.567240
  C     10.525270   -2.920800   -8.844740
  C     11.801500   -3.458520   -8.363490
  O     12.134950   -3.880670   -7.289080
  N     12.630430   -3.381810   -9.486040
  C     12.040610   -2.859760  -10.632550
  O     12.586350   -2.712450  -11.693420
  C     10.666120   -2.563410  -10.203680
  C      9.446430   -2.059960  -10.623100
  C      9.037880   -1.537930  -11.870910
  C      7.796070   -1.025230  -12.095080
  C      7.422700   -0.485420  -13.343210
  C      6.208150    0.085350  -13.615030
  C      5.789340    0.674000  -14.873100
  C      6.484360    0.682250  -16.055800
  C      6.010050    1.268740  -17.247950
  N      5.682460    1.727940  -18.247950
  C      7.751790    0.101880  -16.273400
  N      8.773000   -0.348780  -16.543400
  C      4.464160    1.251960  -14.673760
  C      4.049430    0.995310  -13.344230
  C      5.105120    0.244190  -12.636820
  O      5.053950   -0.150450  -11.488950
  C      2.838530    1.416780  -12.851020
  C      1.994850    2.129050  -13.709450
  C      2.418020    2.382720  -15.035780
  C      3.641950    1.954930  -15.535030
  S      1.226410    3.280470  -15.926490
  C      0.190100    3.302220  -14.524520
  C      0.707530    2.670780  -13.443920
  Br    -1.477130    4.156520  -14.617880
  H      7.102660  -11.565840    5.509650
  H      5.386190  -11.041620    5.109900
  H      9.095200  -10.070620    4.584820
  H      9.472850   -7.944730    3.184970
  H      9.279720   -6.018320    1.884720
  H      8.465500   -3.975690    0.544480
  H      6.340610   -2.961680   -0.401840
  H     -0.196120   -3.795880   -1.424700
  H     -0.377960   -2.655330   -2.786740
  H     -0.107230   -2.041250   -1.130910
  H      2.838940   -2.537510   -3.705000
  H      4.535270   -2.184430   -6.578440
  H      6.643390   -2.166840   -7.957520
  H      9.108300   -3.154280   -6.415430
  H     13.593660   -3.685350   -9.464940
  H      9.785760   -1.555710  -12.651880
  H      7.072750   -1.016480  -11.293260
  H      8.170920   -0.519400  -14.124370
  H      2.551440    1.205770  -11.832770
  H      3.917270    2.176230  -16.552340
  H      0.203290    2.590360  -12.498270

 Total Charge           Charge          ....    0
 Multiplicity           Mult            ....    1
 Number of Electrons    NEL             ....  506
 Basis Dimension        Dim             .... 1049

ORBITAL ENERGIES
----------------

  NO   OCC          E(Eh)            E(eV)
   0   2.0000    -482.889673    -13140.0960
   1   2.0000     -88.979613     -2421.2584
   2   2.0000     -88.979100     -2421.2444
   3   2.0000     -88.928451     -2419.8662
   4   2.0000     -88.928372     -2419.8640
   5   2.0000     -62.567406     -1702.5457
   6   2.0000     -56.401360     -1534.7590
   7   2.0000     -56.398638     -1534.6850
   8   2.0000     -56.398604     -1534.6840
   9   2.0000     -24.789132      -674.5466
  10   2.0000     -24.786419      -674.4728
  11   2.0000     -24.781933      -674.3507
  12   2.0000     -19.313554      -525.5485
  13   2.0000     -19.298756      -525.1459
  14   2.0000     -19.221536      -523.0446
  15   2.0000     -19.212329      -522.7940
  16   2.0000     -19.208688      -522.6950
  17   2.0000     -14.491599      -394.3365
  18   2.0000     -14.482279      -394.0828
  19   2.0000     -14.453715      -393.3056
  20   2.0000     -14.417138      -392.3103
  21   2.0000     -14.416359      -392.2891
  22   2.0000     -14.400281      -391.8516
  23   2.0000     -14.395867      -391.7315
  24   2.0000     -10.513615      -286.0900
  25   2.0000     -10.401742      -283.0458
  26   2.0000     -10.398547      -282.9589
  27   2.0000     -10.380338      -282.4634
  28   2.0000     -10.372093      -282.2390
  29   2.0000     -10.368337      -282.1368
  30   2.0000     -10.363198      -281.9970
  31   2.0000     -10.362833      -281.9870
  32   2.0000     -10.358832      -281.8781
  33   2.0000     -10.347765      -281.5770
  34   2.0000     -10.345202      -281.5073
  35   2.0000     -10.344102      -281.4773
  36   2.0000     -10.343145      -281.4513
  37   2.0000     -10.338458      -281.3237
  38   2.0000     -10.329421      -281.0778
  39   2.0000     -10.319690      -280.8130
  40   2.0000     -10.319300      -280.8024
  41   2.0000     -10.316899      -280.7371
  42   2.0000     -10.313735      -280.6510
  43   2.0000     -10.311708      -280.5958
  44   2.0000     -10.311498      -280.5901
  45   2.0000     -10.309127      -280.5256
  46   2.0000     -10.308555      -280.5100
  47   2.0000     -10.306595      -280.4567
  48   2.0000     -10.305754      -280.4338
  49   2.0000     -10.305429      -280.4250
  50   2.0000     -10.301595      -280.3207
  51   2.0000     -10.301146      -280.3084
  52   2.0000     -10.300546      -280.2921
  53   2.0000     -10.300457      -280.2897
  54   2.0000     -10.299692      -280.2689
  55   2.0000     -10.297888      -280.2198
  56   2.0000     -10.297847      -280.2187
  57   2.0000     -10.297756      -280.2162
  58   2.0000     -10.295910      -280.1660
  59   2.0000     -10.294824      -280.1364
  60   2.0000     -10.291484      -280.0455
  61   2.0000     -10.290930      -280.0304
  62   2.0000     -10.288555      -279.9658
  63   2.0000     -10.281112      -279.7633
  64   2.0000     -10.277878      -279.6753
  65   2.0000     -10.275935      -279.6224
  66   2.0000     -10.272222      -279.5214
  67   2.0000     -10.264282      -279.3053
  68   2.0000     -10.261073      -279.2180
  69   2.0000      -8.796847      -239.3744
  70   2.0000      -8.075527      -219.7463
  71   2.0000      -8.075098      -219.7346
  72   2.0000      -8.025197      -218.3767
  73   2.0000      -8.024793      -218.3657
  74   2.0000      -6.633175      -180.4979
  75   2.0000      -6.618565      -180.1003
  76   2.0000      -6.618370      -180.0950
  77   2.0000      -6.045218      -164.4987
  78   2.0000      -6.044611      -164.4822
  79   2.0000      -6.040936      -164.3822
  80   2.0000      -6.040360      -164.3665
  81   2.0000      -6.036772      -164.2689
  82   2.0000      -6.036711      -164.2673
  83   2.0000      -5.995024      -163.1329
  84   2.0000      -5.994609      -163.1216
  85   2.0000      -5.991145      -163.0273
  86   2.0000      -5.990649      -163.0139
  87   2.0000      -5.985661      -162.8781
  88   2.0000      -5.985353      -162.8697
  89   2.0000      -2.748997       -74.8040
  90   2.0000      -2.744973       -74.6945
  91   2.0000      -2.744798       -74.6897
  92   2.0000      -2.733196       -74.3740
  93   2.0000      -2.733178       -74.3736
  94   2.0000      -1.377005       -37.4702
  95   2.0000      -1.280710       -34.8499
  96   2.0000      -1.274427       -34.6789
  97   2.0000      -1.229611       -33.4594
  98   2.0000      -1.202012       -32.7084
  99   2.0000      -1.155590       -31.4452
 100   2.0000      -1.144726       -31.1496
 101   2.0000      -1.135136       -30.8886
 102   2.0000      -1.134941       -30.8833
 103   2.0000      -1.093526       -29.7563
 104   2.0000      -1.042717       -28.3738
 105   2.0000      -1.026062       -27.9206
 106   2.0000      -1.015767       -27.6404
 107   2.0000      -1.002461       -27.2783
 108   2.0000      -0.998459       -27.1695
 109   2.0000      -0.995384       -27.0858
 110   2.0000      -0.992264       -27.0009
 111   2.0000      -0.980763       -26.6879
 112   2.0000      -0.958044       -26.0697
 113   2.0000      -0.955915       -26.0118
 114   2.0000      -0.949426       -25.8352
 115   2.0000      -0.939371       -25.5616
 116   2.0000      -0.926056       -25.1993
 117   2.0000      -0.916982       -24.9523
 118   2.0000      -0.911523       -24.8038
 119   2.0000      -0.897415       -24.4199
 120   2.0000      -0.889865       -24.2144
 121   2.0000      -0.889216       -24.1968
 122   2.0000      -0.888041       -24.1648
 123   2.0000      -0.868106       -23.6224
 124   2.0000      -0.862305       -23.4645
 125   2.0000      -0.840956       -22.8836
 126   2.0000      -0.835145       -22.7254
 127   2.0000      -0.833177       -22.6719
 128   2.0000      -0.830539       -22.6001
 129   2.0000      -0.825838       -22.4722
 130   2.0000      -0.810713       -22.0606
 131   2.0000      -0.805836       -21.9279
 132   2.0000      -0.788140       -21.4464
 133   2.0000      -0.776365       -21.1260
 134   2.0000      -0.769023       -20.9262
 135   2.0000      -0.764556       -20.8046
 136   2.0000      -0.760931       -20.7060
 137   2.0000      -0.753544       -20.5050
 138   2.0000      -0.741924       -20.1888
 139   2.0000      -0.731520       -19.9057
 140   2.0000      -0.717901       -19.5351
 141   2.0000      -0.716450       -19.4956
 142   2.0000      -0.703773       -19.1506
 143   2.0000      -0.696469       -18.9519
 144   2.0000      -0.695562       -18.9272
 145   2.0000      -0.692321       -18.8390
 146   2.0000      -0.689736       -18.7687
 147   2.0000      -0.681328       -18.5399
 148   2.0000      -0.679693       -18.4954
 149   2.0000      -0.671851       -18.2820
 150   2.0000      -0.665817       -18.1178
 151   2.0000      -0.660218       -17.9655
 152   2.0000      -0.659461       -17.9449
 153   2.0000      -0.659083       -17.9346
 154   2.0000      -0.648855       -17.6562
 155   2.0000      -0.638902       -17.3854
 156   2.0000      -0.629046       -17.1172
 157   2.0000      -0.622987       -16.9523
 158   2.0000      -0.618238       -16.8231
 159   2.0000      -0.609855       -16.5950
 160   2.0000      -0.602986       -16.4081
 161   2.0000      -0.602014       -16.3816
 162   2.0000      -0.599740       -16.3197
 163   2.0000      -0.596382       -16.2284
 164   2.0000      -0.595633       -16.2080
 165   2.0000      -0.593943       -16.1620
 166   2.0000      -0.588926       -16.0255
 167   2.0000      -0.587103       -15.9759
 168   2.0000      -0.584339       -15.9007
 169   2.0000      -0.582154       -15.8412
 170   2.0000      -0.573573       -15.6077
 171   2.0000      -0.572656       -15.5828
 172   2.0000      -0.559986       -15.2380
 173   2.0000      -0.556767       -15.1504
 174   2.0000      -0.551196       -14.9988
 175   2.0000      -0.546648       -14.8751
 176   2.0000      -0.545485       -14.8434
 177   2.0000      -0.544594       -14.8192
 178   2.0000      -0.543178       -14.7806
 179   2.0000      -0.541147       -14.7253
 180   2.0000      -0.538320       -14.6484
 181   2.0000      -0.536939       -14.6108
 182   2.0000      -0.532270       -14.4838
 183   2.0000      -0.529225       -14.4010
 184   2.0000      -0.526375       -14.3234
 185   2.0000      -0.524697       -14.2777
 186   2.0000      -0.515663       -14.0319
 187   2.0000      -0.514997       -14.0138
 188   2.0000      -0.514059       -13.9882
 189   2.0000      -0.512372       -13.9424
 190   2.0000      -0.509183       -13.8556
 191   2.0000      -0.507862       -13.8196
 192   2.0000      -0.503103       -13.6901
 193   2.0000      -0.499192       -13.5837
 194   2.0000      -0.497414       -13.5353
 195   2.0000      -0.496685       -13.5155
 196   2.0000      -0.496145       -13.5008
 197   2.0000      -0.495150       -13.4737
 198   2.0000      -0.493996       -13.4423
 199   2.0000      -0.482993       -13.1429
 200   2.0000      -0.482684       -13.1345
 201   2.0000      -0.482044       -13.1171
 202   2.0000      -0.480478       -13.0745
 203   2.0000      -0.479165       -13.0387
 204   2.0000      -0.475394       -12.9361
 205   2.0000      -0.474383       -12.9086
 206   2.0000      -0.471949       -12.8424
 207   2.0000      -0.471151       -12.8207
 208   2.0000      -0.468492       -12.7483
 209   2.0000      -0.463810       -12.6209
 210   2.0000      -0.461377       -12.5547
 211   2.0000      -0.454271       -12.3613
 212   2.0000      -0.452494       -12.3130
 213   2.0000      -0.449700       -12.2369
 214   2.0000      -0.448345       -12.2001
 215   2.0000      -0.445100       -12.1118
 216   2.0000      -0.442719       -12.0470
 217   2.0000      -0.442003       -12.0275
 218   2.0000      -0.441511       -12.0141
 219   2.0000      -0.433511       -11.7964
 220   2.0000      -0.431574       -11.7437
 221   2.0000      -0.428028       -11.6472
 222   2.0000      -0.425449       -11.5771
 223   2.0000      -0.422634       -11.5005
 224   2.0000      -0.416565       -11.3353
 225   2.0000      -0.414191       -11.2707
 226   2.0000      -0.409677       -11.1479
 227   2.0000      -0.408953       -11.1282
 228   2.0000      -0.399622       -10.8743
 229   2.0000      -0.391011       -10.6400
 230   2.0000      -0.387401       -10.5417
 231   2.0000      -0.383768       -10.4429
 232   2.0000      -0.382064       -10.3965
 233   2.0000      -0.379151       -10.3172
 234   2.0000      -0.371859       -10.1188
 235   2.0000      -0.369743       -10.0612
 236   2.0000      -0.367968       -10.0129
 237   2.0000      -0.360593        -9.8122
 238   2.0000      -0.356012        -9.6876
 239   2.0000      -0.344775        -9.3818
 240   2.0000      -0.341837        -9.3019
 241   2.0000      -0.340826        -9.2744
 242   2.0000      -0.340291        -9.2598
 243   2.0000      -0.328681        -8.9439
 244   2.0000      -0.327419        -8.9095
 245   2.0000      -0.319468        -8.6932
 246   2.0000      -0.316365        -8.6087
 247   2.0000      -0.310539        -8.4502
 248   2.0000      -0.297613        -8.0985
 249   2.0000      -0.293165        -7.9774
 250   2.0000      -0.281455        -7.6588
 251   2.0000      -0.240450        -6.5430
 252   2.0000      -0.215567        -5.8659
 253   0.0000      -0.105132        -2.8608
 254   0.0000      -0.067882        -1.8472
 255   0.0000      -0.055128        -1.5001
 256   0.0000      -0.051111        -1.3908
 257   0.0000      -0.028277        -0.7695

MULLIKEN ATOMIC CHARGES
-----------------------
   0 C :   -0.033070
   1 C :   -0.064429
   2 C :    0.052173
   3 C :    0.031134
   4 C :   -0.068921
   5 S :    0.078871
   6 C :   -0.062228
   7 C :    0.037340
   8 C :    0.040222
   9 C :   -0.012436
  10 S :    0.085003
  11 C :   -0.043775
  12 C :    0.114499
  13 C :   -0.333231
  14 C :    0.555577
  15 F :   -0.146066
  16 F :   -0.175458
  17 F :   -0.162674
  18 S :    0.115463
  19 C :   -0.023644
  20 O :   -0.320758
  21 C :    0.172205
  22 C :    0.124241
  23 C :   -0.045499
  24 N :   -0.038764
  25 C :    0.005512
  26 N :   -0.035912
  27 C :    0.019953
  28 N :   -0.029535
  29 C :   -0.085940
  30 N :   -0.060390
  31 C :    0.032593
  32 C :   -0.044477
  33 C :    0.111915
  34 O :   -0.215337
  35 C :   -0.032912
  36 C :    0.160225
  37 O :   -0.131043
  38 N :   -0.167142
  39 C :    0.163256
  40 O :   -0.133970
  41 C :   -0.012027
  42 C :    0.084054
  43 C :    0.000643
  44 C :    0.006477
  45 C :   -0.038424
  46 C :   -0.061635
  47 C :    0.328948
  48 C :   -0.355849
  49 C :   -0.184252
  50 N :    0.151055
  51 C :   -0.193591
  52 N :    0.155833
  53 C :    0.013783
  54 C :   -0.009026
  55 C :    0.144750
  56 O :   -0.162693
  57 C :   -0.074305
  58 C :    0.119246
  59 C :   -0.091128
  60 C :   -0.019495
  61 S :    0.189415
  62 C :   -0.123186
  63 C :    0.037868
  64 Br:    0.023908
  65 H :    0.017323
  66 H :    0.019795
  67 H :   -0.014149
  68 H :   -0.012888
  69 H :   -0.014660
  70 H :   -0.005967
  71 H :    0.018847
  72 H :    0.047073
  73 H :    0.048703
  74 H :    0.046266
  75 H :    0.132931
  76 H :    0.133852
  77 H :   -0.002720
  78 H :    0.034703
  79 H :    0.140147
  80 H :    0.033413
  81 H :    0.029981
  82 H :    0.015345
  83 H :   -0.017805
  84 H :   -0.006849
  85 H :   -0.006283
Sum of atomic charges:   -0.0000000

LOEWDIN ATOMIC CHARGES
----------------------
   0 C :   -0.082134
   1 C :   -0.138426
   2 C :   -0.033184
   3 C :   -0.025186
   4 C :   -0.178580
   5 S :    0.349761
   6 C :   -0.179296
   7 C :   -0.027436
   8 C :   -0.024750
   9 C :   -0.128518
  10 S :    0.366204
  11 C :   -0.063218
  12 C :   -0.005797
  13 C :   -0.269548
  14 C :    0.143094
  15 F :   -0.045247
  16 F :   -0.077047
  17 F :   -0.066675
  18 S :    0.445261
  19 C :   -0.091585
  20 O :   -0.102956
  21 C :    0.073222
  22 C :   -0.111688
  23 C :    0.037571
  24 N :    0.057530
  25 C :   -0.006656
  26 N :    0.064384
  27 C :   -0.001563
  28 N :   -0.093133
  29 C :   -0.062457
  30 N :   -0.104926
  31 C :   -0.006884
  32 C :   -0.035174
  33 C :    0.087425
  34 O :    0.014024
  35 C :   -0.105112
  36 C :    0.084671
  37 O :   -0.151135
  38 N :   -0.006584
  39 C :    0.082691
  40 O :   -0.152309
  41 C :   -0.069964
  42 C :    0.048749
  43 C :    0.016990
  44 C :   -0.024830
  45 C :    0.067720
  46 C :   -0.093448
  47 C :    0.073589
  48 C :   -0.138580
  49 C :   -0.017796
  50 N :   -0.053243
  51 C :   -0.022267
  52 N :   -0.047669
  53 C :   -0.019431
  54 C :   -0.050953
  55 C :    0.085667
  56 O :   -0.154213
  57 C :    0.019364
  58 C :   -0.033194
  59 C :   -0.143302
  60 C :   -0.009357
  61 S :    0.434819
  62 C :   -0.271181
  63 C :   -0.071914
  64 Br:    0.137134
  65 H :    0.027408
  66 H :    0.025310
  67 H :    0.032406
  68 H :    0.031809
  69 H :    0.031202
  70 H :    0.036380
  71 H :    0.039349
  72 H :    0.022571
  73 H :    0.033311
  74 H :    0.021421
  75 H :    0.081082
  76 H :    0.095123
  77 H :    0.034122
  78 H :    0.054278
  79 H :    0.095659
  80 H :    0.052846
  81 H :    0.033902
  82 H :    0.043443
  83 H :    0.038110
  84 H :    0.041289
  85 H :    0.037653

  Mayer bond orders larger than 0.100000
B(  0-C ,  1-C ) :   1.8705 B(  0-C , 65-H ) :   0.9501 B(  0-C , 66-H ) :   0.9411
B(  1-C ,  2-C ) :   1.0760 B(  1-C ,  5-S ) :   1.0081 B(  2-C ,  3-C ) :   1.6711
B(  2-C , 67-H ) :   0.9927 B(  3-C ,  4-C ) :   1.1420 B(  3-C , 68-H ) :   0.9920
B(  4-C ,  5-S ) :   1.0407 B(  4-C ,  6-C ) :   1.5840 B(  6-C ,  7-C ) :   1.1443
B(  6-C , 10-S ) :   1.0449 B(  7-C ,  8-C ) :   1.6414 B(  7-C , 69-H ) :   0.9927
B(  8-C ,  9-C ) :   1.1058 B(  8-C , 70-H ) :   0.9996 B(  9-C , 10-S ) :   1.0337
B(  9-C , 11-C ) :   1.6946 B( 11-C , 12-C ) :   1.0746 B( 11-C , 71-H ) :   0.9210
B( 12-C , 13-C ) :   1.5683 B( 12-C , 22-C ) :   1.2394 B( 13-C , 14-C ) :   0.9630
B( 13-C , 18-S ) :   1.0663 B( 14-C , 15-F ) :   1.1735 B( 14-C , 16-F ) :   1.1539
B( 14-C , 17-F ) :   1.1634 B( 18-S , 19-C ) :   1.1318 B( 19-C , 20-O ) :   1.1283
B( 19-C , 22-C ) :   1.4628 B( 20-O , 21-C ) :   0.9245 B( 21-C , 72-H ) :   0.9681
B( 21-C , 73-H ) :   0.9811 B( 21-C , 74-H ) :   0.9671 B( 22-C , 23-C ) :   0.9814
B( 23-C , 24-N ) :   1.1863 B( 23-C , 30-N ) :   1.6867 B( 24-N , 25-C ) :   1.2406
B( 24-N , 75-H ) :   0.8999 B( 25-C , 26-N ) :   1.2590 B( 25-C , 29-C ) :   1.2206
B( 26-N , 27-C ) :   1.1123 B( 26-N , 76-H ) :   0.9235 B( 27-C , 28-N ) :   1.6395
B( 27-C , 31-C ) :   1.1065 B( 28-N , 29-C ) :   1.4455 B( 29-C , 30-N ) :   1.3702
B( 31-C , 32-C ) :   1.6200 B( 31-C , 77-H ) :   0.9586 B( 32-C , 33-C ) :   1.1690
B( 32-C , 78-H ) :   0.9735 B( 33-C , 34-O ) :   1.1619 B( 33-C , 35-C ) :   1.3575
B( 34-O , 42-C ) :   1.1318 B( 35-C , 36-C ) :   0.8802 B( 35-C , 41-C ) :   1.2947
B( 36-C , 37-O ) :   2.2824 B( 36-C , 38-N ) :   1.0659 B( 38-N , 39-C ) :   1.0881
B( 38-N , 79-H ) :   0.9132 B( 39-C , 40-O ) :   2.2740 B( 39-C , 41-C ) :   0.8680
B( 41-C , 42-C ) :   1.3830 B( 42-C , 43-C ) :   1.1745 B( 43-C , 44-C ) :   1.5200
B( 43-C , 80-H ) :   0.9720 B( 44-C , 45-C ) :   1.1536 B( 44-C , 81-H ) :   0.9913
B( 45-C , 46-C ) :   1.5284 B( 45-C , 82-H ) :   0.9632 B( 46-C , 47-C ) :   1.0697
B( 46-C , 55-C ) :   0.9496 B( 47-C , 48-C ) :   1.6251 B( 47-C , 53-C ) :   1.0008
B( 48-C , 49-C ) :   1.1437 B( 48-C , 51-C ) :   1.1493 B( 49-C , 50-N ) :   2.9665
B( 51-C , 52-N ) :   2.9647 B( 53-C , 54-C ) :   1.2777 B( 53-C , 60-C ) :   1.4073
B( 54-C , 55-C ) :   0.9435 B( 54-C , 57-C ) :   1.4210 B( 55-C , 56-O ) :   2.1920
B( 57-C , 58-C ) :   1.2462 B( 57-C , 83-H ) :   1.0160 B( 58-C , 59-C ) :   1.3067
B( 58-C , 63-C ) :   1.1621 B( 59-C , 60-C ) :   1.3309 B( 59-C , 61-S ) :   1.0869
B( 60-C , 84-H ) :   0.9794 B( 61-S , 62-C ) :   1.0879 B( 62-C , 63-C ) :   1.6177
B( 62-C , 64-Br) :   1.0182 B( 63-C , 85-H ) :   1.0002

-----------------------------------------------------------------------------
         ABSORPTION SPECTRUM VIA TRANSITION ELECTRIC DIPOLE MOMENTS
-----------------------------------------------------------------------------
State   Energy  Wavelength   fosc         T2         TX        TY        TZ
        (cm-1)    (nm)                  (au**2)     (au)      (au)      (au)
-----------------------------------------------------------------------------
   0   15468.1    646.5   0.961998137  20.47453   0.41613  -1.79277   4.13368
   1   17056.6    586.3   0.107902640   2.08265  -0.26471   0.52778  -1.31682
   2   21408.7    467.1   0.981108126  15.08694  -0.46389   3.06432  -2.34130
   3   23657.6    422.7   0.184375952   2.56572  -1.21760   0.34317   0.98255
   4   24522.4    407.8   0.255947708   3.43609  -1.43731   0.84671  -0.80827
   5   24810.6    403.1   0.216281589   2.86984   0.17950   0.33052  -1.65178
   6   25387.5    393.9   0.657000317   8.51963   2.66874  -0.80237  -0.86814
   7   26471.9    377.8   0.030661742   0.38132  -0.54580   0.26221  -0.12111
   8   26927.7    371.4   0.577846409   7.06461   2.42436  -1.06660  -0.22233
   9   27855.0    359.0   0.000875061   0.01034  -0.08597   0.01340   0.05264
  10   27964.8    357.6   0.051704366   0.60868   0.77557   0.06000  -0.05974
  11   29256.3    341.8   0.002695088   0.03033  -0.09990   0.08235  -0.11647
  12   30154.4    331.6   0.113492816   1.23906   0.34154   0.80051  -0.69397
  13   31861.4    313.9   0.174748906   1.80561  -1.18281   0.39422   0.50117
  14   32448.3    308.2   0.052265413   0.53027   0.64633  -0.23531  -0.23908
  15   32669.4    306.1   0.664800743   6.69925  -2.32930   0.91955   0.65426
  16   32717.6    305.6   0.050513735   0.50828  -0.65164   0.24061   0.16048
  17   33270.0    300.6   0.057434182   0.56832  -0.39251  -0.05317   0.64142
  18   33450.8    298.9   0.010874567   0.10702  -0.15617   0.13394   0.25435
  19   33590.3    297.7   0.000184700   0.00181  -0.00808  -0.04162  -0.00361
  20   33807.2    295.8   0.020837837   0.20292  -0.44082  -0.07965   0.04741
  21   34238.3    292.1   0.099597804   0.95767  -0.96030   0.16746   0.08626
  22   34406.0    290.6   0.026558214   0.25412   0.01244   0.28813  -0.41346
  23   34534.9    289.6   0.039251476   0.37417  -0.53996  -0.28149   0.05811
  24   35807.0    279.3   0.004278056   0.03933   0.17333  -0.09262  -0.02670
  25   35979.9    277.9   0.001548459   0.01417   0.09546  -0.06939   0.01554
  26   36546.8    273.6   0.095302054   0.85848  -0.13611  -0.25532   0.88021
  27   37133.2    269.3   0.035569801   0.31535  -0.27380  -0.09128   0.48172
  28   37821.2    264.4   0.092474438   0.80494   0.69092  -0.31829   0.47567
  29   38006.1    263.1   0.131018188   1.13489  -0.23272  -0.31510   0.99068
  30   38144.9    262.2   0.074762165   0.64524   0.75773  -0.25288   0.08448
  31   38569.3    259.3   0.104963932   0.89593   0.88206  -0.17092   0.29780
  32   39739.6    251.6   0.077301891   0.64039   0.38559  -0.54999   0.43500
  33   39861.8    250.9   0.005855812   0.04836  -0.12130  -0.17453  -0.05645
  34   40242.9    248.5   0.022126195   0.18101  -0.33668   0.07230   0.24985

FINAL SINGLE POINT ENERGY     -6949.126626387192

DIPOLE MOMENT
-------------
                                X             Y             Z
Electronic contribution:    -83.28286      81.65956     -83.25588
Nuclear contribution   :     79.33834     -81.18034      84.59392
                        -----------------------------------------
Total Dipole Moment    :     -3.94452       0.47922       1.33804
                        -----------------------------------------
Magnitude (a.u.)       :      4.19276
Magnitude (Debye)      :     10.65716

Rotational constants in cm-1:     0.001120     0.000259     0.000214
Rotational constants in MHz :    33.586692     7.762347     6.419207

                             ****ORCA TERMINATED NORMALLY****
TOTAL RUN TIME: 0 days 0 hours 7 minutes 16 seconds 86 msec
