                         Program Version 4.2.0 -  RELEASE  -
|  1> # ORCA input file
|  2> # SCF done       -168.881867388559          0.000469241255
|  3> ! CAM-B3LYP def2-SVP def2/J RIJCOSX Grid4 TightSCF
|  4> %maxcore 5000
|  5> %tddft
|  6>     Mode sTDDFT
|  7>     Ethresh 5.0
|  8>     maxcore 5000
|  9> end
| 10>
| 11> %pal
| 12>   nprocs 6
| 13>   end
| 14> * xyz 0 1
| 15>    C       12.35718        -2.89758         8.63921
| 16>    C       12.16781        -2.91193         9.99310
| 17>    F       13.20782        -3.18493        10.80421
| 18>    C       10.92330        -2.65068        10.58056
| 19>    C        9.85698        -2.36959         9.77175
| 20>    C        9.99612        -2.33898         8.36954
| 21>    C       11.26992        -2.61090         7.79161
| 22>    C       11.43247        -2.59409         6.38587
| 23>    C       10.35822        -2.30316         5.59156
| 24>    C        9.09066        -2.01504         6.17501
| 25>    C        8.90208        -2.03836         7.52565
| 26>    C        8.12630        -1.68987         5.10325
| 27>    O        6.94707        -1.43561         5.21643
| 28>    C        8.92666        -1.67318         3.85476
| 29>    C       10.21640        -2.24380         4.13854
| 30>    C       11.04717        -2.86903         3.23801
| 31>    C       10.68802        -3.09139         1.89477
| 32>    N       10.40003        -3.33551         0.80956
| 33>    C       12.29707        -3.42038         3.56902
| 34>    N       13.34539        -3.84557         3.77141
| 35>    C        8.41212        -1.04768         2.74612
| 36>    C        9.06960        -0.47629         1.65296
| 37>    S       10.78674        -0.20364         1.60340
| 38>    C       10.72706         0.60532         0.07841
| 39>    C        9.39857         0.68602        -0.38414
| 40>    C        8.46343         0.07976         0.50438
| 41>    C        7.09851         0.05812         0.17601
| 42>    C        6.69250         0.63344        -0.99673
| 43>    F        5.39342         0.62915        -1.32767
| 44>    C        7.61787         1.23537        -1.87573
| 45>    F        7.17125         1.78550        -3.01602
| 46>    C        8.95286         1.26503        -1.58488
| 47>    C       11.90112         1.06217        -0.55762
| 48>    C       13.15363         0.79402        -0.10680
| 49>    C       14.34158         1.21288        -0.76849
| 50>    C       15.58646         0.81288        -0.43803
| 51>    C       15.87704        -0.11200         0.70232
| 52>    C       16.77517         1.27912        -1.24097
| 53>    N       17.77827         1.89890        -0.40833
| 54>    C       18.85631         1.23903         0.06287
| 55>    C       19.64593         1.66238         1.08751
| 56>    C       20.78902         0.95790         1.50088
| 57>    C       21.60902         1.31713         2.53816
| 58>    C       22.74897         0.61716         3.00117
| 59>    C       23.37274         1.19671         4.06248
| 60>    C       22.76527         2.39619         4.50154
| 61>    S       21.36728         2.76244         3.51745
| 62>    C       23.16638         3.20684         5.54418
| 63>    C       24.25748         3.01440         6.42009
| 64>    C       24.39843         3.99399         7.35255
| 65>    C       23.42975         5.03048         7.27262
| 66>    S       22.32253         4.68951         5.95423
| 67>    C       23.38421         6.12166         8.09760
| 68>    C       22.47056         7.19816         8.07183
| 69>    C       21.39834         7.45616         7.25465
| 70>    C       20.73757         8.67041         7.55590
| 71>    C       19.62649         9.23895         6.93135
| 72>    C       19.14023        10.45368         7.39145
| 73>    C       19.74553        11.11792         8.47332
| 74>    C       20.84197        10.56864         9.10044
| 75>    C       21.33200         9.35437         8.64255
| 76>    S       22.69186         8.47934         9.26606
| 77>    C       18.01738        11.03928         6.76415
| 78>    N       17.10630        11.51487         6.25530
| 79>    H       13.32951        -3.10728         8.22145
| 80>    H       10.83333        -2.67633        11.65494
| 81>    H        8.88784        -2.16426        10.20101
| 82>    H       12.40731        -2.80060         5.97263
| 83>    H        7.93113        -1.82831         7.94852
| 84>    H        7.34098        -0.87791         2.79071
| 85>    H        6.37024        -0.40276         0.82264
| 86>    H        9.63828         1.72598        -2.27657
| 87>    H       11.77264         1.62656        -1.47095
| 88>    H       13.25788         0.19859         0.78945
| 89>    H       14.21060         1.86634        -1.62200
| 90>    H       15.41218         0.23770         1.62252
| 91>    H       16.94713        -0.19988         0.87334
| 92>    H       15.48318        -1.10623         0.49212
| 93>    H       16.45564         1.99601        -2.00356
| 94>    H       17.23812         0.42449        -1.74504
| 95>    H       17.47646         2.70970         0.11421
| 96>    H       19.10864         0.33173        -0.47158
| 97>    H       19.39281         2.56978         1.61905
| 98>    H       21.04215         0.04927         0.96934
| 99>    H       23.06929        -0.29717         2.53303
|100>    H       24.25037         0.79932         4.53939
|101>    H       24.90550         2.16011         6.34025
|102>    H       25.17023         4.01474         8.10150
|103>    H       24.14860         6.17140         8.86231
|104>    H       21.08418         6.80567         6.45998
|105>    H       19.15485         8.73691         6.09992
|106>    H       19.34115        12.06209         8.80504
|107>    H       21.31448        11.06938         9.93104
|108> *
|109>
|110>                          ****END OF INPUT****

CARTESIAN COORDINATES (ANGSTROEM)
---------------------------------
  C     12.357180   -2.897580    8.639210
  C     12.167810   -2.911930    9.993100
  F     13.207820   -3.184930   10.804210
  C     10.923300   -2.650680   10.580560
  C      9.856980   -2.369590    9.771750
  C      9.996120   -2.338980    8.369540
  C     11.269920   -2.610900    7.791610
  C     11.432470   -2.594090    6.385870
  C     10.358220   -2.303160    5.591560
  C      9.090660   -2.015040    6.175010
  C      8.902080   -2.038360    7.525650
  C      8.126300   -1.689870    5.103250
  O      6.947070   -1.435610    5.216430
  C      8.926660   -1.673180    3.854760
  C     10.216400   -2.243800    4.138540
  C     11.047170   -2.869030    3.238010
  C     10.688020   -3.091390    1.894770
  N     10.400030   -3.335510    0.809560
  C     12.297070   -3.420380    3.569020
  N     13.345390   -3.845570    3.771410
  C      8.412120   -1.047680    2.746120
  C      9.069600   -0.476290    1.652960
  S     10.786740   -0.203640    1.603400
  C     10.727060    0.605320    0.078410
  C      9.398570    0.686020   -0.384140
  C      8.463430    0.079760    0.504380
  C      7.098510    0.058120    0.176010
  C      6.692500    0.633440   -0.996730
  F      5.393420    0.629150   -1.327670
  C      7.617870    1.235370   -1.875730
  F      7.171250    1.785500   -3.016020
  C      8.952860    1.265030   -1.584880
  C     11.901120    1.062170   -0.557620
  C     13.153630    0.794020   -0.106800
  C     14.341580    1.212880   -0.768490
  C     15.586460    0.812880   -0.438030
  C     15.877040   -0.112000    0.702320
  C     16.775170    1.279120   -1.240970
  N     17.778270    1.898900   -0.408330
  C     18.856310    1.239030    0.062870
  C     19.645930    1.662380    1.087510
  C     20.789020    0.957900    1.500880
  C     21.609020    1.317130    2.538160
  C     22.748970    0.617160    3.001170
  C     23.372740    1.196710    4.062480
  C     22.765270    2.396190    4.501540
  S     21.367280    2.762440    3.517450
  C     23.166380    3.206840    5.544180
  C     24.257480    3.014400    6.420090
  C     24.398430    3.993990    7.352550
  C     23.429750    5.030480    7.272620
  S     22.322530    4.689510    5.954230
  C     23.384210    6.121660    8.097600
  C     22.470560    7.198160    8.071830
  C     21.398340    7.456160    7.254650
  C     20.737570    8.670410    7.555900
  C     19.626490    9.238950    6.931350
  C     19.140230   10.453680    7.391450
  C     19.745530   11.117920    8.473320
  C     20.841970   10.568640    9.100440
  C     21.332000    9.354370    8.642550
  S     22.691860    8.479340    9.266060
  C     18.017380   11.039280    6.764150
  N     17.106300   11.514870    6.255300
  H     13.329510   -3.107280    8.221450
  H     10.833330   -2.676330   11.654940
  H      8.887840   -2.164260   10.201010
  H     12.407310   -2.800600    5.972630
  H      7.931130   -1.828310    7.948520
  H      7.340980   -0.877910    2.790710
  H      6.370240   -0.402760    0.822640
  H      9.638280    1.725980   -2.276570
  H     11.772640    1.626560   -1.470950
  H     13.257880    0.198590    0.789450
  H     14.210600    1.866340   -1.622000
  H     15.412180    0.237700    1.622520
  H     16.947130   -0.199880    0.873340
  H     15.483180   -1.106230    0.492120
  H     16.455640    1.996010   -2.003560
  H     17.238120    0.424490   -1.745040
  H     17.476460    2.709700    0.114210
  H     19.108640    0.331730   -0.471580
  H     19.392810    2.569780    1.619050
  H     21.042150    0.049270    0.969340
  H     23.069290   -0.297170    2.533030
  H     24.250370    0.799320    4.539390
  H     24.905500    2.160110    6.340250
  H     25.170230    4.014740    8.101500
  H     24.148600    6.171400    8.862310
  H     21.084180    6.805670    6.459980
  H     19.154850    8.736910    6.099920
  H     19.341150   12.062090    8.805040
  H     21.314480   11.069380    9.931040

 Total Charge           Charge          ....    0
 Multiplicity           Mult            ....    1
 Number of Electrons    NEL             ....  468
 Basis Dimension        Dim             .... 1057

ORBITAL ENERGIES
----------------

  NO   OCC          E(Eh)            E(eV)
   0   2.0000     -88.987022     -2421.4600
   1   2.0000     -88.942612     -2420.2515
   2   2.0000     -88.938941     -2420.1516
   3   2.0000     -88.938419     -2420.1374
   4   2.0000     -24.800524      -674.8566
   5   2.0000     -24.797842      -674.7836
   6   2.0000     -24.783051      -674.3811
   7   2.0000     -19.207643      -522.6665
   8   2.0000     -14.454525      -393.3276
   9   2.0000     -14.413731      -392.2176
  10   2.0000     -14.411435      -392.1551
  11   2.0000     -14.387082      -391.4924
  12   2.0000     -10.385926      -282.6154
  13   2.0000     -10.381428      -282.4930
  14   2.0000     -10.366571      -282.0888
  15   2.0000     -10.359935      -281.9082
  16   2.0000     -10.341327      -281.4018
  17   2.0000     -10.338062      -281.3130
  18   2.0000     -10.337038      -281.2851
  19   2.0000     -10.333307      -281.1836
  20   2.0000     -10.331950      -281.1467
  21   2.0000     -10.322799      -280.8977
  22   2.0000     -10.320881      -280.8454
  23   2.0000     -10.317204      -280.7454
  24   2.0000     -10.316577      -280.7283
  25   2.0000     -10.313932      -280.6564
  26   2.0000     -10.311721      -280.5962
  27   2.0000     -10.308863      -280.5184
  28   2.0000     -10.308221      -280.5009
  29   2.0000     -10.307941      -280.4933
  30   2.0000     -10.307699      -280.4867
  31   2.0000     -10.307398      -280.4785
  32   2.0000     -10.303360      -280.3687
  33   2.0000     -10.302893      -280.3560
  34   2.0000     -10.302560      -280.3469
  35   2.0000     -10.302355      -280.3413
  36   2.0000     -10.299556      -280.2652
  37   2.0000     -10.297971      -280.2220
  38   2.0000     -10.297672      -280.2139
  39   2.0000     -10.296649      -280.1861
  40   2.0000     -10.295982      -280.1679
  41   2.0000     -10.295763      -280.1620
  42   2.0000     -10.294895      -280.1383
  43   2.0000     -10.294772      -280.1350
  44   2.0000     -10.294765      -280.1348
  45   2.0000     -10.291903      -280.0569
  46   2.0000     -10.291508      -280.0462
  47   2.0000     -10.290689      -280.0239
  48   2.0000     -10.287471      -279.9363
  49   2.0000     -10.286923      -279.9214
  50   2.0000     -10.286399      -279.9071
  51   2.0000     -10.285950      -279.8949
  52   2.0000     -10.284082      -279.8441
  53   2.0000     -10.283067      -279.8165
  54   2.0000     -10.280976      -279.7596
  55   2.0000     -10.279724      -279.7255
  56   2.0000     -10.278585      -279.6945
  57   2.0000     -10.278117      -279.6818
  58   2.0000     -10.277905      -279.6760
  59   2.0000     -10.277847      -279.6744
  60   2.0000     -10.272123      -279.5187
  61   2.0000     -10.269749      -279.4541
  62   2.0000     -10.268865      -279.4300
  63   2.0000     -10.261544      -279.2308
  64   2.0000      -8.081528      -219.9096
  65   2.0000      -8.038776      -218.7462
  66   2.0000      -8.035172      -218.6481
  67   2.0000      -8.034151      -218.6203
  68   2.0000      -6.050495      -164.6423
  69   2.0000      -6.046461      -164.5326
  70   2.0000      -6.044257      -164.4726
  71   2.0000      -6.008274      -163.4934
  72   2.0000      -6.004919      -163.4022
  73   2.0000      -6.004378      -163.3874
  74   2.0000      -6.003919      -163.3750
  75   2.0000      -6.000952      -163.2942
  76   2.0000      -6.000105      -163.2712
  77   2.0000      -5.999859      -163.2645
  78   2.0000      -5.996043      -163.1606
  79   2.0000      -5.995139      -163.1360
  80   2.0000      -1.321772       -35.9672
  81   2.0000      -1.306431       -35.5498
  82   2.0000      -1.297443       -35.3052
  83   2.0000      -1.122609       -30.5478
  84   2.0000      -1.056621       -28.7521
  85   2.0000      -1.025867       -27.9153
  86   2.0000      -1.014299       -27.6005
  87   2.0000      -0.997270       -27.1371
  88   2.0000      -0.991141       -26.9703
  89   2.0000      -0.989760       -26.9327
  90   2.0000      -0.986079       -26.8326
  91   2.0000      -0.973483       -26.4898
  92   2.0000      -0.972469       -26.4622
  93   2.0000      -0.964574       -26.2474
  94   2.0000      -0.962506       -26.1911
  95   2.0000      -0.944953       -25.7135
  96   2.0000      -0.928577       -25.2679
  97   2.0000      -0.927967       -25.2513
  98   2.0000      -0.917904       -24.9774
  99   2.0000      -0.902409       -24.5558
 100   2.0000      -0.893951       -24.3257
 101   2.0000      -0.884153       -24.0590
 102   2.0000      -0.881277       -23.9808
 103   2.0000      -0.873511       -23.7694
 104   2.0000      -0.865911       -23.5626
 105   2.0000      -0.860500       -23.4154
 106   2.0000      -0.851607       -23.1734
 107   2.0000      -0.846951       -23.0467
 108   2.0000      -0.836954       -22.7747
 109   2.0000      -0.832055       -22.6414
 110   2.0000      -0.826757       -22.4972
 111   2.0000      -0.822907       -22.3924
 112   2.0000      -0.813741       -22.1430
 113   2.0000      -0.804793       -21.8995
 114   2.0000      -0.802747       -21.8439
 115   2.0000      -0.791710       -21.5435
 116   2.0000      -0.774720       -21.0812
 117   2.0000      -0.764631       -20.8067
 118   2.0000      -0.756597       -20.5880
 119   2.0000      -0.752427       -20.4746
 120   2.0000      -0.735476       -20.0133
 121   2.0000      -0.731301       -19.8997
 122   2.0000      -0.715765       -19.4770
 123   2.0000      -0.709946       -19.3186
 124   2.0000      -0.707568       -19.2539
 125   2.0000      -0.705030       -19.1849
 126   2.0000      -0.693759       -18.8781
 127   2.0000      -0.686137       -18.6707
 128   2.0000      -0.679650       -18.4942
 129   2.0000      -0.677413       -18.4333
 130   2.0000      -0.672447       -18.2982
 131   2.0000      -0.667528       -18.1644
 132   2.0000      -0.652108       -17.7448
 133   2.0000      -0.651187       -17.7197
 134   2.0000      -0.643823       -17.5193
 135   2.0000      -0.631853       -17.1936
 136   2.0000      -0.629054       -17.1174
 137   2.0000      -0.626999       -17.0615
 138   2.0000      -0.624427       -16.9915
 139   2.0000      -0.623107       -16.9556
 140   2.0000      -0.622394       -16.9362
 141   2.0000      -0.613908       -16.7053
 142   2.0000      -0.611299       -16.6343
 143   2.0000      -0.608932       -16.5699
 144   2.0000      -0.600440       -16.3388
 145   2.0000      -0.592028       -16.1099
 146   2.0000      -0.588100       -16.0030
 147   2.0000      -0.587275       -15.9806
 148   2.0000      -0.586757       -15.9665
 149   2.0000      -0.579762       -15.7761
 150   2.0000      -0.578970       -15.7546
 151   2.0000      -0.564369       -15.3573
 152   2.0000      -0.564102       -15.3500
 153   2.0000      -0.560525       -15.2527
 154   2.0000      -0.556131       -15.1331
 155   2.0000      -0.555289       -15.1102
 156   2.0000      -0.551658       -15.0114
 157   2.0000      -0.551134       -14.9971
 158   2.0000      -0.548002       -14.9119
 159   2.0000      -0.546724       -14.8771
 160   2.0000      -0.541226       -14.7275
 161   2.0000      -0.533750       -14.5241
 162   2.0000      -0.531405       -14.4603
 163   2.0000      -0.529310       -14.4033
 164   2.0000      -0.524233       -14.2651
 165   2.0000      -0.522938       -14.2299
 166   2.0000      -0.520639       -14.1673
 167   2.0000      -0.519687       -14.1414
 168   2.0000      -0.519103       -14.1255
 169   2.0000      -0.515441       -14.0259
 170   2.0000      -0.511435       -13.9168
 171   2.0000      -0.509395       -13.8613
 172   2.0000      -0.505830       -13.7643
 173   2.0000      -0.501401       -13.6438
 174   2.0000      -0.496494       -13.5103
 175   2.0000      -0.495084       -13.4719
 176   2.0000      -0.494477       -13.4554
 177   2.0000      -0.490660       -13.3515
 178   2.0000      -0.488806       -13.3011
 179   2.0000      -0.488755       -13.2997
 180   2.0000      -0.487320       -13.2606
 181   2.0000      -0.484587       -13.1863
 182   2.0000      -0.483076       -13.1452
 183   2.0000      -0.478360       -13.0168
 184   2.0000      -0.474488       -12.9115
 185   2.0000      -0.473059       -12.8726
 186   2.0000      -0.471759       -12.8372
 187   2.0000      -0.468419       -12.7463
 188   2.0000      -0.464243       -12.6327
 189   2.0000      -0.461596       -12.5607
 190   2.0000      -0.458435       -12.4746
 191   2.0000      -0.453934       -12.3522
 192   2.0000      -0.452167       -12.3041
 193   2.0000      -0.451646       -12.2899
 194   2.0000      -0.449139       -12.2217
 195   2.0000      -0.445248       -12.1158
 196   2.0000      -0.444596       -12.0981
 197   2.0000      -0.442547       -12.0423
 198   2.0000      -0.441643       -12.0177
 199   2.0000      -0.440041       -11.9741
 200   2.0000      -0.435404       -11.8480
 201   2.0000      -0.434480       -11.8228
 202   2.0000      -0.434230       -11.8160
 203   2.0000      -0.431152       -11.7322
 204   2.0000      -0.424320       -11.5463
 205   2.0000      -0.423929       -11.5357
 206   2.0000      -0.422043       -11.4844
 207   2.0000      -0.417467       -11.3598
 208   2.0000      -0.415114       -11.2958
 209   2.0000      -0.414465       -11.2782
 210   2.0000      -0.406041       -11.0489
 211   2.0000      -0.405519       -11.0347
 212   2.0000      -0.403363       -10.9761
 213   2.0000      -0.395853       -10.7717
 214   2.0000      -0.392893       -10.6912
 215   2.0000      -0.389193       -10.5905
 216   2.0000      -0.382347       -10.4042
 217   2.0000      -0.380491       -10.3537
 218   2.0000      -0.375019       -10.2048
 219   2.0000      -0.356161        -9.6916
 220   2.0000      -0.346284        -9.4229
 221   2.0000      -0.345290        -9.3958
 222   2.0000      -0.331625        -9.0240
 223   2.0000      -0.331433        -9.0187
 224   2.0000      -0.327519        -8.9122
 225   2.0000      -0.323136        -8.7930
 226   2.0000      -0.317216        -8.6319
 227   2.0000      -0.309682        -8.4269
 228   2.0000      -0.304077        -8.2743
 229   2.0000      -0.295555        -8.0425
 230   2.0000      -0.282872        -7.6973
 231   2.0000      -0.262835        -7.1521
 232   2.0000      -0.253811        -6.9066
 233   2.0000      -0.200865        -5.4658
 234   0.0000      -0.110654        -3.0111
 235   0.0000      -0.066345        -1.8053
 236   0.0000      -0.060368        -1.6427
 237   0.0000      -0.043357        -1.1798
 238   0.0000      -0.016793        -0.4570

MULLIKEN ATOMIC CHARGES
-----------------------
   0 C :   -0.097366
   1 C :    0.303778
   2 F :   -0.192318
   3 C :   -0.032659
   4 C :   -0.009348
   5 C :    0.099500
   6 C :    0.101521
   7 C :   -0.089595
   8 C :    0.043658
   9 C :    0.009535
  10 C :   -0.081100
  11 C :    0.142768
  12 O :   -0.152544
  13 C :   -0.150359
  14 C :    0.255857
  15 C :   -0.341352
  16 C :   -0.226104
  17 N :    0.172045
  18 C :   -0.169094
  19 N :    0.141045
  20 C :    0.018380
  21 C :   -0.109857
  22 S :    0.165446
  23 C :   -0.056686
  24 C :    0.116497
  25 C :    0.165905
  26 C :   -0.110964
  27 C :    0.241217
  28 F :   -0.169528
  29 C :    0.225067
  30 F :   -0.176099
  31 C :   -0.105844
  32 C :   -0.002058
  33 C :    0.017208
  34 C :    0.001603
  35 C :   -0.201796
  36 C :    0.080567
  37 C :    0.218437
  38 N :   -0.146221
  39 C :    0.047477
  40 C :   -0.023184
  41 C :   -0.007995
  42 C :   -0.041031
  43 C :    0.049303
  44 C :    0.010212
  45 C :   -0.034386
  46 S :    0.064014
  47 C :   -0.054968
  48 C :    0.036026
  49 C :    0.018879
  50 C :   -0.012359
  51 S :    0.050734
  52 C :    0.016870
  53 C :   -0.072549
  54 C :   -0.044465
  55 C :    0.121804
  56 C :   -0.028780
  57 C :   -0.094253
  58 C :    0.029135
  59 C :    0.000738
  60 C :   -0.050747
  61 S :    0.107052
  62 C :   -0.143692
  63 N :    0.086486
  64 H :   -0.005421
  65 H :    0.003820
  66 H :   -0.010090
  67 H :   -0.007814
  68 H :   -0.013145
  69 H :    0.017455
  70 H :    0.004692
  71 H :   -0.007191
  72 H :   -0.008365
  73 H :    0.007623
  74 H :   -0.022548
  75 H :    0.043370
  76 H :    0.021627
  77 H :    0.049789
  78 H :    0.012852
  79 H :    0.032277
  80 H :    0.124048
  81 H :    0.007536
  82 H :   -0.012174
  83 H :   -0.020645
  84 H :   -0.017233
  85 H :   -0.017913
  86 H :   -0.016776
  87 H :   -0.016226
  88 H :   -0.022312
  89 H :   -0.012934
  90 H :   -0.016491
  91 H :   -0.008691
  92 H :   -0.018589
Sum of atomic charges:    0.0000000

LOEWDIN ATOMIC CHARGES
----------------------
   0 C :   -0.043111
   1 C :    0.092805
   2 F :   -0.067019
   3 C :   -0.038365
   4 C :    0.004441
   5 C :   -0.019385
   6 C :    0.002563
   7 C :    0.006770
   8 C :   -0.015745
   9 C :   -0.057413
  10 C :    0.032298
  11 C :    0.080754
  12 O :   -0.154511
  13 C :   -0.113177
  14 C :    0.061196
  15 C :   -0.161148
  16 C :   -0.041900
  17 N :   -0.056106
  18 C :   -0.020707
  19 N :   -0.064081
  20 C :    0.046894
  21 C :   -0.192996
  22 S :    0.526305
  23 C :   -0.126481
  24 C :   -0.051367
  25 C :   -0.009553
  26 C :   -0.037679
  27 C :    0.077942
  28 F :   -0.046965
  29 C :    0.060576
  30 F :   -0.054056
  31 C :   -0.029783
  32 C :   -0.048107
  33 C :    0.007749
  34 C :   -0.055409
  35 C :   -0.018670
  36 C :   -0.054559
  37 C :    0.046486
  38 N :    0.004437
  39 C :    0.044555
  40 C :   -0.121052
  41 C :   -0.027412
  42 C :   -0.178624
  43 C :   -0.020463
  44 C :   -0.052741
  45 C :   -0.158911
  46 S :    0.357925
  47 C :   -0.203184
  48 C :   -0.027695
  49 C :   -0.049281
  50 C :   -0.128003
  51 S :    0.375202
  52 C :   -0.107040
  53 C :   -0.140108
  54 C :   -0.081803
  55 C :   -0.040230
  56 C :    0.010137
  57 C :   -0.078640
  58 C :   -0.006109
  59 C :   -0.035838
  60 C :   -0.147706
  61 S :    0.397008
  62 C :   -0.028082
  63 N :   -0.072197
  64 H :    0.042036
  65 H :    0.041741
  66 H :    0.035381
  67 H :    0.037854
  68 H :    0.039192
  69 H :    0.048226
  70 H :    0.045962
  71 H :    0.041736
  72 H :    0.034826
  73 H :    0.024247
  74 H :    0.027190
  75 H :    0.042120
  76 H :    0.034053
  77 H :    0.047782
  78 H :    0.029109
  79 H :    0.037863
  80 H :    0.083009
  81 H :    0.028095
  82 H :    0.020084
  83 H :    0.031453
  84 H :    0.032005
  85 H :    0.029691
  86 H :    0.030731
  87 H :    0.031199
  88 H :    0.029600
  89 H :    0.016409
  90 H :    0.036830
  91 H :    0.036380
  92 H :    0.032566

  Mayer bond orders larger than 0.100000
B(  0-C ,  1-C ) :   1.4400 B(  0-C ,  6-C ) :   1.2042 B(  0-C , 64-H ) :   1.0064
B(  1-C ,  2-F ) :   1.0869 B(  1-C ,  3-C ) :   1.2569 B(  3-C ,  4-C ) :   1.4578
B(  3-C , 65-H ) :   0.9936 B(  4-C ,  5-C ) :   1.2376 B(  4-C , 66-H ) :   0.9969
B(  5-C ,  6-C ) :   1.2592 B(  5-C , 10-C ) :   1.1860 B(  6-C ,  7-C ) :   1.1981
B(  7-C ,  8-C ) :   1.4683 B(  7-C , 67-H ) :   0.9946 B(  8-C ,  9-C ) :   1.2149
B(  8-C , 14-C ) :   1.0019 B(  9-C , 10-C ) :   1.4810 B(  9-C , 11-C ) :   0.9211
B( 10-C , 68-H ) :   1.0150 B( 11-C , 12-O ) :   2.2493 B( 11-C , 13-C ) :   0.9581
B( 13-C , 14-C ) :   1.0702 B( 13-C , 20-C ) :   1.5497 B( 14-C , 15-C ) :   1.6098
B( 15-C , 16-C ) :   1.1592 B( 15-C , 18-C ) :   1.1408 B( 16-C , 17-N ) :   3.0278
B( 18-C , 19-N ) :   2.9795 B( 20-C , 21-C ) :   1.2574 B( 20-C , 69-H ) :   0.9357
B( 21-C , 22-S ) :   1.1020 B( 21-C , 25-C ) :   1.2687 B( 22-S , 23-C ) :   1.1983
B( 23-C , 24-C ) :   1.2866 B( 23-C , 32-C ) :   1.1748 B( 24-C , 25-C ) :   1.2342
B( 24-C , 31-C ) :   1.1712 B( 25-C , 26-C ) :   1.1979 B( 26-C , 27-C ) :   1.4741
B( 26-C , 31-C ) :   0.1112 B( 26-C , 70-H ) :   0.9974 B( 27-C , 28-F ) :   1.1367
B( 27-C , 29-C ) :   1.1680 B( 29-C , 30-F ) :   1.1296 B( 29-C , 31-C ) :   1.4954
B( 31-C , 71-H ) :   0.9980 B( 32-C , 33-C ) :   1.6365 B( 32-C , 72-H ) :   0.9757
B( 33-C , 34-C ) :   1.1327 B( 33-C , 73-H ) :   0.9659 B( 34-C , 35-C ) :   1.7327
B( 34-C , 74-H ) :   0.9807 B( 35-C , 36-C ) :   1.0673 B( 35-C , 37-C ) :   1.0457
B( 36-C , 75-H ) :   0.9448 B( 36-C , 76-H ) :   0.9489 B( 36-C , 77-H ) :   0.9424
B( 37-C , 38-N ) :   1.0043 B( 37-C , 78-H ) :   0.9414 B( 37-C , 79-H ) :   0.9256
B( 38-N , 39-C ) :   1.2302 B( 38-N , 80-H ) :   0.9381 B( 39-C , 40-C ) :   1.5872
B( 39-C , 81-H ) :   0.9631 B( 40-C , 41-C ) :   1.1771 B( 40-C , 82-H ) :   0.9640
B( 41-C , 42-C ) :   1.5813 B( 41-C , 83-H ) :   0.9784 B( 42-C , 43-C ) :   1.1490
B( 42-C , 46-S ) :   1.0068 B( 43-C , 44-C ) :   1.5888 B( 43-C , 84-H ) :   0.9976
B( 44-C , 45-C ) :   1.1872 B( 44-C , 85-H ) :   0.9936 B( 45-C , 46-S ) :   1.0604
B( 45-C , 47-C ) :   1.5093 B( 47-C , 48-C ) :   1.1919 B( 47-C , 51-S ) :   1.0188
B( 48-C , 49-C ) :   1.5884 B( 48-C , 86-H ) :   0.9920 B( 49-C , 50-C ) :   1.1434
B( 49-C , 87-H ) :   0.9991 B( 50-C , 51-S ) :   1.0521 B( 50-C , 52-C ) :   1.6085
B( 52-C , 53-C ) :   1.1488 B( 52-C , 88-H ) :   0.9506 B( 53-C , 54-C ) :   1.5330
B( 53-C , 61-S ) :   1.0663 B( 54-C , 55-C ) :   1.1715 B( 54-C , 89-H ) :   0.9818
B( 55-C , 56-C ) :   1.2805 B( 55-C , 60-C ) :   1.3044 B( 56-C , 57-C ) :   1.4111
B( 56-C , 90-H ) :   1.0012 B( 57-C , 58-C ) :   1.3253 B( 57-C , 62-C ) :   1.0605
B( 58-C , 59-C ) :   1.4243 B( 58-C , 91-H ) :   0.9914 B( 59-C , 60-C ) :   1.3443
B( 59-C , 92-H ) :   0.9959 B( 60-C , 61-S ) :   1.0682 B( 62-C , 63-N ) :   3.0512

-----------------------------------------------------------------------------
         ABSORPTION SPECTRUM VIA TRANSITION ELECTRIC DIPOLE MOMENTS
-----------------------------------------------------------------------------
State   Energy  Wavelength   fosc         T2         TX        TY        TZ
        (cm-1)    (nm)                  (au**2)     (au)      (au)      (au)
-----------------------------------------------------------------------------
   0   10296.9    971.2   0.118273952   3.78146  -1.58025  -1.09145  -0.30499
   1   14880.1    672.0   0.488708457  10.81231   1.46312   2.63580  -1.31308
   2   16258.8    615.1   1.301135498  26.34564   1.00386   2.67093   4.26662
   3   21647.9    461.9   0.049756364   0.75667  -0.68393   0.51910   0.13944
   4   23500.8    425.5   0.042943997   0.60158  -0.62573   0.45815   0.01173
   5   24016.2    416.4   0.043953906   0.60252  -0.63051   0.09611  -0.44242
   6   25555.1    391.3   0.066486659   0.85651  -0.78711   0.11019   0.47416
   7   25699.9    389.1   0.012008502   0.15383  -0.30464  -0.06322  -0.23879
   8   26473.3    377.7   0.045686499   0.56814  -0.43160  -0.07998   0.61275
   9   26711.2    374.4   0.315308171   3.88613   1.64873  -0.44284  -0.98576
  10   28218.3    354.4   0.071316612   0.83202  -0.49398   0.17578   0.74640
  11   28561.0    350.1   0.044353543   0.51125  -0.46928   0.00566  -0.53944
  12   29288.1    341.4   0.161956978   1.82047  -1.27761   0.43118   0.04776
  13   29702.5    336.7   1.274347245  14.12443  -2.93507   1.76626  -1.54600
  14   29968.6    333.7   0.051365129   0.56426  -0.39475  -0.15410  -0.62023
  15   30076.9    332.5   0.109133899   1.19454   0.88831  -0.26293   0.57993
  16   30373.3    329.2   0.138756925   1.50397   1.01380  -0.46672   0.50827
  17   30850.0    324.1   0.033734298   0.35999   0.20565  -0.56083   0.05634
  18   32000.5    312.5   0.019142897   0.19694  -0.08916  -0.19076   0.39064
  19   32424.2    308.4   0.159574302   1.62020  -0.11320  -0.13447  -1.26068
  20   32777.4    305.1   0.042542745   0.42729   0.26388   0.36416   0.47439
  21   32967.3    303.3   0.000391604   0.00391   0.04406  -0.03439  -0.02805
  22   33264.4    300.6   0.005133926   0.05081   0.04721  -0.20300  -0.08585
  23   33600.7    297.6   0.467190607   4.57743  -0.67123   0.27136  -2.01327
  24   33691.4    296.8   0.079252910   0.77441  -0.56331   0.27044  -0.61964
  25   33879.4    295.2   0.068854244   0.66907   0.62193  -0.09441   0.52284
  26   34211.4    292.3   0.011152435   0.10732   0.19674  -0.13759   0.22289
  27   35149.2    284.5   0.315575505   2.95572   1.69676  -0.25447   0.10948
  28   35203.1    284.1   0.027466913   0.25686   0.50613  -0.00606   0.02563
  29   35419.9    282.3   0.024987773   0.23225   0.23017   0.39564   0.15082
  30   36415.5    274.6   0.277397080   2.50779  -0.39540  -0.02035  -1.53331
  31   36747.6    272.1   0.007719156   0.06915   0.05675  -0.23600  -0.10118
  32   37382.6    267.5   0.013773333   0.12130   0.07947   0.26064   0.21690
  33   37401.2    267.4   0.123686973   1.08871  -0.81080   0.60441   0.25692
  34   38539.7    259.5   0.293227800   2.50480   1.16931  -0.41133  -0.98403
  35   39472.7    253.3   0.010516895   0.08771   0.13709   0.12362   0.23160
  36   39778.0    251.4   0.009008640   0.07456  -0.12756   0.24098   0.01464
  37   40078.5    249.5   0.185311181   1.52218   0.71707  -0.23889   0.97515

FINAL SINGLE POINT ENERGY     -4181.672993224993

DIPOLE MOMENT
-------------
                                X             Y             Z
Electronic contribution:    -52.02243      -5.42828       6.66421
Nuclear contribution   :     53.33867       4.08104      -7.84446
                        -----------------------------------------
Total Dipole Moment    :      1.31625      -1.34724      -1.18025
                        -----------------------------------------
Magnitude (a.u.)       :      2.22274
Magnitude (Debye)      :      5.64975

Rotational constants in cm-1:     0.000961     0.000336     0.000316
Rotational constants in MHz :    28.809454    10.069994     9.459812

                             ****ORCA TERMINATED NORMALLY****
TOTAL RUN TIME: 0 days 0 hours 7 minutes 27 seconds 559 msec
