                         Program Version 4.2.0 -  RELEASE  -
|  1> # ORCA input file
|  2> # SCF done       -178.576936484361          0.000415757428
|  3> ! CAM-B3LYP def2-SVP def2/J RIJCOSX Grid4 TightSCF
|  4> %maxcore 5000
|  5> %tddft
|  6>     Mode sTDDFT
|  7>     Ethresh 5.0
|  8>     maxcore 5000
|  9> end
| 10>
| 11> %pal
| 12>   nprocs 6
| 13>   end
| 14> * xyz 0 1
| 15>    C       -7.75205        -0.07345         3.99686
| 16>    C       -6.85024        -1.04493         3.63006
| 17>    C       -6.61741        -2.22654         4.36121
| 18>    N       -6.37814        -3.20829         4.90779
| 19>    C       -6.02407        -1.01133         2.48976
| 20>    N       -5.31489        -1.06286         1.58640
| 21>    C       -8.59045        -0.11897         5.19282
| 22>    C       -9.36185         1.06634         5.25140
| 23>    C      -10.25258         1.32277         6.26384
| 24>    C      -10.39242         0.36027         7.26976
| 25>    C       -9.61963        -0.82176         7.20245
| 26>    C       -8.71662        -1.08003         6.17799
| 27>    S       -9.94998        -1.87855         8.54299
| 28>    C      -11.10525        -0.73097         9.16630
| 29>    C      -11.23925         0.38501         8.41204
| 30>   Br      -12.02855        -1.11654        10.75353
| 31>    C       -9.04470         1.91420         4.08164
| 32>    O       -9.53023         3.00043         3.83581
| 33>    C       -8.03804         1.16149         3.30582
| 34>    C       -7.49030         1.58142         2.11591
| 35>    C       -7.78484         2.78989         1.47248
| 36>    C       -7.20006         3.12953         0.28127
| 37>    C       -7.44922         4.32674        -0.40554
| 38>    O       -8.30924         5.25619         0.09175
| 39>    C       -8.35014         6.29931        -0.76931
| 40>    C       -7.49974         6.04754        -1.85319
| 41>    C       -6.92290         4.78825        -1.62315
| 42>    O       -6.04182         4.17455        -2.43177
| 43>    O       -7.25589         6.83591        -2.92244
| 44>    C       -9.15586         7.42997        -0.50834
| 45>    C       -9.91492         7.56791         0.61643
| 46>    C      -10.72244         8.67856         0.95427
| 47>    C      -10.95713         9.76879         0.16975
| 48>    C      -11.72129        10.88872         0.55623
| 49>    S      -12.37416        11.01314         2.16608
| 50>    C      -12.97342        12.58583         1.82910
| 51>    C      -12.69742        13.02734         0.57367
| 52>    C      -13.17313        14.35716         0.09169
| 53>    C      -11.98001        12.05152        -0.19223
| 54>    C      -11.59542        12.15588        -1.56108
| 55>    C      -11.39385        13.30286        -2.26676
| 56>    C      -11.00936        13.38654        -3.62456
| 57>    C      -10.99297        12.36642        -4.54243
| 58>    C      -10.56340        12.44224        -5.87611
| 59>    C       -9.95852        13.49427        -6.53520
| 60>    C       -9.54357        13.49099        -7.88969
| 61>    C       -8.94219        14.64493        -8.30627
| 62>    C       -8.85090        15.62337        -7.29817
| 63>    S       -9.54917        15.03240        -5.81129
| 64>    C       -8.33256        16.90827        -7.31017
| 65>    C       -7.72396        17.65963        -8.33415
| 66>    C       -7.34876        18.91193        -7.94164
| 67>    C       -7.64465        19.21512        -6.58689
| 68>    S       -8.41496        17.83823        -5.83412
| 69>    C       -7.36841        20.39440        -5.93937
| 70>    C       -7.65954        20.72350        -4.60071
| 71>    S       -7.11756        22.27187        -3.96049
| 72>    C       -7.76625        22.00824        -2.39043
| 73>    C       -8.38534        20.78261        -2.33378
| 74>    C       -8.32400        20.06936        -3.57383
| 75>    O       -8.96030        18.88399        -3.46198
| 76>    C       -9.41424        18.82349        -2.18421
| 77>    N      -10.12207        17.66613        -1.80318
| 78>    O      -10.52216        17.61797        -0.65100
| 79>    O      -10.29350        16.79317        -2.63092
| 80>    C       -9.10357        19.93638        -1.44558
| 81>    H      -10.82520         2.23686         6.27942
| 82>    H       -8.15261        -1.99748         6.17330
| 83>    H      -11.90686         1.19326         8.64868
| 84>    H       -6.77523         0.93384         1.62492
| 85>    H       -8.48878         3.46961         1.92656
| 86>    H       -6.49625         2.44234        -0.17381
| 87>    H       -5.78211         3.32230        -2.06097
| 88>    H       -7.74700         7.66152        -2.84010
| 89>    H       -9.13020         8.21205        -1.25461
| 90>    H       -9.88151         6.75758         1.33125
| 91>    H      -11.18781         8.65196         1.93108
| 92>    H      -10.52222         9.80929        -0.81837
| 93>    H      -13.51523        13.10752         2.59405
| 94>    H      -13.93944        14.73875         0.76284
| 95>    H      -13.58909        14.27637        -0.91044
| 96>    H      -12.35708        15.07916         0.07292
| 97>    H      -11.41813        11.21489        -2.06440
| 98>    H      -11.45238        14.25102        -1.75789
| 99>    H      -10.73134        14.38076        -3.93936
|100>    H      -11.36557        11.39669        -4.23651
|101>    H      -10.70230        11.55059        -6.47629
|102>    H       -9.70168        12.63297        -8.51994
|103>    H       -8.56673        14.81038        -9.30039
|104>    H       -7.57933        17.26497        -9.32424
|105>    H       -6.87007        19.63159        -8.58222
|106>    H       -6.86157        21.16163        -6.50880
|107>    H       -7.65543        22.75157        -1.62971
|108>    H       -9.36010        20.10682        -0.42079
|109> *
|110>
|111>                          ****END OF INPUT****

CARTESIAN COORDINATES (ANGSTROEM)
---------------------------------
  C     -7.752050   -0.073450    3.996860
  C     -6.850240   -1.044930    3.630060
  C     -6.617410   -2.226540    4.361210
  N     -6.378140   -3.208290    4.907790
  C     -6.024070   -1.011330    2.489760
  N     -5.314890   -1.062860    1.586400
  C     -8.590450   -0.118970    5.192820
  C     -9.361850    1.066340    5.251400
  C    -10.252580    1.322770    6.263840
  C    -10.392420    0.360270    7.269760
  C     -9.619630   -0.821760    7.202450
  C     -8.716620   -1.080030    6.177990
  S     -9.949980   -1.878550    8.542990
  C    -11.105250   -0.730970    9.166300
  C    -11.239250    0.385010    8.412040
  Br   -12.028550   -1.116540   10.753530
  C     -9.044700    1.914200    4.081640
  O     -9.530230    3.000430    3.835810
  C     -8.038040    1.161490    3.305820
  C     -7.490300    1.581420    2.115910
  C     -7.784840    2.789890    1.472480
  C     -7.200060    3.129530    0.281270
  C     -7.449220    4.326740   -0.405540
  O     -8.309240    5.256190    0.091750
  C     -8.350140    6.299310   -0.769310
  C     -7.499740    6.047540   -1.853190
  C     -6.922900    4.788250   -1.623150
  O     -6.041820    4.174550   -2.431770
  O     -7.255890    6.835910   -2.922440
  C     -9.155860    7.429970   -0.508340
  C     -9.914920    7.567910    0.616430
  C    -10.722440    8.678560    0.954270
  C    -10.957130    9.768790    0.169750
  C    -11.721290   10.888720    0.556230
  S    -12.374160   11.013140    2.166080
  C    -12.973420   12.585830    1.829100
  C    -12.697420   13.027340    0.573670
  C    -13.173130   14.357160    0.091690
  C    -11.980010   12.051520   -0.192230
  C    -11.595420   12.155880   -1.561080
  C    -11.393850   13.302860   -2.266760
  C    -11.009360   13.386540   -3.624560
  C    -10.992970   12.366420   -4.542430
  C    -10.563400   12.442240   -5.876110
  C     -9.958520   13.494270   -6.535200
  C     -9.543570   13.490990   -7.889690
  C     -8.942190   14.644930   -8.306270
  C     -8.850900   15.623370   -7.298170
  S     -9.549170   15.032400   -5.811290
  C     -8.332560   16.908270   -7.310170
  C     -7.723960   17.659630   -8.334150
  C     -7.348760   18.911930   -7.941640
  C     -7.644650   19.215120   -6.586890
  S     -8.414960   17.838230   -5.834120
  C     -7.368410   20.394400   -5.939370
  C     -7.659540   20.723500   -4.600710
  S     -7.117560   22.271870   -3.960490
  C     -7.766250   22.008240   -2.390430
  C     -8.385340   20.782610   -2.333780
  C     -8.324000   20.069360   -3.573830
  O     -8.960300   18.883990   -3.461980
  C     -9.414240   18.823490   -2.184210
  N    -10.122070   17.666130   -1.803180
  O    -10.522160   17.617970   -0.651000
  O    -10.293500   16.793170   -2.630920
  C     -9.103570   19.936380   -1.445580
  H    -10.825200    2.236860    6.279420
  H     -8.152610   -1.997480    6.173300
  H    -11.906860    1.193260    8.648680
  H     -6.775230    0.933840    1.624920
  H     -8.488780    3.469610    1.926560
  H     -6.496250    2.442340   -0.173810
  H     -5.782110    3.322300   -2.060970
  H     -7.747000    7.661520   -2.840100
  H     -9.130200    8.212050   -1.254610
  H     -9.881510    6.757580    1.331250
  H    -11.187810    8.651960    1.931080
  H    -10.522220    9.809290   -0.818370
  H    -13.515230   13.107520    2.594050
  H    -13.939440   14.738750    0.762840
  H    -13.589090   14.276370   -0.910440
  H    -12.357080   15.079160    0.072920
  H    -11.418130   11.214890   -2.064400
  H    -11.452380   14.251020   -1.757890
  H    -10.731340   14.380760   -3.939360
  H    -11.365570   11.396690   -4.236510
  H    -10.702300   11.550590   -6.476290
  H     -9.701680   12.632970   -8.519940
  H     -8.566730   14.810380   -9.300390
  H     -7.579330   17.264970   -9.324240
  H     -6.870070   19.631590   -8.582220
  H     -6.861570   21.161630   -6.508800
  H     -7.655430   22.751570   -1.629710
  H     -9.360100   20.106820   -0.420790

 Total Charge           Charge          ....    0
 Multiplicity           Mult            ....    1
 Number of Electrons    NEL             ....  520
 Basis Dimension        Dim             .... 1102

ORBITAL ENERGIES
----------------

  NO   OCC          E(Eh)            E(eV)
   0   2.0000    -482.877442    -13139.7632
   1   2.0000     -88.978810     -2421.2365
   2   2.0000     -88.965153     -2420.8649
   3   2.0000     -88.946686     -2420.3624
   4   2.0000     -88.942258     -2420.2419
   5   2.0000     -88.939230     -2420.1595
   6   2.0000     -62.555145     -1702.2120
   7   2.0000     -56.389087     -1534.4251
   8   2.0000     -56.386389     -1534.3516
   9   2.0000     -56.386352     -1534.3507
  10   2.0000     -19.312982      -525.5329
  11   2.0000     -19.292028      -524.9628
  12   2.0000     -19.270514      -524.3773
  13   2.0000     -19.260848      -524.1143
  14   2.0000     -19.256786      -524.0038
  15   2.0000     -19.253719      -523.9203
  16   2.0000     -19.200037      -522.4596
  17   2.0000     -14.666254      -399.0891
  18   2.0000     -14.402639      -391.9157
  19   2.0000     -14.399582      -391.8326
  20   2.0000     -10.395087      -282.8647
  21   2.0000     -10.354110      -281.7496
  22   2.0000     -10.352254      -281.6992
  23   2.0000     -10.350592      -281.6539
  24   2.0000     -10.348963      -281.6096
  25   2.0000     -10.344854      -281.4978
  26   2.0000     -10.342243      -281.4267
  27   2.0000     -10.335624      -281.2466
  28   2.0000     -10.325734      -280.9775
  29   2.0000     -10.324178      -280.9352
  30   2.0000     -10.323580      -280.9189
  31   2.0000     -10.319785      -280.8156
  32   2.0000     -10.315877      -280.7093
  33   2.0000     -10.313686      -280.6497
  34   2.0000     -10.312164      -280.6082
  35   2.0000     -10.308127      -280.4984
  36   2.0000     -10.306800      -280.4623
  37   2.0000     -10.306715      -280.4600
  38   2.0000     -10.305962      -280.4395
  39   2.0000     -10.304125      -280.3895
  40   2.0000     -10.303755      -280.3794
  41   2.0000     -10.302270      -280.3390
  42   2.0000     -10.298332      -280.2319
  43   2.0000     -10.295796      -280.1628
  44   2.0000     -10.295689      -280.1599
  45   2.0000     -10.294434      -280.1258
  46   2.0000     -10.292593      -280.0757
  47   2.0000     -10.291669      -280.0506
  48   2.0000     -10.289542      -279.9927
  49   2.0000     -10.288289      -279.9586
  50   2.0000     -10.288214      -279.9565
  51   2.0000     -10.287056      -279.9250
  52   2.0000     -10.286208      -279.9020
  53   2.0000     -10.285907      -279.8938
  54   2.0000     -10.285342      -279.8784
  55   2.0000     -10.284626      -279.8589
  56   2.0000     -10.284549      -279.8568
  57   2.0000     -10.284038      -279.8429
  58   2.0000     -10.279192      -279.7110
  59   2.0000     -10.278139      -279.6824
  60   2.0000     -10.277664      -279.6695
  61   2.0000     -10.276395      -279.6349
  62   2.0000     -10.274302      -279.5780
  63   2.0000     -10.273876      -279.5664
  64   2.0000     -10.272059      -279.5169
  65   2.0000     -10.270215      -279.4668
  66   2.0000     -10.269842      -279.4566
  67   2.0000     -10.266306      -279.3604
  68   2.0000     -10.265800      -279.3466
  69   2.0000     -10.258165      -279.1389
  70   2.0000      -8.784559      -239.0400
  71   2.0000      -8.073758      -219.6981
  72   2.0000      -8.061149      -219.3550
  73   2.0000      -8.042748      -218.8543
  74   2.0000      -8.038087      -218.7275
  75   2.0000      -8.035800      -218.6652
  76   2.0000      -6.620820      -180.1617
  77   2.0000      -6.606312      -179.7669
  78   2.0000      -6.606124      -179.7618
  79   2.0000      -6.043075      -164.4404
  80   2.0000      -6.038810      -164.3244
  81   2.0000      -6.036072      -164.2499
  82   2.0000      -6.030835      -164.1074
  83   2.0000      -6.026587      -163.9918
  84   2.0000      -6.022359      -163.8767
  85   2.0000      -6.011969      -163.5940
  86   2.0000      -6.007838      -163.4816
  87   2.0000      -6.007790      -163.4803
  88   2.0000      -6.005562      -163.4197
  89   2.0000      -6.004959      -163.4032
  90   2.0000      -6.003564      -163.3653
  91   2.0000      -6.001348      -163.3050
  92   2.0000      -5.999245      -163.2478
  93   2.0000      -5.996519      -163.1736
  94   2.0000      -2.736689       -74.4691
  95   2.0000      -2.732611       -74.3581
  96   2.0000      -2.732506       -74.3553
  97   2.0000      -2.720962       -74.0411
  98   2.0000      -2.720943       -74.0406
  99   2.0000      -1.336308       -36.3628
 100   2.0000      -1.236065       -33.6351
 101   2.0000      -1.214788       -33.0561
 102   2.0000      -1.165806       -31.7232
 103   2.0000      -1.151157       -31.3246
 104   2.0000      -1.150338       -31.3023
 105   2.0000      -1.113910       -30.3110
 106   2.0000      -1.010164       -27.4880
 107   2.0000      -1.001016       -27.2390
 108   2.0000      -1.000372       -27.2215
 109   2.0000      -0.994077       -27.0502
 110   2.0000      -0.980309       -26.6756
 111   2.0000      -0.979763       -26.6607
 112   2.0000      -0.975302       -26.5393
 113   2.0000      -0.972127       -26.4529
 114   2.0000      -0.943342       -25.6697
 115   2.0000      -0.933855       -25.4115
 116   2.0000      -0.926752       -25.2182
 117   2.0000      -0.912883       -24.8408
 118   2.0000      -0.910271       -24.7697
 119   2.0000      -0.903954       -24.5978
 120   2.0000      -0.897216       -24.4145
 121   2.0000      -0.895960       -24.3803
 122   2.0000      -0.887287       -24.1443
 123   2.0000      -0.886377       -24.1195
 124   2.0000      -0.874809       -23.8048
 125   2.0000      -0.873856       -23.7788
 126   2.0000      -0.870360       -23.6837
 127   2.0000      -0.854748       -23.2589
 128   2.0000      -0.849869       -23.1261
 129   2.0000      -0.839600       -22.8467
 130   2.0000      -0.830394       -22.5962
 131   2.0000      -0.824876       -22.4460
 132   2.0000      -0.818831       -22.2815
 133   2.0000      -0.817287       -22.2395
 134   2.0000      -0.805151       -21.9093
 135   2.0000      -0.797302       -21.6957
 136   2.0000      -0.788423       -21.4541
 137   2.0000      -0.774175       -21.0664
 138   2.0000      -0.760926       -20.7058
 139   2.0000      -0.748402       -20.3650
 140   2.0000      -0.742240       -20.1974
 141   2.0000      -0.736817       -20.0498
 142   2.0000      -0.732646       -19.9363
 143   2.0000      -0.715168       -19.4607
 144   2.0000      -0.714279       -19.4365
 145   2.0000      -0.705018       -19.1845
 146   2.0000      -0.703500       -19.1432
 147   2.0000      -0.700539       -19.0626
 148   2.0000      -0.681191       -18.5361
 149   2.0000      -0.679369       -18.4866
 150   2.0000      -0.673101       -18.3160
 151   2.0000      -0.670459       -18.2441
 152   2.0000      -0.668950       -18.2031
 153   2.0000      -0.659449       -17.9445
 154   2.0000      -0.652988       -17.7687
 155   2.0000      -0.649852       -17.6834
 156   2.0000      -0.645470       -17.5641
 157   2.0000      -0.643735       -17.5169
 158   2.0000      -0.635470       -17.2920
 159   2.0000      -0.632364       -17.2075
 160   2.0000      -0.630771       -17.1641
 161   2.0000      -0.621885       -16.9223
 162   2.0000      -0.619996       -16.8709
 163   2.0000      -0.616959       -16.7883
 164   2.0000      -0.611557       -16.6413
 165   2.0000      -0.606717       -16.5096
 166   2.0000      -0.597868       -16.2688
 167   2.0000      -0.597273       -16.2526
 168   2.0000      -0.590933       -16.0801
 169   2.0000      -0.583088       -15.8666
 170   2.0000      -0.582385       -15.8475
 171   2.0000      -0.579300       -15.7636
 172   2.0000      -0.573994       -15.6192
 173   2.0000      -0.572237       -15.5713
 174   2.0000      -0.569266       -15.4905
 175   2.0000      -0.563518       -15.3341
 176   2.0000      -0.555508       -15.1161
 177   2.0000      -0.552169       -15.0253
 178   2.0000      -0.545632       -14.8474
 179   2.0000      -0.540929       -14.7194
 180   2.0000      -0.537105       -14.6154
 181   2.0000      -0.535961       -14.5843
 182   2.0000      -0.533300       -14.5118
 183   2.0000      -0.529429       -14.4065
 184   2.0000      -0.525888       -14.3101
 185   2.0000      -0.525504       -14.2997
 186   2.0000      -0.522674       -14.2227
 187   2.0000      -0.521978       -14.2037
 188   2.0000      -0.512826       -13.9547
 189   2.0000      -0.512230       -13.9385
 190   2.0000      -0.503202       -13.6928
 191   2.0000      -0.500061       -13.6074
 192   2.0000      -0.497139       -13.5278
 193   2.0000      -0.496972       -13.5233
 194   2.0000      -0.496865       -13.5204
 195   2.0000      -0.495588       -13.4856
 196   2.0000      -0.493939       -13.4408
 197   2.0000      -0.492566       -13.4034
 198   2.0000      -0.491040       -13.3619
 199   2.0000      -0.483916       -13.1680
 200   2.0000      -0.481255       -13.0956
 201   2.0000      -0.480822       -13.0838
 202   2.0000      -0.479487       -13.0475
 203   2.0000      -0.476471       -12.9654
 204   2.0000      -0.475770       -12.9464
 205   2.0000      -0.473198       -12.8764
 206   2.0000      -0.472161       -12.8482
 207   2.0000      -0.466638       -12.6979
 208   2.0000      -0.462106       -12.5745
 209   2.0000      -0.461527       -12.5588
 210   2.0000      -0.460269       -12.5245
 211   2.0000      -0.458138       -12.4666
 212   2.0000      -0.457713       -12.4550
 213   2.0000      -0.454012       -12.3543
 214   2.0000      -0.450229       -12.2514
 215   2.0000      -0.445930       -12.1344
 216   2.0000      -0.441515       -12.0142
 217   2.0000      -0.438309       -11.9270
 218   2.0000      -0.436939       -11.8897
 219   2.0000      -0.436757       -11.8848
 220   2.0000      -0.433666       -11.8006
 221   2.0000      -0.430887       -11.7250
 222   2.0000      -0.429007       -11.6739
 223   2.0000      -0.426973       -11.6185
 224   2.0000      -0.426164       -11.5965
 225   2.0000      -0.425728       -11.5847
 226   2.0000      -0.420529       -11.4432
 227   2.0000      -0.415766       -11.3136
 228   2.0000      -0.414590       -11.2816
 229   2.0000      -0.412928       -11.2363
 230   2.0000      -0.409925       -11.1546
 231   2.0000      -0.407703       -11.0942
 232   2.0000      -0.406545       -11.0627
 233   2.0000      -0.403140       -10.9700
 234   2.0000      -0.401380       -10.9221
 235   2.0000      -0.394866       -10.7449
 236   2.0000      -0.393862       -10.7175
 237   2.0000      -0.391549       -10.6546
 238   2.0000      -0.383927       -10.4472
 239   2.0000      -0.381363       -10.3774
 240   2.0000      -0.380432       -10.3521
 241   2.0000      -0.376492       -10.2449
 242   2.0000      -0.366986        -9.9862
 243   2.0000      -0.365412        -9.9434
 244   2.0000      -0.358498        -9.7552
 245   2.0000      -0.351113        -9.5543
 246   2.0000      -0.338301        -9.2056
 247   2.0000      -0.328663        -8.9434
 248   2.0000      -0.323969        -8.8156
 249   2.0000      -0.322493        -8.7755
 250   2.0000      -0.320210        -8.7134
 251   2.0000      -0.319620        -8.6973
 252   2.0000      -0.305790        -8.3210
 253   2.0000      -0.303850        -8.2682
 254   2.0000      -0.296455        -8.0669
 255   2.0000      -0.283622        -7.7177
 256   2.0000      -0.274350        -7.4654
 257   2.0000      -0.259153        -7.0519
 258   2.0000      -0.228433        -6.2160
 259   2.0000      -0.203042        -5.5251
 260   0.0000      -0.094620        -2.5747
 261   0.0000      -0.084063        -2.2875
 262   0.0000      -0.071047        -1.9333
 263   0.0000      -0.053800        -1.4640
 264   0.0000      -0.039209        -1.0669

MULLIKEN ATOMIC CHARGES
-----------------------
   0 C :    0.333174
   1 C :   -0.366452
   2 C :   -0.188239
   3 N :    0.139028
   4 C :   -0.186517
   5 N :    0.129004
   6 C :    0.009988
   7 C :   -0.008973
   8 C :   -0.075959
   9 C :    0.118121
  10 C :   -0.093167
  11 C :   -0.022362
  12 S :    0.179978
  13 C :   -0.123217
  14 C :    0.037000
  15 Br:    0.015232
  16 C :    0.138185
  17 O :   -0.160898
  18 C :   -0.075197
  19 C :   -0.037397
  20 C :   -0.009385
  21 C :   -0.039019
  22 C :    0.106981
  23 O :   -0.214881
  24 C :    0.115757
  25 C :    0.086991
  26 C :    0.115023
  27 O :   -0.152166
  28 O :   -0.165989
  29 C :   -0.061554
  30 C :    0.032043
  31 C :   -0.010470
  32 C :    0.029885
  33 C :   -0.120170
  34 S :    0.105374
  35 C :   -0.110957
  36 C :   -0.087675
  37 C :    0.110462
  38 C :    0.137780
  39 C :   -0.046197
  40 C :    0.011960
  41 C :   -0.017953
  42 C :    0.014726
  43 C :    0.005359
  44 C :   -0.026310
  45 C :    0.037066
  46 C :    0.023202
  47 C :   -0.030575
  48 S :    0.060357
  49 C :   -0.033215
  50 C :    0.039349
  51 C :    0.027958
  52 C :   -0.026759
  53 S :    0.076823
  54 C :    0.046921
  55 C :   -0.229640
  56 S :    0.148990
  57 C :   -0.141009
  58 C :    0.124982
  59 C :    0.195824
  60 O :   -0.194309
  61 C :    0.250038
  62 N :    0.283805
  63 O :   -0.248051
  64 O :   -0.227200
  65 C :   -0.078287
  66 H :   -0.015327
  67 H :   -0.009860
  68 H :   -0.006180
  69 H :   -0.000029
  70 H :    0.029788
  71 H :   -0.008518
  72 H :    0.193787
  73 H :    0.186785
  74 H :   -0.037841
  75 H :    0.014717
  76 H :   -0.003233
  77 H :   -0.020594
  78 H :    0.014560
  79 H :    0.002872
  80 H :    0.028252
  81 H :    0.051616
  82 H :   -0.018990
  83 H :   -0.022565
  84 H :    0.020165
  85 H :   -0.021297
  86 H :   -0.019976
  87 H :   -0.013213
  88 H :   -0.016631
  89 H :   -0.013844
  90 H :   -0.014233
  91 H :   -0.023565
  92 H :    0.032876
  93 H :    0.013263
Sum of atomic charges:   -0.0000000

LOEWDIN ATOMIC CHARGES
----------------------
   0 C :    0.076868
   1 C :   -0.155622
   2 C :   -0.018856
   3 N :   -0.066490
   4 C :   -0.018140
   5 N :   -0.069876
   6 C :   -0.019412
   7 C :   -0.048316
   8 C :    0.017474
   9 C :   -0.035045
  10 C :   -0.145519
  11 C :   -0.012443
  12 S :    0.427491
  13 C :   -0.274026
  14 C :   -0.071198
  15 Br:    0.130400
  16 C :    0.082024
  17 O :   -0.155107
  18 C :   -0.112829
  19 C :    0.061781
  20 C :   -0.044093
  21 C :    0.006224
  22 C :   -0.025181
  23 O :    0.006760
  24 C :    0.020096
  25 C :   -0.012586
  26 C :    0.026687
  27 O :   -0.024125
  28 O :   -0.041156
  29 C :   -0.064155
  30 C :    0.003197
  31 C :   -0.049766
  32 C :   -0.014333
  33 C :   -0.172036
  34 S :    0.429258
  35 C :   -0.181398
  36 C :   -0.052401
  37 C :   -0.046606
  38 C :   -0.045947
  39 C :   -0.019022
  40 C :   -0.022286
  41 C :   -0.028793
  42 C :   -0.038713
  43 C :   -0.055272
  44 C :   -0.150219
  45 C :   -0.027061
  46 C :   -0.044364
  47 C :   -0.174891
  48 S :    0.410031
  49 C :   -0.184864
  50 C :   -0.028604
  51 C :   -0.038433
  52 C :   -0.141339
  53 S :    0.401202
  54 C :   -0.093880
  55 C :   -0.195418
  56 S :    0.474043
  57 C :   -0.192520
  58 C :   -0.081104
  59 C :    0.008140
  60 O :   -0.001576
  61 C :    0.024102
  62 N :    0.278496
  63 O :   -0.212919
  64 O :   -0.193957
  65 C :   -0.004649
  66 H :    0.038881
  67 H :    0.040121
  68 H :    0.037621
  69 H :    0.038233
  70 H :    0.035499
  71 H :    0.033404
  72 H :    0.102283
  73 H :    0.096544
  74 H :    0.021867
  75 H :    0.039813
  76 H :    0.024328
  77 H :    0.027252
  78 H :    0.021835
  79 H :    0.030954
  80 H :    0.035571
  81 H :    0.038812
  82 H :    0.021549
  83 H :    0.030484
  84 H :    0.013828
  85 H :    0.024331
  86 H :    0.032542
  87 H :    0.032576
  88 H :    0.031000
  89 H :    0.032382
  90 H :    0.031776
  91 H :    0.032775
  92 H :    0.028712
  93 H :    0.047299

  Mayer bond orders larger than 0.100000
B(  0-C ,  1-C ) :   1.5913 B(  0-C ,  6-C ) :   0.9926 B(  0-C , 18-C ) :   1.1021
B(  1-C ,  2-C ) :   1.1473 B(  1-C ,  4-C ) :   1.1550 B(  2-C ,  3-N ) :   2.9625
B(  4-C ,  5-N ) :   2.9539 B(  6-C ,  7-C ) :   1.2797 B(  6-C , 11-C ) :   1.4159
B(  7-C ,  8-C ) :   1.4289 B(  7-C , 16-C ) :   0.9357 B(  8-C ,  9-C ) :   1.2416
B(  8-C , 66-H ) :   1.0158 B(  9-C , 10-C ) :   1.3144 B(  9-C , 14-C ) :   1.1598
B( 10-C , 11-C ) :   1.3255 B( 10-C , 12-S ) :   1.0824 B( 11-C , 67-H ) :   0.9786
B( 12-S , 13-C ) :   1.0858 B( 13-C , 14-C ) :   1.6196 B( 13-C , 15-Br) :   1.0135
B( 14-C , 68-H ) :   1.0007 B( 16-C , 17-O ) :   2.1963 B( 16-C , 18-C ) :   0.9635
B( 18-C , 19-C ) :   1.4581 B( 19-C , 20-C ) :   1.2158 B( 19-C , 69-H ) :   0.9591
B( 20-C , 21-C ) :   1.4696 B( 20-C , 70-H ) :   0.9971 B( 21-C , 22-C ) :   1.2089
B( 21-C , 71-H ) :   0.9711 B( 22-C , 23-O ) :   1.0933 B( 22-C , 24-C ) :   0.1068
B( 22-C , 26-C ) :   1.2499 B( 23-O , 24-C ) :   1.1388 B( 24-C , 25-C ) :   1.2898
B( 24-C , 29-C ) :   1.1919 B( 25-C , 26-C ) :   1.3062 B( 25-C , 28-O ) :   1.2534
B( 26-C , 27-O ) :   1.2874 B( 27-O , 72-H ) :   0.9534 B( 28-O , 73-H ) :   0.9595
B( 29-C , 30-C ) :   1.6341 B( 29-C , 74-H ) :   0.9446 B( 30-C , 31-C ) :   1.1638
B( 30-C , 75-H ) :   0.9821 B( 31-C , 32-C ) :   1.6216 B( 31-C , 76-H ) :   0.9748
B( 32-C , 33-C ) :   1.2154 B( 32-C , 77-H ) :   0.9553 B( 33-C , 34-S ) :   1.1176
B( 33-C , 38-C ) :   1.3650 B( 34-S , 35-C ) :   1.1367 B( 35-C , 36-C ) :   1.6068
B( 35-C , 78-H ) :   0.9643 B( 36-C , 37-C ) :   1.0945 B( 36-C , 38-C ) :   1.2203
B( 37-C , 79-H ) :   0.9444 B( 37-C , 80-H ) :   0.9437 B( 37-C , 81-H ) :   0.9354
B( 38-C , 39-C ) :   1.1453 B( 39-C , 40-C ) :   1.6399 B( 39-C , 82-H ) :   0.9517
B( 40-C , 41-C ) :   1.2043 B( 40-C , 83-H ) :   0.9685 B( 41-C , 42-C ) :   1.5719
B( 41-C , 84-H ) :   0.9509 B( 42-C , 43-C ) :   1.2379 B( 42-C , 85-H ) :   0.9602
B( 43-C , 44-C ) :   1.5353 B( 43-C , 86-H ) :   0.9615 B( 44-C , 45-C ) :   1.1643
B( 44-C , 48-S ) :   1.0452 B( 45-C , 46-C ) :   1.5708 B( 45-C , 87-H ) :   0.9979
B( 46-C , 47-C ) :   1.1997 B( 46-C , 88-H ) :   0.9949 B( 47-C , 48-S ) :   1.0522
B( 47-C , 49-C ) :   1.4778 B( 49-C , 50-C ) :   1.1966 B( 49-C , 53-S ) :   1.0393
B( 50-C , 51-C ) :   1.5814 B( 50-C , 89-H ) :   0.9946 B( 51-C , 52-C ) :   1.1494
B( 51-C , 90-H ) :   0.9988 B( 52-C , 53-S ) :   1.0532 B( 52-C , 54-C ) :   1.5860
B( 54-C , 55-C ) :   1.1588 B( 54-C , 91-H ) :   0.9444 B( 55-C , 56-S ) :   1.1345
B( 55-C , 57-C ) :   0.1074 B( 55-C , 59-C ) :   1.4186 B( 56-S , 57-C ) :   1.1797
B( 57-C , 58-C ) :   1.4303 B( 57-C , 92-H ) :   0.9760 B( 58-C , 59-C ) :   1.2337
B( 58-C , 65-C ) :   1.0690 B( 59-C , 60-O ) :   1.0824 B( 60-O , 61-C ) :   1.1208
B( 61-C , 62-N ) :   0.9205 B( 61-C , 65-C ) :   1.5656 B( 62-N , 63-O ) :   1.5238
B( 62-N , 64-O ) :   1.4853 B( 63-O , 64-O ) :   0.2723 B( 65-C , 93-H ) :   1.0257

-----------------------------------------------------------------------------
         ABSORPTION SPECTRUM VIA TRANSITION ELECTRIC DIPOLE MOMENTS
-----------------------------------------------------------------------------
State   Energy  Wavelength   fosc         T2         TX        TY        TZ
        (cm-1)    (nm)                  (au**2)     (au)      (au)      (au)
-----------------------------------------------------------------------------
   0   10666.2    937.5   0.925860966  28.57668   0.62603   5.11546  -1.42016
   1   12138.5    823.8   0.791176221  21.45771   0.02714  -3.93300   2.44714
   2   15148.7    660.1   0.279874603   6.08224  -1.91830   0.96440  -1.21338
   3   16671.0    599.8   0.264019375   5.21373   0.49046  -1.97585   1.03402
   4   20013.5    499.7   0.175811255   2.89201  -0.27059  -1.64371  -0.34205
   5   21419.8    466.9   0.023141327   0.35567  -0.46860   0.06661  -0.36283
   6   22097.8    452.5   0.007759375   0.11560   0.19462   0.11135  -0.25558
   7   22838.9    437.8   0.023027672   0.33193   0.19135  -0.02098   0.54303
   8   24126.0    414.5   0.161359352   2.20183   0.08565   0.46557   1.40632
   9   24827.6    402.8   0.076028862   1.00814  -0.33795  -0.36321   0.87293
  10   25840.5    387.0   0.011955573   0.15232   0.09579   0.20620   0.31721
  11   27023.4    370.0   0.043666934   0.53197   0.49615  -0.49205  -0.20903
  12   27162.6    368.2   0.481580110   5.83676   0.79614  -0.75421  -2.15269
  13   27870.1    358.8   1.216717158  14.37229  -1.72086   0.17557   3.37344
  14   28195.0    354.7   0.000052052   0.00061   0.02453   0.00056  -0.00244
  15   28296.1    353.4   0.005591746   0.06506   0.25241   0.03213   0.01773
  16   28826.5    346.9   0.429879498   4.90942  -1.17848   0.64020   1.76373
  17   29494.1    339.1   0.002127518   0.02375   0.08383   0.03649   0.12405
  18   30079.8    332.4   0.005544493   0.06068   0.08626  -0.22112   0.06596
  19   30582.6    327.0   0.042344613   0.45583   0.35022   0.15780  -0.55522
  20   31366.5    318.8   0.097002332   1.01810  -0.14677   0.48746   0.87117
  21   31568.8    316.8   0.059824010   0.62387   0.25134  -0.10377  -0.74157
  22   31831.0    314.2   0.001107179   0.01145   0.07916  -0.01566  -0.07028
  23   32047.8    312.0   0.031261045   0.32113  -0.43951  -0.27918   0.22365
  24   32595.6    306.8   0.000043902   0.00044   0.01146   0.01747   0.00263
  25   33076.6    302.3   0.290848905   2.89482   1.08440  -0.66648  -1.12903
  26   33162.4    301.5   0.243878207   2.42104  -0.95589   0.11716   1.22212
  27   33323.7    300.1   0.162113326   1.60155   0.82227  -0.16434  -0.94785
  28   33580.0    297.8   0.029919818   0.29333   0.29946   0.01663  -0.45097
  29   33928.8    294.7   0.150036141   1.45580   0.71239  -0.30995  -0.92317
  30   34225.9    292.2   0.014200362   0.13659  -0.31424  -0.19453  -0.00070
  31   34434.8    290.4   0.019539180   0.18680  -0.35334  -0.07803   0.23635
  32   35097.9    284.9   0.063222007   0.59301  -0.47370  -0.39091   0.46456
  33   35412.2    282.4   0.081460264   0.75730   0.42008   0.68038  -0.34338
  34   35536.1    281.4   0.063207296   0.58556   0.11701   0.74890  -0.10496
  35   35783.4    279.5   0.038549808   0.35466  -0.00901  -0.59529  -0.01438
  36   35969.2    278.0   0.144916633   1.32637  -0.57417  -0.57609   0.81536
  37   36173.2    276.4   0.074746269   0.68027  -0.49709  -0.23203   0.61590
  38   36607.5    273.2   0.004573561   0.04113   0.08362  -0.09219  -0.16012
  39   36625.2    273.0   0.006461221   0.05808   0.08070  -0.18714  -0.12862
  40   37042.2    270.0   0.080086422   0.71177  -0.41624  -0.73203   0.05137
  41   37184.3    268.9   0.013870309   0.12280  -0.28900  -0.02317   0.19684
  42   37518.5    266.5   0.295647624   2.59421  -0.87580  -1.34671   0.11648
  43   38246.3    261.5   0.053339605   0.45913  -0.13445  -0.53842   0.38878
  44   38585.7    259.2   0.037165979   0.31710   0.02365  -0.50864   0.24048
  45   38648.7    258.7   0.198250066   1.68871  -0.44240   1.20561  -0.19874
  46   38735.0    258.2   0.016776603   0.14259   0.27526   0.07114   0.24850
  47   39162.5    255.3   0.024869121   0.20906  -0.03445  -0.26965  -0.36764
  48   39540.9    252.9   0.007426236   0.06183   0.12850   0.21276  -0.00699
  49   40019.6    249.9   0.036848709   0.30313  -0.05215   0.43060   0.33910

FINAL SINGLE POINT ENERGY     -7173.759611171139

DIPOLE MOMENT
-------------
                                X             Y             Z
Electronic contribution:    -15.98322    -134.47070     140.64268
Nuclear contribution   :     15.12910     140.27225    -142.66916
                        -----------------------------------------
Total Dipole Moment    :     -0.85412       5.80155      -2.02648
                        -----------------------------------------
Magnitude (a.u.)       :      6.20436
Magnitude (Debye)      :     15.77023

Rotational constants in cm-1:     0.001544     0.000185     0.000172
Rotational constants in MHz :    46.292633     5.551279     5.159834

                             ****ORCA TERMINATED NORMALLY****
TOTAL RUN TIME: 0 days 0 hours 9 minutes 47 seconds 450 msec
