                         Program Version 4.2.0 -  RELEASE  -
|  1> # ORCA input file
|  2> # SCF done       -178.923369078085          0.000384749110
|  3> ! CAM-B3LYP def2-SVP def2/J RIJCOSX Grid4 TightSCF
|  4> %maxcore 5000
|  5> %tddft
|  6>     Mode sTDDFT
|  7>     Ethresh 5.0
|  8>     maxcore 5000
|  9> end
| 10>
| 11> %pal
| 12>   nprocs 6
| 13>   end
| 14> * xyz 0 1
| 15>    C       -6.44547         2.56048         1.33152
| 16>    C       -6.70454         1.31403         1.82404
| 17>    C       -7.39138         1.07254         3.03077
| 18>    N       -7.90516         0.83232         4.02885
| 19>    C       -6.36184         0.11260         1.16151
| 20>    N       -6.20476        -0.90034         0.64482
| 21>    C       -7.00447         3.81708         1.79659
| 22>    C       -6.71471         4.81824         0.83641
| 23>    C       -7.14935         6.11492         0.97369
| 24>    C       -7.89516         6.43908         2.11109
| 25>    C       -8.17210         5.43221         3.06759
| 26>    C       -7.74069         4.12009         2.92786
| 27>    S       -9.10578         6.05238         4.39578
| 28>    C       -9.11512         7.63190         3.65686
| 29>    C       -8.45233         7.69500         2.47802
| 30>   Br       -9.99865         9.04894         4.51090
| 31>    C       -5.91772         4.24478        -0.27415
| 32>    O       -5.59054         4.83054        -1.27843
| 33>    C       -5.62105         2.84840         0.15842
| 34>    C       -4.60003         2.04345        -0.20258
| 35>    C       -3.63326         2.19950        -1.26985
| 36>    N       -2.52257         1.46782        -1.11749
| 37>    C       -1.61240         1.56030        -2.06931
| 38>    C       -1.78814         2.35736        -3.18722
| 39>    C       -2.99325         3.06979        -3.27329
| 40>    N       -3.90159         2.97693        -2.30209
| 41>    C       -3.32900         3.87845        -4.42246
| 42>    C       -4.43694         4.63412        -4.44499
| 43>    C       -4.90007         5.40595        -5.57265
| 44>    C       -5.37784         6.69368        -5.47314
| 45>    C       -5.55303         7.55499        -4.27718
| 46>    N       -5.63857         7.14769        -6.73694
| 47>    C       -5.36546         6.18966        -7.65564
| 48>    C       -5.60793         6.40117        -9.10599
| 49>    C       -4.91167         5.06053        -6.97487
| 50>    C       -4.66894         3.80212        -7.59653
| 51>    C       -4.59241         2.61210        -6.94027
| 52>    C       -4.34837         1.36551        -7.53591
| 53>    C       -4.16694         0.22015        -6.79735
| 54>    C       -3.95378        -1.09688        -7.26306
| 55>    C       -3.78608        -2.02100        -6.27381
| 56>    C       -3.83892        -1.47988        -4.97058
| 57>    S       -4.13544         0.23604        -5.03377
| 58>    C       -3.67331        -2.14368        -3.76368
| 59>    C       -3.49755        -3.52398        -3.55169
| 60>    C       -3.36507        -3.86165        -2.23420
| 61>    C       -3.41359        -2.76434        -1.34963
| 62>    S       -3.65132        -1.28404        -2.23667
| 63>    C       -3.29586        -2.82452         0.03073
| 64>    C       -3.33191        -1.71401         0.85491
| 65>    C       -3.30589        -1.69936         2.24172
| 66>    C       -2.93803        -2.71813         3.18414
| 67>    C       -2.03368        -3.73925         2.99330
| 68>    C       -1.68724        -4.67670         3.98351
| 69>    N       -1.37878        -5.47937         4.74599
| 70>    C       -1.25820        -3.90509         1.82987
| 71>    N       -0.56362        -4.06980         0.92940
| 72>    C       -3.52538        -2.35660         4.47522
| 73>    C       -4.07357        -1.05516         4.36491
| 74>    C       -3.88398        -0.57449         2.98167
| 75>    O       -4.20210         0.52303         2.54885
| 76>    C       -4.69657        -0.42395         5.41187
| 77>    C       -4.78569        -1.11310         6.62723
| 78>    C       -4.23509        -2.41028         6.72698
| 79>    C       -3.60080        -3.04889         5.66585
| 80>    S       -4.46049        -3.07944         8.31508
| 81>    C       -5.28020        -1.62385         8.81523
| 82>    C       -5.38168        -0.68539         7.84586
| 83>   Br       -5.92128        -1.48157        10.57238
| 84>    H       -6.92145         6.85870         0.22609
| 85>    H       -7.97219         3.38354         3.67951
| 86>    H       -8.35885         8.58985         1.89022
| 87>    H       -4.39131         1.18915         0.42961
| 88>    H       -0.72022         0.96308        -1.92695
| 89>    H       -1.04448         2.41855        -3.96545
| 90>    H       -2.66249         3.81952        -5.27214
| 91>    H       -5.00996         4.69986        -3.52877
| 92>    H       -5.62356         6.93613        -3.38669
| 93>    H       -6.45540         8.15858        -4.36806
| 94>    H       -4.70359         8.22866        -4.15398
| 95>    H       -5.98726         8.06857        -6.95233
| 96>    H       -5.74979         7.45905        -9.31679
| 97>    H       -6.49897         5.86376        -9.43323
| 98>    H       -4.76552         6.04000        -9.69290
| 99>    H       -4.58427         3.81031        -8.67683
|100>    H       -4.72654         2.60285        -5.86878
|101>    H       -4.28337         1.29116        -8.61387
|102>    H       -3.93478        -1.32359        -8.31475
|103>    H       -3.61432        -3.06795        -6.44710
|104>    H       -3.48199        -4.23111        -4.36158
|105>    H       -3.22024        -4.86459        -1.87434
|106>    H       -3.22082        -3.81472         0.45581
|107>    H       -3.49102        -0.75377         0.37758
|108>    H       -5.11141         0.56573         5.30218
|109>    H       -3.20532        -4.04371         5.78744
|110>    H       -5.85985         0.26789         7.97817
|111> *
|112>
|113>                          ****END OF INPUT****

CARTESIAN COORDINATES (ANGSTROEM)
---------------------------------
  C     -6.445470    2.560480    1.331520
  C     -6.704540    1.314030    1.824040
  C     -7.391380    1.072540    3.030770
  N     -7.905160    0.832320    4.028850
  C     -6.361840    0.112600    1.161510
  N     -6.204760   -0.900340    0.644820
  C     -7.004470    3.817080    1.796590
  C     -6.714710    4.818240    0.836410
  C     -7.149350    6.114920    0.973690
  C     -7.895160    6.439080    2.111090
  C     -8.172100    5.432210    3.067590
  C     -7.740690    4.120090    2.927860
  S     -9.105780    6.052380    4.395780
  C     -9.115120    7.631900    3.656860
  C     -8.452330    7.695000    2.478020
  Br    -9.998650    9.048940    4.510900
  C     -5.917720    4.244780   -0.274150
  O     -5.590540    4.830540   -1.278430
  C     -5.621050    2.848400    0.158420
  C     -4.600030    2.043450   -0.202580
  C     -3.633260    2.199500   -1.269850
  N     -2.522570    1.467820   -1.117490
  C     -1.612400    1.560300   -2.069310
  C     -1.788140    2.357360   -3.187220
  C     -2.993250    3.069790   -3.273290
  N     -3.901590    2.976930   -2.302090
  C     -3.329000    3.878450   -4.422460
  C     -4.436940    4.634120   -4.444990
  C     -4.900070    5.405950   -5.572650
  C     -5.377840    6.693680   -5.473140
  C     -5.553030    7.554990   -4.277180
  N     -5.638570    7.147690   -6.736940
  C     -5.365460    6.189660   -7.655640
  C     -5.607930    6.401170   -9.105990
  C     -4.911670    5.060530   -6.974870
  C     -4.668940    3.802120   -7.596530
  C     -4.592410    2.612100   -6.940270
  C     -4.348370    1.365510   -7.535910
  C     -4.166940    0.220150   -6.797350
  C     -3.953780   -1.096880   -7.263060
  C     -3.786080   -2.021000   -6.273810
  C     -3.838920   -1.479880   -4.970580
  S     -4.135440    0.236040   -5.033770
  C     -3.673310   -2.143680   -3.763680
  C     -3.497550   -3.523980   -3.551690
  C     -3.365070   -3.861650   -2.234200
  C     -3.413590   -2.764340   -1.349630
  S     -3.651320   -1.284040   -2.236670
  C     -3.295860   -2.824520    0.030730
  C     -3.331910   -1.714010    0.854910
  C     -3.305890   -1.699360    2.241720
  C     -2.938030   -2.718130    3.184140
  C     -2.033680   -3.739250    2.993300
  C     -1.687240   -4.676700    3.983510
  N     -1.378780   -5.479370    4.745990
  C     -1.258200   -3.905090    1.829870
  N     -0.563620   -4.069800    0.929400
  C     -3.525380   -2.356600    4.475220
  C     -4.073570   -1.055160    4.364910
  C     -3.883980   -0.574490    2.981670
  O     -4.202100    0.523030    2.548850
  C     -4.696570   -0.423950    5.411870
  C     -4.785690   -1.113100    6.627230
  C     -4.235090   -2.410280    6.726980
  C     -3.600800   -3.048890    5.665850
  S     -4.460490   -3.079440    8.315080
  C     -5.280200   -1.623850    8.815230
  C     -5.381680   -0.685390    7.845860
  Br    -5.921280   -1.481570   10.572380
  H     -6.921450    6.858700    0.226090
  H     -7.972190    3.383540    3.679510
  H     -8.358850    8.589850    1.890220
  H     -4.391310    1.189150    0.429610
  H     -0.720220    0.963080   -1.926950
  H     -1.044480    2.418550   -3.965450
  H     -2.662490    3.819520   -5.272140
  H     -5.009960    4.699860   -3.528770
  H     -5.623560    6.936130   -3.386690
  H     -6.455400    8.158580   -4.368060
  H     -4.703590    8.228660   -4.153980
  H     -5.987260    8.068570   -6.952330
  H     -5.749790    7.459050   -9.316790
  H     -6.498970    5.863760   -9.433230
  H     -4.765520    6.040000   -9.692900
  H     -4.584270    3.810310   -8.676830
  H     -4.726540    2.602850   -5.868780
  H     -4.283370    1.291160   -8.613870
  H     -3.934780   -1.323590   -8.314750
  H     -3.614320   -3.067950   -6.447100
  H     -3.481990   -4.231110   -4.361580
  H     -3.220240   -4.864590   -1.874340
  H     -3.220820   -3.814720    0.455810
  H     -3.491020   -0.753770    0.377580
  H     -5.111410    0.565730    5.302180
  H     -3.205320   -4.043710    5.787440
  H     -5.859850    0.267890    7.978170

 Total Charge           Charge          ....    0
 Multiplicity           Mult            ....    1
 Number of Electrons    NEL             ....  550
 Basis Dimension        Dim             .... 1153

ORBITAL ENERGIES
----------------

  NO   OCC          E(Eh)            E(eV)
   0   2.0000    -482.884640    -13139.9591
   1   2.0000    -482.867035    -13139.4800
   2   2.0000     -88.973056     -2421.0799
   3   2.0000     -88.955600     -2420.6049
   4   2.0000     -88.953551     -2420.5492
   5   2.0000     -88.947944     -2420.3966
   6   2.0000     -62.562340     -1702.4078
   7   2.0000     -62.544756     -1701.9293
   8   2.0000     -56.396288     -1534.6210
   9   2.0000     -56.393581     -1534.5473
  10   2.0000     -56.393546     -1534.5464
  11   2.0000     -56.378682     -1534.1419
  12   2.0000     -56.376013     -1534.0693
  13   2.0000     -56.375971     -1534.0682
  14   2.0000     -19.212882      -522.8091
  15   2.0000     -19.190560      -522.2017
  16   2.0000     -14.472931      -393.8285
  17   2.0000     -14.410887      -392.1402
  18   2.0000     -14.404096      -391.9554
  19   2.0000     -14.399692      -391.8355
  20   2.0000     -14.399453      -391.8290
  21   2.0000     -14.387061      -391.4918
  22   2.0000     -14.384317      -391.4172
  23   2.0000     -10.365665      -282.0641
  24   2.0000     -10.356957      -281.8271
  25   2.0000     -10.339470      -281.3513
  26   2.0000     -10.338106      -281.3142
  27   2.0000     -10.336356      -281.2665
  28   2.0000     -10.334410      -281.2136
  29   2.0000     -10.327601      -281.0283
  30   2.0000     -10.327540      -281.0267
  31   2.0000     -10.323208      -280.9088
  32   2.0000     -10.320212      -280.8273
  33   2.0000     -10.316509      -280.7265
  34   2.0000     -10.313852      -280.6542
  35   2.0000     -10.313349      -280.6405
  36   2.0000     -10.313130      -280.6345
  37   2.0000     -10.311028      -280.5773
  38   2.0000     -10.310297      -280.5574
  39   2.0000     -10.308909      -280.5197
  40   2.0000     -10.307364      -280.4776
  41   2.0000     -10.307111      -280.4708
  42   2.0000     -10.304938      -280.4116
  43   2.0000     -10.304849      -280.4092
  44   2.0000     -10.303654      -280.3767
  45   2.0000     -10.301299      -280.3126
  46   2.0000     -10.301227      -280.3106
  47   2.0000     -10.299123      -280.2534
  48   2.0000     -10.298480      -280.2359
  49   2.0000     -10.298405      -280.2339
  50   2.0000     -10.295196      -280.1465
  51   2.0000     -10.295004      -280.1413
  52   2.0000     -10.294201      -280.1195
  53   2.0000     -10.293937      -280.1123
  54   2.0000     -10.292979      -280.0862
  55   2.0000     -10.292522      -280.0738
  56   2.0000     -10.292305      -280.0679
  57   2.0000     -10.291463      -280.0449
  58   2.0000     -10.288704      -279.9699
  59   2.0000     -10.288309      -279.9591
  60   2.0000     -10.283933      -279.8400
  61   2.0000     -10.282020      -279.7880
  62   2.0000     -10.281394      -279.7710
  63   2.0000     -10.280925      -279.7582
  64   2.0000     -10.279423      -279.7173
  65   2.0000     -10.279399      -279.7167
  66   2.0000     -10.277058      -279.6530
  67   2.0000     -10.275923      -279.6221
  68   2.0000     -10.275092      -279.5995
  69   2.0000     -10.273859      -279.5659
  70   2.0000     -10.272173      -279.5200
  71   2.0000     -10.269818      -279.4559
  72   2.0000     -10.265877      -279.3487
  73   2.0000     -10.265114      -279.3280
  74   2.0000     -10.263136      -279.2741
  75   2.0000     -10.261919      -279.2410
  76   2.0000     -10.258818      -279.1566
  77   2.0000      -8.791752      -239.2357
  78   2.0000      -8.774178      -238.7575
  79   2.0000      -8.069144      -219.5726
  80   2.0000      -8.051166      -219.0834
  81   2.0000      -8.049522      -219.0386
  82   2.0000      -8.043481      -218.8742
  83   2.0000      -6.628038      -180.3581
  84   2.0000      -6.613500      -179.9625
  85   2.0000      -6.613286      -179.9567
  86   2.0000      -6.610385      -179.8777
  87   2.0000      -6.595940      -179.4846
  88   2.0000      -6.595802      -179.4809
  89   2.0000      -6.038851      -164.3255
  90   2.0000      -6.034575      -164.2091
  91   2.0000      -6.030303      -164.0929
  92   2.0000      -6.020832      -163.8352
  93   2.0000      -6.019231      -163.7916
  94   2.0000      -6.016770      -163.7246
  95   2.0000      -6.014956      -163.6753
  96   2.0000      -6.013059      -163.6236
  97   2.0000      -6.012337      -163.6040
  98   2.0000      -6.010743      -163.5606
  99   2.0000      -6.008988      -163.5129
 100   2.0000      -6.004793      -163.3987
 101   2.0000      -2.743927       -74.6661
 102   2.0000      -2.739792       -74.5535
 103   2.0000      -2.739709       -74.5513
 104   2.0000      -2.728127       -74.2361
 105   2.0000      -2.728116       -74.2358
 106   2.0000      -2.726251       -74.1850
 107   2.0000      -2.722200       -74.0748
 108   2.0000      -2.722141       -74.0732
 109   2.0000      -2.710636       -73.7602
 110   2.0000      -2.710618       -73.7597
 111   2.0000      -1.128332       -30.7035
 112   2.0000      -1.103599       -30.0305
 113   2.0000      -1.089703       -29.6523
 114   2.0000      -1.077838       -29.3295
 115   2.0000      -1.018469       -27.7140
 116   2.0000      -1.006024       -27.3753
 117   2.0000      -1.001593       -27.2547
 118   2.0000      -0.997457       -27.1422
 119   2.0000      -0.986032       -26.8313
 120   2.0000      -0.985718       -26.8228
 121   2.0000      -0.980989       -26.6941
 122   2.0000      -0.978032       -26.6136
 123   2.0000      -0.975503       -26.5448
 124   2.0000      -0.964796       -26.2534
 125   2.0000      -0.962175       -26.1821
 126   2.0000      -0.938784       -25.5456
 127   2.0000      -0.926508       -25.2116
 128   2.0000      -0.918278       -24.9876
 129   2.0000      -0.910218       -24.7683
 130   2.0000      -0.903760       -24.5926
 131   2.0000      -0.899938       -24.4886
 132   2.0000      -0.894772       -24.3480
 133   2.0000      -0.886350       -24.1188
 134   2.0000      -0.882652       -24.0182
 135   2.0000      -0.882310       -24.0089
 136   2.0000      -0.877113       -23.8675
 137   2.0000      -0.863614       -23.5001
 138   2.0000      -0.860591       -23.4179
 139   2.0000      -0.851499       -23.1705
 140   2.0000      -0.850667       -23.1478
 141   2.0000      -0.839839       -22.8532
 142   2.0000      -0.833426       -22.6787
 143   2.0000      -0.827819       -22.5261
 144   2.0000      -0.826012       -22.4769
 145   2.0000      -0.825319       -22.4581
 146   2.0000      -0.814242       -22.1567
 147   2.0000      -0.804702       -21.8970
 148   2.0000      -0.784409       -21.3449
 149   2.0000      -0.777229       -21.1495
 150   2.0000      -0.763229       -20.7685
 151   2.0000      -0.753111       -20.4932
 152   2.0000      -0.751523       -20.4500
 153   2.0000      -0.736567       -20.0430
 154   2.0000      -0.732444       -19.9308
 155   2.0000      -0.727856       -19.8060
 156   2.0000      -0.718322       -19.5465
 157   2.0000      -0.697163       -18.9708
 158   2.0000      -0.696654       -18.9569
 159   2.0000      -0.687946       -18.7200
 160   2.0000      -0.681592       -18.5471
 161   2.0000      -0.678385       -18.4598
 162   2.0000      -0.674367       -18.3504
 163   2.0000      -0.662510       -18.0278
 164   2.0000      -0.661804       -18.0086
 165   2.0000      -0.653707       -17.7883
 166   2.0000      -0.651261       -17.7217
 167   2.0000      -0.645745       -17.5716
 168   2.0000      -0.637519       -17.3478
 169   2.0000      -0.632716       -17.2171
 170   2.0000      -0.626766       -17.0552
 171   2.0000      -0.622173       -16.9302
 172   2.0000      -0.618045       -16.8179
 173   2.0000      -0.612162       -16.6578
 174   2.0000      -0.610228       -16.6051
 175   2.0000      -0.606216       -16.4960
 176   2.0000      -0.598954       -16.2984
 177   2.0000      -0.595159       -16.1951
 178   2.0000      -0.592879       -16.1331
 179   2.0000      -0.580305       -15.7909
 180   2.0000      -0.575222       -15.6526
 181   2.0000      -0.573262       -15.5992
 182   2.0000      -0.570376       -15.5207
 183   2.0000      -0.564270       -15.3546
 184   2.0000      -0.563400       -15.3309
 185   2.0000      -0.550017       -14.9667
 186   2.0000      -0.546835       -14.8801
 187   2.0000      -0.546142       -14.8613
 188   2.0000      -0.541450       -14.7336
 189   2.0000      -0.537253       -14.6194
 190   2.0000      -0.534894       -14.5552
 191   2.0000      -0.532579       -14.4922
 192   2.0000      -0.529436       -14.4067
 193   2.0000      -0.526553       -14.3282
 194   2.0000      -0.523172       -14.2362
 195   2.0000      -0.520382       -14.1603
 196   2.0000      -0.517713       -14.0877
 197   2.0000      -0.515488       -14.0271
 198   2.0000      -0.512948       -13.9580
 199   2.0000      -0.512789       -13.9537
 200   2.0000      -0.511080       -13.9072
 201   2.0000      -0.508162       -13.8278
 202   2.0000      -0.503655       -13.7051
 203   2.0000      -0.502301       -13.6683
 204   2.0000      -0.501324       -13.6417
 205   2.0000      -0.499837       -13.6013
 206   2.0000      -0.495971       -13.4961
 207   2.0000      -0.495055       -13.4711
 208   2.0000      -0.491677       -13.3792
 209   2.0000      -0.487775       -13.2730
 210   2.0000      -0.484172       -13.1750
 211   2.0000      -0.481724       -13.1084
 212   2.0000      -0.480918       -13.0864
 213   2.0000      -0.477688       -12.9985
 214   2.0000      -0.476321       -12.9613
 215   2.0000      -0.473352       -12.8806
 216   2.0000      -0.471803       -12.8384
 217   2.0000      -0.469870       -12.7858
 218   2.0000      -0.468684       -12.7535
 219   2.0000      -0.467744       -12.7280
 220   2.0000      -0.466853       -12.7037
 221   2.0000      -0.464637       -12.6434
 222   2.0000      -0.461650       -12.5621
 223   2.0000      -0.457621       -12.4525
 224   2.0000      -0.453606       -12.3432
 225   2.0000      -0.449361       -12.2277
 226   2.0000      -0.445311       -12.1175
 227   2.0000      -0.443298       -12.0628
 228   2.0000      -0.442519       -12.0416
 229   2.0000      -0.438388       -11.9291
 230   2.0000      -0.437280       -11.8990
 231   2.0000      -0.435903       -11.8615
 232   2.0000      -0.433638       -11.7999
 233   2.0000      -0.431035       -11.7291
 234   2.0000      -0.427271       -11.6266
 235   2.0000      -0.424894       -11.5620
 236   2.0000      -0.421295       -11.4640
 237   2.0000      -0.419294       -11.4096
 238   2.0000      -0.418413       -11.3856
 239   2.0000      -0.416290       -11.3278
 240   2.0000      -0.414619       -11.2823
 241   2.0000      -0.414343       -11.2748
 242   2.0000      -0.409055       -11.1310
 243   2.0000      -0.406353       -11.0574
 244   2.0000      -0.401371       -10.9219
 245   2.0000      -0.400196       -10.8899
 246   2.0000      -0.397858       -10.8263
 247   2.0000      -0.393799       -10.7158
 248   2.0000      -0.391807       -10.6616
 249   2.0000      -0.386947       -10.5294
 250   2.0000      -0.382209       -10.4004
 251   2.0000      -0.380148       -10.3444
 252   2.0000      -0.377552       -10.2737
 253   2.0000      -0.376315       -10.2401
 254   2.0000      -0.374018       -10.1775
 255   2.0000      -0.364806        -9.9269
 256   2.0000      -0.360107        -9.7990
 257   2.0000      -0.356932        -9.7126
 258   2.0000      -0.354108        -9.6358
 259   2.0000      -0.344349        -9.3702
 260   2.0000      -0.340952        -9.2778
 261   2.0000      -0.339221        -9.2307
 262   2.0000      -0.332193        -9.0394
 263   2.0000      -0.322980        -8.7887
 264   2.0000      -0.317231        -8.6323
 265   2.0000      -0.312239        -8.4965
 266   2.0000      -0.307326        -8.3628
 267   2.0000      -0.305402        -8.3104
 268   2.0000      -0.299135        -8.1399
 269   2.0000      -0.292810        -7.9678
 270   2.0000      -0.285469        -7.7680
 271   2.0000      -0.271481        -7.3874
 272   2.0000      -0.269627        -7.3369
 273   2.0000      -0.262676        -7.1478
 274   2.0000      -0.211216        -5.7475
 275   0.0000      -0.096549        -2.6272
 276   0.0000      -0.079072        -2.1517
 277   0.0000      -0.052209        -1.4207
 278   0.0000      -0.045981        -1.2512
 279   0.0000      -0.033693        -0.9168

MULLIKEN ATOMIC CHARGES
-----------------------
   0 C :    0.267964
   1 C :   -0.301695
   2 C :   -0.177786
   3 N :    0.141376
   4 C :   -0.200328
   5 N :    0.156212
   6 C :    0.035221
   7 C :   -0.018169
   8 C :   -0.078166
   9 C :    0.119444
  10 C :   -0.085730
  11 C :   -0.028297
  12 S :    0.183033
  13 C :   -0.123133
  14 C :    0.037044
  15 Br:    0.019543
  16 C :    0.150435
  17 O :   -0.114891
  18 C :   -0.044116
  19 C :    0.062084
  20 C :   -0.104311
  21 N :   -0.080736
  22 C :    0.084081
  23 C :   -0.029370
  24 C :    0.037350
  25 N :   -0.014031
  26 C :   -0.045022
  27 C :   -0.033155
  28 C :    0.054005
  29 C :   -0.143932
  30 C :    0.131053
  31 N :   -0.033185
  32 C :   -0.145731
  33 C :    0.118572
  34 C :    0.056058
  35 C :   -0.025452
  36 C :   -0.031384
  37 C :    0.019418
  38 C :   -0.041802
  39 C :    0.052334
  40 C :    0.016660
  41 C :   -0.019865
  42 S :    0.084298
  43 C :   -0.057159
  44 C :    0.036620
  45 C :    0.026175
  46 C :   -0.005191
  47 S :    0.107456
  48 C :    0.002078
  49 C :    0.062614
  50 C :   -0.122754
  51 C :    0.280554
  52 C :   -0.354480
  53 C :   -0.180098
  54 N :    0.127903
  55 C :   -0.219968
  56 N :    0.151386
  57 C :    0.007739
  58 C :    0.006100
  59 C :    0.167625
  60 O :   -0.197363
  61 C :   -0.070197
  62 C :    0.108241
  63 C :   -0.089426
  64 C :   -0.027340
  65 S :    0.172780
  66 C :   -0.125979
  67 C :    0.044529
  68 Br:    0.005825
  69 H :   -0.017908
  70 H :   -0.007238
  71 H :   -0.006933
  72 H :    0.020151
  73 H :    0.011396
  74 H :   -0.007086
  75 H :   -0.014626
  76 H :    0.046980
  77 H :    0.033871
  78 H :    0.007806
  79 H :    0.033094
  80 H :    0.116830
  81 H :    0.006050
  82 H :    0.043488
  83 H :    0.038313
  84 H :   -0.029226
  85 H :    0.035407
  86 H :   -0.011448
  87 H :   -0.006811
  88 H :   -0.009333
  89 H :   -0.008162
  90 H :   -0.001961
  91 H :    0.000771
  92 H :    0.002121
  93 H :   -0.020979
  94 H :   -0.010805
  95 H :   -0.007329
Sum of atomic charges:   -0.0000000

LOEWDIN ATOMIC CHARGES
----------------------
   0 C :    0.073374
   1 C :   -0.113542
   2 C :   -0.009737
   3 N :   -0.058991
   4 C :   -0.018960
   5 N :   -0.055889
   6 C :   -0.015480
   7 C :   -0.051705
   8 C :    0.018243
   9 C :   -0.034753
  10 C :   -0.142234
  11 C :   -0.012885
  12 S :    0.429377
  13 C :   -0.272877
  14 C :   -0.071778
  15 Br:    0.133988
  16 C :    0.088630
  17 O :   -0.123645
  18 C :   -0.058910
  19 C :    0.068929
  20 C :    0.007232
  21 N :   -0.086952
  22 C :    0.045468
  23 C :   -0.055995
  24 C :    0.033305
  25 N :   -0.059151
  26 C :   -0.060554
  27 C :    0.031616
  28 C :   -0.074972
  29 C :   -0.002991
  30 C :   -0.053313
  31 N :    0.093823
  32 C :    0.003031
  33 C :   -0.053655
  34 C :   -0.085533
  35 C :    0.017841
  36 C :   -0.061338
  37 C :   -0.011399
  38 C :   -0.166986
  39 C :   -0.011477
  40 C :   -0.046992
  41 C :   -0.143383
  42 S :    0.402778
  43 C :   -0.203247
  44 C :   -0.008348
  45 C :   -0.044311
  46 C :   -0.093249
  47 S :    0.425953
  48 C :   -0.069434
  49 C :    0.067908
  50 C :   -0.116335
  51 C :    0.072084
  52 C :   -0.161741
  53 C :   -0.019706
  54 N :   -0.073935
  55 C :   -0.023638
  56 N :   -0.070080
  57 C :   -0.013065
  58 C :   -0.049858
  59 C :    0.094343
  60 O :   -0.178683
  61 C :    0.020632
  62 C :   -0.037657
  63 C :   -0.145361
  64 C :   -0.017716
  65 S :    0.422858
  66 C :   -0.278127
  67 C :   -0.067371
  68 Br:    0.123592
  69 H :    0.037105
  70 H :    0.040343
  71 H :    0.037268
  72 H :    0.042225
  73 H :    0.028511
  74 H :    0.033221
  75 H :    0.025066
  76 H :    0.039163
  77 H :    0.047189
  78 H :    0.030597
  79 H :    0.038624
  80 H :    0.088487
  81 H :    0.033006
  82 H :    0.042817
  83 H :    0.041611
  84 H :    0.026021
  85 H :    0.026379
  86 H :    0.033830
  87 H :    0.036176
  88 H :    0.033187
  89 H :    0.033804
  90 H :    0.038404
  91 H :    0.036512
  92 H :    0.030481
  93 H :    0.036285
  94 H :    0.038968
  95 H :    0.037659

  Mayer bond orders larger than 0.100000
B(  0-C ,  1-C ) :   1.6938 B(  0-C ,  6-C ) :   1.0178 B(  0-C , 18-C ) :   1.0257
B(  1-C ,  2-C ) :   1.1510 B(  1-C ,  4-C ) :   1.1215 B(  2-C ,  3-N ) :   2.9420
B(  4-C ,  5-N ) :   2.9874 B(  6-C ,  7-C ) :   1.2731 B(  6-C , 11-C ) :   1.4063
B(  7-C ,  8-C ) :   1.4172 B(  7-C , 16-C ) :   0.9429 B(  8-C ,  9-C ) :   1.2583
B(  8-C , 69-H ) :   1.0150 B(  9-C , 10-C ) :   1.3043 B(  9-C , 14-C ) :   1.1589
B( 10-C , 11-C ) :   1.3326 B( 10-C , 12-S ) :   1.0826 B( 11-C , 70-H ) :   0.9828
B( 12-S , 13-C ) :   1.0844 B( 13-C , 14-C ) :   1.6232 B( 13-C , 15-Br) :   1.0166
B( 14-C , 71-H ) :   0.9998 B( 16-C , 17-O ) :   2.2161 B( 16-C , 18-C ) :   0.9110
B( 18-C , 19-C ) :   1.7009 B( 19-C , 20-C ) :   1.0285 B( 19-C , 72-H ) :   0.9286
B( 20-C , 21-N ) :   1.4891 B( 20-C , 25-N ) :   1.5699 B( 21-N , 22-C ) :   1.5314
B( 22-C , 23-C ) :   1.3730 B( 22-C , 73-H ) :   0.9808 B( 23-C , 24-C ) :   1.3147
B( 23-C , 74-H ) :   0.9772 B( 24-C , 25-N ) :   1.5266 B( 24-C , 26-C ) :   1.0700
B( 26-C , 27-C ) :   1.7628 B( 26-C , 75-H ) :   0.9792 B( 27-C , 28-C ) :   1.0176
B( 27-C , 76-H ) :   0.9477 B( 28-C , 29-C ) :   1.5154 B( 28-C , 34-C ) :   1.1955
B( 29-C , 30-C ) :   1.1143 B( 29-C , 31-N ) :   1.1908 B( 30-C , 77-H ) :   0.9326
B( 30-C , 78-H ) :   0.9396 B( 30-C , 79-H ) :   0.9417 B( 31-N , 32-C ) :   1.2499
B( 31-N , 80-H ) :   0.9353 B( 32-C , 33-C ) :   1.1051 B( 32-C , 34-C ) :   1.4068
B( 33-C , 81-H ) :   0.9403 B( 33-C , 82-H ) :   0.9437 B( 33-C , 83-H ) :   0.9423
B( 34-C , 35-C ) :   1.1302 B( 35-C , 36-C ) :   1.6228 B( 35-C , 84-H ) :   0.9680
B( 36-C , 37-C ) :   1.1717 B( 36-C , 85-H ) :   0.9610 B( 37-C , 38-C ) :   1.5357
B( 37-C , 86-H ) :   0.9863 B( 38-C , 39-C ) :   1.1620 B( 38-C , 42-S ) :   1.0210
B( 39-C , 40-C ) :   1.5614 B( 39-C , 87-H ) :   0.9990 B( 40-C , 41-C ) :   1.2105
B( 40-C , 88-H ) :   0.9942 B( 41-C , 42-S ) :   1.0924 B( 41-C , 43-C ) :   1.4389
B( 43-C , 44-C ) :   1.2338 B( 43-C , 47-S ) :   1.0467 B( 44-C , 45-C ) :   1.5223
B( 44-C , 89-H ) :   0.9942 B( 45-C , 46-C ) :   1.1994 B( 45-C , 90-H ) :   1.0009
B( 46-C , 47-S ) :   1.1078 B( 46-C , 48-C ) :   1.4476 B( 48-C , 49-C ) :   1.2990
B( 48-C , 91-H ) :   0.9610 B( 49-C , 50-C ) :   1.4424 B( 49-C , 92-H ) :   0.9420
B( 50-C , 51-C ) :   1.1024 B( 50-C , 59-C ) :   1.0227 B( 51-C , 52-C ) :   1.5885
B( 51-C , 57-C ) :   0.9978 B( 52-C , 53-C ) :   1.1374 B( 52-C , 55-C ) :   1.1677
B( 53-C , 54-N ) :   2.9734 B( 55-C , 56-N ) :   3.0118 B( 57-C , 58-C ) :   1.2765
B( 57-C , 64-C ) :   1.4333 B( 58-C , 59-C ) :   0.9402 B( 58-C , 61-C ) :   1.4292
B( 59-C , 60-O ) :   2.0803 B( 60-O , 72-H ) :   0.1092 B( 61-C , 62-C ) :   1.2454
B( 61-C , 93-H ) :   1.0123 B( 62-C , 63-C ) :   1.3261 B( 62-C , 67-C ) :   1.1618
B( 63-C , 64-C ) :   1.3073 B( 63-C , 65-S ) :   1.0810 B( 64-C , 94-H ) :   0.9818
B( 65-S , 66-C ) :   1.0840 B( 66-C , 67-C ) :   1.6225 B( 66-C , 68-Br) :   1.0076
B( 67-C , 95-H ) :   0.9992

-----------------------------------------------------------------------------
         ABSORPTION SPECTRUM VIA TRANSITION ELECTRIC DIPOLE MOMENTS
-----------------------------------------------------------------------------
State   Energy  Wavelength   fosc         T2         TX        TY        TZ
        (cm-1)    (nm)                  (au**2)     (au)      (au)      (au)
-----------------------------------------------------------------------------
   0   11289.0    885.8   1.238086789  36.10536   0.77803  -2.76725   5.27658
   1   13826.4    723.3   0.027455057   0.65372   0.30316  -0.55662   0.50199
   2   20500.4    487.8   0.008845208   0.14204  -0.34954   0.13199  -0.04943
   3   21029.8    475.5   0.006725622   0.10529  -0.00590  -0.25011  -0.20663
   4   21915.1    456.3   0.130747858   1.96411   0.15726   1.12318   0.82331
   5   22295.1    448.5   0.021629321   0.31938   0.14649  -0.22384   0.49781
   6   23079.4    433.3   0.155271261   2.21484   0.03181   1.15682   0.93573
   7   24802.6    403.2   0.012705231   0.16864   0.19648   0.32840  -0.14896
   8   25080.2    398.7   0.057145975   0.75012   0.27098   0.78945  -0.23120
   9   25646.7    389.9   0.443053904   5.68723   0.44979  -1.78894  -1.51149
  10   25875.0    386.5   0.055688183   0.70853  -0.18737   0.78112  -0.25153
  11   26546.7    376.7   0.058723565   0.72824   0.56899  -0.37733  -0.51197
  12   27694.6    361.1   0.016700528   0.19852  -0.05427  -0.43067  -0.10052
  13   28008.3    357.0   0.144991872   1.70425  -0.20034   1.28644  -0.09582
  14   28402.4    352.1   0.041192850   0.47747  -0.23144  -0.29033   0.58276
  15   28992.2    344.9   0.001974296   0.02242  -0.01648   0.03389  -0.14491
  16   29354.5    340.7   0.011155163   0.12511   0.07113  -0.24637  -0.24361
  17   29523.1    338.7   0.003544177   0.03952  -0.06637  -0.01324  -0.18692
  18   30011.7    333.2   0.031440344   0.34488  -0.34209   0.44233   0.17945
  19   30259.1    330.5   0.140203444   1.52538  -0.50453   0.87280   0.71347
  20   30285.3    330.2   0.013521776   0.14699  -0.04539   0.00495   0.38066
  21   30769.8    325.0   0.076954223   0.82335  -0.12356  -0.66808   0.60145
  22   30933.9    323.3   0.209937020   2.23424   0.69634   0.23099  -1.30230
  23   31317.4    319.3   0.014460400   0.15201   0.15185   0.08580   0.34870
  24   31576.6    316.7   0.004905971   0.05115  -0.03823   0.13101   0.18034
  25   31791.2    314.6   0.334507094   3.46396  -0.67222   0.70118   1.58759
  26   31822.5    314.2   0.016897782   0.17481   0.27325  -0.17521   0.26353
  27   32040.1    312.1   0.034194875   0.35135   0.35554  -0.03935  -0.47265
  28   32457.5    308.1   0.088709860   0.89977  -0.30422   0.65614   0.61376
  29   32845.9    304.5   0.147753230   1.48092   0.40421  -0.44172  -1.05944
  30   33021.1    302.8   0.316728681   3.15771   0.98726  -1.47731  -0.02396
  31   33097.6    302.1   0.006566271   0.06531  -0.14530  -0.18466  -0.10050
  32   33388.8    299.5   0.099170743   0.97782   0.62564  -0.22143  -0.73305
  33   33634.6    297.3   0.187631797   1.83652  -0.63212  -0.34100   1.14920
  34   33771.9    296.1   0.043428538   0.42335  -0.00106  -0.61647   0.20811
  35   34159.2    292.7   0.381473547   3.67648  -0.49571   1.71741   0.69374
  36   34328.7    291.3   0.376344652   3.60914   0.50202  -1.77172   0.46705
  37   34493.9    289.9   0.019528200   0.18638  -0.42814   0.04136  -0.03693
  38   34586.2    289.1   0.006042280   0.05751  -0.22937  -0.06994  -0.00339
  39   34889.1    286.6   0.049620080   0.46821   0.35848  -0.52838  -0.24601
  40   35173.5    284.3   0.172514696   1.61468  -0.44606   0.87412  -0.80723
  41   35903.6    278.5   0.088381549   0.81040  -0.62499   0.54279   0.35378
  42   36020.9    277.6   0.022193259   0.20283   0.29983  -0.27284  -0.19621
  43   36111.7    276.9   0.072032603   0.65668   0.00711   0.15087  -0.79616
  44   36550.2    273.6   0.006083625   0.05480  -0.11282   0.20252  -0.03246
  45   36766.8    272.0   0.149211939   1.33605   0.83133  -0.80145  -0.05118
  46   36917.0    270.9   0.056948559   0.50785  -0.09835   0.59174  -0.38473
  47   37265.6    268.3   0.090431151   0.79889  -0.66978  -0.09946   0.58343
  48   37356.1    267.7   0.016277435   0.14345  -0.10077  -0.20089  -0.30485
  49   37610.6    265.9   0.247772321   2.16879   0.84443  -1.20598  -0.03679
  50   37796.2    264.6   0.057505611   0.50088   0.34644  -0.60313  -0.13075
  51   38435.6    260.2   0.055524029   0.47558  -0.33923  -0.15474   0.58013
  52   38597.6    259.1   0.172945845   1.47511  -0.05650  -0.84290   0.87261
  53   38654.2    258.7   0.077388655   0.65911  -0.41592   0.64258  -0.27057
  54   38816.2    257.6   0.335831865   2.84829   1.00112  -1.22736  -0.58278
  55   39501.6    253.2   0.004133609   0.03445   0.06171  -0.15310  -0.08487
  56   39565.0    252.7   0.065575379   0.54564   0.46894   0.06412  -0.56712
  57   39781.4    251.4   0.004068102   0.03367   0.02782   0.15514   0.09393
  58   39829.4    251.1   0.025497648   0.21075  -0.15022   0.42846  -0.06789
  59   40159.2    249.0   0.059621851   0.48876   0.34299   0.17728  -0.58283
  60   40294.6    248.2   0.003028562   0.02474   0.01249   0.01876   0.15568

FINAL SINGLE POINT ENERGY     -9344.484646487515

DIPOLE MOMENT
-------------
                                X             Y             Z
Electronic contribution:    -66.91011      21.37272     215.50649
Nuclear contribution   :     65.29001     -15.89153    -221.67661
                        -----------------------------------------
Total Dipole Moment    :     -1.62010       5.48118      -6.17012
                        -----------------------------------------
Magnitude (a.u.)       :      8.41062
Magnitude (Debye)      :     21.37809

Rotational constants in cm-1:     0.000790     0.000523     0.000327
Rotational constants in MHz :    23.689059    15.666765     9.805506

                             ****ORCA TERMINATED NORMALLY****
TOTAL RUN TIME: 0 days 0 hours 12 minutes 38 seconds 670 msec
