                         Program Version 4.2.0 -  RELEASE  -
|  1> # ORCA input file
|  2> # SCF done       -158.881623575249          0.000897735676
|  3> ! CAM-B3LYP def2-SVP def2/J RIJCOSX Grid4 TightSCF
|  4> %maxcore 5000
|  5> %tddft
|  6>     Mode sTDDFT
|  7>     Ethresh 5.0
|  8>     maxcore 5000
|  9> end
| 10>
| 11> %pal
| 12>   nprocs 6
| 13>   end
| 14> * xyz 0 1
| 15>    C        7.75631        -6.61329        -7.78944
| 16>    C        6.75556        -7.45568        -8.07216
| 17>    C        5.58515        -7.18358        -8.85915
| 18>    C        4.73141        -8.22376        -8.96111
| 19>    C        5.15127        -9.39966        -8.26892
| 20>    S        6.69787        -9.13001        -7.49401
| 21>    C        4.49843       -10.60282        -8.19623
| 22>    C        3.30809       -10.99623        -8.86258
| 23>    C        2.95252       -12.28651        -8.65345
| 24>    C        3.81941       -12.99992        -7.77358
| 25>    S        5.12541       -11.93853        -7.23937
| 26>    C        3.69401       -14.30708        -7.42418
| 27>    N        4.42616       -14.94158        -6.43775
| 28>    C        4.83459       -14.35293        -5.28519
| 29>    S        6.29155       -14.86622        -4.49222
| 30>    C        6.01712       -13.69002        -3.24223
| 31>    N        6.88897       -13.64225        -2.16967
| 32>    O        6.62529       -12.86854        -1.25610
| 33>    O        7.87850       -14.36234        -2.20683
| 34>    C        4.88662       -12.93616        -3.45601
| 35>    C        4.19341       -13.30678        -4.61038
| 36>    C        2.93245       -12.72470        -5.03862
| 37>    C        2.74823       -11.40076        -5.00171
| 38>    N        1.65698       -10.68178        -5.42602
| 39>    C        0.43312       -11.10954        -5.81343
| 40>    S       -0.16571       -12.70841        -5.53356
| 41>    C       -1.72428       -12.22342        -6.13635
| 42>    N       -2.72289       -13.18834        -6.18522
| 43>    O       -3.82091       -12.85593        -6.60148
| 44>    O       -2.42135       -14.31252        -5.80857
| 45>    C       -1.76300       -10.91174        -6.53911
| 46>    C       -0.53288       -10.26220        -6.37917
| 47>    C       -0.21111        -8.91712        -6.79900
| 48>    C       -1.09056        -7.91202        -6.89942
| 49>    N       -0.78913        -6.62640        -7.31688
| 50>    C        0.45306        -6.15005        -7.63178
| 51>    S        0.64231        -5.18475        -9.06647
| 52>    C        2.34770        -5.08013        -8.76081
| 53>    N        3.12007        -4.33100        -9.64462
| 54>    O        4.32733        -4.29898        -9.45700
| 55>    O        2.53696        -3.77031       -10.55850
| 56>    C        2.73396        -5.74565        -7.62630
| 57>    C        1.65856        -6.34960        -6.94775
| 58>    C        1.76141        -6.96607        -5.65037
| 59>    C        2.89615        -7.51544        -5.14785
| 60>    C        3.02475        -7.98783        -3.82185
| 61>    C        4.14082        -8.61125        -3.33017
| 62>    C        4.37684        -9.01670        -1.98808
| 63>    C        5.57549        -9.62354        -1.78666
| 64>    C        6.34956        -9.77874        -2.96326
| 65>    S        5.51332        -9.06903        -4.33471
| 66>    C        7.55075       -10.42819        -3.10162
| 67>    C        8.37983       -10.93220        -2.05463
| 68>    C        9.47390       -11.59238        -2.48781
| 69>    C        9.59849       -11.66297        -3.91702
| 70>    S        8.24294       -10.79733        -4.66499
| 71>    C       10.55320       -12.27282        -4.62863
| 72>    H        7.74180        -5.60610        -8.16720
| 73>    H        8.59381        -6.91088        -7.18508
| 74>    H        5.44496        -6.21107        -9.29853
| 75>    H        3.80386        -8.19924        -9.50608
| 76>    H        2.76548       -10.31617        -9.49478
| 77>    H        2.08905       -12.76114        -9.08452
| 78>    H        2.97602       -14.92962        -7.94018
| 79>    H        4.74430       -15.88414        -6.61861
| 80>    H        4.56021       -12.18087        -2.76471
| 81>    H        2.19728       -13.40280        -5.44129
| 82>    H        3.55052       -10.76862        -4.65398
| 83>    H        1.79122        -9.67582        -5.45066
| 84>    H       -2.64640       -10.46669        -6.95787
| 85>    H        0.82046        -8.74646        -7.06951
| 86>    H       -2.13132        -8.04742        -6.64706
| 87>    H       -1.56156        -6.10956        -7.71464
| 88>    H        3.74969        -5.74841        -7.27646
| 89>    H        0.86509        -6.95198        -5.04462
| 90>    H        3.77383        -7.59679        -5.77773
| 91>    H        2.20429        -7.81502        -3.13791
| 92>    H        3.64895        -8.83433        -1.21730
| 93>    H        5.91235       -10.01178        -0.84285
| 94>    H        8.12311       -10.78928        -1.02131
| 95>    H       10.20653       -12.05429        -1.85126
| 96>    H       11.35116       -12.79862        -4.13515
| 97>    H       10.54862       -12.26744        -5.70352
| 98> *
| 99>
|100>                          ****END OF INPUT****

CARTESIAN COORDINATES (ANGSTROEM)
---------------------------------
  C      7.756310   -6.613290   -7.789440
  C      6.755560   -7.455680   -8.072160
  C      5.585150   -7.183580   -8.859150
  C      4.731410   -8.223760   -8.961110
  C      5.151270   -9.399660   -8.268920
  S      6.697870   -9.130010   -7.494010
  C      4.498430  -10.602820   -8.196230
  C      3.308090  -10.996230   -8.862580
  C      2.952520  -12.286510   -8.653450
  C      3.819410  -12.999920   -7.773580
  S      5.125410  -11.938530   -7.239370
  C      3.694010  -14.307080   -7.424180
  N      4.426160  -14.941580   -6.437750
  C      4.834590  -14.352930   -5.285190
  S      6.291550  -14.866220   -4.492220
  C      6.017120  -13.690020   -3.242230
  N      6.888970  -13.642250   -2.169670
  O      6.625290  -12.868540   -1.256100
  O      7.878500  -14.362340   -2.206830
  C      4.886620  -12.936160   -3.456010
  C      4.193410  -13.306780   -4.610380
  C      2.932450  -12.724700   -5.038620
  C      2.748230  -11.400760   -5.001710
  N      1.656980  -10.681780   -5.426020
  C      0.433120  -11.109540   -5.813430
  S     -0.165710  -12.708410   -5.533560
  C     -1.724280  -12.223420   -6.136350
  N     -2.722890  -13.188340   -6.185220
  O     -3.820910  -12.855930   -6.601480
  O     -2.421350  -14.312520   -5.808570
  C     -1.763000  -10.911740   -6.539110
  C     -0.532880  -10.262200   -6.379170
  C     -0.211110   -8.917120   -6.799000
  C     -1.090560   -7.912020   -6.899420
  N     -0.789130   -6.626400   -7.316880
  C      0.453060   -6.150050   -7.631780
  S      0.642310   -5.184750   -9.066470
  C      2.347700   -5.080130   -8.760810
  N      3.120070   -4.331000   -9.644620
  O      4.327330   -4.298980   -9.457000
  O      2.536960   -3.770310  -10.558500
  C      2.733960   -5.745650   -7.626300
  C      1.658560   -6.349600   -6.947750
  C      1.761410   -6.966070   -5.650370
  C      2.896150   -7.515440   -5.147850
  C      3.024750   -7.987830   -3.821850
  C      4.140820   -8.611250   -3.330170
  C      4.376840   -9.016700   -1.988080
  C      5.575490   -9.623540   -1.786660
  C      6.349560   -9.778740   -2.963260
  S      5.513320   -9.069030   -4.334710
  C      7.550750  -10.428190   -3.101620
  C      8.379830  -10.932200   -2.054630
  C      9.473900  -11.592380   -2.487810
  C      9.598490  -11.662970   -3.917020
  S      8.242940  -10.797330   -4.664990
  C     10.553200  -12.272820   -4.628630
  H      7.741800   -5.606100   -8.167200
  H      8.593810   -6.910880   -7.185080
  H      5.444960   -6.211070   -9.298530
  H      3.803860   -8.199240   -9.506080
  H      2.765480  -10.316170   -9.494780
  H      2.089050  -12.761140   -9.084520
  H      2.976020  -14.929620   -7.940180
  H      4.744300  -15.884140   -6.618610
  H      4.560210  -12.180870   -2.764710
  H      2.197280  -13.402800   -5.441290
  H      3.550520  -10.768620   -4.653980
  H      1.791220   -9.675820   -5.450660
  H     -2.646400  -10.466690   -6.957870
  H      0.820460   -8.746460   -7.069510
  H     -2.131320   -8.047420   -6.647060
  H     -1.561560   -6.109560   -7.714640
  H      3.749690   -5.748410   -7.276460
  H      0.865090   -6.951980   -5.044620
  H      3.773830   -7.596790   -5.777730
  H      2.204290   -7.815020   -3.137910
  H      3.648950   -8.834330   -1.217300
  H      5.912350  -10.011780   -0.842850
  H      8.123110  -10.789280   -1.021310
  H     10.206530  -12.054290   -1.851260
  H     11.351160  -12.798620   -4.135150
  H     10.548620  -12.267440   -5.703520

 Total Charge           Charge          ....    0
 Multiplicity           Mult            ....    1
 Number of Electrons    NEL             ....  456
 Basis Dimension        Dim             ....  956

ORBITAL ENERGIES
----------------

  NO   OCC          E(Eh)            E(eV)
   0   2.0000     -88.984595     -2421.3939
   1   2.0000     -88.975840     -2421.1557
   2   2.0000     -88.971384     -2421.0344
   3   2.0000     -88.947436     -2420.3828
   4   2.0000     -88.940749     -2420.2008
   5   2.0000     -88.940658     -2420.1983
   6   2.0000     -88.935499     -2420.0580
   7   2.0000     -19.242439      -523.6134
   8   2.0000     -19.241254      -523.5811
   9   2.0000     -19.228532      -523.2350
  10   2.0000     -19.227357      -523.2030
  11   2.0000     -19.222951      -523.0831
  12   2.0000     -19.222613      -523.0739
  13   2.0000     -14.653326      -398.7373
  14   2.0000     -14.637394      -398.3037
  15   2.0000     -14.635201      -398.2441
  16   2.0000     -14.477853      -393.9624
  17   2.0000     -14.471865      -393.7995
  18   2.0000     -14.467978      -393.6937
  19   2.0000     -10.367229      -282.1067
  20   2.0000     -10.357958      -281.8544
  21   2.0000     -10.355440      -281.7859
  22   2.0000     -10.344377      -281.4848
  23   2.0000     -10.329538      -281.0810
  24   2.0000     -10.327360      -281.0217
  25   2.0000     -10.327101      -281.0147
  26   2.0000     -10.320937      -280.8470
  27   2.0000     -10.314951      -280.6841
  28   2.0000     -10.314924      -280.6833
  29   2.0000     -10.314232      -280.6645
  30   2.0000     -10.311210      -280.5823
  31   2.0000     -10.307316      -280.4763
  32   2.0000     -10.306809      -280.4625
  33   2.0000     -10.306442      -280.4526
  34   2.0000     -10.305908      -280.4380
  35   2.0000     -10.305017      -280.4138
  36   2.0000     -10.301901      -280.3290
  37   2.0000     -10.301739      -280.3246
  38   2.0000     -10.299870      -280.2737
  39   2.0000     -10.295587      -280.1572
  40   2.0000     -10.291709      -280.0516
  41   2.0000     -10.291320      -280.0411
  42   2.0000     -10.289835      -280.0006
  43   2.0000     -10.289332      -279.9870
  44   2.0000     -10.287030      -279.9243
  45   2.0000     -10.286914      -279.9212
  46   2.0000     -10.286067      -279.8981
  47   2.0000     -10.285983      -279.8958
  48   2.0000     -10.284286      -279.8496
  49   2.0000     -10.283883      -279.8387
  50   2.0000     -10.282178      -279.7923
  51   2.0000     -10.281156      -279.7645
  52   2.0000     -10.280073      -279.7350
  53   2.0000     -10.277456      -279.6638
  54   2.0000     -10.271534      -279.5027
  55   2.0000     -10.270142      -279.4648
  56   2.0000     -10.266287      -279.3599
  57   2.0000      -8.080592      -219.8841
  58   2.0000      -8.070649      -219.6135
  59   2.0000      -8.067134      -219.5179
  60   2.0000      -8.042177      -218.8388
  61   2.0000      -8.037093      -218.7004
  62   2.0000      -8.035828      -218.6660
  63   2.0000      -8.031726      -218.5544
  64   2.0000      -6.050189      -164.6340
  65   2.0000      -6.045915      -164.5177
  66   2.0000      -6.041975      -164.4105
  67   2.0000      -6.040291      -164.3647
  68   2.0000      -6.036819      -164.2702
  69   2.0000      -6.035861      -164.2441
  70   2.0000      -6.032494      -164.1525
  71   2.0000      -6.032270      -164.1464
  72   2.0000      -6.028473      -164.0431
  73   2.0000      -6.011908      -163.5923
  74   2.0000      -6.008031      -163.4868
  75   2.0000      -6.006846      -163.4546
  76   2.0000      -6.005871      -163.4281
  77   2.0000      -6.003080      -163.3521
  78   2.0000      -6.002940      -163.3483
  79   2.0000      -6.001776      -163.3166
  80   2.0000      -6.001589      -163.3116
  81   2.0000      -5.997767      -163.2075
  82   2.0000      -5.997630      -163.2038
  83   2.0000      -5.996317      -163.1681
  84   2.0000      -5.992244      -163.0573
  85   2.0000      -1.321270       -35.9536
  86   2.0000      -1.304449       -35.4959
  87   2.0000      -1.302688       -35.4479
  88   2.0000      -1.139963       -31.0200
  89   2.0000      -1.122589       -30.5472
  90   2.0000      -1.121363       -30.5138
  91   2.0000      -1.081744       -29.4358
  92   2.0000      -1.076173       -29.2841
  93   2.0000      -1.073098       -29.2005
  94   2.0000      -1.004228       -27.3264
  95   2.0000      -0.994061       -27.0498
  96   2.0000      -0.992441       -27.0057
  97   2.0000      -0.991319       -26.9752
  98   2.0000      -0.986585       -26.8463
  99   2.0000      -0.970220       -26.4010
 100   2.0000      -0.964196       -26.2371
 101   2.0000      -0.925069       -25.1724
 102   2.0000      -0.912776       -24.8379
 103   2.0000      -0.902136       -24.5484
 104   2.0000      -0.895908       -24.3789
 105   2.0000      -0.887090       -24.1390
 106   2.0000      -0.881342       -23.9825
 107   2.0000      -0.871115       -23.7042
 108   2.0000      -0.866953       -23.5910
 109   2.0000      -0.862278       -23.4638
 110   2.0000      -0.844744       -22.9867
 111   2.0000      -0.841879       -22.9087
 112   2.0000      -0.840654       -22.8754
 113   2.0000      -0.834545       -22.7091
 114   2.0000      -0.828642       -22.5485
 115   2.0000      -0.827899       -22.5283
 116   2.0000      -0.817853       -22.2549
 117   2.0000      -0.816174       -22.2092
 118   2.0000      -0.796081       -21.6625
 119   2.0000      -0.788602       -21.4590
 120   2.0000      -0.778002       -21.1705
 121   2.0000      -0.771594       -20.9961
 122   2.0000      -0.757000       -20.5990
 123   2.0000      -0.737017       -20.0553
 124   2.0000      -0.724149       -19.7051
 125   2.0000      -0.719408       -19.5761
 126   2.0000      -0.696222       -18.9452
 127   2.0000      -0.687744       -18.7145
 128   2.0000      -0.685546       -18.6547
 129   2.0000      -0.681579       -18.5467
 130   2.0000      -0.671538       -18.2735
 131   2.0000      -0.663652       -18.0589
 132   2.0000      -0.661428       -17.9984
 133   2.0000      -0.648719       -17.6525
 134   2.0000      -0.646816       -17.6008
 135   2.0000      -0.639400       -17.3990
 136   2.0000      -0.634730       -17.2719
 137   2.0000      -0.632816       -17.2198
 138   2.0000      -0.631113       -17.1735
 139   2.0000      -0.628469       -17.1015
 140   2.0000      -0.621503       -16.9120
 141   2.0000      -0.620569       -16.8865
 142   2.0000      -0.619279       -16.8514
 143   2.0000      -0.617959       -16.8155
 144   2.0000      -0.616551       -16.7772
 145   2.0000      -0.613886       -16.7047
 146   2.0000      -0.610250       -16.6057
 147   2.0000      -0.606631       -16.5073
 148   2.0000      -0.604344       -16.4450
 149   2.0000      -0.598779       -16.2936
 150   2.0000      -0.596178       -16.2228
 151   2.0000      -0.593117       -16.1395
 152   2.0000      -0.590016       -16.0551
 153   2.0000      -0.588735       -16.0203
 154   2.0000      -0.580181       -15.7875
 155   2.0000      -0.575265       -15.6537
 156   2.0000      -0.569199       -15.4887
 157   2.0000      -0.562739       -15.3129
 158   2.0000      -0.557810       -15.1788
 159   2.0000      -0.554029       -15.0759
 160   2.0000      -0.552136       -15.0244
 161   2.0000      -0.544458       -14.8154
 162   2.0000      -0.537312       -14.6210
 163   2.0000      -0.528132       -14.3712
 164   2.0000      -0.525506       -14.2997
 165   2.0000      -0.522611       -14.2210
 166   2.0000      -0.517957       -14.0943
 167   2.0000      -0.513789       -13.9809
 168   2.0000      -0.510436       -13.8897
 169   2.0000      -0.506480       -13.7820
 170   2.0000      -0.504705       -13.7337
 171   2.0000      -0.499833       -13.6011
 172   2.0000      -0.496265       -13.5041
 173   2.0000      -0.494072       -13.4444
 174   2.0000      -0.493292       -13.4232
 175   2.0000      -0.487390       -13.2625
 176   2.0000      -0.484716       -13.1898
 177   2.0000      -0.483344       -13.1525
 178   2.0000      -0.480868       -13.0851
 179   2.0000      -0.480250       -13.0683
 180   2.0000      -0.476672       -12.9709
 181   2.0000      -0.476072       -12.9546
 182   2.0000      -0.470216       -12.7952
 183   2.0000      -0.468025       -12.7356
 184   2.0000      -0.464164       -12.6305
 185   2.0000      -0.461205       -12.5500
 186   2.0000      -0.457388       -12.4462
 187   2.0000      -0.457149       -12.4397
 188   2.0000      -0.453786       -12.3481
 189   2.0000      -0.446496       -12.1498
 190   2.0000      -0.443337       -12.0638
 191   2.0000      -0.439476       -11.9588
 192   2.0000      -0.434941       -11.8354
 193   2.0000      -0.430971       -11.7273
 194   2.0000      -0.426973       -11.6185
 195   2.0000      -0.424384       -11.5481
 196   2.0000      -0.420955       -11.4548
 197   2.0000      -0.416452       -11.3322
 198   2.0000      -0.410476       -11.1696
 199   2.0000      -0.400254       -10.8915
 200   2.0000      -0.393004       -10.6942
 201   2.0000      -0.390101       -10.6152
 202   2.0000      -0.386972       -10.5301
 203   2.0000      -0.383647       -10.4396
 204   2.0000      -0.380826       -10.3628
 205   2.0000      -0.378809       -10.3079
 206   2.0000      -0.375416       -10.2156
 207   2.0000      -0.372094       -10.1252
 208   2.0000      -0.368822       -10.0362
 209   2.0000      -0.367004        -9.9867
 210   2.0000      -0.363796        -9.8994
 211   2.0000      -0.362183        -9.8555
 212   2.0000      -0.356485        -9.7004
 213   2.0000      -0.352357        -9.5881
 214   2.0000      -0.347632        -9.4595
 215   2.0000      -0.336481        -9.1561
 216   2.0000      -0.334965        -9.1149
 217   2.0000      -0.331920        -9.0320
 218   2.0000      -0.328851        -8.9485
 219   2.0000      -0.323039        -8.7903
 220   2.0000      -0.319651        -8.6982
 221   2.0000      -0.311279        -8.4703
 222   2.0000      -0.298440        -8.1210
 223   2.0000      -0.287101        -7.8124
 224   2.0000      -0.275146        -7.4871
 225   2.0000      -0.247374        -6.7314
 226   2.0000      -0.222213        -6.0467
 227   2.0000      -0.218891        -5.9563
 228   0.0000      -0.072734        -1.9792
 229   0.0000      -0.062053        -1.6885
 230   0.0000      -0.061537        -1.6745
 231   0.0000      -0.045252        -1.2314
 232   0.0000      -0.039192        -1.0665

MULLIKEN ATOMIC CHARGES
-----------------------
   0 C :   -0.024939
   1 C :   -0.076246
   2 C :    0.037774
   3 C :    0.026515
   4 C :   -0.076726
   5 S :    0.081687
   6 C :   -0.058658
   7 C :    0.016926
   8 C :    0.039826
   9 C :   -0.033892
  10 S :    0.080542
  11 C :   -0.008994
  12 N :   -0.039880
  13 C :   -0.124565
  14 S :    0.162734
  15 C :   -0.031641
  16 N :    0.291475
  17 O :   -0.280910
  18 O :   -0.275717
  19 C :    0.027059
  20 C :    0.067536
  21 C :   -0.034544
  22 C :    0.067224
  23 N :   -0.037501
  24 C :   -0.094392
  25 S :    0.145288
  26 C :   -0.024203
  27 N :    0.281388
  28 O :   -0.267748
  29 O :   -0.280633
  30 C :    0.006570
  31 C :    0.096431
  32 C :   -0.058019
  33 C :    0.035922
  34 N :   -0.044842
  35 C :   -0.130942
  36 S :    0.168384
  37 C :   -0.026586
  38 N :    0.288451
  39 O :   -0.257113
  40 O :   -0.260521
  41 C :    0.006790
  42 C :    0.100787
  43 C :   -0.073342
  44 C :   -0.005667
  45 C :   -0.060879
  46 C :   -0.025061
  47 C :    0.028649
  48 C :    0.050197
  49 C :   -0.066453
  50 S :    0.058268
  51 C :   -0.078128
  52 C :    0.064557
  53 C :    0.056090
  54 C :   -0.072705
  55 S :    0.088671
  56 C :   -0.016168
  57 H :    0.029350
  58 H :    0.022466
  59 H :   -0.003119
  60 H :   -0.014788
  61 H :   -0.014237
  62 H :   -0.012021
  63 H :    0.007704
  64 H :    0.142594
  65 H :   -0.002319
  66 H :    0.020112
  67 H :    0.016859
  68 H :    0.149033
  69 H :   -0.003075
  70 H :    0.016091
  71 H :    0.009914
  72 H :    0.139512
  73 H :    0.019656
  74 H :    0.007805
  75 H :    0.021563
  76 H :   -0.015231
  77 H :   -0.013505
  78 H :    0.001206
  79 H :   -0.000891
  80 H :   -0.004141
  81 H :    0.026280
  82 H :    0.025054
Sum of atomic charges:    0.0000000

LOEWDIN ATOMIC CHARGES
----------------------
   0 C :   -0.069547
   1 C :   -0.144866
   2 C :   -0.028797
   3 C :   -0.037864
   4 C :   -0.184509
   5 S :    0.354437
   6 C :   -0.187127
   7 C :   -0.039647
   8 C :   -0.033530
   9 C :   -0.167837
  10 S :    0.377869
  11 C :   -0.029012
  12 N :    0.021444
  13 C :   -0.121717
  14 S :    0.441256
  15 C :   -0.222433
  16 N :    0.280988
  17 O :   -0.234017
  18 O :   -0.240022
  19 C :    0.008492
  20 C :   -0.097310
  21 C :   -0.094330
  22 C :    0.024489
  23 N :    0.041716
  24 C :   -0.095765
  25 S :    0.469142
  26 C :   -0.227036
  27 N :    0.273708
  28 O :   -0.233603
  29 O :   -0.247088
  30 C :   -0.004150
  31 C :   -0.107705
  32 C :   -0.083429
  33 C :    0.016449
  34 N :    0.011012
  35 C :   -0.109326
  36 S :    0.445186
  37 C :   -0.218277
  38 N :    0.277917
  39 O :   -0.223520
  40 O :   -0.226853
  41 C :    0.010516
  42 C :   -0.100994
  43 C :   -0.039504
  44 C :   -0.035836
  45 C :   -0.098306
  46 C :   -0.135000
  47 C :   -0.052964
  48 C :   -0.010484
  49 C :   -0.197010
  50 S :    0.377258
  51 C :   -0.161200
  52 C :   -0.023880
  53 C :   -0.020196
  54 C :   -0.140620
  55 S :    0.361162
  56 C :   -0.060789
  57 H :    0.033062
  58 H :    0.026886
  59 H :    0.029715
  60 H :    0.029572
  61 H :    0.030817
  62 H :    0.032841
  63 H :    0.028089
  64 H :    0.091124
  65 H :    0.042375
  66 H :    0.012299
  67 H :    0.019372
  68 H :    0.091434
  69 H :    0.039855
  70 H :    0.029062
  71 H :    0.028789
  72 H :    0.089986
  73 H :    0.045865
  74 H :    0.031102
  75 H :    0.025989
  76 H :    0.031385
  77 H :    0.033120
  78 H :    0.038061
  79 H :    0.034702
  80 H :    0.037490
  81 H :    0.032131
  82 H :    0.027934

  Mayer bond orders larger than 0.100000
B(  0-C ,  1-C ) :   1.8746 B(  0-C , 57-H ) :   0.9479 B(  0-C , 58-H ) :   0.9400
B(  1-C ,  2-C ) :   1.0740 B(  1-C ,  5-S ) :   1.0015 B(  2-C ,  3-C ) :   1.6538
B(  2-C , 59-H ) :   0.9774 B(  3-C ,  4-C ) :   1.1394 B(  3-C , 60-H ) :   0.9911
B(  4-C ,  5-S ) :   1.0435 B(  4-C ,  6-C ) :   1.5747 B(  6-C ,  7-C ) :   1.1519
B(  6-C , 10-S ) :   1.0284 B(  7-C ,  8-C ) :   1.6341 B(  7-C , 61-H ) :   0.9946
B(  8-C ,  9-C ) :   1.1226 B(  8-C , 62-H ) :   1.0002 B(  9-C , 10-S ) :   1.0278
B(  9-C , 11-C ) :   1.6314 B( 11-C , 12-N ) :   1.0965 B( 11-C , 63-H ) :   0.9698
B( 12-N , 13-C ) :   1.2060 B( 12-N , 64-H ) :   0.9143 B( 13-C , 14-S ) :   1.1326
B( 13-C , 20-C ) :   1.3635 B( 14-S , 15-C ) :   1.0719 B( 15-C , 16-N ) :   1.0134
B( 15-C , 19-C ) :   1.4251 B( 16-N , 17-O ) :   1.4793 B( 16-N , 18-O ) :   1.4884
B( 17-O , 18-O ) :   0.2310 B( 19-C , 20-C ) :   1.2975 B( 19-C , 65-H ) :   0.9951
B( 20-C , 21-C ) :   1.0570 B( 21-C , 22-C ) :   1.7816 B( 21-C , 66-H ) :   0.9256
B( 22-C , 23-N ) :   1.1238 B( 22-C , 67-H ) :   0.9510 B( 23-N , 24-C ) :   1.2361
B( 23-N , 68-H ) :   0.8858 B( 24-C , 25-S ) :   1.1367 B( 24-C , 31-C ) :   1.3531
B( 25-S , 26-C ) :   1.0652 B( 26-C , 27-N ) :   0.9979 B( 26-C , 30-C ) :   1.4482
B( 27-N , 28-O ) :   1.5174 B( 27-N , 29-O ) :   1.4970 B( 28-O , 29-O ) :   0.2454
B( 30-C , 31-C ) :   1.2807 B( 30-C , 69-H ) :   1.0018 B( 31-C , 32-C ) :   1.0750
B( 32-C , 33-C ) :   1.7684 B( 32-C , 70-H ) :   0.9305 B( 33-C , 34-N ) :   1.0954
B( 33-C , 71-H ) :   0.9696 B( 34-N , 35-C ) :   1.1947 B( 34-N , 72-H ) :   0.9157
B( 35-C , 36-S ) :   1.1399 B( 35-C , 42-C ) :   1.3676 B( 36-S , 37-C ) :   1.0805
B( 37-C , 38-N ) :   0.9892 B( 37-C , 41-C ) :   1.4617 B( 38-N , 39-O ) :   1.4899
B( 38-N , 40-O ) :   1.5144 B( 39-O , 40-O ) :   0.2451 B( 41-C , 42-C ) :   1.2545
B( 41-C , 73-H ) :   1.0013 B( 42-C , 43-C ) :   1.0519 B( 43-C , 44-C ) :   1.6543
B( 43-C , 74-H ) :   0.9776 B( 44-C , 45-C ) :   1.1205 B( 44-C , 75-H ) :   0.9734
B( 45-C , 46-C ) :   1.5693 B( 45-C , 76-H ) :   0.9853 B( 46-C , 47-C ) :   1.1216
B( 46-C , 50-S ) :   1.0454 B( 47-C , 48-C ) :   1.5891 B( 47-C , 77-H ) :   1.0014
B( 48-C , 49-C ) :   1.1826 B( 48-C , 78-H ) :   0.9932 B( 49-C , 50-S ) :   1.0163
B( 49-C , 51-C ) :   1.5515 B( 51-C , 52-C ) :   1.1437 B( 51-C , 55-S ) :   1.0615
B( 52-C , 53-C ) :   1.6642 B( 52-C , 79-H ) :   0.9893 B( 53-C , 54-C ) :   1.0709
B( 53-C , 80-H ) :   0.9948 B( 54-C , 55-S ) :   0.9957 B( 54-C , 56-C ) :   1.8785
B( 56-C , 81-H ) :   0.9493 B( 56-C , 82-H ) :   0.9399

-----------------------------------------------------------------------------
         ABSORPTION SPECTRUM VIA TRANSITION ELECTRIC DIPOLE MOMENTS
-----------------------------------------------------------------------------
State   Energy  Wavelength   fosc         T2         TX        TY        TZ
        (cm-1)    (nm)                  (au**2)     (au)      (au)      (au)
-----------------------------------------------------------------------------
   0   15994.2    625.2   0.001997100   0.04111  -0.11164  -0.10828   0.13007
   1   17574.0    569.0   0.159726351   2.99214  -1.58759  -0.34148   0.59589
   2   18383.5    544.0   0.386253893   6.91704  -2.62050   0.17130   0.14384
   3   18580.2    538.2   0.537258764   9.51938   1.64966  -2.22485   1.35942
   4   19071.2    524.3   0.173097423   2.98805  -0.92415   1.29768  -0.67083
   5   20645.8    484.4   0.137112738   2.18636  -0.33671   1.25681  -0.70244
   6   21955.3    455.5   0.160031865   2.39963   0.51081  -1.41263   0.37838
   7   22216.5    450.1   0.123393824   1.82849  -1.30236   0.20195  -0.30259
   8   23008.8    434.6   0.111292775   1.59238   1.18107   0.07085   0.43868
   9   23317.9    428.9   0.034449288   0.48637  -0.53278  -0.44887   0.03213
  10   24844.1    402.5   0.064432318   0.85380   0.66220  -0.32302  -0.55763
  11   25122.7    398.0   0.079840156   1.04624   0.81314  -0.14180   0.60410
  12   25313.6    395.0   0.728022615   9.46817  -1.21590  -2.79454   0.42463
  13   26614.9    375.7   0.327947259   4.05653  -1.90588  -0.20653  -0.61765
  14   27519.8    363.4   0.005735634   0.06861  -0.05563   0.03996   0.25283
  15   28777.8    347.5   0.037695491   0.43123  -0.41202   0.16495  -0.48400
  16   28868.7    346.4   0.049505733   0.56455  -0.51949   0.35955   0.40671
  17   29161.6    342.9   0.044469424   0.50203  -0.39770   0.48485   0.32981
  18   30227.9    330.8   0.368991379   4.01868  -1.50263  -0.67668  -1.14143
  19   30516.0    327.7   0.120584585   1.30089   0.32035   0.59695   0.91756
  20   31875.8    313.7   0.306735761   3.16795  -1.35817  -0.81248   0.81436
  21   32339.6    309.2   0.064973042   0.66142   0.52564  -0.35676   0.50778
  22   32932.3    303.7   0.130488536   1.30445   0.11296  -0.71171  -0.88609
  23   33101.8    302.1   0.046552900   0.46299  -0.36583  -0.54751   0.17144
  24   33360.1    299.8   0.148988028   1.47028   0.50075  -0.40913   1.02574
  25   33454.1    298.9   0.019199123   0.18893  -0.34565  -0.24423   0.09903
  26   33489.7    298.6   0.049081693   0.48249   0.54988   0.00909   0.42431
  27   33938.7    294.6   0.022466205   0.21793  -0.23324   0.26891  -0.30202
  28   34204.2    292.4   0.006108565   0.05879   0.01606   0.24192  -0.00342
  29   34514.0    289.7   0.037540777   0.35808  -0.57337  -0.02812   0.16894
  30   34570.1    289.3   0.039407149   0.37528  -0.59223  -0.12239  -0.09776
  31   34622.4    288.8   0.002530165   0.02406  -0.02871   0.05836  -0.14081
  32   34846.8    287.0   0.058210370   0.54994   0.12109  -0.57228   0.45582
  33   34986.4    285.8   0.028956622   0.27247  -0.23427   0.46103  -0.07103
  34   35316.8    283.2   0.022012989   0.20520   0.32502  -0.15726   0.27355
  35   35446.9    282.1   0.009848537   0.09147   0.11408  -0.21714  -0.17694
  36   35536.4    281.4   0.012212402   0.11314  -0.11109   0.29082  -0.12736
  37   36216.7    276.1   0.122057030   1.10951  -0.15481   0.28813  -1.00126
  38   36330.9    275.2   0.038771262   0.35132  -0.04341   0.52899  -0.26384
  39   36907.3    270.9   0.044219303   0.39443  -0.41445  -0.45441   0.12721
  40   37128.2    269.3   0.049621798   0.43999  -0.35736   0.00485  -0.55881
  41   37595.5    266.0   0.004691152   0.04108   0.14446   0.02236   0.14040
  42   37724.6    265.1   0.041579114   0.36285  -0.23005   0.14582  -0.53727
  43   37765.0    264.8   0.046535227   0.40566   0.02559   0.51723  -0.37078
  44   37942.0    263.6   0.005146365   0.04465   0.07000   0.15545  -0.12485
  45   37995.0    263.2   0.061373205   0.53178   0.04760   0.41914  -0.59484
  46   38211.9    261.7   0.233711471   2.01353  -0.76756   0.98887  -0.66823
  47   38518.1    259.6   0.040670120   0.34760  -0.30715   0.32518   0.38409
  48   38579.9    259.2   0.199517818   1.70253  -0.63282   1.02672  -0.49791
  49   38725.3    258.2   0.010162584   0.08639  -0.00136   0.27387   0.10671
  50   39189.7    255.2   0.018426454   0.15479  -0.25652  -0.07672   0.28828
  51   39308.6    254.4   0.057104243   0.47825   0.46226  -0.49251   0.14833
  52   39523.9    253.0   0.021113646   0.17586  -0.26359  -0.05270   0.32188
  53   39814.5    251.2   0.049924504   0.41281  -0.63523   0.06486  -0.07133
  54   39952.3    250.3   0.004153206   0.03422  -0.08225  -0.05915  -0.15479

FINAL SINGLE POINT ENERGY     -5026.812687682145

DIPOLE MOMENT
-------------
                                X             Y             Z
Electronic contribution:     -5.90911      -9.44796      -3.89181
Nuclear contribution   :      5.86534      10.01050       3.94474
                        -----------------------------------------
Total Dipole Moment    :     -0.04378       0.56254       0.05294
                        -----------------------------------------
Magnitude (a.u.)       :      0.56672
Magnitude (Debye)      :      1.44049

Rotational constants in cm-1:     0.001648     0.001142     0.000829
Rotational constants in MHz :    49.412311    34.250715    24.848447

                             ****ORCA TERMINATED NORMALLY****
TOTAL RUN TIME: 0 days 0 hours 8 minutes 6 seconds 22 msec
