                         Program Version 4.2.0 -  RELEASE  -
|  1> # ORCA input file
|  2> # SCF done       -183.184319212542          0.000672445623
|  3> ! CAM-B3LYP def2-SVP def2/J RIJCOSX Grid4 TightSCF
|  4> %maxcore 5000
|  5> %tddft
|  6>     Mode sTDDFT
|  7>     Ethresh 5.0
|  8>     maxcore 5000
|  9> end
| 10>
| 11> %pal
| 12>   nprocs 6
| 13>   end
| 14> * xyz 0 1
| 15>    C       -0.17810        -3.01177         0.54716
| 16>    C       -0.77947        -3.96800         1.32987
| 17>    C       -0.34422        -5.30769         1.41410
| 18>    N       -0.04755        -6.41136         1.52155
| 19>    C       -1.88876        -3.77309         2.17365
| 20>    N       -2.77898        -3.70296         2.89929
| 21>    C        1.01488        -3.22480        -0.26625
| 22>    C        1.37774        -1.99544        -0.86962
| 23>    C        2.47117        -1.86354        -1.68921
| 24>    C        3.24717        -3.00304        -1.92857
| 25>    C        2.87650        -4.22820        -1.32515
| 26>    C        1.77006        -4.35995        -0.49468
| 27>    S        3.96999        -5.50844        -1.75399
| 28>    C        4.89818        -4.39579        -2.72322
| 29>    C        4.41551        -3.13010        -2.72787
| 30>   Br        6.41629        -5.00857        -3.63778
| 31>    C        0.41147        -0.95574        -0.46870
| 32>    O        0.43080         0.21312        -0.80817
| 33>    C       -0.56354        -1.62209         0.40176
| 34>    C       -1.67707        -1.05792         0.97526
| 35>    C       -2.16366         0.25337         0.96564
| 36>    S       -1.44208         1.58113         0.09619
| 37>    C       -2.67916         2.62304         0.63602
| 38>    C       -3.62600         2.03446         1.42887
| 39>    C       -4.74562         2.81786         2.03075
| 40>    C       -3.34875         0.65806         1.63660
| 41>    C       -4.09478        -0.24793         2.45578
| 42>    C       -5.40664        -0.16907         2.78910
| 43>    C       -6.09408        -1.11340         3.60725
| 44>    C       -5.59252        -2.29769         4.04622
| 45>    C       -6.28096        -3.21407         4.87694
| 46>    C       -7.53775        -3.11444         5.46403
| 47>    C       -7.84462        -4.22997         6.23206
| 48>    C       -6.81612        -5.19863         6.23510
| 49>    S       -5.47983        -4.72361         5.28827
| 50>    C       -7.21275        -6.28164         7.04966
| 51>    C       -8.49897        -5.99972         7.56677
| 52>    C       -8.93533        -4.70756         7.06836
| 53>    C      -10.11434        -4.07259         7.33084
| 54>    C      -10.41999        -2.80902         6.78417
| 55>    N      -10.66729        -1.78222         6.33698
| 56>    C      -11.10451        -4.63276         8.16523
| 57>    N      -11.91629        -5.07466         8.84421
| 58>    C       -8.97573        -7.00366         8.39475
| 59>    C       -8.06896        -8.05151         8.51798
| 60>    S       -6.60271        -7.78701         7.58229
| 61>    C       -8.22375        -9.22459         9.29537
| 62>    C       -7.21871       -10.22177         9.31675
| 63>    C       -7.33838       -11.42799        10.09447
| 64>    N       -6.28277       -12.25871        10.17951
| 65>    C       -5.21780       -12.02037         9.46514
| 66>    C       -5.15042       -10.88688         8.58512
| 67>    N       -6.12938       -10.01504         8.57083
| 68>    C       -4.01952       -10.67659         7.76146
| 69>    N       -3.08962       -10.53049         7.10826
| 70>    C       -4.09720       -12.88208         9.59027
| 71>    N       -3.17514       -13.55570         9.67279
| 72>    C       -8.50221       -11.72185        10.82429
| 73>    C       -9.49261       -10.72542        10.83821
| 74>    C       -9.36248        -9.49386        10.08742
| 75>    N      -10.43205        -8.71230        10.23989
| 76>    S      -11.48551        -9.43511        11.20627
| 77>    N      -10.65810       -10.77668        11.49310
| 78>    C       -8.66813       -12.99415        11.50413
| 79>    C       -9.29309       -13.12564        12.72201
| 80>    C       -9.42805       -14.36643        13.38399
| 81>    C       -8.96496       -15.53667        12.85592
| 82>    C       -8.35278       -15.46226        11.59055
| 83>    C       -8.19837       -14.19772        10.91311
| 84>    N       -7.64322       -14.44830         9.74261
| 85>    O       -7.45147       -15.76323         9.69749
| 86>    N       -7.86474       -16.39385        10.79138
| 87>    H        2.72126        -0.91188        -2.13119
| 88>    H        1.53156        -5.31626        -0.06066
| 89>    H        4.86405        -2.31891        -3.27167
| 90>    H       -2.29534        -1.74751         1.53206
| 91>    H       -2.65739         3.65700         0.34714
| 92>    H       -4.51575         3.87983         1.98556
| 93>    H       -4.89837         2.53414         3.06993
| 94>    H       -5.67329         2.65335         1.48325
| 95>    H       -3.54353        -1.09377         2.84025
| 96>    H       -6.01180         0.63811         2.40816
| 97>    H       -7.10849        -0.84883         3.87407
| 98>    H       -4.60324        -2.61383         3.74792
| 99>    H       -8.18279        -2.26517         5.33486
|100>    H       -9.92266        -7.00913         8.90278
|101>    H       -9.68281       -12.24226        13.20266
|102>    H       -9.91494       -14.37248        14.34774
|103>    H       -9.06048       -16.48505        13.35717
|104> *
|105>
|106>                          ****END OF INPUT****

CARTESIAN COORDINATES (ANGSTROEM)
---------------------------------
  C     -0.178100   -3.011770    0.547160
  C     -0.779470   -3.968000    1.329870
  C     -0.344220   -5.307690    1.414100
  N     -0.047550   -6.411360    1.521550
  C     -1.888760   -3.773090    2.173650
  N     -2.778980   -3.702960    2.899290
  C      1.014880   -3.224800   -0.266250
  C      1.377740   -1.995440   -0.869620
  C      2.471170   -1.863540   -1.689210
  C      3.247170   -3.003040   -1.928570
  C      2.876500   -4.228200   -1.325150
  C      1.770060   -4.359950   -0.494680
  S      3.969990   -5.508440   -1.753990
  C      4.898180   -4.395790   -2.723220
  C      4.415510   -3.130100   -2.727870
  Br     6.416290   -5.008570   -3.637780
  C      0.411470   -0.955740   -0.468700
  O      0.430800    0.213120   -0.808170
  C     -0.563540   -1.622090    0.401760
  C     -1.677070   -1.057920    0.975260
  C     -2.163660    0.253370    0.965640
  S     -1.442080    1.581130    0.096190
  C     -2.679160    2.623040    0.636020
  C     -3.626000    2.034460    1.428870
  C     -4.745620    2.817860    2.030750
  C     -3.348750    0.658060    1.636600
  C     -4.094780   -0.247930    2.455780
  C     -5.406640   -0.169070    2.789100
  C     -6.094080   -1.113400    3.607250
  C     -5.592520   -2.297690    4.046220
  C     -6.280960   -3.214070    4.876940
  C     -7.537750   -3.114440    5.464030
  C     -7.844620   -4.229970    6.232060
  C     -6.816120   -5.198630    6.235100
  S     -5.479830   -4.723610    5.288270
  C     -7.212750   -6.281640    7.049660
  C     -8.498970   -5.999720    7.566770
  C     -8.935330   -4.707560    7.068360
  C    -10.114340   -4.072590    7.330840
  C    -10.419990   -2.809020    6.784170
  N    -10.667290   -1.782220    6.336980
  C    -11.104510   -4.632760    8.165230
  N    -11.916290   -5.074660    8.844210
  C     -8.975730   -7.003660    8.394750
  C     -8.068960   -8.051510    8.517980
  S     -6.602710   -7.787010    7.582290
  C     -8.223750   -9.224590    9.295370
  C     -7.218710  -10.221770    9.316750
  C     -7.338380  -11.427990   10.094470
  N     -6.282770  -12.258710   10.179510
  C     -5.217800  -12.020370    9.465140
  C     -5.150420  -10.886880    8.585120
  N     -6.129380  -10.015040    8.570830
  C     -4.019520  -10.676590    7.761460
  N     -3.089620  -10.530490    7.108260
  C     -4.097200  -12.882080    9.590270
  N     -3.175140  -13.555700    9.672790
  C     -8.502210  -11.721850   10.824290
  C     -9.492610  -10.725420   10.838210
  C     -9.362480   -9.493860   10.087420
  N    -10.432050   -8.712300   10.239890
  S    -11.485510   -9.435110   11.206270
  N    -10.658100  -10.776680   11.493100
  C     -8.668130  -12.994150   11.504130
  C     -9.293090  -13.125640   12.722010
  C     -9.428050  -14.366430   13.383990
  C     -8.964960  -15.536670   12.855920
  C     -8.352780  -15.462260   11.590550
  C     -8.198370  -14.197720   10.913110
  N     -7.643220  -14.448300    9.742610
  O     -7.451470  -15.763230    9.697490
  N     -7.864740  -16.393850   10.791380
  H      2.721260   -0.911880   -2.131190
  H      1.531560   -5.316260   -0.060660
  H      4.864050   -2.318910   -3.271670
  H     -2.295340   -1.747510    1.532060
  H     -2.657390    3.657000    0.347140
  H     -4.515750    3.879830    1.985560
  H     -4.898370    2.534140    3.069930
  H     -5.673290    2.653350    1.483250
  H     -3.543530   -1.093770    2.840250
  H     -6.011800    0.638110    2.408160
  H     -7.108490   -0.848830    3.874070
  H     -4.603240   -2.613830    3.747920
  H     -8.182790   -2.265170    5.334860
  H     -9.922660   -7.009130    8.902780
  H     -9.682810  -12.242260   13.202660
  H     -9.914940  -14.372480   14.347740
  H     -9.060480  -16.485050   13.357170

 Total Charge           Charge          ....    0
 Multiplicity           Mult            ....    1
 Number of Electrons    NEL             ....  544
 Basis Dimension        Dim             .... 1131

ORBITAL ENERGIES
----------------

  NO   OCC          E(Eh)            E(eV)
   0   2.0000    -482.886323    -13140.0049
   1   2.0000     -89.050258     -2423.1807
   2   2.0000     -88.984390     -2421.3884
   3   2.0000     -88.983799     -2421.3723
   4   2.0000     -88.976453     -2421.1724
   5   2.0000     -88.962860     -2420.8025
   6   2.0000     -62.564036     -1702.4540
   7   2.0000     -56.397989     -1534.6673
   8   2.0000     -56.395268     -1534.5933
   9   2.0000     -56.395235     -1534.5924
  10   2.0000     -19.348859      -526.5092
  11   2.0000     -19.220207      -523.0084
  12   2.0000     -14.471568      -393.7914
  13   2.0000     -14.471153      -393.7801
  14   2.0000     -14.468733      -393.7142
  15   2.0000     -14.459939      -393.4749
  16   2.0000     -14.458430      -393.4339
  17   2.0000     -14.455921      -393.3656
  18   2.0000     -14.430006      -392.6604
  19   2.0000     -14.429285      -392.6408
  20   2.0000     -14.428866      -392.6294
  21   2.0000     -14.428131      -392.6094
  22   2.0000     -14.426157      -392.5557
  23   2.0000     -14.414753      -392.2454
  24   2.0000     -10.383576      -282.5515
  25   2.0000     -10.381134      -282.4850
  26   2.0000     -10.369225      -282.1610
  27   2.0000     -10.361447      -281.9493
  28   2.0000     -10.360082      -281.9122
  29   2.0000     -10.350022      -281.6384
  30   2.0000     -10.349388      -281.6212
  31   2.0000     -10.349113      -281.6137
  32   2.0000     -10.349061      -281.6123
  33   2.0000     -10.347824      -281.5786
  34   2.0000     -10.345290      -281.5097
  35   2.0000     -10.342400      -281.4310
  36   2.0000     -10.335022      -281.2302
  37   2.0000     -10.331793      -281.1424
  38   2.0000     -10.329692      -281.0852
  39   2.0000     -10.328677      -281.0576
  40   2.0000     -10.327726      -281.0317
  41   2.0000     -10.326209      -280.9904
  42   2.0000     -10.326147      -280.9887
  43   2.0000     -10.323749      -280.9235
  44   2.0000     -10.323439      -280.9151
  45   2.0000     -10.322614      -280.8926
  46   2.0000     -10.321832      -280.8713
  47   2.0000     -10.319144      -280.7982
  48   2.0000     -10.318559      -280.7823
  49   2.0000     -10.318499      -280.7806
  50   2.0000     -10.317319      -280.7485
  51   2.0000     -10.314325      -280.6670
  52   2.0000     -10.313504      -280.6447
  53   2.0000     -10.309562      -280.5375
  54   2.0000     -10.309011      -280.5224
  55   2.0000     -10.308774      -280.5160
  56   2.0000     -10.306873      -280.4643
  57   2.0000     -10.305031      -280.4142
  58   2.0000     -10.304736      -280.4061
  59   2.0000     -10.302172      -280.3364
  60   2.0000     -10.302157      -280.3359
  61   2.0000     -10.300212      -280.2830
  62   2.0000     -10.298294      -280.2308
  63   2.0000     -10.298126      -280.2263
  64   2.0000     -10.297649      -280.2133
  65   2.0000     -10.297136      -280.1993
  66   2.0000     -10.296845      -280.1914
  67   2.0000     -10.295129      -280.1447
  68   2.0000     -10.294711      -280.1333
  69   2.0000     -10.293310      -280.0952
  70   2.0000     -10.290600      -280.0215
  71   2.0000     -10.290521      -280.0193
  72   2.0000     -10.288716      -279.9702
  73   2.0000     -10.287116      -279.9267
  74   2.0000     -10.285639      -279.8865
  75   2.0000     -10.277414      -279.6627
  76   2.0000      -8.793465      -239.2824
  77   2.0000      -8.141435      -221.5397
  78   2.0000      -8.079003      -219.8408
  79   2.0000      -8.076323      -219.7679
  80   2.0000      -8.072438      -219.6622
  81   2.0000      -8.057169      -219.2467
  82   2.0000      -6.629786      -180.4056
  83   2.0000      -6.615183      -180.0083
  84   2.0000      -6.614993      -180.0031
  85   2.0000      -6.112475      -166.3289
  86   2.0000      -6.104569      -166.1138
  87   2.0000      -6.104413      -166.1095
  88   2.0000      -6.048106      -164.5773
  89   2.0000      -6.045904      -164.5174
  90   2.0000      -6.043866      -164.4620
  91   2.0000      -6.042134      -164.4148
  92   2.0000      -6.041639      -164.4013
  93   2.0000      -6.041028      -164.3847
  94   2.0000      -6.038768      -164.3232
  95   2.0000      -6.037829      -164.2977
  96   2.0000      -6.033679      -164.1847
  97   2.0000      -6.026442      -163.9878
  98   2.0000      -6.021821      -163.8621
  99   2.0000      -6.019629      -163.8024
 100   2.0000      -2.745640       -74.7127
 101   2.0000      -2.741564       -74.6017
 102   2.0000      -2.741417       -74.5978
 103   2.0000      -2.729813       -74.2820
 104   2.0000      -2.729794       -74.2815
 105   2.0000      -1.301887       -35.4262
 106   2.0000      -1.147011       -31.2118
 107   2.0000      -1.135708       -30.9042
 108   2.0000      -1.124202       -30.5911
 109   2.0000      -1.052233       -28.6327
 110   2.0000      -1.040736       -28.3199
 111   2.0000      -1.026785       -27.9402
 112   2.0000      -1.019934       -27.7538
 113   2.0000      -1.018624       -27.7182
 114   2.0000      -1.014305       -27.6006
 115   2.0000      -1.006955       -27.4006
 116   2.0000      -1.006031       -27.3755
 117   2.0000      -1.002608       -27.2823
 118   2.0000      -1.000667       -27.2295
 119   2.0000      -1.000592       -27.2275
 120   2.0000      -0.998173       -27.1617
 121   2.0000      -0.996907       -27.1272
 122   2.0000      -0.990424       -26.9508
 123   2.0000      -0.989414       -26.9233
 124   2.0000      -0.975954       -26.5571
 125   2.0000      -0.954728       -25.9795
 126   2.0000      -0.944581       -25.7034
 127   2.0000      -0.925777       -25.1917
 128   2.0000      -0.917788       -24.9743
 129   2.0000      -0.911772       -24.8106
 130   2.0000      -0.910796       -24.7840
 131   2.0000      -0.907206       -24.6863
 132   2.0000      -0.907133       -24.6843
 133   2.0000      -0.895204       -24.3598
 134   2.0000      -0.887403       -24.1475
 135   2.0000      -0.878034       -23.8925
 136   2.0000      -0.875747       -23.8303
 137   2.0000      -0.864429       -23.5223
 138   2.0000      -0.856145       -23.2969
 139   2.0000      -0.850156       -23.1339
 140   2.0000      -0.842545       -22.9268
 141   2.0000      -0.834935       -22.7197
 142   2.0000      -0.831042       -22.6138
 143   2.0000      -0.823136       -22.3987
 144   2.0000      -0.803732       -21.8707
 145   2.0000      -0.788845       -21.4656
 146   2.0000      -0.783321       -21.3152
 147   2.0000      -0.774557       -21.0768
 148   2.0000      -0.764430       -20.8012
 149   2.0000      -0.763689       -20.7810
 150   2.0000      -0.753766       -20.5110
 151   2.0000      -0.749203       -20.3869
 152   2.0000      -0.740548       -20.1513
 153   2.0000      -0.737802       -20.0766
 154   2.0000      -0.722627       -19.6637
 155   2.0000      -0.712075       -19.3765
 156   2.0000      -0.708558       -19.2808
 157   2.0000      -0.697126       -18.9698
 158   2.0000      -0.694296       -18.8927
 159   2.0000      -0.692117       -18.8335
 160   2.0000      -0.689829       -18.7712
 161   2.0000      -0.684335       -18.6217
 162   2.0000      -0.677575       -18.4378
 163   2.0000      -0.665005       -18.0957
 164   2.0000      -0.659792       -17.9539
 165   2.0000      -0.656511       -17.8646
 166   2.0000      -0.644645       -17.5417
 167   2.0000      -0.643570       -17.5124
 168   2.0000      -0.637522       -17.3479
 169   2.0000      -0.631265       -17.1776
 170   2.0000      -0.626674       -17.0527
 171   2.0000      -0.624453       -16.9922
 172   2.0000      -0.624066       -16.9817
 173   2.0000      -0.613216       -16.6864
 174   2.0000      -0.608432       -16.5563
 175   2.0000      -0.605417       -16.4742
 176   2.0000      -0.602565       -16.3966
 177   2.0000      -0.599297       -16.3077
 178   2.0000      -0.598612       -16.2891
 179   2.0000      -0.588733       -16.0203
 180   2.0000      -0.585893       -15.9429
 181   2.0000      -0.579725       -15.7751
 182   2.0000      -0.575339       -15.6558
 183   2.0000      -0.568191       -15.4613
 184   2.0000      -0.562907       -15.3175
 185   2.0000      -0.560722       -15.2580
 186   2.0000      -0.556871       -15.1532
 187   2.0000      -0.548839       -14.9347
 188   2.0000      -0.545635       -14.8475
 189   2.0000      -0.543991       -14.8028
 190   2.0000      -0.543910       -14.8005
 191   2.0000      -0.542838       -14.7714
 192   2.0000      -0.537272       -14.6199
 193   2.0000      -0.533119       -14.5069
 194   2.0000      -0.527100       -14.3431
 195   2.0000      -0.522207       -14.2100
 196   2.0000      -0.518525       -14.1098
 197   2.0000      -0.516408       -14.0522
 198   2.0000      -0.511557       -13.9202
 199   2.0000      -0.511053       -13.9065
 200   2.0000      -0.510124       -13.8812
 201   2.0000      -0.505039       -13.7428
 202   2.0000      -0.504335       -13.7237
 203   2.0000      -0.499707       -13.5977
 204   2.0000      -0.497317       -13.5327
 205   2.0000      -0.495386       -13.4801
 206   2.0000      -0.494534       -13.4569
 207   2.0000      -0.491364       -13.3707
 208   2.0000      -0.490137       -13.3373
 209   2.0000      -0.488040       -13.2802
 210   2.0000      -0.486194       -13.2300
 211   2.0000      -0.480569       -13.0770
 212   2.0000      -0.474983       -12.9249
 213   2.0000      -0.474493       -12.9116
 214   2.0000      -0.472530       -12.8582
 215   2.0000      -0.470794       -12.8110
 216   2.0000      -0.468817       -12.7572
 217   2.0000      -0.467336       -12.7169
 218   2.0000      -0.464609       -12.6427
 219   2.0000      -0.463696       -12.6178
 220   2.0000      -0.461782       -12.5657
 221   2.0000      -0.460282       -12.5249
 222   2.0000      -0.459198       -12.4954
 223   2.0000      -0.455741       -12.4013
 224   2.0000      -0.454132       -12.3576
 225   2.0000      -0.450712       -12.2645
 226   2.0000      -0.449722       -12.2376
 227   2.0000      -0.445993       -12.1361
 228   2.0000      -0.445038       -12.1101
 229   2.0000      -0.444546       -12.0967
 230   2.0000      -0.442372       -12.0375
 231   2.0000      -0.441257       -12.0072
 232   2.0000      -0.439080       -11.9480
 233   2.0000      -0.438257       -11.9256
 234   2.0000      -0.436603       -11.8806
 235   2.0000      -0.433909       -11.8073
 236   2.0000      -0.431761       -11.7488
 237   2.0000      -0.429805       -11.6956
 238   2.0000      -0.429265       -11.6809
 239   2.0000      -0.427909       -11.6440
 240   2.0000      -0.423352       -11.5200
 241   2.0000      -0.421850       -11.4791
 242   2.0000      -0.420397       -11.4396
 243   2.0000      -0.419103       -11.4044
 244   2.0000      -0.417440       -11.3591
 245   2.0000      -0.413029       -11.2391
 246   2.0000      -0.411760       -11.2046
 247   2.0000      -0.408781       -11.1235
 248   2.0000      -0.404400       -11.0043
 249   2.0000      -0.396490       -10.7890
 250   2.0000      -0.394850       -10.7444
 251   2.0000      -0.390388       -10.6230
 252   2.0000      -0.386582       -10.5194
 253   2.0000      -0.384151       -10.4533
 254   2.0000      -0.381590       -10.3836
 255   2.0000      -0.379328       -10.3220
 256   2.0000      -0.375620       -10.2211
 257   2.0000      -0.360625        -9.8131
 258   2.0000      -0.354923        -9.6580
 259   2.0000      -0.350634        -9.5412
 260   2.0000      -0.348964        -9.4958
 261   2.0000      -0.347480        -9.4554
 262   2.0000      -0.343858        -9.3568
 263   2.0000      -0.334994        -9.1157
 264   2.0000      -0.326651        -8.8886
 265   2.0000      -0.319156        -8.6847
 266   2.0000      -0.317282        -8.6337
 267   2.0000      -0.308617        -8.3979
 268   2.0000      -0.296976        -8.0811
 269   2.0000      -0.290904        -7.9159
 270   2.0000      -0.272966        -7.4278
 271   2.0000      -0.239462        -6.5161
 272   0.0000      -0.128119        -3.4863
 273   0.0000      -0.100259        -2.7282
 274   0.0000      -0.095148        -2.5891
 275   0.0000      -0.064820        -1.7638
 276   0.0000      -0.059542        -1.6202

MULLIKEN ATOMIC CHARGES
-----------------------
   0 C :    0.326311
   1 C :   -0.361780
   2 C :   -0.191000
   3 N :    0.153186
   4 C :   -0.163406
   5 N :    0.137813
   6 C :    0.008241
   7 C :   -0.012114
   8 C :   -0.072942
   9 C :    0.118440
  10 C :   -0.091824
  11 C :   -0.017830
  12 S :    0.189424
  13 C :   -0.123816
  14 C :    0.039401
  15 Br:    0.025136
  16 C :    0.155061
  17 O :   -0.171217
  18 C :   -0.099598
  19 C :   -0.015897
  20 C :   -0.121164
  21 S :    0.203122
  22 C :   -0.084174
  23 C :   -0.102076
  24 C :    0.111209
  25 C :    0.144189
  26 C :   -0.045708
  27 C :    0.022342
  28 C :   -0.006303
  29 C :    0.075757
  30 C :   -0.076487
  31 C :   -0.041688
  32 C :    0.006699
  33 C :   -0.115524
  34 S :    0.230145
  35 C :   -0.050903
  36 C :    0.027358
  37 C :    0.315988
  38 C :   -0.306213
  39 C :   -0.189554
  40 N :    0.169198
  41 C :   -0.184688
  42 N :    0.167253
  43 C :   -0.055682
  44 C :   -0.186744
  45 S :    0.213843
  46 C :    0.206151
  47 C :   -0.051477
  48 C :   -0.074501
  49 N :    0.070450
  50 C :   -0.128794
  51 C :   -0.093776
  52 N :   -0.016631
  53 C :   -0.231158
  54 N :    0.243168
  55 C :   -0.215446
  56 N :    0.240734
  57 C :    0.097293
  58 C :    0.006154
  59 C :   -0.031417
  60 N :   -0.275658
  61 S :    0.562559
  62 N :   -0.282058
  63 C :    0.007932
  64 C :   -0.007118
  65 C :    0.039291
  66 C :   -0.020267
  67 C :    0.001505
  68 C :   -0.046859
  69 N :    0.044008
  70 O :   -0.098598
  71 N :    0.056367
  72 H :   -0.011100
  73 H :   -0.005796
  74 H :   -0.003730
  75 H :   -0.021952
  76 H :    0.022104
  77 H :    0.012054
  78 H :    0.032571
  79 H :    0.041764
  80 H :    0.019108
  81 H :   -0.019708
  82 H :   -0.007952
  83 H :   -0.020789
  84 H :    0.005838
  85 H :    0.020557
  86 H :   -0.012134
  87 H :    0.002039
  88 H :   -0.006517
Sum of atomic charges:   -0.0000000

LOEWDIN ATOMIC CHARGES
----------------------
   0 C :    0.084866
   1 C :   -0.156525
   2 C :   -0.020727
   3 N :   -0.053957
   4 C :    0.004272
   5 N :   -0.073685
   6 C :   -0.022796
   7 C :   -0.048808
   8 C :    0.021489
   9 C :   -0.031837
  10 C :   -0.145098
  11 C :   -0.007293
  12 S :    0.435142
  13 C :   -0.271067
  14 C :   -0.070513
  15 Br:    0.138101
  16 C :    0.081348
  17 O :   -0.163129
  18 C :   -0.115400
  19 C :    0.057321
  20 C :   -0.191978
  21 S :    0.514692
  22 C :   -0.165310
  23 C :   -0.063959
  24 C :   -0.045862
  25 C :   -0.014056
  26 C :   -0.021970
  27 C :   -0.008833
  28 C :   -0.026725
  29 C :   -0.023270
  30 C :   -0.150582
  31 C :   -0.027573
  32 C :   -0.056222
  33 C :   -0.193611
  34 S :    0.509656
  35 C :   -0.162287
  36 C :   -0.081041
  37 C :    0.082564
  38 C :   -0.106995
  39 C :   -0.015645
  40 N :   -0.038701
  41 C :   -0.016474
  42 N :   -0.035877
  43 C :    0.001606
  44 C :   -0.174609
  45 S :    0.516188
  46 C :   -0.017962
  47 C :   -0.020856
  48 C :    0.002849
  49 N :    0.016278
  50 C :   -0.018342
  51 C :   -0.024457
  52 N :   -0.021591
  53 C :   -0.040280
  54 N :   -0.000895
  55 C :   -0.033704
  56 N :   -0.001337
  57 C :   -0.034430
  58 C :   -0.033450
  59 C :   -0.043137
  60 N :   -0.271235
  61 S :    0.690699
  62 N :   -0.286867
  63 C :   -0.018864
  64 C :    0.011288
  65 C :   -0.010385
  66 C :   -0.007217
  67 C :   -0.060197
  68 C :   -0.047856
  69 N :   -0.031218
  70 O :    0.079557
  71 N :   -0.024814
  72 H :    0.040811
  73 H :    0.041492
  74 H :    0.038776
  75 H :    0.044007
  76 H :    0.025399
  77 H :    0.034181
  78 H :    0.036492
  79 H :    0.036159
  80 H :    0.031886
  81 H :    0.030525
  82 H :    0.029494
  83 H :    0.025862
  84 H :    0.038873
  85 H :    0.038755
  86 H :    0.033555
  87 H :    0.036302
  88 H :    0.041026

  Mayer bond orders larger than 0.100000
B(  0-C ,  1-C ) :   1.5887 B(  0-C ,  6-C ) :   0.9998 B(  0-C , 18-C ) :   1.0989
B(  1-C ,  2-C ) :   1.1444 B(  1-C ,  4-C ) :   1.1512 B(  2-C ,  3-N ) :   2.9691
B(  4-C ,  5-N ) :   2.9354 B(  5-N , 83-H ) :   0.1008 B(  6-C ,  7-C ) :   1.2746
B(  6-C , 11-C ) :   1.4123 B(  7-C ,  8-C ) :   1.4274 B(  7-C , 16-C ) :   0.9531
B(  8-C ,  9-C ) :   1.2399 B(  8-C , 72-H ) :   1.0174 B(  9-C , 10-C ) :   1.3082
B(  9-C , 14-C ) :   1.1627 B( 10-C , 11-C ) :   1.3276 B( 10-C , 12-S ) :   1.0859
B( 11-C , 73-H ) :   0.9792 B( 12-S , 13-C ) :   1.0892 B( 13-C , 14-C ) :   1.6160
B( 13-C , 15-Br) :   1.0198 B( 14-C , 74-H ) :   1.0008 B( 16-C , 17-O ) :   2.1604
B( 16-C , 18-C ) :   0.9646 B( 18-C , 19-C ) :   1.5031 B( 19-C , 20-C ) :   1.3050
B( 19-C , 75-H ) :   0.9242 B( 20-C , 21-S ) :   1.1082 B( 20-C , 25-C ) :   1.2894
B( 21-S , 22-C ) :   1.1783 B( 22-C , 23-C ) :   1.5196 B( 22-C , 76-H ) :   0.9636
B( 23-C , 24-C ) :   1.0915 B( 23-C , 25-C ) :   1.2951 B( 24-C , 77-H ) :   0.9464
B( 24-C , 78-H ) :   0.9445 B( 24-C , 79-H ) :   0.9396 B( 25-C , 26-C ) :   1.1238
B( 26-C , 27-C ) :   1.6874 B( 26-C , 80-H ) :   0.9358 B( 27-C , 28-C ) :   1.1402
B( 27-C , 81-H ) :   0.9758 B( 28-C , 29-C ) :   1.6831 B( 28-C , 82-H ) :   0.9721
B( 29-C , 30-C ) :   1.1533 B( 29-C , 83-H ) :   0.9292 B( 30-C , 31-C ) :   1.4172
B( 30-C , 34-S ) :   1.1264 B( 31-C , 32-C ) :   1.3313 B( 31-C , 84-H ) :   0.9909
B( 32-C , 33-C ) :   1.3958 B( 32-C , 37-C ) :   0.9947 B( 33-C , 34-S ) :   1.1163
B( 33-C , 35-C ) :   1.2208 B( 35-C , 36-C ) :   1.3792 B( 35-C , 45-S ) :   1.1020
B( 36-C , 37-C ) :   0.9952 B( 36-C , 43-C ) :   1.2932 B( 37-C , 38-C ) :   1.7035
B( 38-C , 39-C ) :   1.1375 B( 38-C , 41-C ) :   1.1364 B( 39-C , 40-N ) :   2.9893
B( 41-C , 42-N ) :   2.9866 B( 43-C , 44-C ) :   1.3957 B( 43-C , 85-H ) :   0.9821
B( 44-C , 45-S ) :   1.0701 B( 44-C , 46-C ) :   1.2354 B( 46-C , 47-C ) :   1.2302
B( 46-C , 57-C ) :   0.1271 B( 46-C , 59-C ) :   1.1959 B( 47-C , 48-C ) :   1.0980
B( 47-C , 52-N ) :   1.4005 B( 48-C , 49-N ) :   1.4140 B( 48-C , 57-C ) :   1.3422
B( 49-N , 50-C ) :   1.7420 B( 50-C , 51-C ) :   1.1952 B( 50-C , 55-C ) :   1.1609
B( 51-C , 52-N ) :   1.6937 B( 51-C , 53-C ) :   1.1544 B( 53-C , 54-N ) :   3.0379
B( 55-C , 56-N ) :   3.0512 B( 57-C , 58-C ) :   1.2668 B( 57-C , 63-C ) :   0.9617
B( 58-C , 59-C ) :   1.0984 B( 58-C , 62-N ) :   1.4975 B( 59-C , 60-N ) :   1.5176
B( 60-N , 61-S ) :   1.2874 B( 60-N , 62-N ) :   0.1505 B( 61-S , 62-N ) :   1.2858
B( 63-C , 64-C ) :   1.5790 B( 63-C , 66-C ) :   0.1045 B( 63-C , 68-C ) :   1.1866
B( 64-C , 65-C ) :   1.1731 B( 64-C , 86-H ) :   0.9894 B( 65-C , 66-C ) :   1.5300
B( 65-C , 87-H ) :   0.9837 B( 66-C , 67-C ) :   1.1613 B( 66-C , 88-H ) :   1.0253
B( 67-C , 68-C ) :   1.1579 B( 67-C , 71-N ) :   1.5872 B( 68-C , 69-N ) :   1.5689
B( 69-N , 70-O ) :   1.0681 B( 69-N , 71-N ) :   0.1889 B( 70-O , 71-N ) :   1.0760

-----------------------------------------------------------------------------
         ABSORPTION SPECTRUM VIA TRANSITION ELECTRIC DIPOLE MOMENTS
-----------------------------------------------------------------------------
State   Energy  Wavelength   fosc         T2         TX        TY        TZ
        (cm-1)    (nm)                  (au**2)     (au)      (au)      (au)
-----------------------------------------------------------------------------
   0    9600.9   1041.6   0.654236637  22.43348   1.19351   3.67706  -2.73647
   1   13117.2    762.4   0.044046497   1.10547   0.19636  -0.94797   0.41020
   2   16723.1    598.0   0.449345193   8.84585   2.47737  -0.14713  -1.63915
   3   18294.2    546.6   0.003321169   0.05977   0.03869   0.20533  -0.12691
   4   22202.0    450.4   0.118080109   1.75090  -0.79612   1.05524   0.05955
   5   23618.8    423.4   0.013319411   0.18565   0.13967   0.29488  -0.28141
   6   24289.5    411.7   0.133127471   1.80436   0.93436  -0.89664  -0.35692
   7   24495.0    408.2   0.715961265   9.62248  -0.87898  -2.54653   1.53787
   8   24730.5    404.4   0.036808634   0.49000  -0.56267   0.31096   0.27694
   9   25369.4    394.2   0.085431867   1.10862  -0.28748   1.01204   0.04187
  10   25540.5    391.5   0.028043350   0.36147  -0.00460  -0.59524   0.08448
  11   26067.1    383.6   0.259640185   3.27910   0.10277  -1.61795   0.80670
  12   26319.6    379.9   0.094386151   1.18061   0.94319  -0.20321  -0.49971
  13   27242.0    367.1   0.364583305   4.40589  -1.60242  -0.34827   1.31028
  14   27547.7    363.0   0.028763648   0.34374   0.12081  -0.57309   0.02671
  15   27959.9    357.7   0.037210281   0.43813  -0.26332   0.60033  -0.09167
  16   28648.6    349.1   0.228021130   2.62028  -0.17933   1.53337  -0.48672
  17   28818.8    347.0   0.050840375   0.58078   0.03678   0.74145  -0.17228
  18   29078.1    343.9   0.045954213   0.52028  -0.16696  -0.57923   0.39610
  19   29690.4    336.8   0.131649178   1.45975   0.51341  -1.09338  -0.02591
  20   29976.1    333.6   0.061094189   0.67097  -0.70272   0.28010   0.31417
  21   30331.6    329.7   0.013763722   0.14939   0.00426   0.28797  -0.25777
  22   30544.8    327.4   0.240568233   2.59284  -1.37899  -0.22577   0.80015
  23   31215.8    320.4   0.137328308   1.44831  -0.92786   0.09453   0.76056
  24   31413.1    318.3   0.690907107   7.24075  -2.40512   0.66146   1.00928
  25   31568.4    316.8   0.003123296   0.03257  -0.14536  -0.10494   0.02072
  26   31745.5    315.0   0.000557710   0.00578  -0.07546  -0.00809   0.00494
  27   32321.9    309.4   0.533471831   5.43363  -1.77801   1.50726   0.02229
  28   32624.5    306.5   0.018981716   0.19154   0.35700   0.22095  -0.12359
  29   32834.2    304.6   0.265554637   2.66258   1.14719   0.48701  -1.05326
  30   33021.1    302.8   0.110670540   1.10336   0.17634  -0.92114   0.47303
  31   33859.3    295.3   0.066117047   0.64285   0.21536  -0.76855   0.07620
  32   34091.2    293.3   0.200648748   1.93763  -1.21620  -0.27824   0.61730
  33   34295.1    291.6   0.186557765   1.79084  -1.23351   0.30168   0.42225
  34   34429.1    290.5   0.070883528   0.67779  -0.68835   0.22518   0.39148
  35   34837.9    287.0   0.140454255   1.32727  -0.18732  -0.91502   0.67448
  36   35067.9    285.2   0.067729589   0.63584   0.43202   0.58976  -0.31839
  37   35292.2    283.3   0.018769090   0.17508  -0.32376   0.25286  -0.07949
  38   35401.4    282.5   0.010573778   0.09833   0.07255  -0.27561   0.13079
  39   35911.5    278.5   0.079342235   0.72735   0.12026   0.68628  -0.49184
  40   36216.3    276.1   0.134896778   1.22623  -0.99610   0.26215   0.40658
  41   36531.2    273.7   0.040259713   0.36281   0.38868   0.24711  -0.38817
  42   36735.8    272.2   0.100666136   0.90213  -0.22393   0.88850  -0.25009
  43   37054.3    269.9   0.208593681   1.85327  -1.22007   0.42934   0.42469
  44   37710.5    265.2   0.002247559   0.01962  -0.03998  -0.10521   0.08339
  45   37773.9    264.7   0.031746908   0.27668  -0.30229  -0.33010   0.27629
  46   38088.3    262.5   0.001196597   0.01034   0.01535   0.01546   0.09934
  47   38162.8    262.0   0.055023709   0.47466  -0.24215   0.64403   0.03545
  48   38257.0    261.4   0.044361140   0.38174  -0.31562   0.52457  -0.08336
  49   38759.6    258.0   0.047546454   0.40384  -0.57881   0.07620   0.25102
  50   39001.5    256.4   0.055416357   0.46777   0.19425  -0.60585   0.25096
  51   39598.9    252.5   0.085996215   0.71494  -0.04488  -0.79527   0.28367
  52   39755.8    251.5   0.009916252   0.08211   0.10671  -0.26557  -0.01411
  53   39881.1    250.7   0.056167521   0.46365  -0.28481   0.61845  -0.00730
  54   40155.2    249.0   0.000557323   0.00457  -0.02861  -0.03914  -0.04711
  55   40286.0    248.2   0.071740275   0.58625   0.58893  -0.46122  -0.16338

FINAL SINGLE POINT ENERGY     -7359.754222922270

DIPOLE MOMENT
-------------
                                X             Y             Z
Electronic contribution:    106.03002     -33.40711     -68.83117
Nuclear contribution   :   -106.59478      36.67668      68.54682
                        -----------------------------------------
Total Dipole Moment    :     -0.56476       3.26957      -0.28434
                        -----------------------------------------
Magnitude (a.u.)       :      3.33015
Magnitude (Debye)      :      8.46456

Rotational constants in cm-1:     0.001023     0.000253     0.000204
Rotational constants in MHz :    30.662159     7.577590     6.119233

                             ****ORCA TERMINATED NORMALLY****
TOTAL RUN TIME: 0 days 0 hours 9 minutes 16 seconds 274 msec
