                         Program Version 4.2.0 -  RELEASE  -
|  1> # ORCA input file
|  2> # SCF done       -192.417957656137          0.000876161757
|  3> ! CAM-B3LYP def2-SVP def2/J RIJCOSX Grid4 TightSCF
|  4> %maxcore 5000
|  5> %tddft
|  6>     Mode sTDDFT
|  7>     Ethresh 5.0
|  8>     maxcore 5000
|  9> end
| 10>
| 11> %pal
| 12>   nprocs 6
| 13>   end
| 14> * xyz 0 1
| 15>    C       -5.06464         4.44515         5.25796
| 16>    C       -6.01559         4.47957         6.24310
| 17>    C       -5.70826         4.49042         7.61849
| 18>    N       -5.50622         4.49558         8.74867
| 19>    C       -7.40389         4.56593         6.01335
| 20>    N       -8.54472         4.63247         5.89826
| 21>    C       -3.62159         4.41685         5.47750
| 22>    C       -2.97369         4.62806         4.23658
| 23>    C       -1.60685         4.64239         4.10383
| 24>    C       -0.83881         4.46509         5.25984
| 25>    C       -1.49492         4.25365         6.49434
| 26>    C       -2.87818         4.21574         6.62390
| 27>    S       -0.35847         4.06228         7.79484
| 28>    C        0.96450         4.29641         6.68077
| 29>    C        0.57772         4.48323         5.39784
| 30>   Br        2.72121         4.28939         7.32748
| 31>    C       -3.99452         4.79857         3.18621
| 32>    O       -3.78547         5.09546         2.02223
| 33>    C       -5.28343         4.53598         3.82870
| 34>    C       -6.45756         4.27288         3.16409
| 35>    C       -6.73368         4.36391         1.79599
| 36>    C       -7.95140         3.91972         1.23405
| 37>    O       -8.84487         3.33124         2.04783
| 38>    C      -10.20110         3.25952         1.64855
| 39>    C       -8.05084         4.18588        -0.14128
| 40>    O       -9.10425         3.83427        -0.95982
| 41>    C       -8.97545         2.54065        -1.52619
| 42>    C       -6.95347         4.89645        -0.62605
| 43>    S       -5.73056         5.11018         0.58580
| 44>    C       -6.79617         5.49938        -1.90598
| 45>    C       -5.77373         6.39656        -2.10601
| 46>    C       -5.60199         7.18255        -3.23683
| 47>    C       -6.34875         6.90961        -4.46755
| 48>    C       -7.39554         6.05315        -4.50811
| 49>    S       -7.99865         5.18484        -3.14907
| 50>    C       -5.74528         7.74605        -5.44787
| 51>    C       -4.73664         8.52205        -4.86026
| 52>    C       -4.13197         9.39902        -5.78738
| 53>    C       -4.67573         9.26980        -7.02527
| 54>    S       -5.94470         8.09405        -7.11892
| 55>    C       -4.66948         8.21731        -3.46026
| 56>    C       -3.90589         8.82744        -2.42831
| 57>    C       -4.40441         8.83012        -1.16052
| 58>    C       -3.76505         9.04054         0.07953
| 59>    C       -2.48402         9.48121         0.43234
| 60>    O       -1.67385         9.95916        -0.53342
| 61>    C       -0.28799        10.07033        -0.26401
| 62>    C       -2.22890         9.35591         1.81392
| 63>    O       -1.08997         9.83356         2.40421
| 64>    C       -1.27822        10.71741         3.49360
| 65>    C       -3.26974         8.72042         2.51301
| 66>    S       -4.65232         8.52533         1.47337
| 67>    C       -3.41368         8.16398         3.78826
| 68>    C       -2.54649         7.81222         4.79189
| 69>    C       -1.11645         7.74626         4.93276
| 70>    C       -0.18394         7.58452         3.93592
| 71>    C        1.20454         7.52421         4.15817
| 72>    N        2.34752         7.47924         4.26669
| 73>    C       -0.49330         7.31558         2.59046
| 74>    N       -0.67979         7.01974         1.49612
| 75>    C       -0.82486         7.61899         6.36170
| 76>    C       -2.03950         7.38328         7.05354
| 77>    C       -3.15374         7.44416         6.09295
| 78>    O       -4.33250         7.24297         6.30533
| 79>    C       -2.08901         7.12947         8.40219
| 80>    C       -0.88006         7.12126         9.10651
| 81>    C        0.32559         7.38481         8.41357
| 82>    C        0.37439         7.63107         7.04549
| 83>    S        1.70012         7.31842         9.47232
| 84>    C        0.65356         6.92957        10.81063
| 85>    C       -0.65933         6.86096        10.48624
| 86>   Br        1.39548         6.65192        12.50955
| 87>    H       -1.14709         4.78833         3.13867
| 88>    H       -3.32914         4.03860         7.58553
| 89>    H        1.26217         4.63797         4.58342
| 90>    H       -7.29698         3.90879         3.74515
| 91>    H      -10.76467         3.11078         2.56866
| 92>    H      -10.37626         2.41526         0.97717
| 93>    H      -10.52259         4.18106         1.16096
| 94>    H       -9.85978         2.39537        -2.14269
| 95>    H       -8.93127         1.76731        -0.75228
| 96>    H       -8.07856         2.46653        -2.14889
| 97>    H       -5.05665         6.48978        -1.30273
| 98>    H       -7.96978         5.88219        -5.40513
| 99>    H       -3.33721        10.08357        -5.55358
|100>    H       -4.41180         9.80189        -7.91832
|101>    H       -2.94402         9.26272        -2.65293
|102>    H       -5.44174         8.54291        -1.04292
|103>    H        0.18486        10.21008        -1.23521
|104>    H        0.09214         9.16269         0.20795
|105>    H       -0.07145        10.93035         0.37366
|106>    H       -1.83377        11.60635         3.17798
|107>    H       -0.27775        11.00630         3.81186
|108>    H       -1.80512        10.24762         4.32800
|109>    H       -4.44814         7.94303         4.04702
|110>    H       -3.02780         6.92904         8.89451
|111>    H        1.31897         7.82029         6.56270
|112>    H       -1.44165         6.63085        11.18599
|113> *
|114>
|115>                          ****END OF INPUT****

CARTESIAN COORDINATES (ANGSTROEM)
---------------------------------
  C     -5.064640    4.445150    5.257960
  C     -6.015590    4.479570    6.243100
  C     -5.708260    4.490420    7.618490
  N     -5.506220    4.495580    8.748670
  C     -7.403890    4.565930    6.013350
  N     -8.544720    4.632470    5.898260
  C     -3.621590    4.416850    5.477500
  C     -2.973690    4.628060    4.236580
  C     -1.606850    4.642390    4.103830
  C     -0.838810    4.465090    5.259840
  C     -1.494920    4.253650    6.494340
  C     -2.878180    4.215740    6.623900
  S     -0.358470    4.062280    7.794840
  C      0.964500    4.296410    6.680770
  C      0.577720    4.483230    5.397840
  Br     2.721210    4.289390    7.327480
  C     -3.994520    4.798570    3.186210
  O     -3.785470    5.095460    2.022230
  C     -5.283430    4.535980    3.828700
  C     -6.457560    4.272880    3.164090
  C     -6.733680    4.363910    1.795990
  C     -7.951400    3.919720    1.234050
  O     -8.844870    3.331240    2.047830
  C    -10.201100    3.259520    1.648550
  C     -8.050840    4.185880   -0.141280
  O     -9.104250    3.834270   -0.959820
  C     -8.975450    2.540650   -1.526190
  C     -6.953470    4.896450   -0.626050
  S     -5.730560    5.110180    0.585800
  C     -6.796170    5.499380   -1.905980
  C     -5.773730    6.396560   -2.106010
  C     -5.601990    7.182550   -3.236830
  C     -6.348750    6.909610   -4.467550
  C     -7.395540    6.053150   -4.508110
  S     -7.998650    5.184840   -3.149070
  C     -5.745280    7.746050   -5.447870
  C     -4.736640    8.522050   -4.860260
  C     -4.131970    9.399020   -5.787380
  C     -4.675730    9.269800   -7.025270
  S     -5.944700    8.094050   -7.118920
  C     -4.669480    8.217310   -3.460260
  C     -3.905890    8.827440   -2.428310
  C     -4.404410    8.830120   -1.160520
  C     -3.765050    9.040540    0.079530
  C     -2.484020    9.481210    0.432340
  O     -1.673850    9.959160   -0.533420
  C     -0.287990   10.070330   -0.264010
  C     -2.228900    9.355910    1.813920
  O     -1.089970    9.833560    2.404210
  C     -1.278220   10.717410    3.493600
  C     -3.269740    8.720420    2.513010
  S     -4.652320    8.525330    1.473370
  C     -3.413680    8.163980    3.788260
  C     -2.546490    7.812220    4.791890
  C     -1.116450    7.746260    4.932760
  C     -0.183940    7.584520    3.935920
  C      1.204540    7.524210    4.158170
  N      2.347520    7.479240    4.266690
  C     -0.493300    7.315580    2.590460
  N     -0.679790    7.019740    1.496120
  C     -0.824860    7.618990    6.361700
  C     -2.039500    7.383280    7.053540
  C     -3.153740    7.444160    6.092950
  O     -4.332500    7.242970    6.305330
  C     -2.089010    7.129470    8.402190
  C     -0.880060    7.121260    9.106510
  C      0.325590    7.384810    8.413570
  C      0.374390    7.631070    7.045490
  S      1.700120    7.318420    9.472320
  C      0.653560    6.929570   10.810630
  C     -0.659330    6.860960   10.486240
  Br     1.395480    6.651920   12.509550
  H     -1.147090    4.788330    3.138670
  H     -3.329140    4.038600    7.585530
  H      1.262170    4.637970    4.583420
  H     -7.296980    3.908790    3.745150
  H    -10.764670    3.110780    2.568660
  H    -10.376260    2.415260    0.977170
  H    -10.522590    4.181060    1.160960
  H     -9.859780    2.395370   -2.142690
  H     -8.931270    1.767310   -0.752280
  H     -8.078560    2.466530   -2.148890
  H     -5.056650    6.489780   -1.302730
  H     -7.969780    5.882190   -5.405130
  H     -3.337210   10.083570   -5.553580
  H     -4.411800    9.801890   -7.918320
  H     -2.944020    9.262720   -2.652930
  H     -5.441740    8.542910   -1.042920
  H      0.184860   10.210080   -1.235210
  H      0.092140    9.162690    0.207950
  H     -0.071450   10.930350    0.373660
  H     -1.833770   11.606350    3.177980
  H     -0.277750   11.006300    3.811860
  H     -1.805120   10.247620    4.328000
  H     -4.448140    7.943030    4.047020
  H     -3.027800    6.929040    8.894510
  H      1.318970    7.820290    6.562700
  H     -1.441650    6.630850   11.185990

 Total Charge           Charge          ....    0
 Multiplicity           Mult            ....    1
 Number of Electrons    NEL             ....  592
 Basis Dimension        Dim             .... 1198

ORBITAL ENERGIES
----------------

  NO   OCC          E(Eh)            E(eV)
   0   2.0000    -482.879082    -13139.8078
   1   2.0000    -482.875865    -13139.7203
   2   2.0000     -88.974316     -2421.1142
   3   2.0000     -88.969075     -2420.9716
   4   2.0000     -88.966058     -2420.8895
   5   2.0000     -88.959754     -2420.7180
   6   2.0000     -88.959075     -2420.6995
   7   2.0000     -88.956904     -2420.6404
   8   2.0000     -62.556819     -1702.2576
   9   2.0000     -62.553484     -1702.1668
  10   2.0000     -56.390754     -1534.4704
  11   2.0000     -56.388062     -1534.3972
  12   2.0000     -56.388029     -1534.3963
  13   2.0000     -56.387417     -1534.3796
  14   2.0000     -56.384760     -1534.3073
  15   2.0000     -56.384670     -1534.3049
  16   2.0000     -19.264059      -524.2017
  17   2.0000     -19.261329      -524.1274
  18   2.0000     -19.254172      -523.9327
  19   2.0000     -19.250292      -523.8271
  20   2.0000     -19.208582      -522.6921
  21   2.0000     -19.208338      -522.6855
  22   2.0000     -14.411736      -392.1633
  23   2.0000     -14.406631      -392.0244
  24   2.0000     -14.400090      -391.8464
  25   2.0000     -14.399629      -391.8338
  26   2.0000     -10.357468      -281.8410
  27   2.0000     -10.356347      -281.8105
  28   2.0000     -10.356289      -281.8090
  29   2.0000     -10.354152      -281.7508
  30   2.0000     -10.351159      -281.6694
  31   2.0000     -10.347854      -281.5794
  32   2.0000     -10.341892      -281.4172
  33   2.0000     -10.338636      -281.3286
  34   2.0000     -10.334192      -281.2077
  35   2.0000     -10.333600      -281.1916
  36   2.0000     -10.330321      -281.1023
  37   2.0000     -10.329966      -281.0927
  38   2.0000     -10.326820      -281.0071
  39   2.0000     -10.326669      -281.0030
  40   2.0000     -10.324637      -280.9477
  41   2.0000     -10.324199      -280.9357
  42   2.0000     -10.323114      -280.9062
  43   2.0000     -10.317783      -280.7612
  44   2.0000     -10.316963      -280.7388
  45   2.0000     -10.315451      -280.6977
  46   2.0000     -10.314751      -280.6787
  47   2.0000     -10.314532      -280.6727
  48   2.0000     -10.312145      -280.6077
  49   2.0000     -10.311607      -280.5931
  50   2.0000     -10.311544      -280.5914
  51   2.0000     -10.311278      -280.5841
  52   2.0000     -10.308540      -280.5096
  53   2.0000     -10.303882      -280.3829
  54   2.0000     -10.303457      -280.3713
  55   2.0000     -10.303399      -280.3697
  56   2.0000     -10.301102      -280.3072
  57   2.0000     -10.298735      -280.2428
  58   2.0000     -10.298226      -280.2290
  59   2.0000     -10.297511      -280.2095
  60   2.0000     -10.297095      -280.1982
  61   2.0000     -10.295535      -280.1558
  62   2.0000     -10.295440      -280.1532
  63   2.0000     -10.295180      -280.1461
  64   2.0000     -10.292232      -280.0659
  65   2.0000     -10.291708      -280.0516
  66   2.0000     -10.289032      -279.9788
  67   2.0000     -10.288721      -279.9703
  68   2.0000     -10.288171      -279.9554
  69   2.0000     -10.287874      -279.9473
  70   2.0000     -10.285112      -279.8721
  71   2.0000     -10.284507      -279.8557
  72   2.0000     -10.284309      -279.8503
  73   2.0000     -10.281955      -279.7862
  74   2.0000     -10.281019      -279.7607
  75   2.0000     -10.280751      -279.7535
  76   2.0000     -10.280009      -279.7333
  77   2.0000     -10.276804      -279.6461
  78   2.0000     -10.275148      -279.6010
  79   2.0000     -10.274847      -279.5928
  80   2.0000      -8.786262      -239.0863
  81   2.0000      -8.782910      -238.9951
  82   2.0000      -8.068717      -219.5610
  83   2.0000      -8.064837      -219.4554
  84   2.0000      -8.061237      -219.3574
  85   2.0000      -8.055552      -219.2027
  86   2.0000      -8.052252      -219.1129
  87   2.0000      -8.052004      -219.1062
  88   2.0000      -6.622521      -180.2080
  89   2.0000      -6.619174      -180.1169
  90   2.0000      -6.608016      -179.8133
  91   2.0000      -6.607833      -179.8083
  92   2.0000      -6.604718      -179.7235
  93   2.0000      -6.604414      -179.7152
  94   2.0000      -6.038410      -164.3135
  95   2.0000      -6.034530      -164.2079
  96   2.0000      -6.033645      -164.1838
  97   2.0000      -6.031003      -164.1119
  98   2.0000      -6.030617      -164.1014
  99   2.0000      -6.030218      -164.0906
 100   2.0000      -6.026671      -163.9941
 101   2.0000      -6.026141      -163.9796
 102   2.0000      -6.024854      -163.9446
 103   2.0000      -6.022546      -163.8818
 104   2.0000      -6.021730      -163.8596
 105   2.0000      -6.021717      -163.8592
 106   2.0000      -6.021084      -163.8420
 107   2.0000      -6.017449      -163.7431
 108   2.0000      -6.017264      -163.7381
 109   2.0000      -6.017108      -163.7338
 110   2.0000      -6.014287      -163.6571
 111   2.0000      -6.013518      -163.6362
 112   2.0000      -2.738408       -74.5159
 113   2.0000      -2.735020       -74.4237
 114   2.0000      -2.734310       -74.4044
 115   2.0000      -2.734201       -74.4014
 116   2.0000      -2.731072       -74.3162
 117   2.0000      -2.730793       -74.3087
 118   2.0000      -2.722663       -74.0874
 119   2.0000      -2.722651       -74.0871
 120   2.0000      -2.719323       -73.9965
 121   2.0000      -2.719294       -73.9957
 122   2.0000      -1.172343       -31.9011
 123   2.0000      -1.167730       -31.7755
 124   2.0000      -1.149773       -31.2869
 125   2.0000      -1.147407       -31.2225
 126   2.0000      -1.124180       -30.5905
 127   2.0000      -1.122381       -30.5415
 128   2.0000      -1.017210       -27.6797
 129   2.0000      -1.009877       -27.4802
 130   2.0000      -1.007563       -27.4172
 131   2.0000      -1.007283       -27.4096
 132   2.0000      -0.998985       -27.1838
 133   2.0000      -0.992301       -27.0019
 134   2.0000      -0.991979       -26.9931
 135   2.0000      -0.987761       -26.8783
 136   2.0000      -0.982186       -26.7266
 137   2.0000      -0.978872       -26.6365
 138   2.0000      -0.976695       -26.5772
 139   2.0000      -0.965968       -26.2853
 140   2.0000      -0.935817       -25.4649
 141   2.0000      -0.931681       -25.3523
 142   2.0000      -0.929077       -25.2815
 143   2.0000      -0.908303       -24.7162
 144   2.0000      -0.901844       -24.5404
 145   2.0000      -0.900384       -24.5007
 146   2.0000      -0.895821       -24.3765
 147   2.0000      -0.886518       -24.1234
 148   2.0000      -0.878514       -23.9056
 149   2.0000      -0.878204       -23.8971
 150   2.0000      -0.873569       -23.7710
 151   2.0000      -0.861575       -23.4446
 152   2.0000      -0.859262       -23.3817
 153   2.0000      -0.852496       -23.1976
 154   2.0000      -0.845303       -23.0019
 155   2.0000      -0.838459       -22.8156
 156   2.0000      -0.825375       -22.4596
 157   2.0000      -0.824199       -22.4276
 158   2.0000      -0.820751       -22.3338
 159   2.0000      -0.816903       -22.2291
 160   2.0000      -0.810492       -22.0546
 161   2.0000      -0.797525       -21.7018
 162   2.0000      -0.785531       -21.3754
 163   2.0000      -0.777496       -21.1567
 164   2.0000      -0.772446       -21.0193
 165   2.0000      -0.766436       -20.8558
 166   2.0000      -0.756972       -20.5982
 167   2.0000      -0.752928       -20.4882
 168   2.0000      -0.745710       -20.2918
 169   2.0000      -0.740072       -20.1384
 170   2.0000      -0.723954       -19.6998
 171   2.0000      -0.718364       -19.5477
 172   2.0000      -0.700404       -19.0590
 173   2.0000      -0.693160       -18.8619
 174   2.0000      -0.685515       -18.6538
 175   2.0000      -0.680242       -18.5103
 176   2.0000      -0.677981       -18.4488
 177   2.0000      -0.675707       -18.3869
 178   2.0000      -0.674919       -18.3655
 179   2.0000      -0.661334       -17.9958
 180   2.0000      -0.653212       -17.7748
 181   2.0000      -0.651312       -17.7231
 182   2.0000      -0.645348       -17.5608
 183   2.0000      -0.642083       -17.4720
 184   2.0000      -0.635672       -17.2975
 185   2.0000      -0.629146       -17.1199
 186   2.0000      -0.625041       -17.0082
 187   2.0000      -0.617270       -16.7968
 188   2.0000      -0.616311       -16.7707
 189   2.0000      -0.614332       -16.7168
 190   2.0000      -0.612240       -16.6599
 191   2.0000      -0.596980       -16.2446
 192   2.0000      -0.594754       -16.1841
 193   2.0000      -0.590288       -16.0626
 194   2.0000      -0.588170       -16.0049
 195   2.0000      -0.585695       -15.9376
 196   2.0000      -0.579032       -15.7563
 197   2.0000      -0.577331       -15.7100
 198   2.0000      -0.576153       -15.6779
 199   2.0000      -0.571916       -15.5626
 200   2.0000      -0.570219       -15.5164
 201   2.0000      -0.560406       -15.2494
 202   2.0000      -0.557386       -15.1672
 203   2.0000      -0.554817       -15.0973
 204   2.0000      -0.551203       -14.9990
 205   2.0000      -0.550753       -14.9867
 206   2.0000      -0.544214       -14.8088
 207   2.0000      -0.542747       -14.7689
 208   2.0000      -0.542726       -14.7683
 209   2.0000      -0.539154       -14.6711
 210   2.0000      -0.538762       -14.6605
 211   2.0000      -0.532130       -14.4800
 212   2.0000      -0.529569       -14.4103
 213   2.0000      -0.528895       -14.3920
 214   2.0000      -0.528260       -14.3747
 215   2.0000      -0.521756       -14.1977
 216   2.0000      -0.517865       -14.0918
 217   2.0000      -0.514372       -13.9968
 218   2.0000      -0.513877       -13.9833
 219   2.0000      -0.510595       -13.8940
 220   2.0000      -0.509738       -13.8707
 221   2.0000      -0.508215       -13.8292
 222   2.0000      -0.507348       -13.8056
 223   2.0000      -0.501818       -13.6552
 224   2.0000      -0.496713       -13.5162
 225   2.0000      -0.495277       -13.4772
 226   2.0000      -0.494243       -13.4490
 227   2.0000      -0.491070       -13.3627
 228   2.0000      -0.486576       -13.2404
 229   2.0000      -0.485986       -13.2243
 230   2.0000      -0.483592       -13.1592
 231   2.0000      -0.482006       -13.1161
 232   2.0000      -0.479204       -13.0398
 233   2.0000      -0.478033       -13.0079
 234   2.0000      -0.475248       -12.9322
 235   2.0000      -0.473368       -12.8810
 236   2.0000      -0.464051       -12.6275
 237   2.0000      -0.462182       -12.5766
 238   2.0000      -0.461899       -12.5689
 239   2.0000      -0.457097       -12.4382
 240   2.0000      -0.451679       -12.2908
 241   2.0000      -0.449286       -12.2257
 242   2.0000      -0.447924       -12.1886
 243   2.0000      -0.445922       -12.1342
 244   2.0000      -0.444922       -12.1070
 245   2.0000      -0.443513       -12.0686
 246   2.0000      -0.440938       -11.9985
 247   2.0000      -0.438922       -11.9437
 248   2.0000      -0.437696       -11.9103
 249   2.0000      -0.436710       -11.8835
 250   2.0000      -0.435538       -11.8516
 251   2.0000      -0.433926       -11.8077
 252   2.0000      -0.432599       -11.7716
 253   2.0000      -0.430113       -11.7040
 254   2.0000      -0.429996       -11.7008
 255   2.0000      -0.428231       -11.6528
 256   2.0000      -0.427799       -11.6410
 257   2.0000      -0.425427       -11.5765
 258   2.0000      -0.421289       -11.4639
 259   2.0000      -0.417875       -11.3710
 260   2.0000      -0.417498       -11.3607
 261   2.0000      -0.416501       -11.3336
 262   2.0000      -0.414469       -11.2783
 263   2.0000      -0.412221       -11.2171
 264   2.0000      -0.411358       -11.1936
 265   2.0000      -0.406380       -11.0582
 266   2.0000      -0.404240       -10.9999
 267   2.0000      -0.404106       -10.9963
 268   2.0000      -0.400381       -10.8949
 269   2.0000      -0.397650       -10.8206
 270   2.0000      -0.394842       -10.7442
 271   2.0000      -0.392621       -10.6838
 272   2.0000      -0.381913       -10.3924
 273   2.0000      -0.379508       -10.3269
 274   2.0000      -0.370143       -10.0721
 275   2.0000      -0.368727       -10.0336
 276   2.0000      -0.367138        -9.9903
 277   2.0000      -0.364484        -9.9181
 278   2.0000      -0.363633        -9.8950
 279   2.0000      -0.362783        -9.8718
 280   2.0000      -0.357853        -9.7377
 281   2.0000      -0.343864        -9.3570
 282   2.0000      -0.336625        -9.1600
 283   2.0000      -0.331568        -9.0224
 284   2.0000      -0.324924        -8.8416
 285   2.0000      -0.322702        -8.7812
 286   2.0000      -0.312319        -8.4986
 287   2.0000      -0.307010        -8.3542
 288   2.0000      -0.299862        -8.1597
 289   2.0000      -0.294777        -8.0213
 290   2.0000      -0.287563        -7.8250
 291   2.0000      -0.285142        -7.7591
 292   2.0000      -0.280781        -7.6404
 293   2.0000      -0.276294        -7.5184
 294   2.0000      -0.257843        -7.0163
 295   2.0000      -0.221835        -6.0364
 296   0.0000      -0.091540        -2.4909
 297   0.0000      -0.076719        -2.0876
 298   0.0000      -0.063657        -1.7322
 299   0.0000      -0.046907        -1.2764
 300   0.0000      -0.040777        -1.1096

MULLIKEN ATOMIC CHARGES
-----------------------
   0 C :    0.306031
   1 C :   -0.330531
   2 C :   -0.172499
   3 N :    0.129673
   4 C :   -0.207526
   5 N :    0.146685
   6 C :    0.022528
   7 C :   -0.012179
   8 C :   -0.084453
   9 C :    0.107562
  10 C :   -0.084698
  11 C :   -0.029875
  12 S :    0.174035
  13 C :   -0.134568
  14 C :    0.043014
  15 Br:    0.024033
  16 C :    0.149224
  17 O :   -0.183171
  18 C :   -0.095116
  19 C :   -0.014149
  20 C :   -0.141920
  21 C :    0.216069
  22 O :   -0.293347
  23 C :    0.184198
  24 C :    0.049591
  25 O :   -0.354228
  26 C :    0.204598
  27 C :   -0.060591
  28 S :    0.172967
  29 C :   -0.055050
  30 C :   -0.106852
  31 C :    0.032048
  32 C :    0.075887
  33 C :   -0.124300
  34 S :    0.143274
  35 C :   -0.112530
  36 C :    0.065373
  37 C :    0.010969
  38 C :   -0.069177
  39 S :    0.127549
  40 C :    0.053885
  41 C :    0.007211
  42 C :   -0.009961
  43 C :   -0.118374
  44 C :    0.199840
  45 O :   -0.310430
  46 C :    0.197823
  47 C :    0.117713
  48 O :   -0.342117
  49 C :    0.193317
  50 C :   -0.159664
  51 S :    0.160835
  52 C :    0.066560
  53 C :   -0.142878
  54 C :    0.283195
  55 C :   -0.376995
  56 C :   -0.196074
  57 N :    0.151529
  58 C :   -0.147072
  59 N :    0.135621
  60 C :    0.003338
  61 C :    0.030399
  62 C :    0.133214
  63 O :   -0.163369
  64 C :   -0.104892
  65 C :    0.136356
  66 C :   -0.099423
  67 C :   -0.026119
  68 S :    0.182444
  69 C :   -0.123991
  70 C :    0.034470
  71 Br:    0.018478
  72 H :   -0.001897
  73 H :   -0.014746
  74 H :    0.007664
  75 H :    0.026900
  76 H :    0.049906
  77 H :    0.016772
  78 H :    0.041451
  79 H :    0.038568
  80 H :    0.023689
  81 H :    0.019393
  82 H :    0.043898
  83 H :    0.034298
  84 H :   -0.016254
  85 H :    0.026668
  86 H :    0.001596
  87 H :    0.004783
  88 H :    0.027250
  89 H :    0.038266
  90 H :    0.015969
  91 H :    0.028679
  92 H :    0.039492
  93 H :    0.038778
  94 H :    0.019480
  95 H :   -0.003530
  96 H :   -0.010218
  97 H :   -0.000277
Sum of atomic charges:   -0.0000000

LOEWDIN ATOMIC CHARGES
----------------------
   0 C :    0.080303
   1 C :   -0.141790
   2 C :   -0.008973
   3 N :   -0.072918
   4 C :   -0.019977
   5 N :   -0.062296
   6 C :   -0.014655
   7 C :   -0.053046
   8 C :    0.020624
   9 C :   -0.041602
  10 C :   -0.145876
  11 C :   -0.014527
  12 S :    0.436926
  13 C :   -0.274737
  14 C :   -0.069419
  15 Br:    0.136974
  16 C :    0.080551
  17 O :   -0.168949
  18 C :   -0.116929
  19 C :    0.057345
  20 C :   -0.218526
  21 C :    0.040460
  22 O :   -0.081299
  23 C :    0.086222
  24 C :   -0.047223
  25 O :   -0.138921
  26 C :    0.073287
  27 C :   -0.178651
  28 S :    0.516679
  29 C :   -0.196563
  30 C :   -0.012291
  31 C :   -0.018250
  32 C :   -0.053375
  33 C :   -0.140422
  34 S :    0.469609
  35 C :   -0.201886
  36 C :   -0.040404
  37 C :   -0.061540
  38 C :   -0.164710
  39 S :    0.420978
  40 C :   -0.045277
  41 C :    0.006300
  42 C :   -0.054986
  43 C :   -0.163035
  44 C :    0.009953
  45 O :   -0.094314
  46 C :    0.081041
  47 C :    0.016501
  48 O :   -0.095089
  49 C :    0.081399
  50 C :   -0.206609
  51 S :    0.473172
  52 C :    0.033132
  53 C :   -0.115940
  54 C :    0.062841
  55 C :   -0.149628
  56 C :   -0.020227
  57 N :   -0.065700
  58 C :   -0.012183
  59 N :   -0.063649
  60 C :   -0.018866
  61 C :   -0.053109
  62 C :    0.084277
  63 O :   -0.154671
  64 C :    0.019288
  65 C :   -0.039608
  66 C :   -0.149430
  67 C :   -0.016067
  68 S :    0.431656
  69 C :   -0.275150
  70 C :   -0.069212
  71 Br:    0.132854
  72 H :    0.041970
  73 H :    0.037906
  74 H :    0.040426
  75 H :    0.050669
  76 H :    0.032709
  77 H :    0.015160
  78 H :    0.024231
  79 H :    0.026774
  80 H :    0.012863
  81 H :    0.009353
  82 H :    0.034164
  83 H :    0.035364
  84 H :    0.031914
  85 H :    0.023392
  86 H :    0.032469
  87 H :    0.030188
  88 H :    0.023076
  89 H :    0.022599
  90 H :    0.013175
  91 H :    0.019489
  92 H :    0.029404
  93 H :    0.017296
  94 H :    0.043165
  95 H :    0.043684
  96 H :    0.038348
  97 H :    0.040345

  Mayer bond orders larger than 0.100000
B(  0-C ,  1-C ) :   1.6374 B(  0-C ,  6-C ) :   0.9919 B(  0-C , 18-C ) :   1.0781
B(  1-C ,  2-C ) :   1.1511 B(  1-C ,  4-C ) :   1.1437 B(  2-C ,  3-N ) :   2.9509
B(  4-C ,  5-N ) :   2.9894 B(  6-C ,  7-C ) :   1.2886 B(  6-C , 11-C ) :   1.4098
B(  7-C ,  8-C ) :   1.4171 B(  7-C , 16-C ) :   0.9574 B(  8-C ,  9-C ) :   1.2276
B(  8-C , 72-H ) :   1.0130 B(  9-C , 10-C ) :   1.3240 B(  9-C , 14-C ) :   1.1588
B( 10-C , 11-C ) :   1.3114 B( 10-C , 12-S ) :   1.0842 B( 11-C , 73-H ) :   0.9850
B( 12-S , 13-C ) :   1.0855 B( 13-C , 14-C ) :   1.6165 B( 13-C , 15-Br) :   1.0217
B( 14-C , 74-H ) :   0.9934 B( 16-C , 17-O ) :   2.1096 B( 16-C , 18-C ) :   0.9962
B( 18-C , 19-C ) :   1.4513 B( 19-C , 20-C ) :   1.3046 B( 19-C , 75-H ) :   0.9432
B( 20-C , 21-C ) :   1.3424 B( 20-C , 27-C ) :   0.1031 B( 20-C , 28-S ) :   1.0638
B( 21-C , 22-O ) :   1.2229 B( 21-C , 24-C ) :   1.2772 B( 22-O , 23-C ) :   0.9271
B( 23-C , 76-H ) :   0.9786 B( 23-C , 77-H ) :   0.9744 B( 23-C , 78-H ) :   0.9716
B( 24-C , 25-O ) :   1.1155 B( 24-C , 27-C ) :   1.3774 B( 25-O , 26-C ) :   0.9277
B( 26-C , 79-H ) :   0.9834 B( 26-C , 80-H ) :   0.9662 B( 26-C , 81-H ) :   0.9638
B( 27-C , 28-S ) :   1.1215 B( 27-C , 29-C ) :   1.1904 B( 29-C , 30-C ) :   1.4769
B( 29-C , 34-S ) :   1.0506 B( 30-C , 31-C ) :   1.2553 B( 30-C , 82-H ) :   0.9646
B( 31-C , 32-C ) :   1.0619 B( 31-C , 40-C ) :   1.3789 B( 32-C , 33-C ) :   1.5981
B( 32-C , 35-C ) :   1.1740 B( 33-C , 34-S ) :   1.1340 B( 33-C , 83-H ) :   0.9390
B( 35-C , 36-C ) :   1.4312 B( 35-C , 39-S ) :   1.0774 B( 36-C , 37-C ) :   1.2197
B( 36-C , 40-C ) :   1.1037 B( 37-C , 38-C ) :   1.5842 B( 37-C , 84-H ) :   1.0010
B( 38-C , 39-S ) :   1.1523 B( 38-C , 85-H ) :   0.9667 B( 40-C , 41-C ) :   1.1367
B( 41-C , 42-C ) :   1.6504 B( 41-C , 86-H ) :   0.9669 B( 42-C , 43-C ) :   1.1570
B( 42-C , 87-H ) :   0.9375 B( 43-C , 44-C ) :   1.4115 B( 43-C , 50-C ) :   0.1135
B( 43-C , 51-S ) :   1.1444 B( 44-C , 45-O ) :   1.2041 B( 44-C , 47-C ) :   1.2620
B( 45-O , 46-C ) :   0.9267 B( 46-C , 88-H ) :   0.9774 B( 46-C , 89-H ) :   0.9699
B( 46-C , 90-H ) :   0.9743 B( 47-C , 48-O ) :   1.1326 B( 47-C , 50-C ) :   1.3087
B( 48-O , 49-C ) :   0.9240 B( 49-C , 91-H ) :   0.9673 B( 49-C , 92-H ) :   0.9811
B( 49-C , 93-H ) :   0.9641 B( 50-C , 51-S ) :   1.1007 B( 50-C , 52-C ) :   1.2301
B( 52-C , 53-C ) :   1.5865 B( 52-C , 94-H ) :   0.8968 B( 53-C , 54-C ) :   1.0688
B( 53-C , 62-C ) :   0.9645 B( 54-C , 55-C ) :   1.6066 B( 54-C , 60-C ) :   1.0018
B( 55-C , 56-C ) :   1.1447 B( 55-C , 58-C ) :   1.1914 B( 56-C , 57-N ) :   2.9559
B( 58-C , 59-N ) :   2.8682 B( 60-C , 61-C ) :   1.2782 B( 60-C , 67-C ) :   1.4163
B( 61-C , 62-C ) :   0.9291 B( 61-C , 64-C ) :   1.4122 B( 62-C , 63-O ) :   2.1880
B( 64-C , 65-C ) :   1.2305 B( 64-C , 95-H ) :   1.0222 B( 65-C , 66-C ) :   1.3065
B( 65-C , 70-C ) :   1.1626 B( 66-C , 67-C ) :   1.3162 B( 66-C , 68-S ) :   1.0898
B( 67-C , 96-H ) :   0.9870 B( 68-S , 69-C ) :   1.0844 B( 69-C , 70-C ) :   1.6165
B( 69-C , 71-Br) :   1.0153 B( 70-C , 97-H ) :   1.0010

-----------------------------------------------------------------------------
         ABSORPTION SPECTRUM VIA TRANSITION ELECTRIC DIPOLE MOMENTS
-----------------------------------------------------------------------------
State   Energy  Wavelength   fosc         T2         TX        TY        TZ
        (cm-1)    (nm)                  (au**2)     (au)      (au)      (au)
-----------------------------------------------------------------------------
   0   12376.4    808.0   0.166004295   4.41571   1.51440   1.39032   0.43513
   1   16656.9    600.4   0.529933077  10.47375  -0.88736   0.72791  -3.02597
   2   19704.8    507.5   0.180258195   3.01161  -0.62777   0.87165  -1.36299
   3   20988.5    476.5   0.877016889  13.75632  -1.58027   0.18848  -3.35016
   4   21401.8    467.3   0.300694905   4.62542   0.35825  -0.32833   2.09506
   5   23282.8    429.5   0.204492435   2.89147   0.68116  -0.08057   1.55595
   6   23422.0    426.9   0.164078635   2.30624   0.72250   0.42874   1.26508
   7   24314.1    411.3   0.074776166   1.01247   0.49582   0.04032  -0.87465
   8   25257.2    395.9   0.036781538   0.47942  -0.44745  -0.37294  -0.37434
   9   25672.8    389.5   0.010680071   0.13695   0.14431   0.28325   0.18947
  10   26488.7    377.5   0.257423119   3.19935   0.21873  -0.71134   1.62650
  11   27291.6    366.4   0.054421091   0.65647   0.53074   0.60341   0.10335
  12   27623.8    362.0   0.030286316   0.36094  -0.51728  -0.08727  -0.29283
  13   27686.1    361.2   0.086925599   1.03362  -0.89273  -0.40471  -0.26991
  14   28175.2    354.9   0.013628890   0.15925  -0.01727   0.11106  -0.38290
  15   28367.5    352.5   0.119228460   1.38368  -0.94326  -0.48139  -0.51206
  16   28571.0    350.0   0.077025570   0.88753   0.52907   0.14062   0.76671
  17   28675.0    348.7   0.049795038   0.57169   0.23551  -0.09897  -0.71164
  18   28896.6    346.1   0.033096351   0.37706   0.11495   0.07858  -0.59806
  19   29075.1    343.9   0.106538946   1.20632  -0.72589   0.63634  -0.52390
  20   29665.7    337.1   0.170300839   1.88990  -1.01309   0.48277  -0.79403
  21   30496.8    327.9   0.087766805   0.94744   0.12104  -0.25648   0.93113
  22   30709.3    325.6   0.087034361   0.93303  -0.86635  -0.24830   0.34758
  23   31022.4    322.3   0.021941895   0.23285   0.25183  -0.07783  -0.40420
  24   31275.4    319.7   0.160285978   1.68721  -0.46928  -0.03045  -1.21081
  25   31417.5    318.3   0.007399533   0.07754  -0.02770   0.27140  -0.05576
  26   31522.4    317.2   0.067018122   0.69992   0.34195   0.18998   0.73953
  27   31712.3    315.3   0.154222989   1.60102   0.65331   0.89442  -0.61173
  28   31933.0    313.2   0.054177981   0.55855  -0.30755   0.11186  -0.67190
  29   32149.9    311.0   0.055527310   0.56860   0.38099  -0.15219  -0.63268
  30   32508.3    307.6   0.055949491   0.56660  -0.68805   0.24132   0.18698
  31   32567.4    307.1   0.048472892   0.48999  -0.67719  -0.06538   0.16474
  32   32796.4    304.9   0.043360741   0.43526   0.65381  -0.08382  -0.02758
  33   32917.2    303.8   0.075582828   0.75592  -0.79054   0.04551   0.35902
  34   33184.5    301.3   0.057918019   0.57458  -0.66434   0.12124  -0.34430
  35   33809.0    295.8   0.126189478   1.22876  -0.15623  -0.13356   1.08927
  36   33857.1    295.4   0.050349825   0.48958   0.69533   0.06736   0.03944
  37   34522.3    289.7   0.170236891   1.62342   0.05947   0.04975   1.27177
  38   34648.2    288.6   0.025316830   0.24055  -0.21051  -0.42719  -0.11725
  39   34840.3    287.0   0.070867239   0.66964  -0.39526  -0.39009  -0.60103
  40   35243.7    283.7   0.057773873   0.53967   0.30484  -0.15217   0.65083
  41   35460.6    282.0   0.065132815   0.60469  -0.43463   0.05874   0.64213
  42   35573.0    281.1   0.366555910   3.39230  -0.95584  -0.60430   1.45378
  43   35788.0    279.4   0.001528278   0.01406   0.10318  -0.03493  -0.04682
  44   36180.7    276.4   0.172892093   1.57316  -0.46573  -0.72368   0.91244
  45   36499.3    274.0   0.037332146   0.33672  -0.09893   0.52515  -0.22618
  46   36658.7    272.8   0.214022161   1.92202   1.24015   0.55231  -0.28107
  47   37020.8    270.1   0.019979356   0.17767   0.40373  -0.12112  -0.00094
  48   37445.6    267.1   0.054685023   0.48078   0.64559   0.21709  -0.12984
  49   37562.1    266.2   0.039363347   0.34500  -0.06462  -0.50739  -0.28874
  50   37804.4    264.5   0.069799609   0.60784   0.68776   0.33882  -0.14150
  51   38009.3    263.1   0.042260311   0.36603  -0.48216   0.09492   0.35291
  52   38194.6    261.8   0.136326580   1.17504  -0.41324  -0.23985   0.97301
  53   38377.1    260.6   0.005261697   0.04514  -0.18657   0.08390  -0.05735
  54   38570.3    259.3   0.059286830   0.50604  -0.16418  -0.32201   0.61269
  55   39121.0    255.6   0.041410317   0.34848  -0.34925   0.01997   0.47551
  56   39154.9    255.4   0.062853365   0.52847  -0.56993  -0.43868   0.10587
  57   39523.9    253.0   0.098994653   0.82457   0.15207  -0.09495  -0.89018
  58   39650.8    252.2   0.128110831   1.06368   0.61868   0.31905  -0.76099
  59   39979.9    250.1   0.019110699   0.15737  -0.14511  -0.00208  -0.36920
  60   40046.0    249.7   0.043925048   0.36110   0.56034   0.07391   0.20410
  61   40214.8    248.7   0.027468208   0.22486   0.29836  -0.09741   0.35546

FINAL SINGLE POINT ENERGY    -10276.467549033376

DIPOLE MOMENT
-------------
                                X             Y             Z
Electronic contribution:    123.34815     -26.34901     167.41283
Nuclear contribution   :   -123.83902      26.89360    -170.14127
                        -----------------------------------------
Total Dipole Moment    :     -0.49086       0.54459      -2.72844
                        -----------------------------------------
Magnitude (a.u.)       :      2.82522
Magnitude (Debye)      :      7.18115

Rotational constants in cm-1:     0.001510     0.000418     0.000362
Rotational constants in MHz :    45.264171    12.535328    10.861645

                             ****ORCA TERMINATED NORMALLY****
TOTAL RUN TIME: 0 days 0 hours 14 minutes 13 seconds 573 msec
