                         Program Version 4.2.0 -  RELEASE  -
|  1> # ORCA input file
|  2> # SCF done       -195.630856104237          0.000678721142
|  3> ! CAM-B3LYP def2-SVP def2/J RIJCOSX Grid4 TightSCF
|  4> %maxcore 5000
|  5> %tddft
|  6>     Mode sTDDFT
|  7>     Ethresh 5.0
|  8>     maxcore 5000
|  9> end
| 10>
| 11> %pal
| 12>   nprocs 6
| 13>   end
| 14> * xyz 0 1
| 15>    C       -3.72294         4.06875        -8.59788
| 16>    C       -2.44253         3.73792        -8.26837
| 17>    C       -2.13668         4.12679        -6.95125
| 18>    C       -3.21650         4.75477        -6.31613
| 19>    S       -4.58924         4.86261        -7.32692
| 20>    C       -2.82444         5.11283        -4.99840
| 21>    C       -1.49221         4.70325        -4.80241
| 22>    C       -1.00724         4.09960        -6.03825
| 23>    C        0.25729         3.66574        -6.30363
| 24>    C        1.32545         3.80238        -5.38920
| 25>    N        2.22137         3.94671        -4.68948
| 26>    C        0.60383         3.09821        -7.54887
| 27>    N        0.88939         2.63453        -8.55788
| 28>    C       -1.02203         4.97131        -3.52140
| 29>    C       -1.98292         5.60708        -2.74595
| 30>    S       -3.48793         5.86465        -3.62040
| 31>    C       -1.84108         6.03033        -1.40841
| 32>    C       -0.77763         5.71965        -0.54427
| 33>    C       -0.91727         6.32537         0.75610
| 34>    N        0.01902         6.15790         1.69734
| 35>    C        1.03579         5.38559         1.39487
| 36>    C        2.09557         5.22142         2.42817
| 37>    O        2.04031         5.75033         3.51575
| 38>    C        3.22835         4.36495         2.02848
| 39>    C        3.29597         3.71660         0.86209
| 40>    C        2.23776         3.77329        -0.16351
| 41>    O        2.25277         3.07562        -1.15356
| 42>    C        1.13745         4.72691         0.12811
| 43>    N        0.24849         4.91555        -0.82282
| 44>    C       -2.09105         7.06853         0.87269
| 45>    S       -2.99947         7.02903        -0.59493
| 46>    C       -2.59583         7.79808         1.97811
| 47>    O       -1.91567         7.84623         3.15237
| 48>    C       -2.68128         8.61295         3.95856
| 49>    C       -3.83150         9.00822         3.20880
| 50>    N       -3.71809         8.46041         1.96302
| 51>    C       -4.82623         9.80594         3.74929
| 52>    C       -4.61277        10.18270         5.06549
| 53>    C       -3.45266         9.77504         5.79502
| 54>    C       -2.45207         8.98036         5.26997
| 55>    O       -3.54997        10.30422         7.03127
| 56>    C       -4.72835        10.99772         7.02753
| 57>    N       -5.37513        10.94903         5.89675
| 58>    C       -5.14166        11.68356         8.20364
| 59>    C       -6.31394        12.36557         8.22617
| 60>    C       -6.80989        13.07168         9.34211
| 61>    C       -6.25873        13.24186        10.61975
| 62>    C       -7.08668        14.03080        11.49544
| 63>    N       -6.74696        14.23886        12.76855
| 64>    C       -5.61116        13.71861        13.17863
| 65>    C       -5.26867        13.89094        14.61322
| 66>    O       -6.04731        14.34688        15.42158
| 67>    C       -3.91705        13.43350        14.98542
| 68>    C       -3.09640        12.79228        14.14752
| 69>    C       -3.43922        12.47431        12.74976
| 70>    O       -2.69939        11.84088        12.02790
| 71>    C       -4.75483        12.99267        12.29269
| 72>    N       -5.08839        12.75528        11.04393
| 73>    C       -8.26457        14.48221        10.87840
| 74>    S       -8.33505        13.89849         9.25033
| 75>    C       -9.26743        15.28412        11.45815
| 76>    C       -9.20158        15.94010        12.68075
| 77>    C      -10.36776        16.65036        12.94409
| 78>    C      -11.33685        16.51786        11.93267
| 79>    S      -10.80054        15.55112        10.63532
| 80>    C      -12.49617        17.24063        12.32058
| 81>    C      -12.25994        17.83143        13.56928
| 82>    C      -10.90803        17.51066        13.99125
| 83>    C      -10.25698        17.97283        15.09599
| 84>    C      -10.89257        18.80781        16.04013
| 85>    N      -11.40850        19.48302        16.80993
| 86>    C       -8.89254        17.71021        15.35056
| 87>    N       -7.77556        17.55746        15.55564
| 88>    C      -13.36549        18.57037        14.02957
| 89>    C      -14.39785        18.52321        13.14145
| 90>    S      -14.05838        17.58904        11.72374
| 91>    H       -4.22586         3.89321        -9.52787
| 92>    H       -1.76412         3.24111        -8.93732
| 93>    H       -0.04987         4.72513        -3.13342
| 94>    H        4.01618         4.28138         2.76521
| 95>    H        4.13886         3.08517         0.61530
| 96>    H       -5.69478        10.10771         3.19216
| 97>    H       -1.58120         8.67587         5.82346
| 98>    H       -4.49394        11.63880         9.06568
| 99>    H       -6.91874        12.37235         7.32928
|100>    H       -3.63329        13.63276        16.01001
|101>    H       -2.11976        12.45300        14.46585
|102>    H       -8.33864        15.86938        13.31831
|103>    H      -13.40439        19.10463        14.96105
|104>    H      -15.35972        18.98759        13.22935
|105> *
|106>
|107>                          ****END OF INPUT****

CARTESIAN COORDINATES (ANGSTROEM)
---------------------------------
  C     -3.722940    4.068750   -8.597880
  C     -2.442530    3.737920   -8.268370
  C     -2.136680    4.126790   -6.951250
  C     -3.216500    4.754770   -6.316130
  S     -4.589240    4.862610   -7.326920
  C     -2.824440    5.112830   -4.998400
  C     -1.492210    4.703250   -4.802410
  C     -1.007240    4.099600   -6.038250
  C      0.257290    3.665740   -6.303630
  C      1.325450    3.802380   -5.389200
  N      2.221370    3.946710   -4.689480
  C      0.603830    3.098210   -7.548870
  N      0.889390    2.634530   -8.557880
  C     -1.022030    4.971310   -3.521400
  C     -1.982920    5.607080   -2.745950
  S     -3.487930    5.864650   -3.620400
  C     -1.841080    6.030330   -1.408410
  C     -0.777630    5.719650   -0.544270
  C     -0.917270    6.325370    0.756100
  N      0.019020    6.157900    1.697340
  C      1.035790    5.385590    1.394870
  C      2.095570    5.221420    2.428170
  O      2.040310    5.750330    3.515750
  C      3.228350    4.364950    2.028480
  C      3.295970    3.716600    0.862090
  C      2.237760    3.773290   -0.163510
  O      2.252770    3.075620   -1.153560
  C      1.137450    4.726910    0.128110
  N      0.248490    4.915550   -0.822820
  C     -2.091050    7.068530    0.872690
  S     -2.999470    7.029030   -0.594930
  C     -2.595830    7.798080    1.978110
  O     -1.915670    7.846230    3.152370
  C     -2.681280    8.612950    3.958560
  C     -3.831500    9.008220    3.208800
  N     -3.718090    8.460410    1.963020
  C     -4.826230    9.805940    3.749290
  C     -4.612770   10.182700    5.065490
  C     -3.452660    9.775040    5.795020
  C     -2.452070    8.980360    5.269970
  O     -3.549970   10.304220    7.031270
  C     -4.728350   10.997720    7.027530
  N     -5.375130   10.949030    5.896750
  C     -5.141660   11.683560    8.203640
  C     -6.313940   12.365570    8.226170
  C     -6.809890   13.071680    9.342110
  C     -6.258730   13.241860   10.619750
  C     -7.086680   14.030800   11.495440
  N     -6.746960   14.238860   12.768550
  C     -5.611160   13.718610   13.178630
  C     -5.268670   13.890940   14.613220
  O     -6.047310   14.346880   15.421580
  C     -3.917050   13.433500   14.985420
  C     -3.096400   12.792280   14.147520
  C     -3.439220   12.474310   12.749760
  O     -2.699390   11.840880   12.027900
  C     -4.754830   12.992670   12.292690
  N     -5.088390   12.755280   11.043930
  C     -8.264570   14.482210   10.878400
  S     -8.335050   13.898490    9.250330
  C     -9.267430   15.284120   11.458150
  C     -9.201580   15.940100   12.680750
  C    -10.367760   16.650360   12.944090
  C    -11.336850   16.517860   11.932670
  S    -10.800540   15.551120   10.635320
  C    -12.496170   17.240630   12.320580
  C    -12.259940   17.831430   13.569280
  C    -10.908030   17.510660   13.991250
  C    -10.256980   17.972830   15.095990
  C    -10.892570   18.807810   16.040130
  N    -11.408500   19.483020   16.809930
  C     -8.892540   17.710210   15.350560
  N     -7.775560   17.557460   15.555640
  C    -13.365490   18.570370   14.029570
  C    -14.397850   18.523210   13.141450
  S    -14.058380   17.589040   11.723740
  H     -4.225860    3.893210   -9.527870
  H     -1.764120    3.241110   -8.937320
  H     -0.049870    4.725130   -3.133420
  H      4.016180    4.281380    2.765210
  H      4.138860    3.085170    0.615300
  H     -5.694780   10.107710    3.192160
  H     -1.581200    8.675870    5.823460
  H     -4.493940   11.638800    9.065680
  H     -6.918740   12.372350    7.329280
  H     -3.633290   13.632760   16.010010
  H     -2.119760   12.453000   14.465850
  H     -8.338640   15.869380   13.318310
  H    -13.404390   19.104630   14.961050
  H    -15.359720   18.987590   13.229350

 Total Charge           Charge          ....    0
 Multiplicity           Mult            ....    1
 Number of Electrons    NEL             ....  552
 Basis Dimension        Dim             .... 1158

ORBITAL ENERGIES
----------------

  NO   OCC          E(Eh)            E(eV)
   0   2.0000     -88.999243     -2421.7925
   1   2.0000     -88.997616     -2421.7483
   2   2.0000     -88.993133     -2421.6263
   3   2.0000     -88.992246     -2421.6021
   4   2.0000     -88.988813     -2421.5087
   5   2.0000     -88.987880     -2421.4833
   6   2.0000     -19.296136      -525.0746
   7   2.0000     -19.292249      -524.9688
   8   2.0000     -19.226568      -523.1815
   9   2.0000     -19.224503      -523.1253
  10   2.0000     -19.223288      -523.0923
  11   2.0000     -19.222151      -523.0613
  12   2.0000     -14.448804      -393.1719
  13   2.0000     -14.447677      -393.1413
  14   2.0000     -14.447109      -393.1258
  15   2.0000     -14.442132      -392.9904
  16   2.0000     -14.427522      -392.5928
  17   2.0000     -14.427168      -392.5832
  18   2.0000     -14.423371      -392.4799
  19   2.0000     -14.423107      -392.4727
  20   2.0000     -14.407553      -392.0494
  21   2.0000     -14.400522      -391.8581
  22   2.0000     -10.378144      -282.4037
  23   2.0000     -10.375408      -282.3292
  24   2.0000     -10.373330      -282.2727
  25   2.0000     -10.372582      -282.2523
  26   2.0000     -10.371034      -282.2102
  27   2.0000     -10.363955      -282.0175
  28   2.0000     -10.362357      -281.9741
  29   2.0000     -10.361843      -281.9601
  30   2.0000     -10.348680      -281.6019
  31   2.0000     -10.348194      -281.5887
  32   2.0000     -10.340932      -281.3911
  33   2.0000     -10.340562      -281.3810
  34   2.0000     -10.339610      -281.3551
  35   2.0000     -10.339012      -281.3388
  36   2.0000     -10.338694      -281.3302
  37   2.0000     -10.337382      -281.2945
  38   2.0000     -10.336919      -281.2819
  39   2.0000     -10.336302      -281.2651
  40   2.0000     -10.335500      -281.2432
  41   2.0000     -10.335441      -281.2417
  42   2.0000     -10.334193      -281.2077
  43   2.0000     -10.333701      -281.1943
  44   2.0000     -10.333125      -281.1786
  45   2.0000     -10.332569      -281.1635
  46   2.0000     -10.330012      -281.0939
  47   2.0000     -10.329690      -281.0852
  48   2.0000     -10.329475      -281.0793
  49   2.0000     -10.329429      -281.0781
  50   2.0000     -10.327668      -281.0301
  51   2.0000     -10.327330      -281.0209
  52   2.0000     -10.326917      -281.0097
  53   2.0000     -10.326630      -281.0019
  54   2.0000     -10.322493      -280.8893
  55   2.0000     -10.322319      -280.8846
  56   2.0000     -10.313778      -280.6522
  57   2.0000     -10.312767      -280.6247
  58   2.0000     -10.307464      -280.4804
  59   2.0000     -10.306685      -280.4591
  60   2.0000     -10.305187      -280.4184
  61   2.0000     -10.304413      -280.3973
  62   2.0000     -10.302881      -280.3557
  63   2.0000     -10.302297      -280.3398
  64   2.0000     -10.301643      -280.3220
  65   2.0000     -10.301498      -280.3180
  66   2.0000     -10.300974      -280.3038
  67   2.0000     -10.300430      -280.2889
  68   2.0000     -10.299789      -280.2715
  69   2.0000     -10.298765      -280.2436
  70   2.0000     -10.298454      -280.2352
  71   2.0000     -10.298155      -280.2271
  72   2.0000     -10.297451      -280.2079
  73   2.0000     -10.287111      -279.9265
  74   2.0000     -10.284518      -279.8560
  75   2.0000     -10.275655      -279.6148
  76   2.0000      -8.093404      -220.2327
  77   2.0000      -8.092561      -220.2098
  78   2.0000      -8.087885      -220.0825
  79   2.0000      -8.087066      -220.0603
  80   2.0000      -8.083766      -219.9705
  81   2.0000      -8.082925      -219.9476
  82   2.0000      -6.062513      -164.9694
  83   2.0000      -6.061448      -164.9404
  84   2.0000      -6.058170      -164.8512
  85   2.0000      -6.057400      -164.8302
  86   2.0000      -6.057155      -164.8236
  87   2.0000      -6.056348      -164.8016
  88   2.0000      -6.056234      -164.7985
  89   2.0000      -6.055473      -164.7778
  90   2.0000      -6.053042      -164.7116
  91   2.0000      -6.052991      -164.7103
  92   2.0000      -6.052210      -164.6890
  93   2.0000      -6.052197      -164.6887
  94   2.0000      -6.050191      -164.6341
  95   2.0000      -6.049325      -164.6105
  96   2.0000      -6.048579      -164.5902
  97   2.0000      -6.047746      -164.5675
  98   2.0000      -6.046372      -164.5301
  99   2.0000      -6.045499      -164.5064
 100   2.0000      -1.228271       -33.4230
 101   2.0000      -1.221476       -33.2381
 102   2.0000      -1.142971       -31.1018
 103   2.0000      -1.140561       -31.0363
 104   2.0000      -1.138097       -30.9692
 105   2.0000      -1.135873       -30.9087
 106   2.0000      -1.099481       -29.9184
 107   2.0000      -1.097371       -29.8610
 108   2.0000      -1.043592       -28.3976
 109   2.0000      -1.042785       -28.3756
 110   2.0000      -1.026334       -27.9280
 111   2.0000      -1.024281       -27.8721
 112   2.0000      -1.023864       -27.8608
 113   2.0000      -1.018148       -27.7052
 114   2.0000      -1.018032       -27.7021
 115   2.0000      -1.014226       -27.5985
 116   2.0000      -1.009207       -27.4619
 117   2.0000      -1.007117       -27.4050
 118   2.0000      -1.002287       -27.2736
 119   2.0000      -1.002064       -27.2675
 120   2.0000      -0.990090       -26.9417
 121   2.0000      -0.989750       -26.9325
 122   2.0000      -0.955612       -26.0035
 123   2.0000      -0.954462       -25.9722
 124   2.0000      -0.950300       -25.8590
 125   2.0000      -0.937830       -25.5197
 126   2.0000      -0.935158       -25.4469
 127   2.0000      -0.917518       -24.9669
 128   2.0000      -0.911508       -24.8034
 129   2.0000      -0.902057       -24.5462
 130   2.0000      -0.883442       -24.0397
 131   2.0000      -0.874255       -23.7897
 132   2.0000      -0.871983       -23.7279
 133   2.0000      -0.869791       -23.6682
 134   2.0000      -0.864428       -23.5223
 135   2.0000      -0.855120       -23.2690
 136   2.0000      -0.852322       -23.1929
 137   2.0000      -0.851537       -23.1715
 138   2.0000      -0.843878       -22.9631
 139   2.0000      -0.829692       -22.5771
 140   2.0000      -0.805625       -21.9222
 141   2.0000      -0.801939       -21.8219
 142   2.0000      -0.796749       -21.6806
 143   2.0000      -0.790116       -21.5001
 144   2.0000      -0.789436       -21.4816
 145   2.0000      -0.778580       -21.1862
 146   2.0000      -0.775226       -21.0950
 147   2.0000      -0.773870       -21.0581
 148   2.0000      -0.764002       -20.7896
 149   2.0000      -0.744796       -20.2669
 150   2.0000      -0.742442       -20.2029
 151   2.0000      -0.734277       -19.9807
 152   2.0000      -0.717412       -19.5218
 153   2.0000      -0.705206       -19.1896
 154   2.0000      -0.699292       -19.0287
 155   2.0000      -0.698564       -19.0089
 156   2.0000      -0.697908       -18.9910
 157   2.0000      -0.684997       -18.6397
 158   2.0000      -0.684368       -18.6226
 159   2.0000      -0.679631       -18.4937
 160   2.0000      -0.675635       -18.3850
 161   2.0000      -0.674107       -18.3434
 162   2.0000      -0.667939       -18.1755
 163   2.0000      -0.665254       -18.1025
 164   2.0000      -0.660743       -17.9797
 165   2.0000      -0.654609       -17.8128
 166   2.0000      -0.652316       -17.7504
 167   2.0000      -0.650281       -17.6950
 168   2.0000      -0.633483       -17.2379
 169   2.0000      -0.627036       -17.0625
 170   2.0000      -0.624757       -17.0005
 171   2.0000      -0.621542       -16.9130
 172   2.0000      -0.614890       -16.7320
 173   2.0000      -0.612622       -16.6703
 174   2.0000      -0.610916       -16.6239
 175   2.0000      -0.608652       -16.5623
 176   2.0000      -0.600083       -16.3291
 177   2.0000      -0.597280       -16.2528
 178   2.0000      -0.593202       -16.1418
 179   2.0000      -0.582280       -15.8446
 180   2.0000      -0.573047       -15.5934
 181   2.0000      -0.568836       -15.4788
 182   2.0000      -0.566651       -15.4194
 183   2.0000      -0.564822       -15.3696
 184   2.0000      -0.563130       -15.3236
 185   2.0000      -0.561655       -15.2834
 186   2.0000      -0.560607       -15.2549
 187   2.0000      -0.559050       -15.2125
 188   2.0000      -0.558825       -15.2064
 189   2.0000      -0.556614       -15.1462
 190   2.0000      -0.554958       -15.1012
 191   2.0000      -0.544966       -14.8293
 192   2.0000      -0.544890       -14.8272
 193   2.0000      -0.544011       -14.8033
 194   2.0000      -0.540950       -14.7200
 195   2.0000      -0.535938       -14.5836
 196   2.0000      -0.525809       -14.3080
 197   2.0000      -0.524638       -14.2761
 198   2.0000      -0.521285       -14.1849
 199   2.0000      -0.519147       -14.1267
 200   2.0000      -0.517783       -14.0896
 201   2.0000      -0.517036       -14.0693
 202   2.0000      -0.516218       -14.0470
 203   2.0000      -0.508897       -13.8478
 204   2.0000      -0.505863       -13.7652
 205   2.0000      -0.503982       -13.7141
 206   2.0000      -0.500718       -13.6252
 207   2.0000      -0.500143       -13.6096
 208   2.0000      -0.499288       -13.5863
 209   2.0000      -0.496683       -13.5154
 210   2.0000      -0.494947       -13.4682
 211   2.0000      -0.493622       -13.4321
 212   2.0000      -0.493163       -13.4197
 213   2.0000      -0.491478       -13.3738
 214   2.0000      -0.490094       -13.3361
 215   2.0000      -0.484965       -13.1966
 216   2.0000      -0.483562       -13.1584
 217   2.0000      -0.480856       -13.0848
 218   2.0000      -0.478282       -13.0147
 219   2.0000      -0.476458       -12.9651
 220   2.0000      -0.472284       -12.8515
 221   2.0000      -0.471143       -12.8205
 222   2.0000      -0.466679       -12.6990
 223   2.0000      -0.465740       -12.6734
 224   2.0000      -0.461166       -12.5490
 225   2.0000      -0.459689       -12.5088
 226   2.0000      -0.457065       -12.4374
 227   2.0000      -0.456687       -12.4271
 228   2.0000      -0.455620       -12.3981
 229   2.0000      -0.452186       -12.3046
 230   2.0000      -0.451885       -12.2964
 231   2.0000      -0.446132       -12.1399
 232   2.0000      -0.445687       -12.1278
 233   2.0000      -0.444786       -12.1032
 234   2.0000      -0.442298       -12.0355
 235   2.0000      -0.440358       -11.9827
 236   2.0000      -0.438659       -11.9365
 237   2.0000      -0.438043       -11.9197
 238   2.0000      -0.437965       -11.9176
 239   2.0000      -0.435160       -11.8413
 240   2.0000      -0.434958       -11.8358
 241   2.0000      -0.434120       -11.8130
 242   2.0000      -0.433858       -11.8059
 243   2.0000      -0.421424       -11.4675
 244   2.0000      -0.421205       -11.4616
 245   2.0000      -0.420892       -11.4531
 246   2.0000      -0.411613       -11.2006
 247   2.0000      -0.408968       -11.1286
 248   2.0000      -0.405401       -11.0315
 249   2.0000      -0.404985       -11.0202
 250   2.0000      -0.402482       -10.9521
 251   2.0000      -0.386876       -10.5274
 252   2.0000      -0.377928       -10.2839
 253   2.0000      -0.371565       -10.1108
 254   2.0000      -0.370421       -10.0797
 255   2.0000      -0.369215       -10.0469
 256   2.0000      -0.366192        -9.9646
 257   2.0000      -0.362788        -9.8720
 258   2.0000      -0.361243        -9.8299
 259   2.0000      -0.359784        -9.7902
 260   2.0000      -0.350196        -9.5293
 261   2.0000      -0.349686        -9.5154
 262   2.0000      -0.345706        -9.4071
 263   2.0000      -0.344990        -9.3877
 264   2.0000      -0.344799        -9.3825
 265   2.0000      -0.342192        -9.3115
 266   2.0000      -0.334560        -9.1038
 267   2.0000      -0.333077        -9.0635
 268   2.0000      -0.331332        -9.0160
 269   2.0000      -0.320395        -8.7184
 270   2.0000      -0.319348        -8.6899
 271   2.0000      -0.315749        -8.5920
 272   2.0000      -0.294176        -8.0049
 273   2.0000      -0.285792        -7.7768
 274   2.0000      -0.251775        -6.8512
 275   2.0000      -0.238403        -6.4873
 276   0.0000      -0.109789        -2.9875
 277   0.0000      -0.106686        -2.9031
 278   0.0000      -0.093219        -2.5366
 279   0.0000      -0.089866        -2.4454
 280   0.0000      -0.085350        -2.3225

MULLIKEN ATOMIC CHARGES
-----------------------
   0 C :   -0.077182
   1 C :    0.031501
   2 C :   -0.023118
   3 C :   -0.118663
   4 S :    0.183061
   5 C :   -0.093048
   6 C :    0.021602
   7 C :    0.297995
   8 C :   -0.294932
   9 C :   -0.192702
  10 N :    0.193737
  11 C :   -0.192299
  12 N :    0.174257
  13 C :   -0.047197
  14 C :   -0.097458
  15 S :    0.184749
  16 C :   -0.104633
  17 C :   -0.001318
  18 C :    0.077731
  19 N :    0.081194
  20 C :   -0.124614
  21 C :    0.141603
  22 O :   -0.098721
  23 C :   -0.016806
  24 C :   -0.012573
  25 C :    0.141108
  26 O :   -0.099017
  27 C :   -0.115576
  28 N :    0.061571
  29 C :   -0.224231
  30 S :    0.271192
  31 C :    0.089808
  32 O :   -0.173597
  33 C :    0.217168
  34 C :    0.033430
  35 N :   -0.074955
  36 C :   -0.098480
  37 C :    0.022881
  38 C :    0.214708
  39 C :   -0.163558
  40 O :   -0.193029
  41 C :    0.123010
  42 N :   -0.061743
  43 C :   -0.026997
  44 C :    0.032681
  45 C :   -0.141118
  46 C :    0.039329
  47 C :    0.023050
  48 N :    0.064347
  49 C :   -0.123787
  50 C :    0.143364
  51 O :   -0.097307
  52 C :   -0.015259
  53 C :   -0.011751
  54 C :    0.138481
  55 O :   -0.105035
  56 C :   -0.112014
  57 N :    0.061616
  58 C :   -0.116955
  59 S :    0.211682
  60 C :   -0.095168
  61 C :   -0.052255
  62 C :    0.022863
  63 C :   -0.095585
  64 S :    0.178734
  65 C :   -0.117937
  66 C :   -0.029341
  67 C :    0.300745
  68 C :   -0.293420
  69 C :   -0.190401
  70 N :    0.169995
  71 C :   -0.193507
  72 N :    0.193990
  73 C :    0.035793
  74 C :   -0.078831
  75 S :    0.181619
  76 H :    0.037171
  77 H :    0.014351
  78 H :    0.030178
  79 H :    0.017730
  80 H :    0.019717
  81 H :   -0.029908
  82 H :   -0.005404
  83 H :    0.030465
  84 H :    0.003566
  85 H :    0.020729
  86 H :    0.017605
  87 H :    0.029414
  88 H :    0.013115
  89 H :    0.036796
Sum of atomic charges:   -0.0000000

LOEWDIN ATOMIC CHARGES
----------------------
   0 C :   -0.173839
   1 C :   -0.034806
   2 C :   -0.069258
   3 C :   -0.188480
   4 S :    0.477708
   5 C :   -0.171327
   6 C :   -0.069856
   7 C :    0.077752
   8 C :   -0.094768
   9 C :   -0.022959
  10 N :   -0.016187
  11 C :   -0.015379
  12 N :   -0.032720
  13 C :   -0.000166
  14 C :   -0.191776
  15 S :    0.467592
  16 C :   -0.178644
  17 C :   -0.049631
  18 C :   -0.033930
  19 N :    0.007179
  20 C :   -0.036761
  21 C :    0.056788
  22 O :   -0.094940
  23 C :   -0.015411
  24 C :   -0.011100
  25 C :    0.054669
  26 O :   -0.093844
  27 C :   -0.044025
  28 N :    0.008874
  29 C :   -0.213585
  30 S :    0.546582
  31 C :    0.041456
  32 O :    0.013110
  33 C :    0.036855
  34 C :   -0.035727
  35 N :   -0.121253
  36 C :   -0.026159
  37 C :   -0.034944
  38 C :    0.035940
  39 C :   -0.058976
  40 O :   -0.003498
  41 C :    0.061635
  42 N :   -0.111714
  43 C :   -0.030664
  44 C :   -0.008554
  45 C :   -0.179505
  46 C :   -0.039186
  47 C :   -0.045368
  48 N :    0.009687
  49 C :   -0.042118
  50 C :    0.055125
  51 O :   -0.091880
  52 C :   -0.009561
  53 C :   -0.015050
  54 C :    0.056422
  55 O :   -0.100444
  56 C :   -0.038912
  57 N :    0.007895
  58 C :   -0.188052
  59 S :    0.508642
  60 C :   -0.189538
  61 C :   -0.004089
  62 C :   -0.068845
  63 C :   -0.174603
  64 S :    0.462691
  65 C :   -0.187390
  66 C :   -0.071057
  67 C :    0.078497
  68 C :   -0.095416
  69 C :   -0.015182
  70 N :   -0.033396
  71 C :   -0.022843
  72 N :   -0.017220
  73 C :   -0.034440
  74 C :   -0.175212
  75 S :    0.475818
  76 H :    0.028300
  77 H :    0.043203
  78 H :    0.044804
  79 H :    0.045169
  80 H :    0.046123
  81 H :    0.040178
  82 H :    0.047542
  83 H :    0.042885
  84 H :    0.037589
  85 H :    0.046555
  86 H :    0.045487
  87 H :    0.044361
  88 H :    0.043017
  89 H :    0.028061

  Mayer bond orders larger than 0.100000
B(  0-C ,  1-C ) :   1.5431 B(  0-C ,  4-S ) :   1.1545 B(  0-C , 76-H ) :   0.9643
B(  1-C ,  2-C ) :   1.2817 B(  1-C , 77-H ) :   0.9956 B(  2-C ,  3-C ) :   1.4498
B(  2-C ,  7-C ) :   1.0145 B(  3-C ,  4-S ) :   1.1301 B(  3-C ,  5-C ) :   1.1956
B(  5-C ,  6-C ) :   1.4368 B(  5-C , 15-S ) :   1.1353 B(  6-C ,  7-C ) :   0.9876
B(  6-C , 13-C ) :   1.2694 B(  7-C ,  8-C ) :   1.7157 B(  8-C ,  9-C ) :   1.1315
B(  8-C , 11-C ) :   1.1341 B(  9-C , 10-N ) :   3.0025 B( 11-C , 12-N ) :   3.0012
B( 13-C , 14-C ) :   1.4615 B( 13-C , 78-H ) :   0.9874 B( 14-C , 15-S ) :   1.0798
B( 14-C , 16-C ) :   1.1764 B( 16-C , 17-C ) :   1.3625 B( 16-C , 29-C ) :   0.1667
B( 16-C , 30-S ) :   1.1810 B( 17-C , 18-C ) :   1.1868 B( 17-C , 28-N ) :   1.4454
B( 18-C , 19-N ) :   1.4574 B( 18-C , 29-C ) :   1.3594 B( 19-N , 20-C ) :   1.7128
B( 20-C , 21-C ) :   0.8857 B( 20-C , 27-C ) :   1.0990 B( 21-C , 22-O ) :   2.2587
B( 21-C , 23-C ) :   1.0229 B( 23-C , 24-C ) :   1.6864 B( 23-C , 79-H ) :   0.9959
B( 24-C , 25-C ) :   1.0199 B( 24-C , 80-H ) :   0.9955 B( 25-C , 26-O ) :   2.2411
B( 25-C , 27-C ) :   0.8939 B( 27-C , 28-N ) :   1.7117 B( 29-C , 30-S ) :   1.1773
B( 29-C , 31-C ) :   1.1029 B( 31-C , 32-O ) :   1.1962 B( 31-C , 35-N ) :   1.7879
B( 32-O , 33-C ) :   1.1106 B( 33-C , 34-C ) :   1.2375 B( 33-C , 39-C ) :   1.3169
B( 34-C , 35-N ) :   1.2894 B( 34-C , 36-C ) :   1.2803 B( 36-C , 37-C ) :   1.2796
B( 36-C , 39-C ) :   0.1473 B( 36-C , 81-H ) :   1.0514 B( 37-C , 38-C ) :   1.2416
B( 37-C , 42-N ) :   1.3045 B( 38-C , 39-C ) :   1.3093 B( 38-C , 40-O ) :   1.1157
B( 39-C , 82-H ) :   1.0494 B( 40-O , 41-C ) :   1.1307 B( 41-C , 42-N ) :   1.7251
B( 41-C , 43-C ) :   1.1013 B( 43-C , 44-C ) :   1.6721 B( 43-C , 83-H ) :   0.9500
B( 44-C , 45-C ) :   1.1542 B( 44-C , 84-H ) :   0.9529 B( 45-C , 46-C ) :   1.3202
B( 45-C , 58-C ) :   0.1376 B( 45-C , 59-S ) :   1.1472 B( 46-C , 47-C ) :   1.1830
B( 46-C , 57-N ) :   1.4325 B( 47-C , 48-N ) :   1.4485 B( 47-C , 58-C ) :   1.3498
B( 48-N , 49-C ) :   1.7117 B( 49-C , 50-C ) :   0.8919 B( 49-C , 56-C ) :   1.0928
B( 50-C , 51-O ) :   2.2422 B( 50-C , 52-C ) :   1.0207 B( 52-C , 53-C ) :   1.6878
B( 52-C , 85-H ) :   0.9955 B( 53-C , 54-C ) :   1.0294 B( 53-C , 86-H ) :   0.9959
B( 54-C , 55-O ) :   2.2374 B( 54-C , 56-C ) :   0.8912 B( 56-C , 57-N ) :   1.7142
B( 58-C , 59-S ) :   1.1817 B( 58-C , 60-C ) :   1.1784 B( 60-C , 61-C ) :   1.4613
B( 60-C , 64-S ) :   1.0811 B( 61-C , 62-C ) :   1.2699 B( 61-C , 87-H ) :   0.9878
B( 62-C , 63-C ) :   1.4362 B( 62-C , 67-C ) :   0.9869 B( 63-C , 64-S ) :   1.1301
B( 63-C , 65-C ) :   1.1956 B( 65-C , 66-C ) :   1.4533 B( 65-C , 75-S ) :   1.1308
B( 66-C , 67-C ) :   1.0146 B( 66-C , 73-C ) :   1.2808 B( 67-C , 68-C ) :   1.7151
B( 68-C , 69-C ) :   1.1311 B( 68-C , 71-C ) :   1.1334 B( 69-C , 70-N ) :   3.0004
B( 71-C , 72-N ) :   3.0023 B( 73-C , 74-C ) :   1.5456 B( 73-C , 88-H ) :   0.9952
B( 74-C , 75-S ) :   1.1516 B( 74-C , 89-H ) :   0.9637

-----------------------------------------------------------------------------
         ABSORPTION SPECTRUM VIA TRANSITION ELECTRIC DIPOLE MOMENTS
-----------------------------------------------------------------------------
State   Energy  Wavelength   fosc         T2         TX        TY        TZ
        (cm-1)    (nm)                  (au**2)     (au)      (au)      (au)
-----------------------------------------------------------------------------
   0   12688.3    788.1   0.799952827  20.75571   2.28150  -2.49023  -3.05765
   1   13633.9    733.5   0.243447906   5.87845  -0.59703  -0.52674  -2.29010
   2   15053.4    664.3   0.286271087   6.26063   1.12551  -1.35343  -1.77823
   3   16458.3    607.6   0.199072124   3.98199   0.08493   0.62494   1.89321
   4   18070.4    553.4   0.074863801   1.36389  -0.82663   0.23647  -0.79035
   5   19971.3    500.7   0.151928330   2.50443  -1.34639   0.76045  -0.33674
   6   20938.2    477.6   0.007398812   0.11633  -0.29738   0.16246  -0.03874
   7   21645.1    462.0   0.044745677   0.68056   0.03609  -0.30116  -0.76718
   8   24285.5    411.8   0.010429243   0.14138  -0.30842   0.20376   0.06883
   9   24480.4    408.5   0.003906329   0.05253   0.00008  -0.06036   0.22111
  10   24522.9    407.8   0.002267149   0.03044  -0.11742  -0.12587   0.02835
  11   24877.0    402.0   0.003395283   0.04493  -0.05942  -0.20303   0.01337
  12   25510.4    392.0   0.027065979   0.34929  -0.41935   0.34271   0.23660
  13   25655.9    389.8   0.148127161   1.90074  -1.12389   0.76435   0.23103
  14   25776.5    387.9   0.001160201   0.01482  -0.07561   0.07729   0.05593
  15   25902.8    386.1   0.001079209   0.01372   0.09697  -0.05521  -0.03556
  16   26614.4    375.7   0.010614401   0.13130   0.20752  -0.11963  -0.27188
  17   26705.2    374.5   0.023360604   0.28798  -0.11629   0.37755   0.36320
  18   26752.1    373.8   0.776085111   9.55053   1.28469  -1.60357  -2.30839
  19   27040.9    369.8   0.182059092   2.21650  -1.14352   0.87241   0.38439
  20   27548.6    363.0   0.465214404   5.55941   0.84395  -1.18371  -1.85634
  21   27892.8    358.5   0.053147948   0.62729  -0.20858  -0.12969  -0.75297
  22   28388.0    352.3   0.065648170   0.76131   0.43104  -0.48172  -0.58606
  23   29202.0    342.4   0.049469085   0.55770  -0.37608   0.08680  -0.63931
  24   30287.0    330.2   0.127018244   1.38066   0.10844  -0.34664  -1.11747
  25   30489.9    328.0   0.390708365   4.21864  -1.02806  -0.55841  -1.68817
  26   30685.0    325.9   0.153135213   1.64295  -0.73079   0.63228   0.84209
  27   30732.7    325.4   0.106383079   1.13959   0.76552  -0.50930  -0.54239
  28   30846.4    324.2   0.004157639   0.04437   0.10923  -0.09228  -0.15468
  29   30907.0    323.6   0.138310780   1.47324  -1.15207   0.32744   0.19688
  30   31082.8    321.7   0.006366842   0.06743  -0.13174  -0.00451  -0.22374
  31   31998.6    312.5   0.000390212   0.00401   0.02732  -0.05585  -0.01223
  32   32258.1    310.0   0.010378709   0.10592   0.01727   0.14852   0.28907
  33   32992.9    303.1   0.047529332   0.47426   0.38073   0.25091   0.51609
  34   33402.9    299.4   0.110705697   1.09109   0.15719   0.35672   0.96909
  35   33641.3    297.3   0.027199087   0.26617   0.03713  -0.13438  -0.49672
  36   33769.7    296.1   0.005330402   0.05196   0.06225   0.01730   0.21861
  37   33846.1    295.5   0.001627060   0.01583  -0.12353   0.02361  -0.00321
  38   33887.8    295.1   0.597973411   5.80916   2.21865  -0.34879   0.87469
  39   34297.6    291.6   0.079714680   0.76516   0.83382  -0.26025   0.04665
  40   34586.9    289.1   0.146622440   1.39561  -0.27932   0.84108   0.78113
  41   34861.0    286.9   0.094857228   0.89579  -0.68344   0.51424   0.40529
  42   34996.0    285.7   0.032955510   0.31002   0.13581  -0.08557  -0.53315
  43   35117.7    284.8   0.013800171   0.12937  -0.07393  -0.07173  -0.34461
  44   35196.8    284.1   0.023693102   0.22161   0.30426  -0.14636  -0.32806
  45   35388.7    282.6   0.010813036   0.10059  -0.29433   0.02403   0.11569
  46   35444.1    282.1   0.025231546   0.23436  -0.28116   0.11158  -0.37796
  47   35482.2    281.8   0.013746957   0.12755   0.17073   0.01154   0.31347
  48   35808.4    279.3   0.016465290   0.15138  -0.05195  -0.04570  -0.38287
  49   35884.2    278.7   0.034993951   0.32104   0.29746  -0.04355   0.48028
  50   35934.7    278.3   0.114640217   1.05027   0.26908   0.32953   0.93235
  51   36134.4    276.7   0.127423234   1.16092  -0.02562  -0.41069  -0.99579
  52   36355.5    275.1   0.384610552   3.48278   1.67640  -0.64593   0.50520
  53   36834.6    271.5   0.024533609   0.21927  -0.41462   0.19421  -0.09819
  54   37130.5    269.3   0.208870782   1.85192   0.74450   0.07127   1.13691
  55   37199.0    268.8   0.013193408   0.11676  -0.08692  -0.04063  -0.32796
  56   37556.2    266.3   0.094037562   0.82432  -0.52988   0.00140  -0.73725
  57   37571.7    266.2   0.020936140   0.18345  -0.31803   0.21235   0.19290
  58   37750.9    264.9   0.150821321   1.31526  -0.85145   0.18710  -0.74518
  59   37957.7    263.5   0.098161856   0.85137   0.67193  -0.14877   0.61461
  60   38094.8    262.5   0.003082532   0.02664  -0.12400  -0.10550   0.01146
  61   38304.3    261.1   0.076496252   0.65746   0.71346  -0.38527   0.00102
  62   38441.4    260.1   0.011530472   0.09875  -0.08292   0.16959   0.25122
  63   38503.3    259.7   0.000631852   0.00540   0.01094   0.05740   0.04459
  64   38625.3    258.9   0.025884120   0.22062  -0.39034   0.07905  -0.24901
  65   38701.6    258.4   0.147834811   1.25754   0.97278  -0.55155  -0.08395
  66   39042.5    256.1   0.003069710   0.02588  -0.12991  -0.02087  -0.09259
  67   39124.1    255.6   0.041094924   0.34580  -0.45816   0.35239   0.10819
  68   39482.8    253.3   0.005876129   0.04900  -0.19641   0.06156  -0.08142
  69   39608.6    252.5   0.035140261   0.29207   0.49495  -0.11521   0.18392
  70   39940.2    250.4   0.151882457   1.25191   0.68727  -0.09857   0.87741
  71   40274.6    248.3   0.081924655   0.66967   0.69838  -0.41941   0.07766

FINAL SINGLE POINT ENERGY     -5449.503597965482

DIPOLE MOMENT
-------------
                                X             Y             Z
Electronic contribution:     -8.53999       0.17019     -11.31839
Nuclear contribution   :      5.51154       0.10113       9.95936
                        -----------------------------------------
Total Dipole Moment    :     -3.02846       0.27132      -1.35903
                        -----------------------------------------
Magnitude (a.u.)       :      3.33049
Magnitude (Debye)      :      8.46543

Rotational constants in cm-1:     0.001646     0.000162     0.000148
Rotational constants in MHz :    49.336839     4.860217     4.434618

                             ****ORCA TERMINATED NORMALLY****
TOTAL RUN TIME: 0 days 0 hours 9 minutes 10 seconds 709 msec
