                         Program Version 4.2.0 -  RELEASE  -
|  1> # ORCA input file
|  2> # SCF done       -160.482416915636          0.000626938001
|  3> ! CAM-B3LYP def2-SVP def2/J RIJCOSX Grid4 TightSCF
|  4> %maxcore 5000
|  5> %tddft
|  6>     Mode sTDDFT
|  7>     Ethresh 5.0
|  8>     maxcore 5000
|  9> end
| 10>
| 11> %pal
| 12>   nprocs 6
| 13>   end
| 14> * xyz 0 1
| 15>    C        2.64682         9.69147       -12.25540
| 16>    O        2.24205         9.58392       -13.52574
| 17>    C        3.34047         9.63743       -14.30165
| 18>    C        4.45638         9.77731       -13.54508
| 19>    C        4.01781         9.81591       -12.18364
| 20>    C        4.85828         9.96415       -11.03582
| 21>    C        4.42377        10.02350        -9.75162
| 22>    C        5.27916        10.20748        -8.64530
| 23>    C        4.82776        10.32563        -7.35643
| 24>    C        5.64688        10.58176        -6.25670
| 25>    C        5.18066        10.79123        -4.97186
| 26>    C        5.92688        11.16119        -3.83855
| 27>    C        5.16895        11.39303        -2.71866
| 28>    C        3.79598        11.19610        -2.91568
| 29>    S        3.47856        10.69372        -4.55427
| 30>    C        2.75228        11.41585        -2.01075
| 31>    C        2.80922        12.02372        -0.75491
| 32>    C        1.57185        12.20518        -0.17434
| 33>    C        0.50899        11.71912        -0.93621
| 34>    S        1.10289        11.01762        -2.42098
| 35>    C       -0.86054        11.81462        -0.65358
| 36>    C       -1.84153        11.19139        -1.37437
| 37>    C       -3.21690        11.41165        -1.22253
| 38>    C       -4.25348        10.72947        -1.85764
| 39>    C       -5.50623        11.24809        -1.60241
| 40>    C       -5.48641        12.37194        -0.77633
| 41>    S       -3.85830        12.72442        -0.26300
| 42>    C       -6.54934        13.23041        -0.46067
| 43>    C       -7.88753        13.11111        -0.84381
| 44>    C       -8.64874        14.21119        -0.52331
| 45>    C       -7.93094        15.23289         0.11321
| 46>    S       -6.27726        14.74117         0.36780
| 47>    C       -8.40234        16.51224         0.39705
| 48>    C       -7.62915        17.51330         0.97105
| 49>    C       -7.99968        18.87364         1.04492
| 50>    O       -7.18751        19.80731         1.64706
| 51>    C       -5.98171        19.37302         2.09019
| 52>    C       -5.58298        18.01126         1.97037
| 53>    C       -4.34086        17.77523         2.46084
| 54>    S       -3.63862        19.22067         3.08284
| 55>    C       -5.03158        20.14806         2.67393
| 56>    O       -6.40560        17.07576         1.42511
| 57>    C       -9.15099        19.39734         0.45099
| 58>    C       -9.41782        20.74834         0.35641
| 59>    C      -10.52537        21.21576        -0.34931
| 60>    C      -10.79856        22.54238        -0.61814
| 61>    C      -11.89770        23.04948        -1.39543
| 62>    C      -12.93801        22.33192        -1.94300
| 63>    C      -13.12279        20.94027        -1.83919
| 64>    N      -13.35211        19.81381        -1.80465
| 65>    C      -13.98589        22.90071        -2.69169
| 66>    N      -14.87191        23.28838        -3.31300
| 67>    C      -11.72762        24.49993        -1.51253
| 68>    C      -10.57786        24.87795        -0.79808
| 69>    C       -9.95317        23.68154        -0.19888
| 70>    O       -8.94854        23.66048         0.48606
| 71>    C      -10.17052        26.19508        -0.74224
| 72>    C      -10.92161        27.14774        -1.41537
| 73>    C      -12.05991        26.79329        -2.13212
| 74>    C      -12.46707        25.45886        -2.17936
| 75>    C      -12.84469        27.82602        -2.87875
| 76>    H        1.88961         9.66772       -11.49758
| 77>    H        3.19550         9.56629       -15.36132
| 78>    H        5.46759         9.84763       -13.88932
| 79>    H        5.91861        10.04418       -11.23716
| 80>    H        3.36453         9.94541        -9.54771
| 81>    H        6.34184        10.28486        -8.83710
| 82>    H        3.76281        10.24838        -7.17247
| 83>    H        6.71466        10.66544        -6.41247
| 84>    H        6.99676        11.26594        -3.87745
| 85>    H        5.57295        11.69542        -1.76925
| 86>    H        3.73446        12.34353        -0.31064
| 87>    H        1.41767        12.67731         0.77988
| 88>    H       -1.14118        12.44136         0.18355
| 89>    H       -1.55229        10.48678        -2.14476
| 90>    H       -4.07068         9.88166        -2.49409
| 91>    H       -6.41545        10.85509        -2.01971
| 92>    H       -8.27007        12.24519        -1.35336
| 93>    H       -9.69413        14.31247        -0.75434
| 94>    H       -9.41592        16.73095         0.10836
| 95>    H       -3.81102        16.84655         2.49007
| 96>    H       -5.07429        21.19637         2.88179
| 97>    H       -9.84198        18.70767        -0.00774
| 98>    H       -8.73195        21.45920         0.79034
| 99>    H      -11.19870        20.46746        -0.74780
|100>    H       -9.28511        26.46501        -0.18708
|101>    H      -10.61836        28.18443        -1.38634
|102>    H      -13.35087        25.19953        -2.73983
|103>    H      -12.64054        28.82436        -2.50010
|104>    H      -13.91138        27.62670        -2.80458
|105>    H      -12.57555        27.80015        -3.93526
|106> *
|107>
|108>                          ****END OF INPUT****

CARTESIAN COORDINATES (ANGSTROEM)
---------------------------------
  C      2.646820    9.691470  -12.255400
  O      2.242050    9.583920  -13.525740
  C      3.340470    9.637430  -14.301650
  C      4.456380    9.777310  -13.545080
  C      4.017810    9.815910  -12.183640
  C      4.858280    9.964150  -11.035820
  C      4.423770   10.023500   -9.751620
  C      5.279160   10.207480   -8.645300
  C      4.827760   10.325630   -7.356430
  C      5.646880   10.581760   -6.256700
  C      5.180660   10.791230   -4.971860
  C      5.926880   11.161190   -3.838550
  C      5.168950   11.393030   -2.718660
  C      3.795980   11.196100   -2.915680
  S      3.478560   10.693720   -4.554270
  C      2.752280   11.415850   -2.010750
  C      2.809220   12.023720   -0.754910
  C      1.571850   12.205180   -0.174340
  C      0.508990   11.719120   -0.936210
  S      1.102890   11.017620   -2.420980
  C     -0.860540   11.814620   -0.653580
  C     -1.841530   11.191390   -1.374370
  C     -3.216900   11.411650   -1.222530
  C     -4.253480   10.729470   -1.857640
  C     -5.506230   11.248090   -1.602410
  C     -5.486410   12.371940   -0.776330
  S     -3.858300   12.724420   -0.263000
  C     -6.549340   13.230410   -0.460670
  C     -7.887530   13.111110   -0.843810
  C     -8.648740   14.211190   -0.523310
  C     -7.930940   15.232890    0.113210
  S     -6.277260   14.741170    0.367800
  C     -8.402340   16.512240    0.397050
  C     -7.629150   17.513300    0.971050
  C     -7.999680   18.873640    1.044920
  O     -7.187510   19.807310    1.647060
  C     -5.981710   19.373020    2.090190
  C     -5.582980   18.011260    1.970370
  C     -4.340860   17.775230    2.460840
  S     -3.638620   19.220670    3.082840
  C     -5.031580   20.148060    2.673930
  O     -6.405600   17.075760    1.425110
  C     -9.150990   19.397340    0.450990
  C     -9.417820   20.748340    0.356410
  C    -10.525370   21.215760   -0.349310
  C    -10.798560   22.542380   -0.618140
  C    -11.897700   23.049480   -1.395430
  C    -12.938010   22.331920   -1.943000
  C    -13.122790   20.940270   -1.839190
  N    -13.352110   19.813810   -1.804650
  C    -13.985890   22.900710   -2.691690
  N    -14.871910   23.288380   -3.313000
  C    -11.727620   24.499930   -1.512530
  C    -10.577860   24.877950   -0.798080
  C     -9.953170   23.681540   -0.198880
  O     -8.948540   23.660480    0.486060
  C    -10.170520   26.195080   -0.742240
  C    -10.921610   27.147740   -1.415370
  C    -12.059910   26.793290   -2.132120
  C    -12.467070   25.458860   -2.179360
  C    -12.844690   27.826020   -2.878750
  H      1.889610    9.667720  -11.497580
  H      3.195500    9.566290  -15.361320
  H      5.467590    9.847630  -13.889320
  H      5.918610   10.044180  -11.237160
  H      3.364530    9.945410   -9.547710
  H      6.341840   10.284860   -8.837100
  H      3.762810   10.248380   -7.172470
  H      6.714660   10.665440   -6.412470
  H      6.996760   11.265940   -3.877450
  H      5.572950   11.695420   -1.769250
  H      3.734460   12.343530   -0.310640
  H      1.417670   12.677310    0.779880
  H     -1.141180   12.441360    0.183550
  H     -1.552290   10.486780   -2.144760
  H     -4.070680    9.881660   -2.494090
  H     -6.415450   10.855090   -2.019710
  H     -8.270070   12.245190   -1.353360
  H     -9.694130   14.312470   -0.754340
  H     -9.415920   16.730950    0.108360
  H     -3.811020   16.846550    2.490070
  H     -5.074290   21.196370    2.881790
  H     -9.841980   18.707670   -0.007740
  H     -8.731950   21.459200    0.790340
  H    -11.198700   20.467460   -0.747800
  H     -9.285110   26.465010   -0.187080
  H    -10.618360   28.184430   -1.386340
  H    -13.350870   25.199530   -2.739830
  H    -12.640540   28.824360   -2.500100
  H    -13.911380   27.626700   -2.804580
  H    -12.575550   27.800150   -3.935260

 Total Charge           Charge          ....    0
 Multiplicity           Mult            ....    1
 Number of Electrons    NEL             ....  456
 Basis Dimension        Dim             .... 1024

ORBITAL ENERGIES
----------------

  NO   OCC          E(Eh)            E(eV)
   0   2.0000     -88.961773     -2420.7729
   1   2.0000     -88.959961     -2420.7236
   2   2.0000     -88.953434     -2420.5460
   3   2.0000     -88.952611     -2420.5236
   4   2.0000     -88.945482     -2420.3296
   5   2.0000     -19.298883      -525.1493
   6   2.0000     -19.282286      -524.6977
   7   2.0000     -19.264010      -524.2004
   8   2.0000     -19.181761      -521.9623
   9   2.0000     -14.386519      -391.4771
  10   2.0000     -14.383414      -391.3926
  11   2.0000     -10.355339      -281.7831
  12   2.0000     -10.337511      -281.2980
  13   2.0000     -10.334328      -281.2113
  14   2.0000     -10.334213      -281.2082
  15   2.0000     -10.332006      -281.1482
  16   2.0000     -10.330776      -281.1147
  17   2.0000     -10.329565      -281.0818
  18   2.0000     -10.326396      -280.9955
  19   2.0000     -10.319932      -280.8196
  20   2.0000     -10.319492      -280.8077
  21   2.0000     -10.318844      -280.7900
  22   2.0000     -10.317798      -280.7616
  23   2.0000     -10.310922      -280.5745
  24   2.0000     -10.307436      -280.4796
  25   2.0000     -10.307088      -280.4701
  26   2.0000     -10.305559      -280.4285
  27   2.0000     -10.300674      -280.2956
  28   2.0000     -10.300458      -280.2897
  29   2.0000     -10.300260      -280.2843
  30   2.0000     -10.298521      -280.2370
  31   2.0000     -10.297975      -280.2221
  32   2.0000     -10.294627      -280.1310
  33   2.0000     -10.294575      -280.1296
  34   2.0000     -10.293716      -280.1063
  35   2.0000     -10.291270      -280.0397
  36   2.0000     -10.290717      -280.0247
  37   2.0000     -10.290084      -280.0074
  38   2.0000     -10.288521      -279.9649
  39   2.0000     -10.288440      -279.9627
  40   2.0000     -10.288228      -279.9569
  41   2.0000     -10.286415      -279.9076
  42   2.0000     -10.286222      -279.9023
  43   2.0000     -10.284728      -279.8617
  44   2.0000     -10.284484      -279.8550
  45   2.0000     -10.284361      -279.8517
  46   2.0000     -10.283403      -279.8256
  47   2.0000     -10.280092      -279.7355
  48   2.0000     -10.276613      -279.6409
  49   2.0000     -10.276587      -279.6401
  50   2.0000     -10.275644      -279.6145
  51   2.0000     -10.274988      -279.5966
  52   2.0000     -10.274650      -279.5874
  53   2.0000     -10.273335      -279.5517
  54   2.0000     -10.266304      -279.3603
  55   2.0000     -10.263753      -279.2909
  56   2.0000     -10.262176      -279.2480
  57   2.0000     -10.257849      -279.1303
  58   2.0000     -10.256214      -279.0858
  59   2.0000     -10.254268      -279.0328
  60   2.0000     -10.249888      -278.9136
  61   2.0000      -8.058083      -219.2716
  62   2.0000      -8.056174      -219.2196
  63   2.0000      -8.049644      -219.0420
  64   2.0000      -8.048374      -219.0074
  65   2.0000      -8.040936      -218.8050
  66   2.0000      -6.027627      -164.0201
  67   2.0000      -6.025674      -163.9669
  68   2.0000      -6.023676      -163.9126
  69   2.0000      -6.021687      -163.8584
  70   2.0000      -6.019284      -163.7930
  71   2.0000      -6.019136      -163.7890
  72   2.0000      -6.017890      -163.7551
  73   2.0000      -6.017568      -163.7463
  74   2.0000      -6.015121      -163.6798
  75   2.0000      -6.013680      -163.6406
  76   2.0000      -6.011080      -163.5698
  77   2.0000      -6.010608      -163.5570
  78   2.0000      -6.010095      -163.5430
  79   2.0000      -6.006268      -163.4389
  80   2.0000      -6.002287      -163.3305
  81   2.0000      -1.217167       -33.1208
  82   2.0000      -1.202740       -32.7282
  83   2.0000      -1.163172       -31.6515
  84   2.0000      -1.094834       -29.7919
  85   2.0000      -1.009674       -27.4746
  86   2.0000      -0.997861       -27.1532
  87   2.0000      -0.987562       -26.8729
  88   2.0000      -0.987011       -26.8579
  89   2.0000      -0.982936       -26.7470
  90   2.0000      -0.973789       -26.4981
  91   2.0000      -0.966304       -26.2945
  92   2.0000      -0.963277       -26.2121
  93   2.0000      -0.936039       -25.4709
  94   2.0000      -0.923415       -25.1274
  95   2.0000      -0.919426       -25.0188
  96   2.0000      -0.916166       -24.9302
  97   2.0000      -0.908500       -24.7215
  98   2.0000      -0.890727       -24.2379
  99   2.0000      -0.884107       -24.0578
 100   2.0000      -0.871871       -23.7248
 101   2.0000      -0.867657       -23.6101
 102   2.0000      -0.860327       -23.4107
 103   2.0000      -0.852317       -23.1927
 104   2.0000      -0.849784       -23.1238
 105   2.0000      -0.843923       -22.9643
 106   2.0000      -0.836064       -22.7505
 107   2.0000      -0.834207       -22.6999
 108   2.0000      -0.831583       -22.6285
 109   2.0000      -0.823543       -22.4097
 110   2.0000      -0.819994       -22.3132
 111   2.0000      -0.815767       -22.1981
 112   2.0000      -0.808414       -21.9981
 113   2.0000      -0.796586       -21.6762
 114   2.0000      -0.782422       -21.2908
 115   2.0000      -0.769999       -20.9527
 116   2.0000      -0.757361       -20.6088
 117   2.0000      -0.744703       -20.2644
 118   2.0000      -0.731066       -19.8933
 119   2.0000      -0.719540       -19.5797
 120   2.0000      -0.711206       -19.3529
 121   2.0000      -0.701068       -19.0770
 122   2.0000      -0.694100       -18.8874
 123   2.0000      -0.687296       -18.7023
 124   2.0000      -0.686084       -18.6693
 125   2.0000      -0.682491       -18.5715
 126   2.0000      -0.675159       -18.3720
 127   2.0000      -0.668168       -18.1818
 128   2.0000      -0.665082       -18.0978
 129   2.0000      -0.655312       -17.8319
 130   2.0000      -0.653335       -17.7782
 131   2.0000      -0.647396       -17.6165
 132   2.0000      -0.641231       -17.4488
 133   2.0000      -0.639174       -17.3928
 134   2.0000      -0.630661       -17.1612
 135   2.0000      -0.629014       -17.1164
 136   2.0000      -0.624760       -17.0006
 137   2.0000      -0.621673       -16.9166
 138   2.0000      -0.614966       -16.7341
 139   2.0000      -0.611263       -16.6333
 140   2.0000      -0.607031       -16.5181
 141   2.0000      -0.602049       -16.3826
 142   2.0000      -0.600427       -16.3385
 143   2.0000      -0.582675       -15.8554
 144   2.0000      -0.576932       -15.6991
 145   2.0000      -0.569427       -15.4949
 146   2.0000      -0.568118       -15.4593
 147   2.0000      -0.565646       -15.3920
 148   2.0000      -0.557823       -15.1791
 149   2.0000      -0.555363       -15.1122
 150   2.0000      -0.552277       -15.0282
 151   2.0000      -0.548771       -14.9328
 152   2.0000      -0.542888       -14.7727
 153   2.0000      -0.534553       -14.5459
 154   2.0000      -0.532119       -14.4797
 155   2.0000      -0.527238       -14.3469
 156   2.0000      -0.525370       -14.2960
 157   2.0000      -0.520565       -14.1653
 158   2.0000      -0.514528       -14.0010
 159   2.0000      -0.513102       -13.9622
 160   2.0000      -0.509755       -13.8711
 161   2.0000      -0.507590       -13.8122
 162   2.0000      -0.507059       -13.7978
 163   2.0000      -0.505755       -13.7623
 164   2.0000      -0.504829       -13.7371
 165   2.0000      -0.501661       -13.6509
 166   2.0000      -0.498226       -13.5574
 167   2.0000      -0.497332       -13.5331
 168   2.0000      -0.495264       -13.4768
 169   2.0000      -0.492222       -13.3941
 170   2.0000      -0.488230       -13.2854
 171   2.0000      -0.487580       -13.2677
 172   2.0000      -0.486787       -13.2461
 173   2.0000      -0.485516       -13.2116
 174   2.0000      -0.482749       -13.1363
 175   2.0000      -0.479505       -13.0480
 176   2.0000      -0.475084       -12.9277
 177   2.0000      -0.474057       -12.8997
 178   2.0000      -0.471576       -12.8322
 179   2.0000      -0.469666       -12.7803
 180   2.0000      -0.466999       -12.7077
 181   2.0000      -0.463571       -12.6144
 182   2.0000      -0.461088       -12.5469
 183   2.0000      -0.459605       -12.5065
 184   2.0000      -0.457350       -12.4451
 185   2.0000      -0.454623       -12.3709
 186   2.0000      -0.449343       -12.2273
 187   2.0000      -0.448837       -12.2135
 188   2.0000      -0.444341       -12.0911
 189   2.0000      -0.443799       -12.0764
 190   2.0000      -0.440914       -11.9979
 191   2.0000      -0.436468       -11.8769
 192   2.0000      -0.432423       -11.7668
 193   2.0000      -0.430382       -11.7113
 194   2.0000      -0.425025       -11.5655
 195   2.0000      -0.424633       -11.5549
 196   2.0000      -0.421808       -11.4780
 197   2.0000      -0.421515       -11.4700
 198   2.0000      -0.418558       -11.3895
 199   2.0000      -0.417409       -11.3583
 200   2.0000      -0.415341       -11.3020
 201   2.0000      -0.413594       -11.2545
 202   2.0000      -0.409019       -11.1300
 203   2.0000      -0.401491       -10.9251
 204   2.0000      -0.399808       -10.8793
 205   2.0000      -0.397426       -10.8145
 206   2.0000      -0.392041       -10.6680
 207   2.0000      -0.387213       -10.5366
 208   2.0000      -0.382599       -10.4110
 209   2.0000      -0.377007       -10.2589
 210   2.0000      -0.372441       -10.1346
 211   2.0000      -0.359378        -9.7792
 212   2.0000      -0.348482        -9.4827
 213   2.0000      -0.342296        -9.3143
 214   2.0000      -0.335940        -9.1414
 215   2.0000      -0.333552        -9.0764
 216   2.0000      -0.326604        -8.8874
 217   2.0000      -0.320867        -8.7312
 218   2.0000      -0.312745        -8.5102
 219   2.0000      -0.306754        -8.3472
 220   2.0000      -0.301493        -8.2041
 221   2.0000      -0.300814        -8.1856
 222   2.0000      -0.290610        -7.9079
 223   2.0000      -0.283371        -7.7109
 224   2.0000      -0.275204        -7.4887
 225   2.0000      -0.257357        -7.0030
 226   2.0000      -0.227580        -6.1928
 227   2.0000      -0.182344        -4.9618
 228   0.0000      -0.122020        -3.3203
 229   0.0000      -0.073658        -2.0043
 230   0.0000      -0.049675        -1.3517
 231   0.0000      -0.032109        -0.8737
 232   0.0000      -0.018363        -0.4997

MULLIKEN ATOMIC CHARGES
-----------------------
   0 C :    0.076568
   1 O :   -0.173513
   2 C :    0.133472
   3 C :   -0.040047
   4 C :    0.037044
   5 C :    0.033525
   6 C :    0.015738
   7 C :    0.030402
   8 C :   -0.005499
   9 C :    0.015230
  10 C :   -0.035120
  11 C :    0.039981
  12 C :    0.017057
  13 C :   -0.030867
  14 S :    0.090661
  15 C :   -0.055333
  16 C :    0.023898
  17 C :    0.022784
  18 C :   -0.025653
  19 S :    0.095901
  20 C :   -0.014047
  21 C :    0.006757
  22 C :   -0.043569
  23 C :    0.032533
  24 C :    0.006658
  25 C :   -0.032979
  26 S :    0.098521
  27 C :   -0.052764
  28 C :    0.031121
  29 C :    0.008048
  30 C :   -0.002451
  31 S :    0.122536
  32 C :   -0.093819
  33 C :    0.212627
  34 C :    0.169161
  35 O :   -0.237670
  36 C :    0.221482
  37 C :    0.223291
  38 C :   -0.173991
  39 S :    0.107948
  40 C :   -0.170017
  41 O :   -0.272909
  42 C :   -0.046291
  43 C :    0.006461
  44 C :   -0.037011
  45 C :   -0.088173
  46 C :    0.330426
  47 C :   -0.374726
  48 C :   -0.188160
  49 N :    0.121801
  50 C :   -0.185429
  51 N :    0.127938
  52 C :    0.043447
  53 C :   -0.017296
  54 C :    0.137861
  55 O :   -0.165586
  56 C :   -0.028078
  57 C :   -0.000296
  58 C :   -0.037810
  59 C :   -0.077101
  60 C :    0.089252
  61 H :    0.010769
  62 H :    0.015801
  63 H :   -0.011026
  64 H :   -0.015387
  65 H :   -0.014064
  66 H :   -0.008846
  67 H :    0.000691
  68 H :   -0.008774
  69 H :   -0.006486
  70 H :   -0.010093
  71 H :   -0.010859
  72 H :   -0.011055
  73 H :   -0.002116
  74 H :   -0.000239
  75 H :   -0.011834
  76 H :   -0.013700
  77 H :   -0.014769
  78 H :   -0.009242
  79 H :   -0.003556
  80 H :    0.023666
  81 H :    0.032712
  82 H :    0.002944
  83 H :    0.026046
  84 H :   -0.005755
  85 H :   -0.015839
  86 H :   -0.025841
  87 H :   -0.017184
  88 H :    0.011126
  89 H :    0.031324
  90 H :    0.037662
Sum of atomic charges:   -0.0000000

LOEWDIN ATOMIC CHARGES
----------------------
   0 C :    0.042962
   1 O :    0.031415
   2 C :    0.033469
   3 C :   -0.066977
   4 C :   -0.083500
   5 C :    0.002779
   6 C :   -0.032559
   7 C :    0.003466
   8 C :   -0.045949
   9 C :   -0.027297
  10 C :   -0.158031
  11 C :   -0.023068
  12 C :   -0.041890
  13 C :   -0.160356
  14 S :    0.392017
  15 C :   -0.191498
  16 C :   -0.026533
  17 C :   -0.048042
  18 C :   -0.135502
  19 S :    0.397456
  20 C :   -0.072909
  21 C :   -0.036153
  22 C :   -0.167140
  23 C :   -0.029065
  24 C :   -0.050801
  25 C :   -0.157398
  26 S :    0.399129
  27 C :   -0.205092
  28 C :   -0.024557
  29 C :   -0.053963
  30 C :   -0.126307
  31 S :    0.416982
  32 C :   -0.094475
  33 C :    0.059703
  34 C :    0.000105
  35 O :   -0.041220
  36 C :   -0.006062
  37 C :   -0.011107
  38 C :   -0.209553
  39 S :    0.436881
  40 C :   -0.209105
  41 O :   -0.049322
  42 C :    0.004522
  43 C :   -0.042922
  44 C :    0.052026
  45 C :   -0.117023
  46 C :    0.074800
  47 C :   -0.162789
  48 C :   -0.017927
  49 N :   -0.078115
  50 C :   -0.018696
  51 N :   -0.077754
  52 C :   -0.009255
  53 C :   -0.049508
  54 C :    0.080232
  55 O :   -0.159218
  56 C :    0.009081
  57 C :   -0.018933
  58 C :   -0.006550
  59 C :   -0.010521
  60 C :   -0.044707
  61 H :    0.021603
  62 H :    0.024254
  63 H :    0.030543
  64 H :    0.030928
  65 H :    0.027514
  66 H :    0.029995
  67 H :    0.023165
  68 H :    0.035850
  69 H :    0.035664
  70 H :    0.033344
  71 H :    0.032823
  72 H :    0.034405
  73 H :    0.030116
  74 H :    0.030105
  75 H :    0.033780
  76 H :    0.031479
  77 H :    0.031031
  78 H :    0.033583
  79 H :    0.040456
  80 H :    0.028926
  81 H :    0.032525
  82 H :    0.036531
  83 H :    0.032869
  84 H :    0.036492
  85 H :    0.035136
  86 H :    0.026670
  87 H :    0.034625
  88 H :    0.029077
  89 H :    0.037445
  90 H :    0.041391

  Mayer bond orders larger than 0.100000
B(  0-C ,  1-O ) :   1.1836 B(  0-C ,  4-C ) :   1.4886 B(  0-C , 61-H ) :   1.0027
B(  1-O ,  2-C ) :   1.1416 B(  2-C ,  3-C ) :   1.5802 B(  2-C , 62-H ) :   1.0014
B(  3-C ,  4-C ) :   1.2030 B(  3-C , 63-H ) :   1.0101 B(  4-C ,  5-C ) :   1.0882
B(  5-C ,  6-C ) :   1.6444 B(  5-C , 64-H ) :   0.9809 B(  6-C ,  7-C ) :   1.1684
B(  6-C , 65-H ) :   0.9798 B(  7-C ,  8-C ) :   1.5600 B(  7-C , 66-H ) :   0.9918
B(  8-C ,  9-C ) :   1.1945 B(  8-C , 67-H ) :   0.9758 B(  9-C , 10-C ) :   1.4954
B(  9-C , 68-H ) :   0.9819 B( 10-C , 11-C ) :   1.1954 B( 10-C , 14-S ) :   1.0358
B( 11-C , 12-C ) :   1.5139 B( 11-C , 69-H ) :   1.0003 B( 12-C , 13-C ) :   1.2609
B( 12-C , 70-H ) :   0.9960 B( 13-C , 14-S ) :   1.0854 B( 13-C , 15-C ) :   1.3667
B( 15-C , 16-C ) :   1.2932 B( 15-C , 19-S ) :   1.0643 B( 16-C , 17-C ) :   1.4585
B( 16-C , 71-H ) :   0.9955 B( 17-C , 18-C ) :   1.2690 B( 17-C , 72-H ) :   1.0007
B( 18-C , 19-S ) :   1.0808 B( 18-C , 20-C ) :   1.3724 B( 20-C , 21-C ) :   1.3597
B( 20-C , 73-H ) :   0.9733 B( 21-C , 22-C ) :   1.3816 B( 21-C , 74-H ) :   0.9709
B( 22-C , 23-C ) :   1.2752 B( 22-C , 26-S ) :   1.0579 B( 23-C , 24-C ) :   1.4446
B( 23-C , 75-H ) :   1.0013 B( 24-C , 25-C ) :   1.3078 B( 24-C , 76-H ) :   0.9962
B( 25-C , 26-S ) :   1.0944 B( 25-C , 27-C ) :   1.3351 B( 27-C , 28-C ) :   1.2990
B( 27-C , 31-S ) :   1.0436 B( 28-C , 29-C ) :   1.4695 B( 28-C , 77-H ) :   0.9957
B( 29-C , 30-C ) :   1.2427 B( 29-C , 78-H ) :   1.0013 B( 30-C , 31-S ) :   1.0897
B( 30-C , 32-C ) :   1.4044 B( 32-C , 33-C ) :   1.3441 B( 32-C , 79-H ) :   0.9576
B( 33-C , 34-C ) :   1.2459 B( 33-C , 41-O ) :   1.0565 B( 34-C , 35-O ) :   1.0609
B( 34-C , 42-C ) :   1.2989 B( 35-O , 36-C ) :   1.0698 B( 36-C , 37-C ) :   1.2113
B( 36-C , 40-C ) :   1.5685 B( 37-C , 38-C ) :   1.5651 B( 37-C , 41-O ) :   1.0181
B( 38-C , 39-S ) :   1.1469 B( 38-C , 80-H ) :   0.9736 B( 39-S , 40-C ) :   1.1398
B( 40-C , 81-H ) :   0.9706 B( 42-C , 43-C ) :   1.4028 B( 42-C , 82-H ) :   0.9669
B( 43-C , 44-C ) :   1.2572 B( 43-C , 83-H ) :   0.9920 B( 44-C , 45-C ) :   1.4114
B( 44-C , 84-H ) :   0.9627 B( 45-C , 46-C ) :   1.1281 B( 45-C , 54-C ) :   0.9638
B( 46-C , 47-C ) :   1.5692 B( 46-C , 52-C ) :   0.9666 B( 47-C , 48-C ) :   1.1572
B( 47-C , 50-C ) :   1.1540 B( 48-C , 49-N ) :   2.9559 B( 50-C , 51-N ) :   2.9562
B( 52-C , 53-C ) :   1.3308 B( 52-C , 59-C ) :   1.3792 B( 53-C , 54-C ) :   0.9421
B( 53-C , 56-C ) :   1.3942 B( 54-C , 55-O ) :   2.1908 B( 56-C , 57-C ) :   1.3301
B( 56-C , 85-H ) :   1.0055 B( 57-C , 58-C ) :   1.4005 B( 57-C , 86-H ) :   0.9911
B( 58-C , 59-C ) :   1.3439 B( 58-C , 60-C ) :   1.0524 B( 59-C , 87-H ) :   0.9851
B( 60-C , 88-H ) :   0.9598 B( 60-C , 89-H ) :   0.9573 B( 60-C , 90-H ) :   0.9523

-----------------------------------------------------------------------------
         ABSORPTION SPECTRUM VIA TRANSITION ELECTRIC DIPOLE MOMENTS
-----------------------------------------------------------------------------
State   Energy  Wavelength   fosc         T2         TX        TY        TZ
        (cm-1)    (nm)                  (au**2)     (au)      (au)      (au)
-----------------------------------------------------------------------------
   0    1806.5   5535.7   0.162361202  29.58907  -4.23454   2.87603   1.84015
   1   10265.5    974.1   0.035930103   1.15227   0.87173  -0.55399  -0.29232
   2   13615.7    734.4   0.902113115  21.81213  -0.21438   3.40281  -3.19172
   3   16317.5    612.8   0.015339812   0.30949   0.47242  -0.04765   0.28989
   4   19145.9    522.3   0.155329004   2.67087   0.58290  -0.35460  -1.48504
   5   20756.1    481.8   0.209834259   3.32818   0.19501   1.19163   1.36755
   6   21899.2    456.6   0.120684820   1.81426   0.65808   0.78752   0.87236
   7   22118.0    452.1   0.053156026   0.79119   0.65679  -0.59620   0.06602
   8   22970.5    435.3   0.065974536   0.94554  -0.50340   0.81930  -0.14448
   9   25327.3    394.8   0.347258452   4.51376   1.03221   0.46051   1.79895
  10   26596.2    376.0   0.006819536   0.08441  -0.15405   0.24540  -0.02147
  11   26634.5    375.5   0.000553672   0.00684  -0.06781  -0.00668  -0.04691
  12   26893.2    371.8   0.134906719   1.65146  -0.92778   0.52136  -0.72033
  13   27243.8    367.1   0.709556380   8.57421  -1.81705  -1.30607  -1.88857
  14   28388.9    352.3   0.046689385   0.54143   0.32726   0.64872   0.11618
  15   28583.6    349.9   0.022860786   0.26330   0.40755  -0.09529   0.29685
  16   28941.2    345.5   0.128899796   1.46626   0.75055  -0.14103   0.93971
  17   29595.3    337.9   0.003693591   0.04109  -0.19888   0.03076  -0.02422
  18   30542.8    327.4   0.011750571   0.12666   0.22901   0.26182  -0.07524
  19   30685.8    325.9   0.046668932   0.50069   0.25520   0.16232   0.63970
  20   31018.0    322.4   0.000105369   0.00112   0.00259   0.03163   0.01054
  21   31303.1    319.5   0.077219418   0.81211  -0.35150  -0.44972  -0.69736
  22   31380.3    318.7   0.014829626   0.15558   0.11027  -0.18824   0.32861
  23   31587.2    316.6   0.016948039   0.17664   0.17205   0.31452   0.21935
  24   31692.7    315.5   0.030453512   0.31634  -0.41508   0.29865  -0.23423
  25   31915.9    313.3   0.050567034   0.52160  -0.18603   0.02520  -0.69739
  26   32301.2    309.6   0.014833861   0.15119   0.36895   0.07605   0.09634
  27   33206.2    301.1   0.029381330   0.29129  -0.51343  -0.14954   0.07294
  28   33278.2    300.5   0.042340311   0.41886   0.40233   0.15360  -0.48312
  29   33556.0    298.0   0.019352895   0.18987   0.22870  -0.16162   0.33383
  30   33888.2    295.1   0.006810430   0.06616  -0.00932   0.25642   0.01801
  31   34510.4    289.8   0.010195375   0.09726   0.03114   0.04987  -0.30627
  32   34854.6    286.9   0.107851199   1.01869   0.06002   1.00668  -0.04101
  33   35152.3    284.5   0.000493747   0.00462  -0.04911   0.04426  -0.01591
  34   35604.4    280.9   0.015082981   0.13946  -0.29487  -0.09610  -0.20804
  35   35652.5    280.5   0.057964508   0.53524   0.02893   0.73090  -0.01359
  36   36521.0    273.8   0.055802262   0.50302  -0.18848  -0.68179   0.05152
  37   36779.7    271.9   0.201363338   1.80239  -0.65736  -1.11935  -0.34250
  38   36919.1    270.9   0.038017858   0.33901  -0.53729  -0.15564  -0.16158
  39   37936.8    263.6   0.077278127   0.67061   0.19405   0.79532  -0.02054
  40   38466.2    260.0   0.037658413   0.32230  -0.48128  -0.02342  -0.30020
  41   38831.6    257.5   0.028577362   0.24228   0.10861  -0.44975   0.16796
  42   39137.1    255.5   0.238698061   2.00787  -0.97633  -0.93100  -0.43347
  43   39499.1    253.2   0.020515559   0.17099  -0.25921  -0.24908  -0.20435
  44   40033.0    249.8   0.053265429   0.43803   0.45088   0.23572   0.42329
  45   40224.4    248.6   0.098479635   0.80600   0.70714  -0.25016   0.49333

FINAL SINGLE POINT ENERGY     -4320.959366963332

DIPOLE MOMENT
-------------
                                X             Y             Z
Electronic contribution:    -17.29796      -1.37834      32.84396
Nuclear contribution   :     25.10062      -3.03360     -34.62067
                        -----------------------------------------
Total Dipole Moment    :      7.80266      -4.41194      -1.77671
                        -----------------------------------------
Magnitude (a.u.)       :      9.13802
Magnitude (Debye)      :     23.22700

Rotational constants in cm-1:     0.001194     0.000252     0.000232
Rotational constants in MHz :    35.802921     7.539877     6.945609

                             ****ORCA TERMINATED NORMALLY****
TOTAL RUN TIME: 0 days 0 hours 8 minutes 51 seconds 128 msec
