                         Program Version 4.2.0 -  RELEASE  -
|  1> # ORCA input file
|  2> # SCF done       -135.110921848518          0.000426157883
|  3> ! CAM-B3LYP def2-SVP def2/J RIJCOSX Grid4 TightSCF
|  4> %maxcore 5000
|  5> %tddft
|  6>     Mode sTDDFT
|  7>     Ethresh 5.0
|  8>     maxcore 5000
|  9> end
| 10>
| 11> %pal
| 12>   nprocs 6
| 13>   end
| 14> * xyz 0 1
| 15>    C        1.30866         3.17480       -10.92147
| 16>    O        0.10924         2.71964       -11.29823
| 17>    C       -0.78648         3.17856       -10.40303
| 18>    C       -0.17998         3.92701        -9.44971
| 19>    C        1.21316         3.93625        -9.77752
| 20>    C        2.29492         4.57896        -9.09618
| 21>    C        2.16520         5.32830        -7.97535
| 22>    C        3.25110         5.95335        -7.31989
| 23>    C        3.10502         6.70387        -6.18774
| 24>    C        4.16030         7.33332        -5.51504
| 25>    C        4.00068         8.08117        -4.37087
| 26>    C        5.00311         8.74758        -3.62883
| 27>    C        4.53790         9.40953        -2.53021
| 28>    C        3.14284         9.29917        -2.35121
| 29>    S        2.43426         8.33110        -3.61619
| 30>    C        2.35365         9.84503        -1.34964
| 31>    C        2.73776        10.63960        -0.25285
| 32>    C        1.69310        11.01271         0.54251
| 33>    C        0.43248        10.53348         0.11168
| 34>    S        0.62586         9.58301        -1.34317
| 35>    C       -0.76397        10.78836         0.74791
| 36>    C       -2.04708        10.36762         0.38388
| 37>    S       -3.42325        10.83898         1.37673
| 38>    C       -4.60730        10.02164         0.38414
| 39>    C       -3.95091         9.40466        -0.68525
| 40>    C       -2.54318         9.60524        -0.67042
| 41>    O       -1.96943         9.01174        -1.73505
| 42>    C       -2.98487         8.44602        -2.43345
| 43>    N       -2.66338         7.75636        -3.62109
| 44>    O       -3.59611         7.27945        -4.24389
| 45>    O       -1.49543         7.68278        -3.94427
| 46>    C       -4.21322         8.64652        -1.85314
| 47>    C       -5.98747        10.04629         0.66776
| 48>    S       -6.66910        11.11771         1.85543
| 49>    C       -8.28763        10.55950         1.50954
| 50>    C       -9.45252        11.21290         2.10932
| 51>    O      -10.56777        11.11569         1.67092
| 52>    O       -9.20829        11.98591         3.19075
| 53>    C       -8.27328         9.57491         0.52804
| 54>    C       -6.97340         9.28880         0.07197
| 55>    C       -9.41931         8.86272         0.01994
| 56>    O      -10.46393         8.56695         0.81495
| 57>    C      -11.32648         7.84692         0.08968
| 58>    C      -10.86273         7.64865        -1.17351
| 59>    C       -9.60617         8.31098        -1.24206
| 60>    C       -8.71367         8.43497        -2.36489
| 61>    C       -8.64393         7.56794        -3.38664
| 62>    C       -7.70714         7.64119        -4.48713
| 63>    C       -6.82284         8.61074        -4.71333
| 64>    H        2.15410         2.90666       -11.52410
| 65>    H       -1.81209         2.90560       -10.55351
| 66>    H       -0.65184         4.41118        -8.62083
| 67>    H        3.27572         4.43803        -9.53239
| 68>    H        1.18622         5.47086        -7.53947
| 69>    H        4.23888         5.82237        -7.74418
| 70>    H        2.11265         6.82784        -5.77136
| 71>    H        5.16300         7.23020        -5.90990
| 72>    H        6.03610         8.71836        -3.92845
| 73>    H        5.15653         9.96965        -1.85214
| 74>    H        3.76162        10.91602        -0.07530
| 75>    H        1.78804        11.62000         1.42532
| 76>    H       -0.71070        11.39431         1.64288
| 77>    H       -5.14421         8.29393        -2.24698
| 78>    H       -8.27866        11.98664         3.45405
| 79>    H       -6.75830         8.50974        -0.63331
| 80>    H      -12.22747         7.52947         0.57653
| 81>    H      -11.35370         7.12220        -1.96548
| 82>    H       -8.05231         9.29007        -2.33635
| 83>    H       -9.30341         6.71028        -3.38780
| 84>    H       -7.73825         6.80195        -5.16991
| 85>    H       -6.74169         9.48100        -4.08303
| 86>    H       -6.14280         8.56421        -5.54503
| 87> *
| 88>
| 89>                          ****END OF INPUT****

CARTESIAN COORDINATES (ANGSTROEM)
---------------------------------
  C      1.308660    3.174800  -10.921470
  O      0.109240    2.719640  -11.298230
  C     -0.786480    3.178560  -10.403030
  C     -0.179980    3.927010   -9.449710
  C      1.213160    3.936250   -9.777520
  C      2.294920    4.578960   -9.096180
  C      2.165200    5.328300   -7.975350
  C      3.251100    5.953350   -7.319890
  C      3.105020    6.703870   -6.187740
  C      4.160300    7.333320   -5.515040
  C      4.000680    8.081170   -4.370870
  C      5.003110    8.747580   -3.628830
  C      4.537900    9.409530   -2.530210
  C      3.142840    9.299170   -2.351210
  S      2.434260    8.331100   -3.616190
  C      2.353650    9.845030   -1.349640
  C      2.737760   10.639600   -0.252850
  C      1.693100   11.012710    0.542510
  C      0.432480   10.533480    0.111680
  S      0.625860    9.583010   -1.343170
  C     -0.763970   10.788360    0.747910
  C     -2.047080   10.367620    0.383880
  S     -3.423250   10.838980    1.376730
  C     -4.607300   10.021640    0.384140
  C     -3.950910    9.404660   -0.685250
  C     -2.543180    9.605240   -0.670420
  O     -1.969430    9.011740   -1.735050
  C     -2.984870    8.446020   -2.433450
  N     -2.663380    7.756360   -3.621090
  O     -3.596110    7.279450   -4.243890
  O     -1.495430    7.682780   -3.944270
  C     -4.213220    8.646520   -1.853140
  C     -5.987470   10.046290    0.667760
  S     -6.669100   11.117710    1.855430
  C     -8.287630   10.559500    1.509540
  C     -9.452520   11.212900    2.109320
  O    -10.567770   11.115690    1.670920
  O     -9.208290   11.985910    3.190750
  C     -8.273280    9.574910    0.528040
  C     -6.973400    9.288800    0.071970
  C     -9.419310    8.862720    0.019940
  O    -10.463930    8.566950    0.814950
  C    -11.326480    7.846920    0.089680
  C    -10.862730    7.648650   -1.173510
  C     -9.606170    8.310980   -1.242060
  C     -8.713670    8.434970   -2.364890
  C     -8.643930    7.567940   -3.386640
  C     -7.707140    7.641190   -4.487130
  C     -6.822840    8.610740   -4.713330
  H      2.154100    2.906660  -11.524100
  H     -1.812090    2.905600  -10.553510
  H     -0.651840    4.411180   -8.620830
  H      3.275720    4.438030   -9.532390
  H      1.186220    5.470860   -7.539470
  H      4.238880    5.822370   -7.744180
  H      2.112650    6.827840   -5.771360
  H      5.163000    7.230200   -5.909900
  H      6.036100    8.718360   -3.928450
  H      5.156530    9.969650   -1.852140
  H      3.761620   10.916020   -0.075300
  H      1.788040   11.620000    1.425320
  H     -0.710700   11.394310    1.642880
  H     -5.144210    8.293930   -2.246980
  H     -8.278660   11.986640    3.454050
  H     -6.758300    8.509740   -0.633310
  H    -12.227470    7.529470    0.576530
  H    -11.353700    7.122200   -1.965480
  H     -8.052310    9.290070   -2.336350
  H     -9.303410    6.710280   -3.387800
  H     -7.738250    6.801950   -5.169910
  H     -6.741690    9.481000   -4.083030
  H     -6.142800    8.564210   -5.545030

 Total Charge           Charge          ....    0
 Multiplicity           Mult            ....    1
 Number of Electrons    NEL             ....  372
 Basis Dimension        Dim             ....  817

ORBITAL ENERGIES
----------------

  NO   OCC          E(Eh)            E(eV)
   0   2.0000     -88.975513     -2421.1468
   1   2.0000     -88.972250     -2421.0580
   2   2.0000     -88.942450     -2420.2471
   3   2.0000     -88.941101     -2420.2104
   4   2.0000     -19.313265      -525.5407
   5   2.0000     -19.285502      -524.7852
   6   2.0000     -19.277942      -524.5795
   7   2.0000     -19.247700      -523.7565
   8   2.0000     -19.246820      -523.7326
   9   2.0000     -19.244452      -523.6682
  10   2.0000     -19.182008      -521.9690
  11   2.0000     -14.658179      -398.8693
  12   2.0000     -10.393670      -282.8262
  13   2.0000     -10.390640      -282.7437
  14   2.0000     -10.350886      -281.6619
  15   2.0000     -10.327356      -281.0216
  16   2.0000     -10.325749      -280.9779
  17   2.0000     -10.323652      -280.9209
  18   2.0000     -10.320743      -280.8417
  19   2.0000     -10.317847      -280.7629
  20   2.0000     -10.315702      -280.7045
  21   2.0000     -10.314344      -280.6676
  22   2.0000     -10.314077      -280.6603
  23   2.0000     -10.313168      -280.6356
  24   2.0000     -10.312793      -280.6254
  25   2.0000     -10.305039      -280.4144
  26   2.0000     -10.304312      -280.3946
  27   2.0000     -10.303462      -280.3714
  28   2.0000     -10.303133      -280.3625
  29   2.0000     -10.301504      -280.3182
  30   2.0000     -10.288009      -279.9510
  31   2.0000     -10.287555      -279.9386
  32   2.0000     -10.287300      -279.9317
  33   2.0000     -10.286539      -279.9109
  34   2.0000     -10.284619      -279.8587
  35   2.0000     -10.282370      -279.7975
  36   2.0000     -10.281595      -279.7764
  37   2.0000     -10.278241      -279.6852
  38   2.0000     -10.276809      -279.6462
  39   2.0000     -10.271608      -279.5047
  40   2.0000     -10.271376      -279.4984
  41   2.0000     -10.270846      -279.4839
  42   2.0000     -10.270620      -279.4778
  43   2.0000     -10.268621      -279.4234
  44   2.0000     -10.266575      -279.3677
  45   2.0000     -10.265726      -279.3446
  46   2.0000     -10.262735      -279.2632
  47   2.0000     -10.258963      -279.1606
  48   2.0000     -10.256976      -279.1065
  49   2.0000      -8.070354      -219.6055
  50   2.0000      -8.067926      -219.5394
  51   2.0000      -8.038858      -218.7485
  52   2.0000      -8.037355      -218.7075
  53   2.0000      -6.039818      -164.3518
  54   2.0000      -6.037285      -164.2829
  55   2.0000      -6.035761      -164.2414
  56   2.0000      -6.033165      -164.1708
  57   2.0000      -6.032132      -164.1427
  58   2.0000      -6.029929      -164.0827
  59   2.0000      -6.008531      -163.5004
  60   2.0000      -6.007059      -163.4604
  61   2.0000      -6.004480      -163.3902
  62   2.0000      -6.002893      -163.3470
  63   2.0000      -5.999818      -163.2634
  64   2.0000      -5.998226      -163.2200
  65   2.0000      -1.328691       -36.1555
  66   2.0000      -1.235911       -33.6308
  67   2.0000      -1.204680       -32.7810
  68   2.0000      -1.200600       -32.6700
  69   2.0000      -1.168889       -31.8071
  70   2.0000      -1.144143       -31.1337
  71   2.0000      -1.081871       -29.4392
  72   2.0000      -1.009191       -27.4615
  73   2.0000      -0.995137       -27.0790
  74   2.0000      -0.986461       -26.8430
  75   2.0000      -0.972503       -26.4632
  76   2.0000      -0.939502       -25.5651
  77   2.0000      -0.920842       -25.0574
  78   2.0000      -0.916650       -24.9433
  79   2.0000      -0.905857       -24.6496
  80   2.0000      -0.899285       -24.4708
  81   2.0000      -0.892049       -24.2739
  82   2.0000      -0.877843       -23.8873
  83   2.0000      -0.874577       -23.7984
  84   2.0000      -0.865326       -23.5467
  85   2.0000      -0.856052       -23.2944
  86   2.0000      -0.846731       -23.0407
  87   2.0000      -0.837785       -22.7973
  88   2.0000      -0.825660       -22.4674
  89   2.0000      -0.820968       -22.3397
  90   2.0000      -0.816194       -22.2098
  91   2.0000      -0.807295       -21.9676
  92   2.0000      -0.794730       -21.6257
  93   2.0000      -0.792963       -21.5776
  94   2.0000      -0.772596       -21.0234
  95   2.0000      -0.745229       -20.2787
  96   2.0000      -0.726398       -19.7663
  97   2.0000      -0.722559       -19.6618
  98   2.0000      -0.713132       -19.4053
  99   2.0000      -0.704645       -19.1744
 100   2.0000      -0.689791       -18.7702
 101   2.0000      -0.683948       -18.6112
 102   2.0000      -0.675127       -18.3711
 103   2.0000      -0.671130       -18.2624
 104   2.0000      -0.663961       -18.0673
 105   2.0000      -0.662600       -18.0303
 106   2.0000      -0.652686       -17.7605
 107   2.0000      -0.649297       -17.6683
 108   2.0000      -0.647522       -17.6200
 109   2.0000      -0.643204       -17.5025
 110   2.0000      -0.638380       -17.3712
 111   2.0000      -0.630405       -17.1542
 112   2.0000      -0.621616       -16.9150
 113   2.0000      -0.620331       -16.8801
 114   2.0000      -0.617941       -16.8150
 115   2.0000      -0.604790       -16.4572
 116   2.0000      -0.603388       -16.4190
 117   2.0000      -0.602359       -16.3910
 118   2.0000      -0.600083       -16.3291
 119   2.0000      -0.585594       -15.9348
 120   2.0000      -0.575671       -15.6648
 121   2.0000      -0.571523       -15.5519
 122   2.0000      -0.570040       -15.5116
 123   2.0000      -0.551703       -15.0126
 124   2.0000      -0.548188       -14.9169
 125   2.0000      -0.544254       -14.8099
 126   2.0000      -0.543199       -14.7812
 127   2.0000      -0.543161       -14.7802
 128   2.0000      -0.538585       -14.6557
 129   2.0000      -0.536512       -14.5992
 130   2.0000      -0.529113       -14.3979
 131   2.0000      -0.526708       -14.3325
 132   2.0000      -0.522527       -14.2187
 133   2.0000      -0.520253       -14.1568
 134   2.0000      -0.517811       -14.0904
 135   2.0000      -0.514338       -13.9958
 136   2.0000      -0.504866       -13.7381
 137   2.0000      -0.497222       -13.5301
 138   2.0000      -0.496258       -13.5039
 139   2.0000      -0.494008       -13.4426
 140   2.0000      -0.492343       -13.3973
 141   2.0000      -0.489499       -13.3200
 142   2.0000      -0.486934       -13.2501
 143   2.0000      -0.482728       -13.1357
 144   2.0000      -0.477314       -12.9884
 145   2.0000      -0.472424       -12.8553
 146   2.0000      -0.470832       -12.8120
 147   2.0000      -0.468211       -12.7407
 148   2.0000      -0.464361       -12.6359
 149   2.0000      -0.458092       -12.4653
 150   2.0000      -0.456145       -12.4123
 151   2.0000      -0.454153       -12.3581
 152   2.0000      -0.450871       -12.2688
 153   2.0000      -0.442237       -12.0339
 154   2.0000      -0.441346       -12.0096
 155   2.0000      -0.439554       -11.9609
 156   2.0000      -0.432913       -11.7801
 157   2.0000      -0.430497       -11.7144
 158   2.0000      -0.429142       -11.6776
 159   2.0000      -0.429031       -11.6745
 160   2.0000      -0.425081       -11.5670
 161   2.0000      -0.421042       -11.4571
 162   2.0000      -0.416350       -11.3295
 163   2.0000      -0.413932       -11.2637
 164   2.0000      -0.405254       -11.0275
 165   2.0000      -0.393835       -10.7168
 166   2.0000      -0.393493       -10.7075
 167   2.0000      -0.389451       -10.5975
 168   2.0000      -0.383639       -10.4393
 169   2.0000      -0.380421       -10.3518
 170   2.0000      -0.373474       -10.1627
 171   2.0000      -0.369560       -10.0562
 172   2.0000      -0.359176        -9.7737
 173   2.0000      -0.355308        -9.6684
 174   2.0000      -0.346303        -9.4234
 175   2.0000      -0.337760        -9.1909
 176   2.0000      -0.335967        -9.1421
 177   2.0000      -0.331206        -9.0126
 178   2.0000      -0.324560        -8.8317
 179   2.0000      -0.319347        -8.6899
 180   2.0000      -0.308931        -8.4064
 181   2.0000      -0.297859        -8.1052
 182   2.0000      -0.283154        -7.7050
 183   2.0000      -0.257632        -7.0105
 184   2.0000      -0.250542        -6.8176
 185   2.0000      -0.200686        -5.4609
 186   0.0000      -0.094172        -2.5625
 187   0.0000      -0.067272        -1.8306
 188   0.0000      -0.036435        -0.9914
 189   0.0000      -0.021782        -0.5927
 190   0.0000      -0.001884        -0.0513

MULLIKEN ATOMIC CHARGES
-----------------------
   0 C :    0.074669
   1 O :   -0.178631
   2 C :    0.138493
   3 C :   -0.047279
   4 C :    0.045602
   5 C :    0.023768
   6 C :    0.011621
   7 C :    0.025246
   8 C :   -0.005796
   9 C :    0.000711
  10 C :   -0.026566
  11 C :    0.041388
  12 C :    0.018589
  13 C :   -0.040461
  14 S :    0.095115
  15 C :   -0.049428
  16 C :    0.039335
  17 C :    0.022195
  18 C :   -0.027511
  19 S :    0.098689
  20 C :    0.031711
  21 C :   -0.194122
  22 S :    0.156282
  23 C :   -0.111830
  24 C :    0.122935
  25 C :    0.179069
  26 O :   -0.185175
  27 C :    0.246573
  28 N :    0.275848
  29 O :   -0.248023
  30 O :   -0.232074
  31 C :   -0.118383
  32 C :   -0.024563
  33 S :    0.091284
  34 C :   -0.221410
  35 C :    0.175365
  36 O :   -0.170005
  37 O :   -0.168774
  38 C :    0.115580
  39 C :   -0.084729
  40 C :    0.079622
  41 O :   -0.157629
  42 C :    0.158983
  43 C :   -0.052674
  44 C :    0.049648
  45 C :   -0.024599
  46 C :   -0.000321
  47 C :   -0.013706
  48 C :   -0.007926
  49 H :    0.003722
  50 H :    0.010970
  51 H :   -0.003790
  52 H :   -0.022731
  53 H :   -0.007795
  54 H :   -0.015528
  55 H :    0.011621
  56 H :   -0.015473
  57 H :   -0.011702
  58 H :   -0.014053
  59 H :   -0.015027
  60 H :   -0.015566
  61 H :   -0.025227
  62 H :    0.010564
  63 H :    0.172579
  64 H :   -0.003205
  65 H :    0.008525
  66 H :   -0.015357
  67 H :   -0.000488
  68 H :   -0.016458
  69 H :   -0.004032
  70 H :    0.011652
  71 H :    0.030090
Sum of atomic charges:   -0.0000000

LOEWDIN ATOMIC CHARGES
----------------------
   0 C :    0.033896
   1 O :    0.024056
   2 C :    0.035667
   3 C :   -0.066125
   4 C :   -0.078771
   5 C :   -0.006716
   6 C :   -0.033038
   7 C :   -0.004434
   8 C :   -0.042247
   9 C :   -0.037678
  10 C :   -0.154801
  11 C :   -0.024653
  12 C :   -0.040467
  13 C :   -0.164476
  14 S :    0.391743
  15 C :   -0.196130
  16 C :   -0.025012
  17 C :   -0.046375
  18 C :   -0.135597
  19 S :    0.406752
  20 C :   -0.104189
  21 C :   -0.179113
  22 S :    0.451047
  23 C :   -0.207012
  24 C :   -0.064794
  25 C :    0.007274
  26 O :    0.007394
  27 C :    0.028142
  28 N :    0.273495
  29 O :   -0.209123
  30 O :   -0.194651
  31 C :   -0.012856
  32 C :   -0.164497
  33 S :    0.415816
  34 C :   -0.239904
  35 C :    0.059107
  36 O :   -0.155203
  37 O :   -0.043603
  38 C :   -0.026626
  39 C :   -0.055599
  40 C :    0.019572
  41 O :    0.044154
  42 C :    0.051671
  43 C :   -0.070908
  44 C :   -0.055139
  45 C :   -0.016873
  46 C :   -0.034160
  47 C :   -0.033392
  48 C :   -0.038692
  49 H :    0.021365
  50 H :    0.022949
  51 H :    0.031279
  52 H :    0.028170
  53 H :    0.029832
  54 H :    0.027128
  55 H :    0.026344
  56 H :    0.032952
  57 H :    0.033795
  58 H :    0.031316
  59 H :    0.031380
  60 H :    0.031428
  61 H :    0.033095
  62 H :    0.045379
  63 H :    0.072495
  64 H :    0.033517
  65 H :    0.024674
  66 H :    0.028898
  67 H :    0.027009
  68 H :    0.026148
  69 H :    0.030002
  70 H :    0.016182
  71 H :    0.027730

  Mayer bond orders larger than 0.100000
B(  0-C ,  1-O ) :   1.1732 B(  0-C ,  4-C ) :   1.4877 B(  0-C , 49-H ) :   1.0070
B(  1-O ,  2-C ) :   1.1372 B(  2-C ,  3-C ) :   1.5964 B(  2-C , 50-H ) :   0.9991
B(  3-C ,  4-C ) :   1.2108 B(  3-C , 51-H ) :   1.0036 B(  4-C ,  5-C ) :   1.0844
B(  5-C ,  6-C ) :   1.6615 B(  5-C , 52-H ) :   0.9799 B(  6-C ,  7-C ) :   1.1457
B(  6-C , 53-H ) :   0.9818 B(  7-C ,  8-C ) :   1.5991 B(  7-C , 54-H ) :   0.9921
B(  8-C ,  9-C ) :   1.1567 B(  8-C , 55-H ) :   0.9767 B(  9-C , 10-C ) :   1.5494
B(  9-C , 56-H ) :   0.9828 B( 10-C , 11-C ) :   1.1540 B( 10-C , 14-S ) :   1.0281
B( 11-C , 12-C ) :   1.5707 B( 11-C , 57-H ) :   0.9999 B( 12-C , 13-C ) :   1.2025
B( 12-C , 58-H ) :   0.9952 B( 13-C , 14-S ) :   1.0705 B( 13-C , 15-C ) :   1.4677
B( 15-C , 16-C ) :   1.2114 B( 15-C , 19-S ) :   1.0337 B( 16-C , 17-C ) :   1.5615
B( 16-C , 59-H ) :   0.9932 B( 17-C , 18-C ) :   1.1653 B( 17-C , 60-H ) :   1.0008
B( 18-C , 19-S ) :   1.0654 B( 18-C , 20-C ) :   1.5425 B( 20-C , 21-C ) :   1.1968
B( 20-C , 61-H ) :   0.9407 B( 21-C , 22-S ) :   1.1108 B( 21-C , 23-C ) :   0.1146
B( 21-C , 25-C ) :   1.3893 B( 22-S , 23-C ) :   1.1102 B( 23-C , 24-C ) :   1.3930
B( 23-C , 32-C ) :   1.1677 B( 24-C , 25-C ) :   1.2532 B( 24-C , 31-C ) :   1.0839
B( 25-C , 26-O ) :   1.0957 B( 26-O , 27-C ) :   1.1294 B( 27-C , 28-N ) :   0.9208
B( 27-C , 31-C ) :   1.5534 B( 28-N , 29-O ) :   1.5226 B( 28-N , 30-O ) :   1.5074
B( 29-O , 30-O ) :   0.2789 B( 31-C , 62-H ) :   1.0196 B( 32-C , 33-S ) :   1.1359
B( 32-C , 39-C ) :   1.4687 B( 33-S , 34-C ) :   1.0600 B( 34-C , 35-C ) :   0.9446
B( 34-C , 38-C ) :   1.5021 B( 35-C , 36-O ) :   2.1792 B( 35-C , 37-O ) :   1.2203
B( 37-O , 63-H ) :   0.9533 B( 38-C , 39-C ) :   1.2745 B( 38-C , 40-C ) :   1.0259
B( 39-C , 64-H ) :   1.0018 B( 40-C , 41-O ) :   1.1744 B( 40-C , 44-C ) :   1.4773
B( 41-O , 42-C ) :   1.1585 B( 42-C , 43-C ) :   1.5421 B( 42-C , 65-H ) :   1.0056
B( 43-C , 44-C ) :   1.2145 B( 43-C , 66-H ) :   1.0017 B( 44-C , 45-C ) :   1.0806
B( 45-C , 46-C ) :   1.7826 B( 45-C , 67-H ) :   0.9500 B( 46-C , 47-C ) :   1.0942
B( 46-C , 68-H ) :   0.9772 B( 47-C , 48-C ) :   1.9459 B( 47-C , 69-H ) :   0.9655
B( 48-C , 70-H ) :   0.9458 B( 48-C , 71-H ) :   0.9499

-----------------------------------------------------------------------------
         ABSORPTION SPECTRUM VIA TRANSITION ELECTRIC DIPOLE MOMENTS
-----------------------------------------------------------------------------
State   Energy  Wavelength   fosc         T2         TX        TY        TZ
        (cm-1)    (nm)                  (au**2)     (au)      (au)      (au)
-----------------------------------------------------------------------------
   0    9790.3   1021.4   0.731359363  24.59283   3.78865  -1.45383  -2.85050
   1   14399.6    694.5   0.598619120  13.68599  -1.66204   1.69046   2.84007
   2   19887.2    502.8   0.031420396   0.52013   0.71621   0.08468  -0.00202
   3   20967.2    476.9   0.036974592   0.58055  -0.24821  -0.44491  -0.56657
   4   22627.7    441.9   0.704152102  10.24478  -2.72148  -1.11116  -1.26635
   5   24779.6    403.6   0.073916323   0.98202   0.48016   0.51039   0.70069
   6   26327.6    379.8   0.691055689   8.64128   1.74560   1.50099   1.82789
   7   26993.1    370.5   0.049402695   0.60252  -0.17933   0.47913   0.58378
   8   28443.0    351.6   0.120993732   1.40043  -0.86426  -0.54136  -0.60035
   9   29581.1    338.1   0.053430350   0.59463   0.20170  -0.48897  -0.56112
  10   30207.4    331.0   0.012256297   0.13357  -0.09807  -0.23555  -0.26168
  11   30797.6    324.7   0.108282597   1.15749   0.67160   0.52418   0.65702
  12   31047.2    322.1   0.000706587   0.00749   0.02496   0.02818   0.07794
  13   31955.9    312.9   0.198113945   2.04098  -0.30593   0.65780   1.23073
  14   32297.7    309.6   0.062822071   0.64035   0.13056  -0.37543  -0.69452
  15   33233.1    300.9   0.283568649   2.80908   0.08518   1.02383   1.32423
  16   33648.6    297.2   0.155637873   1.52273   0.14495   0.64627   1.04118
  17   33809.8    295.8   0.000045461   0.00044  -0.00787  -0.01925   0.00320
  18   34374.6    290.9   0.019836460   0.18998   0.16879  -0.28259  -0.28571
  19   34872.0    286.8   0.001806494   0.01705   0.06784  -0.07450  -0.08308
  20   35582.1    281.0   0.054441406   0.50370  -0.04591  -0.29864  -0.64219
  21   35989.2    277.9   0.019715493   0.18035   0.11140   0.20524   0.35470
  22   36393.4    274.8   0.044841430   0.40563  -0.32509   0.24784   0.48839
  23   36727.7    272.3   0.024723709   0.22161  -0.36864   0.01136   0.29255
  24   36798.2    271.8   0.038583293   0.34518   0.40524  -0.18186  -0.38456
  25   37781.1    264.7   0.163476463   1.42448   0.08565  -0.50808  -1.07657
  26   38105.5    262.4   0.010987085   0.09492  -0.27921   0.12102  -0.04812
  27   38557.4    259.4   0.038531299   0.32899  -0.56768  -0.07018   0.04244
  28   39589.1    252.6   0.015680319   0.13039  -0.23014  -0.25018  -0.12182
  29   39721.8    251.8   0.363466023   3.01238   0.07919  -0.73167  -1.57187
  30   40220.3    248.6   0.004136630   0.03386  -0.17855  -0.03536   0.02699

FINAL SINGLE POINT ENERGY     -3594.645910849880

DIPOLE MOMENT
-------------
                                X             Y             Z
Electronic contribution:    -10.07782      17.81787      33.84472
Nuclear contribution   :     13.12470     -18.26690     -34.12445
                        -----------------------------------------
Total Dipole Moment    :      3.04688      -0.44902      -0.27972
                        -----------------------------------------
Magnitude (a.u.)       :      3.09247
Magnitude (Debye)      :      7.86042

Rotational constants in cm-1:     0.002100     0.000740     0.000551
Rotational constants in MHz :    62.965343    22.170463    16.524295

                             ****ORCA TERMINATED NORMALLY****
TOTAL RUN TIME: 0 days 0 hours 5 minutes 45 seconds 691 msec
