                         Program Version 4.2.0 -  RELEASE  -
|  1> # ORCA input file
|  2> # SCF done       -125.120605789651          0.000278940966
|  3> ! CAM-B3LYP def2-SVP def2/J RIJCOSX Grid4 TightSCF
|  4> %maxcore 5000
|  5> %tddft
|  6>     Mode sTDDFT
|  7>     Ethresh 5.0
|  8>     maxcore 5000
|  9> end
| 10>
| 11> %pal
| 12>   nprocs 6
| 13>   end
| 14> * xyz 0 1
| 15>    C       -0.85726         3.75787         4.13011
| 16>    O       -1.90860         2.97995         4.42130
| 17>    C       -2.15765         2.22527         3.33615
| 18>    C       -1.27771         2.50676         2.34356
| 19>    C       -0.40780         3.52075         2.85223
| 20>    C        0.68519         4.12230         2.14122
| 21>    C        1.50547         5.07239         2.63288
| 22>    C        2.58944         5.63178         1.89772
| 23>    C        3.42914         6.56391         2.40323
| 24>    C        4.53934         7.12823         1.71666
| 25>    N        5.37409         8.02393         2.31397
| 26>    C        6.37842         8.39328         1.46382
| 27>    C        6.16100         7.70656         0.26477
| 28>    C        5.02620         6.92631         0.42100
| 29>    C        7.39822         9.28746         1.86899
| 30>    C        8.46388         9.65518         1.11319
| 31>    C        9.48283        10.51111         1.59651
| 32>    S       10.89925        10.90903         0.63969
| 33>    C       11.64635        11.87589         1.88680
| 34>    C       10.80839        11.90041         3.00432
| 35>    C        9.61823        11.13629         2.81895
| 36>    O        8.83992        11.18162         3.92619
| 37>    C        9.51746        11.96492         4.80734
| 38>    N        8.93948        12.19285         6.06868
| 39>    O        9.56997        12.90204         6.83691
| 40>    O        7.86609        11.67479         6.30853
| 41>    C       10.71125        12.42903         4.31240
| 42>    C       12.91707        12.45527         1.69391
| 43>    N       13.58152        13.16130         2.65432
| 44>    C       14.80264        13.56175         2.19002
| 45>    C       14.90960        13.09880         0.87345
| 46>    C       13.74605        12.41544         0.56595
| 47>    C       15.70728        14.29205         3.00113
| 48>    C       16.95014        14.67208         2.62329
| 49>    C       17.85530        15.38806         3.44756
| 50>    S       17.49134        15.92274         5.07870
| 51>    C       19.03002        16.64337         5.32479
| 52>    C       19.81541        16.49201         4.20926
| 53>    C       19.14278        15.78589         3.16157
| 54>    O       19.94324        15.65149         2.08100
| 55>    C       21.11047        16.25964         2.42676
| 56>    N       22.15314        16.27047         1.46857
| 57>    O       23.18863        16.81516         1.80320
| 58>    O       21.94660        15.74431         0.39685
| 59>    C       21.10625        16.78705         3.68884
| 60>    H       -0.52171         4.42958         4.89464
| 61>    H       -2.97653         1.53615         3.39604
| 62>    H       -1.23567         2.06194         1.37062
| 63>    H        0.84035         3.75964         1.13332
| 64>    H        1.35573         5.43789         3.63979
| 65>    H        2.73823         5.27201         0.88930
| 66>    H        3.27139         6.91397         3.41680
| 67>    H        5.27702         8.35919         3.25902
| 68>    H        6.76827         7.77609        -0.61552
| 69>    H        4.59366         6.28065        -0.31671
| 70>    H        7.31556         9.68199         2.87330
| 71>    H        8.58156         9.28036         0.10811
| 72>    H       11.38239        13.06284         4.85500
| 73>    H       13.23372        13.34378         3.58013
| 74>    H       15.74697        13.24998         0.22298
| 75>    H       13.50112        11.93362        -0.35962
| 76>    H       15.36773        14.54713         3.99824
| 77>    H       17.32413        14.42830         1.63961
| 78>    H       19.25427        17.12150         6.25532
| 79>    H       21.91669        17.30523         4.15775
| 80> *
| 81>
| 82>                          ****END OF INPUT****

CARTESIAN COORDINATES (ANGSTROEM)
---------------------------------
  C     -0.857260    3.757870    4.130110
  O     -1.908600    2.979950    4.421300
  C     -2.157650    2.225270    3.336150
  C     -1.277710    2.506760    2.343560
  C     -0.407800    3.520750    2.852230
  C      0.685190    4.122300    2.141220
  C      1.505470    5.072390    2.632880
  C      2.589440    5.631780    1.897720
  C      3.429140    6.563910    2.403230
  C      4.539340    7.128230    1.716660
  N      5.374090    8.023930    2.313970
  C      6.378420    8.393280    1.463820
  C      6.161000    7.706560    0.264770
  C      5.026200    6.926310    0.421000
  C      7.398220    9.287460    1.868990
  C      8.463880    9.655180    1.113190
  C      9.482830   10.511110    1.596510
  S     10.899250   10.909030    0.639690
  C     11.646350   11.875890    1.886800
  C     10.808390   11.900410    3.004320
  C      9.618230   11.136290    2.818950
  O      8.839920   11.181620    3.926190
  C      9.517460   11.964920    4.807340
  N      8.939480   12.192850    6.068680
  O      9.569970   12.902040    6.836910
  O      7.866090   11.674790    6.308530
  C     10.711250   12.429030    4.312400
  C     12.917070   12.455270    1.693910
  N     13.581520   13.161300    2.654320
  C     14.802640   13.561750    2.190020
  C     14.909600   13.098800    0.873450
  C     13.746050   12.415440    0.565950
  C     15.707280   14.292050    3.001130
  C     16.950140   14.672080    2.623290
  C     17.855300   15.388060    3.447560
  S     17.491340   15.922740    5.078700
  C     19.030020   16.643370    5.324790
  C     19.815410   16.492010    4.209260
  C     19.142780   15.785890    3.161570
  O     19.943240   15.651490    2.081000
  C     21.110470   16.259640    2.426760
  N     22.153140   16.270470    1.468570
  O     23.188630   16.815160    1.803200
  O     21.946600   15.744310    0.396850
  C     21.106250   16.787050    3.688840
  H     -0.521710    4.429580    4.894640
  H     -2.976530    1.536150    3.396040
  H     -1.235670    2.061940    1.370620
  H      0.840350    3.759640    1.133320
  H      1.355730    5.437890    3.639790
  H      2.738230    5.272010    0.889300
  H      3.271390    6.913970    3.416800
  H      5.277020    8.359190    3.259020
  H      6.768270    7.776090   -0.615520
  H      4.593660    6.280650   -0.316710
  H      7.315560    9.681990    2.873300
  H      8.581560    9.280360    0.108110
  H     11.382390   13.062840    4.855000
  H     13.233720   13.343780    3.580130
  H     15.746970   13.249980    0.222980
  H     13.501120   11.933620   -0.359620
  H     15.367730   14.547130    3.998240
  H     17.324130   14.428300    1.639610
  H     19.254270   17.121500    6.255320
  H     21.916690   17.305230    4.157750

 Total Charge           Charge          ....    0
 Multiplicity           Mult            ....    1
 Number of Electrons    NEL             ....  328
 Basis Dimension        Dim             ....  738

ORBITAL ENERGIES
----------------

  NO   OCC          E(Eh)            E(eV)
   0   2.0000     -88.978666     -2421.2326
   1   2.0000     -88.972158     -2421.0555
   2   2.0000     -19.311788      -525.5005
   3   2.0000     -19.310615      -525.4685
   4   2.0000     -19.280540      -524.6502
   5   2.0000     -19.246241      -523.7168
   6   2.0000     -19.246095      -523.7129
   7   2.0000     -19.243918      -523.6536
   8   2.0000     -19.243808      -523.6506
   9   2.0000     -14.657616      -398.8540
  10   2.0000     -14.657585      -398.8532
  11   2.0000     -14.474229      -393.8638
  12   2.0000     -14.455396      -393.3513
  13   2.0000     -10.390209      -282.7320
  14   2.0000     -10.389571      -282.7146
  15   2.0000     -10.349032      -281.6115
  16   2.0000     -10.344438      -281.4865
  17   2.0000     -10.325201      -280.9630
  18   2.0000     -10.321206      -280.8543
  19   2.0000     -10.319329      -280.8032
  20   2.0000     -10.317608      -280.7564
  21   2.0000     -10.317367      -280.7498
  22   2.0000     -10.315244      -280.6921
  23   2.0000     -10.312236      -280.6102
  24   2.0000     -10.312208      -280.6094
  25   2.0000     -10.310186      -280.5544
  26   2.0000     -10.309588      -280.5381
  27   2.0000     -10.301725      -280.3242
  28   2.0000     -10.300809      -280.2993
  29   2.0000     -10.294167      -280.1185
  30   2.0000     -10.293270      -280.0941
  31   2.0000     -10.293162      -280.0912
  32   2.0000     -10.292514      -280.0735
  33   2.0000     -10.279959      -279.7319
  34   2.0000     -10.278866      -279.7022
  35   2.0000     -10.272068      -279.5172
  36   2.0000     -10.269772      -279.4547
  37   2.0000     -10.267654      -279.3971
  38   2.0000     -10.267249      -279.3860
  39   2.0000     -10.265820      -279.3472
  40   2.0000     -10.264298      -279.3057
  41   2.0000     -10.264279      -279.3052
  42   2.0000     -10.257952      -279.1331
  43   2.0000     -10.252771      -278.9921
  44   2.0000     -10.250849      -278.9398
  45   2.0000      -8.073639      -219.6949
  46   2.0000      -8.066727      -219.5068
  47   2.0000      -6.042891      -164.4354
  48   2.0000      -6.038657      -164.3202
  49   2.0000      -6.036198      -164.2533
  50   2.0000      -6.036053      -164.2494
  51   2.0000      -6.032085      -164.1414
  52   2.0000      -6.028619      -164.0471
  53   2.0000      -1.329052       -36.1654
  54   2.0000      -1.327046       -36.1108
  55   2.0000      -1.230762       -33.4907
  56   2.0000      -1.230387       -33.4805
  57   2.0000      -1.198725       -32.6190
  58   2.0000      -1.145463       -31.1696
  59   2.0000      -1.143205       -31.1082
  60   2.0000      -1.091945       -29.7133
  61   2.0000      -1.073088       -29.2002
  62   2.0000      -1.000273       -27.2188
  63   2.0000      -0.995619       -27.0922
  64   2.0000      -0.941304       -25.6142
  65   2.0000      -0.938882       -25.5483
  66   2.0000      -0.914494       -24.8846
  67   2.0000      -0.912963       -24.8430
  68   2.0000      -0.904676       -24.6175
  69   2.0000      -0.893845       -24.3228
  70   2.0000      -0.889016       -24.1914
  71   2.0000      -0.885467       -24.0948
  72   2.0000      -0.877197       -23.8698
  73   2.0000      -0.864924       -23.5358
  74   2.0000      -0.861391       -23.4396
  75   2.0000      -0.844893       -22.9907
  76   2.0000      -0.832262       -22.6470
  77   2.0000      -0.819828       -22.3087
  78   2.0000      -0.800781       -21.7903
  79   2.0000      -0.792229       -21.5576
  80   2.0000      -0.785040       -21.3620
  81   2.0000      -0.766957       -20.8700
  82   2.0000      -0.734377       -19.9834
  83   2.0000      -0.726913       -19.7803
  84   2.0000      -0.709917       -19.3178
  85   2.0000      -0.704454       -19.1692
  86   2.0000      -0.696591       -18.9552
  87   2.0000      -0.695537       -18.9265
  88   2.0000      -0.680928       -18.5290
  89   2.0000      -0.676975       -18.4214
  90   2.0000      -0.673115       -18.3164
  91   2.0000      -0.667439       -18.1619
  92   2.0000      -0.664688       -18.0871
  93   2.0000      -0.656607       -17.8672
  94   2.0000      -0.646908       -17.6033
  95   2.0000      -0.644045       -17.5253
  96   2.0000      -0.642636       -17.4870
  97   2.0000      -0.642602       -17.4861
  98   2.0000      -0.638533       -17.3754
  99   2.0000      -0.630280       -17.1508
 100   2.0000      -0.619629       -16.8610
 101   2.0000      -0.617559       -16.8046
 102   2.0000      -0.610143       -16.6028
 103   2.0000      -0.607740       -16.5374
 104   2.0000      -0.593662       -16.1544
 105   2.0000      -0.588165       -16.0048
 106   2.0000      -0.585499       -15.9322
 107   2.0000      -0.579816       -15.7776
 108   2.0000      -0.568272       -15.4635
 109   2.0000      -0.567881       -15.4528
 110   2.0000      -0.564113       -15.3503
 111   2.0000      -0.557818       -15.1790
 112   2.0000      -0.547830       -14.9072
 113   2.0000      -0.537921       -14.6376
 114   2.0000      -0.537650       -14.6302
 115   2.0000      -0.535349       -14.5676
 116   2.0000      -0.529634       -14.4121
 117   2.0000      -0.526107       -14.3161
 118   2.0000      -0.524889       -14.2830
 119   2.0000      -0.517982       -14.0950
 120   2.0000      -0.513699       -13.9785
 121   2.0000      -0.512155       -13.9364
 122   2.0000      -0.509887       -13.8747
 123   2.0000      -0.508368       -13.8334
 124   2.0000      -0.503106       -13.6902
 125   2.0000      -0.499148       -13.5825
 126   2.0000      -0.488315       -13.2877
 127   2.0000      -0.482382       -13.1263
 128   2.0000      -0.475691       -12.9442
 129   2.0000      -0.475267       -12.9327
 130   2.0000      -0.472158       -12.8481
 131   2.0000      -0.468112       -12.7380
 132   2.0000      -0.463313       -12.6074
 133   2.0000      -0.462603       -12.5881
 134   2.0000      -0.457423       -12.4471
 135   2.0000      -0.456299       -12.4165
 136   2.0000      -0.448463       -12.2033
 137   2.0000      -0.434214       -11.8156
 138   2.0000      -0.432370       -11.7654
 139   2.0000      -0.429559       -11.6889
 140   2.0000      -0.429146       -11.6777
 141   2.0000      -0.427076       -11.6213
 142   2.0000      -0.420035       -11.4297
 143   2.0000      -0.418994       -11.4014
 144   2.0000      -0.413296       -11.2464
 145   2.0000      -0.392941       -10.6925
 146   2.0000      -0.392038       -10.6679
 147   2.0000      -0.385882       -10.5004
 148   2.0000      -0.383603       -10.4384
 149   2.0000      -0.380496       -10.3538
 150   2.0000      -0.378897       -10.3103
 151   2.0000      -0.374017       -10.1775
 152   2.0000      -0.373571       -10.1654
 153   2.0000      -0.361835        -9.8460
 154   2.0000      -0.341067        -9.2809
 155   2.0000      -0.336594        -9.1592
 156   2.0000      -0.325377        -8.8539
 157   2.0000      -0.322862        -8.7855
 158   2.0000      -0.320544        -8.7225
 159   2.0000      -0.312924        -8.5151
 160   2.0000      -0.294505        -8.0139
 161   2.0000      -0.273764        -7.4495
 162   2.0000      -0.240476        -6.5437
 163   2.0000      -0.207900        -5.6573
 164   0.0000      -0.079741        -2.1699
 165   0.0000      -0.066837        -1.8187
 166   0.0000      -0.039556        -1.0764
 167   0.0000      -0.025155        -0.6845
 168   0.0000      -0.003282        -0.0893

MULLIKEN ATOMIC CHARGES
-----------------------
   0 C :    0.060996
   1 O :   -0.180105
   2 C :    0.131844
   3 C :   -0.044016
   4 C :    0.045937
   5 C :    0.022819
   6 C :    0.024474
   7 C :    0.006735
   8 C :    0.009244
   9 C :    0.095800
  10 N :   -0.039253
  11 C :    0.089599
  12 C :   -0.042304
  13 C :   -0.044075
  14 C :    0.004914
  15 C :    0.037077
  16 C :   -0.184982
  17 S :    0.163555
  18 C :   -0.124387
  19 C :    0.129338
  20 C :    0.171571
  21 O :   -0.193169
  22 C :    0.228336
  23 N :    0.279705
  24 O :   -0.258297
  25 O :   -0.238881
  26 C :   -0.125003
  27 C :    0.068883
  28 N :   -0.040375
  29 C :    0.099152
  30 C :   -0.033472
  31 C :   -0.050101
  32 C :    0.005509
  33 C :    0.007412
  34 C :   -0.194647
  35 S :    0.135596
  36 C :   -0.135213
  37 C :    0.126883
  38 C :    0.197994
  39 O :   -0.185593
  40 C :    0.234970
  41 N :    0.274325
  42 O :   -0.248869
  43 O :   -0.228569
  44 C :   -0.068360
  45 H :    0.001770
  46 H :    0.008015
  47 H :   -0.017081
  48 H :   -0.026721
  49 H :   -0.025131
  50 H :   -0.017226
  51 H :   -0.035977
  52 H :    0.120454
  53 H :   -0.029645
  54 H :   -0.029241
  55 H :   -0.011307
  56 H :   -0.032866
  57 H :    0.000741
  58 H :    0.113673
  59 H :   -0.019157
  60 H :   -0.018782
  61 H :   -0.024916
  62 H :    0.004175
  63 H :    0.032849
  64 H :    0.013377
Sum of atomic charges:   -0.0000000

LOEWDIN ATOMIC CHARGES
----------------------
   0 C :    0.028728
   1 O :    0.024551
   2 C :    0.027995
   3 C :   -0.071267
   4 C :   -0.079216
   5 C :   -0.023379
   6 C :   -0.025702
   7 C :   -0.021065
   8 C :   -0.042886
   9 C :   -0.015458
  10 N :    0.098904
  11 C :   -0.024438
  12 C :   -0.056105
  13 C :   -0.060939
  14 C :   -0.025143
  15 C :   -0.057447
  16 C :   -0.197226
  17 S :    0.464421
  18 C :   -0.174597
  19 C :   -0.090101
  20 C :    0.018002
  21 O :    0.000469
  22 C :    0.021418
  23 N :    0.273230
  24 O :   -0.219277
  25 O :   -0.200601
  26 C :   -0.020566
  27 C :   -0.034666
  28 N :    0.095710
  29 C :   -0.011182
  30 C :   -0.052783
  31 C :   -0.055589
  32 C :   -0.040623
  33 C :   -0.035043
  34 C :   -0.199387
  35 S :    0.467221
  36 C :   -0.183801
  37 C :   -0.083073
  38 C :    0.018538
  39 O :   -0.002060
  40 C :    0.027578
  41 N :    0.272022
  42 O :   -0.209834
  43 O :   -0.190312
  44 C :   -0.009252
  45 H :    0.018238
  46 H :    0.020920
  47 H :    0.028128
  48 H :    0.026729
  49 H :    0.023491
  50 H :    0.027075
  51 H :    0.023972
  52 H :    0.090035
  53 H :    0.022187
  54 H :    0.022581
  55 H :    0.029428
  56 H :    0.027509
  57 H :    0.037075
  58 H :    0.086313
  59 H :    0.027447
  60 H :    0.024732
  61 H :    0.020628
  62 H :    0.040987
  63 H :    0.029412
  64 H :    0.047347

  Mayer bond orders larger than 0.100000
B(  0-C ,  1-O ) :   1.1711 B(  0-C ,  4-C ) :   1.5082 B(  0-C , 45-H ) :   1.0029
B(  1-O ,  2-C ) :   1.1460 B(  2-C ,  3-C ) :   1.5749 B(  2-C , 46-H ) :   1.0015
B(  3-C ,  4-C ) :   1.2093 B(  3-C , 47-H ) :   1.0084 B(  4-C ,  5-C ) :   1.0703
B(  5-C ,  6-C ) :   1.6950 B(  5-C , 48-H ) :   0.9794 B(  6-C ,  7-C ) :   1.1353
B(  6-C , 49-H ) :   0.9808 B(  7-C ,  8-C ) :   1.6722 B(  7-C , 50-H ) :   0.9877
B(  8-C ,  9-C ) :   1.0776 B(  8-C , 51-H ) :   0.9648 B(  9-C , 10-N ) :   1.2147
B(  9-C , 11-C ) :   0.1086 B(  9-C , 13-C ) :   1.3964 B( 10-N , 11-C ) :   1.2003
B( 10-N , 52-H ) :   0.9339 B( 11-C , 12-C ) :   1.3934 B( 11-C , 14-C ) :   1.1121
B( 12-C , 13-C ) :   1.3554 B( 12-C , 53-H ) :   1.0049 B( 13-C , 54-H ) :   1.0055
B( 14-C , 15-C ) :   1.6679 B( 14-C , 55-H ) :   0.9547 B( 15-C , 16-C ) :   1.1342
B( 15-C , 56-H ) :   0.9628 B( 16-C , 17-S ) :   1.0824 B( 16-C , 18-C ) :   0.1138
B( 16-C , 20-C ) :   1.4742 B( 17-S , 18-C ) :   1.1595 B( 18-C , 19-C ) :   1.3409
B( 18-C , 27-C ) :   1.1408 B( 19-C , 20-C ) :   1.2203 B( 19-C , 26-C ) :   1.0810
B( 20-C , 21-O ) :   1.0846 B( 21-O , 22-C ) :   1.1266 B( 22-C , 23-N ) :   0.9323
B( 22-C , 26-C ) :   1.5702 B( 23-N , 24-O ) :   1.5149 B( 23-N , 25-O ) :   1.4999
B( 24-O , 25-O ) :   0.2745 B( 26-C , 57-H ) :   1.0076 B( 27-C , 28-N ) :   1.2454
B( 27-C , 29-C ) :   0.1173 B( 27-C , 31-C ) :   1.3902 B( 28-N , 29-C ) :   1.1944
B( 28-N , 58-H ) :   0.9321 B( 29-C , 30-C ) :   1.3979 B( 29-C , 32-C ) :   1.1011
B( 30-C , 31-C ) :   1.3555 B( 30-C , 59-H ) :   1.0053 B( 31-C , 60-H ) :   1.0014
B( 32-C , 33-C ) :   1.6616 B( 32-C , 61-H ) :   0.9613 B( 33-C , 34-C ) :   1.1556
B( 33-C , 62-H ) :   0.9839 B( 34-C , 35-S ) :   1.1145 B( 34-C , 36-C ) :   0.1124
B( 34-C , 38-C ) :   1.4642 B( 35-S , 36-C ) :   1.1849 B( 36-C , 37-C ) :   1.4400
B( 36-C , 63-H ) :   0.9757 B( 37-C , 38-C ) :   1.2095 B( 37-C , 44-C ) :   1.0563
B( 38-C , 39-O ) :   1.1179 B( 39-O , 40-C ) :   1.1207 B( 40-C , 41-N ) :   0.9152
B( 40-C , 44-C ) :   1.5865 B( 41-N , 42-O ) :   1.5324 B( 41-N , 43-O ) :   1.5156
B( 42-O , 43-O ) :   0.2811 B( 44-C , 64-H ) :   1.0246

-----------------------------------------------------------------------------
         ABSORPTION SPECTRUM VIA TRANSITION ELECTRIC DIPOLE MOMENTS
-----------------------------------------------------------------------------
State   Energy  Wavelength   fosc         T2         TX        TY        TZ
        (cm-1)    (nm)                  (au**2)     (au)      (au)      (au)
-----------------------------------------------------------------------------
   0   13418.3    745.3   0.738639978  18.12221   3.73385   2.03191  -0.22785
   1   19263.5    519.1   0.460640926   7.87233  -2.15721  -1.55801  -0.88959
   2   21617.5    462.6   0.086262207   1.31368   0.47981   0.90758   0.50967
   3   22080.9    452.9   1.754019378  26.15126  -4.32806  -2.72363   0.03060
   4   26401.0    378.8   0.029399053   0.36660  -0.11665  -0.54083  -0.24596
   5   27768.0    360.1   0.080446926   0.95376   0.13405  -0.00352   0.96736
   6   29431.8    339.8   0.033922974   0.37945  -0.33331  -0.21641   0.47066
   7   30405.6    328.9   0.013657767   0.14788  -0.38316  -0.02422  -0.02186
   8   31546.0    317.0   0.217581421   2.27067  -1.18466  -0.72400   0.58571
   9   33530.4    298.2   0.150864203   1.48123  -0.90283  -0.16626   0.79905
  10   34343.6    291.2   0.250113605   2.39755  -0.24014   0.39213   1.47855
  11   35397.5    282.5   0.252393666   2.34737  -1.15663  -0.88582  -0.47423
  12   35981.6    277.9   0.263158989   2.40776   0.35753  -0.34412  -1.47021
  13   36139.9    276.7   0.016029663   0.14602  -0.05034   0.07625   0.37104
  14   37606.3    265.9   0.559467177   4.89767   1.69003   0.07703  -1.42672
  15   38060.6    262.7   0.002231862   0.01930   0.01113   0.09176   0.10374
  16   38437.2    260.2   0.031902805   0.27325  -0.22109   0.07537   0.46764
  17   39515.4    253.1   0.316003207   2.63269   0.94261  -0.13158  -1.31410
  18   39650.5    252.2   0.035680509   0.29625  -0.36868  -0.35328   0.18846
  19   40226.2    248.6   0.039985151   0.32724  -0.41173  -0.24266  -0.31438

FINAL SINGLE POINT ENERGY     -2770.425309998972

DIPOLE MOMENT
-------------
                                X             Y             Z
Electronic contribution:     50.23530      34.87071       7.56725
Nuclear contribution   :    -50.73665     -34.91799      -7.05205
                        -----------------------------------------
Total Dipole Moment    :     -0.50135      -0.04728       0.51520
                        -----------------------------------------
Magnitude (a.u.)       :      0.72043
Magnitude (Debye)      :      1.83118

Rotational constants in cm-1:     0.007266     0.000377     0.000362
Rotational constants in MHz :   217.831240    11.312542    10.846167

                             ****ORCA TERMINATED NORMALLY****
TOTAL RUN TIME: 0 days 0 hours 3 minutes 30 seconds 476 msec
