                         Program Version 4.2.0 -  RELEASE  -
|  1> # ORCA input file
|  2> # SCF done       -179.048973791590          0.000686644196
|  3> ! CAM-B3LYP def2-SVP def2/J RIJCOSX Grid4 TightSCF
|  4> %maxcore 5000
|  5> %tddft
|  6>     Mode sTDDFT
|  7>     Ethresh 5.0
|  8>     maxcore 5000
|  9> end
| 10>
| 11> %pal
| 12>   nprocs 6
| 13>   end
| 14> * xyz 0 1
| 15>    C       18.07789       -11.33471        -4.97231
| 16>    C       16.96820       -10.55305        -5.06804
| 17>    C       15.80460       -11.30320        -5.43949
| 18>    C       16.04713       -12.62236        -5.62626
| 19>    S       17.71264       -12.97987        -5.33693
| 20>    C       14.63981       -10.40897        -5.51517
| 21>    O       13.50734       -10.73747        -5.80882
| 22>    C       15.15934        -9.08092        -5.12943
| 23>    C       16.58963        -9.15190        -4.98871
| 24>    C       17.44723        -8.06851        -4.93850
| 25>    N       18.80348        -8.16460        -4.53213
| 26>    O       19.10440        -9.08168        -3.78470
| 27>    O       19.58890        -7.34108        -4.95725
| 28>    N       17.05293        -6.75987        -5.39447
| 29>    O       17.43127        -5.80272        -4.75687
| 30>    O       16.36572        -6.70614        -6.39612
| 31>    C       14.43368        -7.95400        -4.76127
| 32>    C       13.08783        -7.64529        -4.88263
| 33>    S       12.56852        -6.08617        -4.19127
| 34>    C       10.96947        -6.34868        -4.72084
| 35>    C       10.83832        -7.59233        -5.39662
| 36>    C       12.00620        -8.30379        -5.49363
| 37>    C        9.43395        -7.72623        -5.80491
| 38>    O        8.91777        -8.64601        -6.40227
| 39>    C        8.77821        -6.45330        -5.31580
| 40>    C        9.74869        -5.67324        -4.68126
| 41>    C        7.43243        -6.12572        -5.47594
| 42>    C        6.53053        -6.98688        -6.06695
| 43>    C        5.16992        -6.73640        -6.25557
| 44>    C        4.28443        -7.69220        -6.79101
| 45>    O        2.94914        -7.42804        -6.97140
| 46>    C        2.52958        -6.18353        -6.61240
| 47>    C        3.41967        -5.22011        -6.05680
| 48>    C        2.80427        -4.04737        -5.76025
| 49>    S        1.12862        -4.10396        -6.15697
| 50>    C        1.25788        -5.72325        -6.72745
| 51>    O        4.73789        -5.48624        -5.86300
| 52>    C        4.68977        -8.98528        -7.14087
| 53>    C        3.86962        -9.95635        -7.67353
| 54>    C        4.29431       -11.25448        -7.94649
| 55>    S        3.35673       -12.25358        -9.03322
| 56>    C        4.54606       -13.51860        -9.06432
| 57>    C        5.62482       -13.19580        -8.20898
| 58>    C        5.46120       -11.94867        -7.54135
| 59>    C        6.35887       -11.61919        -6.51777
| 60>    C        7.45247       -12.41193        -6.25749
| 61>    S        8.43081       -11.95307        -4.84901
| 62>    C        8.33217       -13.49572        -3.86279
| 63>    C        6.90939       -13.79251        -3.43469
| 64>    C        7.72685       -13.53439        -7.07578
| 65>    S        9.21076       -14.49691        -6.96706
| 66>    C       10.52804       -13.21019        -7.05373
| 67>    C       11.53251       -13.35664        -5.93169
| 68>    C        6.78624       -13.94773        -7.99206
| 69>    C        4.39608       -14.68003        -9.83041
| 70>    C        3.30839       -14.96464       -10.60809
| 71>    C        3.15109       -16.13805       -11.36213
| 72>    S        4.38695       -17.38200       -11.38728
| 73>    C        3.44614       -18.34624       -12.44273
| 74>    C        2.25865       -17.77671       -12.77247
| 75>    C        2.06308       -16.50917       -12.16753
| 76>    N        0.98380       -15.70904       -12.37850
| 77>    C       -0.25555       -16.17976       -12.95071
| 78>    C       -1.07546       -17.02480       -11.97494
| 79>    H       19.07352       -11.07338        -4.67580
| 80>    H       15.37071       -13.40140        -5.91561
| 81>    H       15.00171        -7.18433        -4.24912
| 82>    H       12.11542        -9.26355        -5.96481
| 83>    H        9.57576        -4.71119        -4.23501
| 84>    H        7.09392        -5.16661        -5.10544
| 85>    H        6.92329        -7.92932        -6.40372
| 86>    H        3.23603        -3.16498        -5.33710
| 87>    H        0.40220        -6.23889        -7.10983
| 88>    H        5.72920        -9.22162        -7.01742
| 89>    H        2.85733        -9.69345        -7.94945
| 90>    H        6.17635       -10.78280        -5.86417
| 91>    H        8.97196       -13.29997        -3.00301
| 92>    H        8.75082       -14.31188        -4.44971
| 93>    H        6.89395       -14.67599        -2.79961
| 94>    H        6.27891       -13.98003        -4.30245
| 95>    H        6.49376       -12.95508        -2.87822
| 96>    H       10.03662       -12.24077        -7.02685
| 97>    H       11.00120       -13.34975        -8.02590
| 98>    H       11.05134       -13.23370        -4.96480
| 99>    H       12.29318       -12.58592        -6.03068
|100>    H       12.00649       -14.33558        -5.96496
|101>    H        6.97012       -14.84920        -8.55470
|102>    H        5.20245       -15.39889        -9.78806
|103>    H        2.50747       -14.23562       -10.64349
|104>    H        3.82620       -19.29533       -12.76535
|105>    H        1.54904       -18.24963       -13.42546
|106>    H        0.89874       -14.91792       -11.75909
|107>    H       -0.02863       -16.75800       -13.84874
|108>    H       -0.82968       -15.30082       -13.25351
|109>    H       -0.50740       -17.89701       -11.65963
|110>    H       -1.99284       -17.35876       -12.45101
|111>    H       -1.33382       -16.44410       -11.09216
|112> *
|113>
|114>                          ****END OF INPUT****

CARTESIAN COORDINATES (ANGSTROEM)
---------------------------------
  C     18.077890  -11.334710   -4.972310
  C     16.968200  -10.553050   -5.068040
  C     15.804600  -11.303200   -5.439490
  C     16.047130  -12.622360   -5.626260
  S     17.712640  -12.979870   -5.336930
  C     14.639810  -10.408970   -5.515170
  O     13.507340  -10.737470   -5.808820
  C     15.159340   -9.080920   -5.129430
  C     16.589630   -9.151900   -4.988710
  C     17.447230   -8.068510   -4.938500
  N     18.803480   -8.164600   -4.532130
  O     19.104400   -9.081680   -3.784700
  O     19.588900   -7.341080   -4.957250
  N     17.052930   -6.759870   -5.394470
  O     17.431270   -5.802720   -4.756870
  O     16.365720   -6.706140   -6.396120
  C     14.433680   -7.954000   -4.761270
  C     13.087830   -7.645290   -4.882630
  S     12.568520   -6.086170   -4.191270
  C     10.969470   -6.348680   -4.720840
  C     10.838320   -7.592330   -5.396620
  C     12.006200   -8.303790   -5.493630
  C      9.433950   -7.726230   -5.804910
  O      8.917770   -8.646010   -6.402270
  C      8.778210   -6.453300   -5.315800
  C      9.748690   -5.673240   -4.681260
  C      7.432430   -6.125720   -5.475940
  C      6.530530   -6.986880   -6.066950
  C      5.169920   -6.736400   -6.255570
  C      4.284430   -7.692200   -6.791010
  O      2.949140   -7.428040   -6.971400
  C      2.529580   -6.183530   -6.612400
  C      3.419670   -5.220110   -6.056800
  C      2.804270   -4.047370   -5.760250
  S      1.128620   -4.103960   -6.156970
  C      1.257880   -5.723250   -6.727450
  O      4.737890   -5.486240   -5.863000
  C      4.689770   -8.985280   -7.140870
  C      3.869620   -9.956350   -7.673530
  C      4.294310  -11.254480   -7.946490
  S      3.356730  -12.253580   -9.033220
  C      4.546060  -13.518600   -9.064320
  C      5.624820  -13.195800   -8.208980
  C      5.461200  -11.948670   -7.541350
  C      6.358870  -11.619190   -6.517770
  C      7.452470  -12.411930   -6.257490
  S      8.430810  -11.953070   -4.849010
  C      8.332170  -13.495720   -3.862790
  C      6.909390  -13.792510   -3.434690
  C      7.726850  -13.534390   -7.075780
  S      9.210760  -14.496910   -6.967060
  C     10.528040  -13.210190   -7.053730
  C     11.532510  -13.356640   -5.931690
  C      6.786240  -13.947730   -7.992060
  C      4.396080  -14.680030   -9.830410
  C      3.308390  -14.964640  -10.608090
  C      3.151090  -16.138050  -11.362130
  S      4.386950  -17.382000  -11.387280
  C      3.446140  -18.346240  -12.442730
  C      2.258650  -17.776710  -12.772470
  C      2.063080  -16.509170  -12.167530
  N      0.983800  -15.709040  -12.378500
  C     -0.255550  -16.179760  -12.950710
  C     -1.075460  -17.024800  -11.974940
  H     19.073520  -11.073380   -4.675800
  H     15.370710  -13.401400   -5.915610
  H     15.001710   -7.184330   -4.249120
  H     12.115420   -9.263550   -5.964810
  H      9.575760   -4.711190   -4.235010
  H      7.093920   -5.166610   -5.105440
  H      6.923290   -7.929320   -6.403720
  H      3.236030   -3.164980   -5.337100
  H      0.402200   -6.238890   -7.109830
  H      5.729200   -9.221620   -7.017420
  H      2.857330   -9.693450   -7.949450
  H      6.176350  -10.782800   -5.864170
  H      8.971960  -13.299970   -3.003010
  H      8.750820  -14.311880   -4.449710
  H      6.893950  -14.675990   -2.799610
  H      6.278910  -13.980030   -4.302450
  H      6.493760  -12.955080   -2.878220
  H     10.036620  -12.240770   -7.026850
  H     11.001200  -13.349750   -8.025900
  H     11.051340  -13.233700   -4.964800
  H     12.293180  -12.585920   -6.030680
  H     12.006490  -14.335580   -5.964960
  H      6.970120  -14.849200   -8.554700
  H      5.202450  -15.398890   -9.788060
  H      2.507470  -14.235620  -10.643490
  H      3.826200  -19.295330  -12.765350
  H      1.549040  -18.249630  -13.425460
  H      0.898740  -14.917920  -11.759090
  H     -0.028630  -16.758000  -13.848740
  H     -0.829680  -15.300820  -13.253510
  H     -0.507400  -17.897010  -11.659630
  H     -1.992840  -17.358760  -12.451010
  H     -1.333820  -16.444100  -11.092160

 Total Charge           Charge          ....    0
 Multiplicity           Mult            ....    1
 Number of Electrons    NEL             ....  506
 Basis Dimension        Dim             .... 1089

ORBITAL ENERGIES
----------------

  NO   OCC          E(Eh)            E(eV)
   0   2.0000     -88.969347     -2420.9790
   1   2.0000     -88.968755     -2420.9629
   2   2.0000     -88.963044     -2420.8075
   3   2.0000     -88.961422     -2420.7633
   4   2.0000     -88.959512     -2420.7114
   5   2.0000     -88.911151     -2419.3954
   6   2.0000     -88.908779     -2419.3309
   7   2.0000     -19.290214      -524.9134
   8   2.0000     -19.276759      -524.5473
   9   2.0000     -19.227320      -523.2020
  10   2.0000     -19.225382      -523.1492
  11   2.0000     -19.224028      -523.1124
  12   2.0000     -19.219318      -522.9842
  13   2.0000     -19.218712      -522.9677
  14   2.0000     -19.200322      -522.4673
  15   2.0000     -14.634532      -398.2259
  16   2.0000     -14.631352      -398.1393
  17   2.0000     -14.441480      -392.9726
  18   2.0000     -10.369965      -282.1811
  19   2.0000     -10.367008      -282.1006
  20   2.0000     -10.354531      -281.7611
  21   2.0000     -10.347368      -281.5662
  22   2.0000     -10.347162      -281.5606
  23   2.0000     -10.345593      -281.5179
  24   2.0000     -10.334930      -281.2278
  25   2.0000     -10.333845      -281.1982
  26   2.0000     -10.326114      -280.9878
  27   2.0000     -10.322965      -280.9022
  28   2.0000     -10.322376      -280.8861
  29   2.0000     -10.320479      -280.8345
  30   2.0000     -10.312144      -280.6077
  31   2.0000     -10.309249      -280.5289
  32   2.0000     -10.306260      -280.4476
  33   2.0000     -10.304034      -280.3870
  34   2.0000     -10.303241      -280.3655
  35   2.0000     -10.302199      -280.3371
  36   2.0000     -10.302073      -280.3337
  37   2.0000     -10.300927      -280.3025
  38   2.0000     -10.300615      -280.2940
  39   2.0000     -10.299453      -280.2624
  40   2.0000     -10.298944      -280.2485
  41   2.0000     -10.297818      -280.2179
  42   2.0000     -10.297686      -280.2143
  43   2.0000     -10.297287      -280.2034
  44   2.0000     -10.290634      -280.0224
  45   2.0000     -10.289274      -279.9854
  46   2.0000     -10.287726      -279.9433
  47   2.0000     -10.287366      -279.9335
  48   2.0000     -10.285147      -279.8731
  49   2.0000     -10.284997      -279.8690
  50   2.0000     -10.284705      -279.8611
  51   2.0000     -10.283022      -279.8153
  52   2.0000     -10.282116      -279.7906
  53   2.0000     -10.279757      -279.7264
  54   2.0000     -10.279213      -279.7116
  55   2.0000     -10.278473      -279.6915
  56   2.0000     -10.278103      -279.6814
  57   2.0000     -10.275373      -279.6071
  58   2.0000     -10.274376      -279.5800
  59   2.0000     -10.274143      -279.5736
  60   2.0000     -10.271882      -279.5121
  61   2.0000     -10.271110      -279.4911
  62   2.0000     -10.251755      -278.9644
  63   2.0000     -10.234843      -278.5042
  64   2.0000      -8.064510      -219.4465
  65   2.0000      -8.063999      -219.4326
  66   2.0000      -8.058873      -219.2931
  67   2.0000      -8.057385      -219.2526
  68   2.0000      -8.055107      -219.1906
  69   2.0000      -8.005800      -217.8489
  70   2.0000      -8.003824      -217.7951
  71   2.0000      -6.033499      -164.1798
  72   2.0000      -6.033087      -164.1686
  73   2.0000      -6.029709      -164.0767
  74   2.0000      -6.029220      -164.0634
  75   2.0000      -6.028345      -164.0396
  76   2.0000      -6.027037      -164.0040
  77   2.0000      -6.026666      -163.9939
  78   2.0000      -6.026258      -163.9828
  79   2.0000      -6.024532      -163.9359
  80   2.0000      -6.024189      -163.9265
  81   2.0000      -6.021983      -163.8665
  82   2.0000      -6.020583      -163.8284
  83   2.0000      -6.020403      -163.8235
  84   2.0000      -6.020012      -163.8129
  85   2.0000      -6.017021      -163.7315
  86   2.0000      -5.976351      -162.6248
  87   2.0000      -5.974255      -162.5677
  88   2.0000      -5.972370      -162.5165
  89   2.0000      -5.970354      -162.4616
  90   2.0000      -5.965260      -162.3230
  91   2.0000      -5.963424      -162.2730
  92   2.0000      -1.313079       -35.7307
  93   2.0000      -1.294819       -35.2338
  94   2.0000      -1.211020       -32.9535
  95   2.0000      -1.172888       -31.9159
  96   2.0000      -1.134928       -30.8830
  97   2.0000      -1.126767       -30.6609
  98   2.0000      -1.116498       -30.3815
  99   2.0000      -1.115856       -30.3640
 100   2.0000      -1.050859       -28.5953
 101   2.0000      -1.004314       -27.3288
 102   2.0000      -1.003363       -27.3029
 103   2.0000      -0.998523       -27.1712
 104   2.0000      -0.992419       -27.0051
 105   2.0000      -0.978533       -26.6272
 106   2.0000      -0.958236       -26.0749
 107   2.0000      -0.953611       -25.9491
 108   2.0000      -0.942537       -25.6477
 109   2.0000      -0.931233       -25.3401
 110   2.0000      -0.916031       -24.9265
 111   2.0000      -0.911803       -24.8114
 112   2.0000      -0.896902       -24.4059
 113   2.0000      -0.887391       -24.1471
 114   2.0000      -0.881889       -23.9974
 115   2.0000      -0.872916       -23.7532
 116   2.0000      -0.864994       -23.5377
 117   2.0000      -0.860344       -23.4112
 118   2.0000      -0.848744       -23.0955
 119   2.0000      -0.840639       -22.8749
 120   2.0000      -0.835907       -22.7462
 121   2.0000      -0.834636       -22.7116
 122   2.0000      -0.828530       -22.5454
 123   2.0000      -0.826598       -22.4929
 124   2.0000      -0.819622       -22.3030
 125   2.0000      -0.812465       -22.1083
 126   2.0000      -0.799518       -21.7560
 127   2.0000      -0.789397       -21.4806
 128   2.0000      -0.782265       -21.2865
 129   2.0000      -0.773307       -21.0428
 130   2.0000      -0.765255       -20.8237
 131   2.0000      -0.758674       -20.6446
 132   2.0000      -0.752593       -20.4791
 133   2.0000      -0.751411       -20.4469
 134   2.0000      -0.738302       -20.0902
 135   2.0000      -0.726349       -19.7649
 136   2.0000      -0.717400       -19.5214
 137   2.0000      -0.707181       -19.2434
 138   2.0000      -0.700456       -19.0604
 139   2.0000      -0.694435       -18.8965
 140   2.0000      -0.691831       -18.8257
 141   2.0000      -0.681057       -18.5325
 142   2.0000      -0.675354       -18.3773
 143   2.0000      -0.668327       -18.1861
 144   2.0000      -0.659362       -17.9421
 145   2.0000      -0.657753       -17.8984
 146   2.0000      -0.654650       -17.8139
 147   2.0000      -0.650076       -17.6895
 148   2.0000      -0.644794       -17.5457
 149   2.0000      -0.640190       -17.4205
 150   2.0000      -0.634844       -17.2750
 151   2.0000      -0.624901       -17.0044
 152   2.0000      -0.624140       -16.9837
 153   2.0000      -0.617518       -16.8035
 154   2.0000      -0.612718       -16.6729
 155   2.0000      -0.607888       -16.5415
 156   2.0000      -0.606771       -16.5111
 157   2.0000      -0.600962       -16.3530
 158   2.0000      -0.596881       -16.2420
 159   2.0000      -0.590931       -16.0800
 160   2.0000      -0.587138       -15.9768
 161   2.0000      -0.584288       -15.8993
 162   2.0000      -0.578637       -15.7455
 163   2.0000      -0.576175       -15.6785
 164   2.0000      -0.575110       -15.6495
 165   2.0000      -0.566062       -15.4033
 166   2.0000      -0.564028       -15.3480
 167   2.0000      -0.558465       -15.1966
 168   2.0000      -0.556562       -15.1448
 169   2.0000      -0.553743       -15.0681
 170   2.0000      -0.549208       -14.9447
 171   2.0000      -0.546715       -14.8769
 172   2.0000      -0.541317       -14.7300
 173   2.0000      -0.540227       -14.7003
 174   2.0000      -0.532003       -14.4765
 175   2.0000      -0.531151       -14.4534
 176   2.0000      -0.527991       -14.3674
 177   2.0000      -0.527363       -14.3503
 178   2.0000      -0.524460       -14.2713
 179   2.0000      -0.521393       -14.1878
 180   2.0000      -0.519250       -14.1295
 181   2.0000      -0.518017       -14.0960
 182   2.0000      -0.514511       -14.0006
 183   2.0000      -0.513767       -13.9803
 184   2.0000      -0.510067       -13.8796
 185   2.0000      -0.509606       -13.8671
 186   2.0000      -0.506244       -13.7756
 187   2.0000      -0.505588       -13.7578
 188   2.0000      -0.501247       -13.6396
 189   2.0000      -0.497630       -13.5412
 190   2.0000      -0.496038       -13.4979
 191   2.0000      -0.490973       -13.3601
 192   2.0000      -0.486129       -13.2282
 193   2.0000      -0.485477       -13.2105
 194   2.0000      -0.481524       -13.1029
 195   2.0000      -0.479282       -13.0419
 196   2.0000      -0.476910       -12.9774
 197   2.0000      -0.474207       -12.9038
 198   2.0000      -0.473504       -12.8847
 199   2.0000      -0.471320       -12.8253
 200   2.0000      -0.468735       -12.7549
 201   2.0000      -0.466894       -12.7048
 202   2.0000      -0.465993       -12.6803
 203   2.0000      -0.460633       -12.5345
 204   2.0000      -0.456300       -12.4165
 205   2.0000      -0.455383       -12.3916
 206   2.0000      -0.455155       -12.3854
 207   2.0000      -0.451522       -12.2865
 208   2.0000      -0.449014       -12.2183
 209   2.0000      -0.444227       -12.0880
 210   2.0000      -0.442221       -12.0335
 211   2.0000      -0.437899       -11.9158
 212   2.0000      -0.433471       -11.7953
 213   2.0000      -0.430989       -11.7278
 214   2.0000      -0.428278       -11.6540
 215   2.0000      -0.427995       -11.6463
 216   2.0000      -0.424992       -11.5646
 217   2.0000      -0.423802       -11.5322
 218   2.0000      -0.420738       -11.4489
 219   2.0000      -0.419934       -11.4270
 220   2.0000      -0.417714       -11.3666
 221   2.0000      -0.415339       -11.3020
 222   2.0000      -0.414574       -11.2811
 223   2.0000      -0.407929       -11.1003
 224   2.0000      -0.399654       -10.8751
 225   2.0000      -0.392159       -10.6712
 226   2.0000      -0.391752       -10.6601
 227   2.0000      -0.386407       -10.5147
 228   2.0000      -0.384497       -10.4627
 229   2.0000      -0.378609       -10.3025
 230   2.0000      -0.370841       -10.0911
 231   2.0000      -0.366063        -9.9611
 232   2.0000      -0.365391        -9.9428
 233   2.0000      -0.359300        -9.7771
 234   2.0000      -0.354488        -9.6461
 235   2.0000      -0.350999        -9.5512
 236   2.0000      -0.342754        -9.3268
 237   2.0000      -0.336988        -9.1699
 238   2.0000      -0.335377        -9.1261
 239   2.0000      -0.334372        -9.0987
 240   2.0000      -0.329958        -8.9786
 241   2.0000      -0.322034        -8.7630
 242   2.0000      -0.319129        -8.6839
 243   2.0000      -0.317039        -8.6271
 244   2.0000      -0.308960        -8.4072
 245   2.0000      -0.306266        -8.3339
 246   2.0000      -0.295568        -8.0428
 247   2.0000      -0.293084        -7.9752
 248   2.0000      -0.276583        -7.5262
 249   2.0000      -0.273165        -7.4332
 250   2.0000      -0.267674        -7.2838
 251   2.0000      -0.241143        -6.5618
 252   2.0000      -0.205803        -5.6002
 253   0.0000      -0.107528        -2.9260
 254   0.0000      -0.072855        -1.9825
 255   0.0000      -0.063733        -1.7343
 256   0.0000      -0.034792        -0.9467
 257   0.0000      -0.019926        -0.5422

MULLIKEN ATOMIC CHARGES
-----------------------
   0 C :   -0.135820
   1 C :    0.076269
   2 C :    0.013910
   3 C :   -0.142757
   4 S :    0.129968
   5 C :    0.187948
   6 O :   -0.170048
   7 C :   -0.104434
   8 C :    0.180017
   9 C :    0.033006
  10 N :    0.259448
  11 O :   -0.268549
  12 O :   -0.239848
  13 N :    0.206182
  14 O :   -0.221640
  15 O :   -0.230268
  16 C :    0.053710
  17 C :   -0.146383
  18 S :    0.170523
  19 C :    0.027332
  20 C :   -0.023925
  21 C :    0.040924
  22 C :    0.183866
  23 O :   -0.137562
  24 C :    0.020496
  25 C :   -0.080926
  26 C :   -0.041302
  27 C :   -0.060569
  28 C :    0.180082
  29 C :    0.209570
  30 O :   -0.240737
  31 C :    0.207907
  32 C :    0.226948
  33 C :   -0.175705
  34 S :    0.116129
  35 C :   -0.169181
  36 O :   -0.249853
  37 C :   -0.113805
  38 C :    0.073571
  39 C :   -0.117707
  40 S :    0.123021
  41 C :   -0.060717
  42 C :    0.117868
  43 C :    0.134531
  44 C :   -0.016970
  45 C :   -0.099929
  46 S :   -0.009277
  47 C :   -0.129993
  48 C :    0.038397
  49 C :   -0.068187
  50 S :   -0.037878
  51 C :   -0.099900
  52 C :    0.021139
  53 C :   -0.030042
  54 C :   -0.051929
  55 C :   -0.003657
  56 C :   -0.138981
  57 S :    0.104644
  58 C :   -0.027689
  59 C :   -0.034354
  60 C :    0.121941
  61 N :   -0.126911
  62 C :    0.071718
  63 C :    0.002533
  64 H :    0.049774
  65 H :    0.031143
  66 H :    0.009961
  67 H :    0.024562
  68 H :   -0.013827
  69 H :   -0.013940
  70 H :    0.027827
  71 H :    0.026160
  72 H :    0.024246
  73 H :    0.009572
  74 H :   -0.006896
  75 H :   -0.021573
  76 H :    0.047948
  77 H :    0.063955
  78 H :    0.017009
  79 H :    0.027718
  80 H :    0.018238
  81 H :    0.068949
  82 H :    0.048257
  83 H :    0.011912
  84 H :    0.036969
  85 H :    0.001590
  86 H :   -0.030648
  87 H :   -0.001329
  88 H :   -0.019789
  89 H :    0.034900
  90 H :   -0.019575
  91 H :    0.114325
  92 H :    0.024846
  93 H :    0.021203
  94 H :    0.025153
  95 H :    0.021195
  96 H :    0.013996
Sum of atomic charges:   -0.0000000

LOEWDIN ATOMIC CHARGES
----------------------
   0 C :   -0.148032
   1 C :   -0.062115
   2 C :   -0.087081
   3 C :   -0.149055
   4 S :    0.463049
   5 C :    0.090714
   6 O :   -0.151261
   7 C :   -0.123402
   8 C :    0.064742
   9 C :   -0.102553
  10 N :    0.279816
  11 O :   -0.224210
  12 O :   -0.205540
  13 N :    0.270326
  14 O :   -0.192237
  15 O :   -0.206427
  16 C :    0.044509
  17 C :   -0.184792
  18 S :    0.462490
  19 C :   -0.120509
  20 C :   -0.120880
  21 C :    0.045100
  22 C :    0.104925
  23 O :   -0.117359
  24 C :   -0.014227
  25 C :   -0.061376
  26 C :   -0.040343
  27 C :    0.004487
  28 C :    0.002807
  29 C :    0.070539
  30 O :   -0.039549
  31 C :   -0.012446
  32 C :   -0.007047
  33 C :   -0.211310
  34 S :    0.442502
  35 C :   -0.209104
  36 O :   -0.053143
  37 C :   -0.072840
  38 C :   -0.004856
  39 C :   -0.189193
  40 S :    0.448404
  41 C :   -0.134924
  42 C :   -0.053459
  43 C :   -0.030104
  44 C :   -0.029930
  45 C :   -0.159270
  46 S :    0.291308
  47 C :   -0.135445
  48 C :   -0.071937
  49 C :   -0.173062
  50 S :    0.273894
  51 C :   -0.121177
  52 C :   -0.079804
  53 C :   -0.021902
  54 C :   -0.081275
  55 C :   -0.015018
  56 C :   -0.232674
  57 S :    0.425248
  58 C :   -0.148245
  59 C :   -0.096662
  60 C :    0.017706
  61 N :   -0.013183
  62 C :    0.031547
  63 C :   -0.067711
  64 H :    0.028300
  65 H :    0.031487
  66 H :    0.034432
  67 H :    0.043004
  68 H :    0.029984
  69 H :    0.031380
  70 H :    0.035870
  71 H :    0.029980
  72 H :    0.029184
  73 H :    0.038784
  74 H :    0.031672
  75 H :    0.028582
  76 H :    0.024576
  77 H :    0.004599
  78 H :    0.026536
  79 H :    0.025548
  80 H :    0.023176
  81 H :    0.024378
  82 H :    0.020618
  83 H :    0.018727
  84 H :    0.027559
  85 H :    0.015592
  86 H :    0.027374
  87 H :    0.026999
  88 H :    0.020125
  89 H :    0.028722
  90 H :    0.029149
  91 H :    0.073659
  92 H :    0.024954
  93 H :    0.027724
  94 H :    0.027015
  95 H :    0.029062
  96 H :    0.023803

  Mayer bond orders larger than 0.100000
B(  0-C ,  1-C ) :   1.5602 B(  0-C ,  4-S ) :   1.1711 B(  0-C , 64-H ) :   0.9490
B(  1-C ,  2-C ) :   1.2220 B(  1-C ,  8-C ) :   1.0119 B(  2-C ,  3-C ) :   1.5684
B(  2-C ,  5-C ) :   0.9600 B(  3-C ,  4-S ) :   1.1672 B(  3-C , 65-H ) :   0.9694
B(  5-C ,  6-O ) :   2.0595 B(  5-C ,  7-C ) :   1.0035 B(  7-C ,  8-C ) :   1.1845
B(  7-C , 16-C ) :   1.4158 B(  8-C ,  9-C ) :   1.4861 B(  9-C , 10-N ) :   0.9678
B(  9-C , 13-N ) :   0.9099 B( 10-N , 11-O ) :   1.4803 B( 10-N , 12-O ) :   1.5203
B( 11-O , 12-O ) :   0.2507 B( 13-N , 14-O ) :   1.5092 B( 13-N , 15-O ) :   1.5216
B( 14-O , 15-O ) :   0.2720 B( 16-C , 17-C ) :   1.3831 B( 16-C , 66-H ) :   0.9271
B( 17-C , 18-S ) :   1.0326 B( 17-C , 21-C ) :   1.2887 B( 18-S , 19-C ) :   1.1763
B( 19-C , 20-C ) :   1.2843 B( 19-C , 25-C ) :   1.1777 B( 20-C , 21-C ) :   1.4085
B( 20-C , 22-C ) :   0.9571 B( 21-C , 67-H ) :   0.9797 B( 22-C , 23-O ) :   2.1686
B( 22-C , 24-C ) :   0.9135 B( 24-C , 25-C ) :   1.4106 B( 24-C , 26-C ) :   1.2616
B( 25-C , 68-H ) :   1.0279 B( 26-C , 27-C ) :   1.4305 B( 26-C , 69-H ) :   0.9961
B( 27-C , 28-C ) :   1.2935 B( 27-C , 70-H ) :   0.9373 B( 28-C , 29-C ) :   1.2766
B( 28-C , 36-O ) :   1.0615 B( 29-C , 30-O ) :   1.1022 B( 29-C , 37-C ) :   1.3104
B( 30-O , 31-C ) :   1.0406 B( 31-C , 32-C ) :   1.2035 B( 31-C , 35-C ) :   1.5668
B( 32-C , 33-C ) :   1.5655 B( 32-C , 36-O ) :   1.0635 B( 33-C , 34-S ) :   1.1434
B( 33-C , 71-H ) :   0.9724 B( 34-S , 35-C ) :   1.1503 B( 35-C , 72-H ) :   0.9723
B( 37-C , 38-C ) :   1.4859 B( 37-C , 73-H ) :   0.9468 B( 38-C , 39-C ) :   1.2567
B( 38-C , 74-H ) :   0.9644 B( 39-C , 40-S ) :   1.0775 B( 39-C , 43-C ) :   1.2621
B( 40-S , 41-C ) :   1.1568 B( 41-C , 42-C ) :   1.2520 B( 41-C , 54-C ) :   1.2459
B( 42-C , 43-C ) :   1.2369 B( 42-C , 53-C ) :   1.2217 B( 43-C , 44-C ) :   1.2215
B( 44-C , 45-C ) :   1.5104 B( 44-C , 75-H ) :   0.9823 B( 45-C , 46-S ) :   1.0286
B( 45-C , 49-C ) :   1.2504 B( 46-S , 47-C ) :   0.9938 B( 47-C , 48-C ) :   1.0685
B( 47-C , 76-H ) :   0.9534 B( 47-C , 77-H ) :   0.9311 B( 48-C , 78-H ) :   0.9622
B( 48-C , 79-H ) :   0.9702 B( 48-C , 80-H ) :   0.9703 B( 49-C , 50-S ) :   1.0270
B( 49-C , 53-C ) :   1.5242 B( 50-S , 51-C ) :   0.9618 B( 51-C , 52-C ) :   1.0732
B( 51-C , 81-H ) :   0.9498 B( 51-C , 82-H ) :   0.9549 B( 52-C , 83-H ) :   0.9671
B( 52-C , 84-H ) :   0.9422 B( 52-C , 85-H ) :   0.9662 B( 53-C , 86-H ) :   0.9872
B( 54-C , 55-C ) :   1.5658 B( 54-C , 87-H ) :   0.9669 B( 55-C , 56-C ) :   1.2363
B( 55-C , 88-H ) :   0.9677 B( 56-C , 57-S ) :   1.0661 B( 56-C , 60-C ) :   1.3685
B( 57-S , 58-C ) :   1.1874 B( 58-C , 59-C ) :   1.5548 B( 58-C , 89-H ) :   0.9661
B( 59-C , 60-C ) :   1.2245 B( 59-C , 90-H ) :   0.9995 B( 60-C , 61-N ) :   1.2530
B( 61-N , 62-C ) :   1.0133 B( 61-N , 91-H ) :   0.9255 B( 62-C , 63-C ) :   1.0980
B( 62-C , 92-H ) :   0.9480 B( 62-C , 93-H ) :   0.9566 B( 63-C , 94-H ) :   0.9677
B( 63-C , 95-H ) :   0.9645 B( 63-C , 96-H ) :   0.9680

-----------------------------------------------------------------------------
         ABSORPTION SPECTRUM VIA TRANSITION ELECTRIC DIPOLE MOMENTS
-----------------------------------------------------------------------------
State   Energy  Wavelength   fosc         T2         TX        TY        TZ
        (cm-1)    (nm)                  (au**2)     (au)      (au)      (au)
-----------------------------------------------------------------------------
   0    7175.0   1393.7   0.780720876  35.82210   4.78582   2.89221   2.13380
   1   15435.9    647.8   0.494925767  10.55559   1.47329  -2.68044  -1.09555
   2   16643.5    600.8   0.398599464   7.88439   0.44445  -2.42177  -1.34978
   3   16720.1    598.1   0.416027210   8.19141  -2.73893   0.82998  -0.02856
   4   20150.0    496.3   0.078820724   1.28778   0.88740  -0.03596   0.70641
   5   21527.2    464.5   0.029166743   0.44604  -0.55543   0.09806  -0.35766
   6   22299.6    448.4   0.095061742   1.40341   0.77593   0.48848   0.75015
   7   22612.3    442.2   0.103728621   1.51018  -1.22715  -0.02708  -0.05960
   8   23540.9    424.8   0.069114960   0.96655   0.79842  -0.50698  -0.26842
   9   23789.4    420.4   0.053790044   0.74438  -0.59119   0.61179  -0.14349
  10   24957.2    400.7   0.001005925   0.01327  -0.10576   0.02709  -0.03675
  11   25613.3    390.4   0.118006508   1.51676  -0.93012   0.70656  -0.39040
  12   26080.9    383.4   0.130566736   1.64811  -1.01779   0.75936  -0.18865
  13   26831.7    372.7   0.282105326   3.46129   1.05067  -1.52935   0.13594
  14   27882.2    358.7   0.025322122   0.29898   0.34004   0.20174   0.37770
  15   28412.5    352.0   0.194377801   2.25223   1.23148  -0.65273   0.55644
  16   28541.4    350.4   0.102963120   1.18763   0.79111  -0.50650   0.55247
  17   28742.0    347.9   0.268373862   3.07396   1.12420   1.05010   0.84109
  18   29374.8    340.4   0.007013097   0.07860  -0.20329   0.00013  -0.19306
  19   29714.6    336.5   0.073300057   0.81210   0.18844  -0.85251  -0.22319
  20   29981.9    333.5   0.041982886   0.46099   0.08860   0.60480   0.29555
  21   30146.1    331.7   0.046975795   0.51300   0.08303  -0.59275  -0.39339
  22   30473.2    328.2   0.094763086   1.02376  -0.70421   0.72194  -0.08148
  23   30822.6    324.4   0.072124692   0.77035  -0.70783   0.50919  -0.10032
  24   31026.4    322.3   0.043879279   0.46559   0.67254  -0.02419   0.11269
  25   31440.8    318.1   0.025641393   0.26849   0.21606   0.38145   0.27623
  26   31580.2    316.7   0.074247486   0.77400  -0.06113   0.78204   0.39835
  27   31987.0    312.6   0.011266463   0.11596   0.17301  -0.24605   0.15963
  28   32316.9    309.4   0.013394656   0.13645   0.29234  -0.00765   0.22568
  29   32716.1    305.7   0.060409918   0.60789  -0.72303  -0.07831  -0.28104
  30   33078.1    302.3   0.008687422   0.08646  -0.25333  -0.12572  -0.08049
  31   33245.0    300.8   0.003882556   0.03845   0.18103   0.07474  -0.00941
  32   33682.2    296.9   0.100995604   0.98714  -0.10441   0.98699   0.04571
  33   33906.9    294.9   0.010335016   0.10035  -0.09230   0.29624  -0.06377
  34   34182.8    292.5   0.006736129   0.06488  -0.23960  -0.08612  -0.00693
  35   34313.6    291.4   0.370400181   3.55370  -1.73894  -0.26452  -0.67810
  36   34559.6    289.4   0.103351949   0.98452   0.64723   0.63992   0.39511
  37   34746.9    287.8   0.066574698   0.63077  -0.67053  -0.27586  -0.32413
  38   35254.9    283.6   0.059552305   0.55610  -0.68263  -0.16038  -0.25377
  39   35333.7    283.0   0.012644718   0.11781  -0.16183  -0.14828  -0.26389
  40   35879.7    278.7   0.063925995   0.58655  -0.64085  -0.05094  -0.41625
  41   35907.4    278.5   0.057581983   0.52793   0.05685   0.72433  -0.00640
  42   36347.0    275.1   0.001565775   0.01418  -0.01783  -0.11755   0.00686
  43   36361.0    275.0   0.006916373   0.06262   0.14484   0.20330  -0.01767
  44   36796.9    271.8   0.025542596   0.22852  -0.39059   0.25254  -0.11040
  45   36877.0    271.2   0.011096493   0.09906  -0.11148  -0.25493  -0.14712
  46   37274.6    268.3   0.028128244   0.24843  -0.47586  -0.14004  -0.04881
  47   37492.0    266.7   0.005055123   0.04439  -0.17038  -0.09563  -0.07883
  48   37525.4    266.5   0.038106561   0.33431  -0.39866  -0.41587  -0.04936
  49   37808.7    264.5   0.016465112   0.14337  -0.23001  -0.28103  -0.10716
  50   37974.7    263.3   0.007650931   0.06633   0.08460   0.24310   0.00869
  51   38098.4    262.5   0.013067686   0.11292   0.03652  -0.30393  -0.13862
  52   38429.4    260.2   0.000805379   0.00690  -0.02289   0.07499  -0.02741
  53   38599.2    259.1   0.095594087   0.81532   0.83356  -0.32751   0.11507
  54   38857.8    257.3   0.011571572   0.09804   0.30753  -0.05882   0.00050
  55   39077.5    255.9   0.057249589   0.48230  -0.65275  -0.14636  -0.18656
  56   39257.7    254.7   0.003654252   0.03064  -0.17276   0.01731  -0.02232
  57   39439.7    253.6   0.008064242   0.06731   0.20594  -0.01666   0.15693
  58   39630.8    252.3   0.022861305   0.18991   0.31372  -0.29865  -0.04791
  59   40004.4    250.0   0.065107543   0.53580  -0.32022  -0.53511  -0.38328
  60   40141.6    249.1   0.005861620   0.04807  -0.12512  -0.12192  -0.13249

FINAL SINGLE POINT ENERGY     -5321.816046973825

DIPOLE MOMENT
-------------
                                X             Y             Z
Electronic contribution:     62.10536      58.67995      19.73490
Nuclear contribution   :    -69.81717     -61.81449     -21.72985
                        -----------------------------------------
Total Dipole Moment    :     -7.71181      -3.13454      -1.99495
                        -----------------------------------------
Magnitude (a.u.)       :      8.56021
Magnitude (Debye)      :     21.75832

Rotational constants in cm-1:     0.001080     0.000432     0.000324
Rotational constants in MHz :    32.383991    12.947843     9.722789

                             ****ORCA TERMINATED NORMALLY****
TOTAL RUN TIME: 0 days 0 hours 9 minutes 32 seconds 179 msec
