                         Program Version 4.2.0 -  RELEASE  -
|  1> # ORCA input file
|  2> # SCF done       -169.096844492957          0.000219022979
|  3> ! CAM-B3LYP def2-SVP def2/J RIJCOSX Grid4 TightSCF
|  4> %maxcore 5000
|  5> %tddft
|  6>     Mode sTDDFT
|  7>     Ethresh 5.0
|  8>     maxcore 5000
|  9> end
| 10>
| 11> %pal
| 12>   nprocs 6
| 13>   end
| 14> * xyz 0 1
| 15>    C       11.00543       -11.28148         7.07583
| 16>    C       10.51596       -10.60408         6.00132
| 17>    C        9.80716       -11.46276         5.09543
| 18>    C        9.77871       -12.75903         5.48788
| 19>    S       10.61278       -12.95711         6.98653
| 20>    C        9.29930       -10.67330         3.96717
| 21>    O        8.64082       -11.07626         3.02705
| 22>    C        9.70961        -9.29043         4.25751
| 23>    C       10.54605        -9.26714         5.42941
| 24>    C       11.33782        -8.20825         5.81956
| 25>    N       11.99292        -8.12254         7.07676
| 26>    O       12.99240        -7.43674         7.14834
| 27>    O       11.51883        -8.75251         8.00663
| 28>    N       11.64436        -7.11818         4.92053
| 29>    O       11.92617        -7.41051         3.77632
| 30>    O       11.59796        -5.99492         5.36571
| 31>    C        9.21121        -8.16613         3.61787
| 32>    C        8.51087        -8.05920         2.42397
| 33>    S        8.19111        -9.37577         1.29319
| 34>    C        7.51927        -8.27098         0.18086
| 35>    C        7.49442        -6.94004         0.67081
| 36>    C        8.04878        -6.82279         1.91661
| 37>    C        6.88924        -6.09434        -0.37594
| 38>    O        6.66508        -4.90898        -0.36541
| 39>    C        6.60132        -7.05292        -1.50721
| 40>    C        6.97703        -8.33168        -1.11199
| 41>    C        6.08495        -6.60276        -2.72695
| 42>    C        5.90973        -7.41045        -3.82552
| 43>    C        5.47534        -6.95800        -5.08208
| 44>    C        5.41187        -7.77435        -6.21980
| 45>    O        5.08526        -7.27573        -7.45619
| 46>    C        4.80370        -5.94390        -7.51359
| 47>    C        4.83535        -5.12077        -6.35233
| 48>    C        4.51767        -3.82808        -6.61539
| 49>    S        4.17530        -3.59977        -8.28825
| 50>    C        4.46344        -5.26125        -8.63621
| 51>    O        5.16186        -5.61889        -5.12988
| 52>    C        5.70238        -9.15215        -6.20795
| 53>    C        5.82280        -9.92100        -7.33758
| 54>    C        6.14362       -11.28464        -7.31548
| 55>    S        6.54414       -12.12202        -8.81732
| 56>    C        6.87642       -13.56880        -7.95924
| 57>    C        6.64693       -13.41221        -6.57535
| 58>    C        6.24648       -12.14591        -6.21547
| 59>    C        6.94836       -14.70323        -5.93399
| 60>    O        6.85650       -15.01316        -4.77065
| 61>    C        7.41808       -15.58363        -7.06699
| 62>    C        7.34148       -14.85831        -8.25432
| 63>    C        7.86215       -16.87703        -6.80654
| 64>    C        8.45315       -17.73506        -7.71228
| 65>    C        8.91330       -18.99646        -7.36322
| 66>    C        9.59713       -19.85148        -8.20979
| 67>    C       10.09697       -21.13129        -7.89040
| 68>    C       10.77225       -21.74025        -8.90813
| 69>    C       10.84131       -20.96709       -10.08701
| 70>    S       10.00368       -19.44591        -9.86323
| 71>    C       11.47317       -21.28460       -11.27347
| 72>    C       12.19670       -22.47170       -11.56965
| 73>    C       12.72913       -22.50244       -12.81294
| 74>    C       12.46302       -21.33251       -13.59775
| 75>    S       11.48796       -20.20238       -12.64396
| 76>    C       12.86108       -21.07393       -14.85158
| 77>    H       11.53481       -10.91122         7.93048
| 78>    H        9.33389       -13.60282         4.99981
| 79>    H        9.35456        -7.21422         4.11782
| 80>    H        8.15518        -5.90429         2.46596
| 81>    H        6.88742        -9.23142        -1.69198
| 82>    H        5.85708        -5.54813        -2.79589
| 83>    H        6.16068        -8.45248        -3.73185
| 84>    H        4.46693        -3.00929        -5.92895
| 85>    H        4.36653        -5.63727        -9.63301
| 86>    H        5.86051        -9.61634        -5.25118
| 87>    H        5.71135        -9.45030        -8.30384
| 88>    H        6.02614       -11.84484        -5.20819
| 89>    H        7.59507       -15.21803        -9.23415
| 90>    H        7.76094       -17.20242        -5.77784
| 91>    H        8.59614       -17.40897        -8.73427
| 92>    H        8.74987       -19.34240        -6.35056
| 93>    H        9.94752       -21.56423        -6.91706
| 94>    H       11.22106       -22.71434        -8.83648
| 95>    H       12.29876       -23.26164       -10.84721
| 96>    H       13.30948       -23.31360       -13.21472
| 97>    H       13.45472       -21.78625       -15.39672
| 98>    H       12.60463       -20.15636       -15.34852
| 99> *
|100>
|101>                          ****END OF INPUT****

CARTESIAN COORDINATES (ANGSTROEM)
---------------------------------
  C     11.005430  -11.281480    7.075830
  C     10.515960  -10.604080    6.001320
  C      9.807160  -11.462760    5.095430
  C      9.778710  -12.759030    5.487880
  S     10.612780  -12.957110    6.986530
  C      9.299300  -10.673300    3.967170
  O      8.640820  -11.076260    3.027050
  C      9.709610   -9.290430    4.257510
  C     10.546050   -9.267140    5.429410
  C     11.337820   -8.208250    5.819560
  N     11.992920   -8.122540    7.076760
  O     12.992400   -7.436740    7.148340
  O     11.518830   -8.752510    8.006630
  N     11.644360   -7.118180    4.920530
  O     11.926170   -7.410510    3.776320
  O     11.597960   -5.994920    5.365710
  C      9.211210   -8.166130    3.617870
  C      8.510870   -8.059200    2.423970
  S      8.191110   -9.375770    1.293190
  C      7.519270   -8.270980    0.180860
  C      7.494420   -6.940040    0.670810
  C      8.048780   -6.822790    1.916610
  C      6.889240   -6.094340   -0.375940
  O      6.665080   -4.908980   -0.365410
  C      6.601320   -7.052920   -1.507210
  C      6.977030   -8.331680   -1.111990
  C      6.084950   -6.602760   -2.726950
  C      5.909730   -7.410450   -3.825520
  C      5.475340   -6.958000   -5.082080
  C      5.411870   -7.774350   -6.219800
  O      5.085260   -7.275730   -7.456190
  C      4.803700   -5.943900   -7.513590
  C      4.835350   -5.120770   -6.352330
  C      4.517670   -3.828080   -6.615390
  S      4.175300   -3.599770   -8.288250
  C      4.463440   -5.261250   -8.636210
  O      5.161860   -5.618890   -5.129880
  C      5.702380   -9.152150   -6.207950
  C      5.822800   -9.921000   -7.337580
  C      6.143620  -11.284640   -7.315480
  S      6.544140  -12.122020   -8.817320
  C      6.876420  -13.568800   -7.959240
  C      6.646930  -13.412210   -6.575350
  C      6.246480  -12.145910   -6.215470
  C      6.948360  -14.703230   -5.933990
  O      6.856500  -15.013160   -4.770650
  C      7.418080  -15.583630   -7.066990
  C      7.341480  -14.858310   -8.254320
  C      7.862150  -16.877030   -6.806540
  C      8.453150  -17.735060   -7.712280
  C      8.913300  -18.996460   -7.363220
  C      9.597130  -19.851480   -8.209790
  C     10.096970  -21.131290   -7.890400
  C     10.772250  -21.740250   -8.908130
  C     10.841310  -20.967090  -10.087010
  S     10.003680  -19.445910   -9.863230
  C     11.473170  -21.284600  -11.273470
  C     12.196700  -22.471700  -11.569650
  C     12.729130  -22.502440  -12.812940
  C     12.463020  -21.332510  -13.597750
  S     11.487960  -20.202380  -12.643960
  C     12.861080  -21.073930  -14.851580
  H     11.534810  -10.911220    7.930480
  H      9.333890  -13.602820    4.999810
  H      9.354560   -7.214220    4.117820
  H      8.155180   -5.904290    2.465960
  H      6.887420   -9.231420   -1.691980
  H      5.857080   -5.548130   -2.795890
  H      6.160680   -8.452480   -3.731850
  H      4.466930   -3.009290   -5.928950
  H      4.366530   -5.637270   -9.633010
  H      5.860510   -9.616340   -5.251180
  H      5.711350   -9.450300   -8.303840
  H      6.026140  -11.844840   -5.208190
  H      7.595070  -15.218030   -9.234150
  H      7.760940  -17.202420   -5.777840
  H      8.596140  -17.408970   -8.734270
  H      8.749870  -19.342400   -6.350560
  H      9.947520  -21.564230   -6.917060
  H     11.221060  -22.714340   -8.836480
  H     12.298760  -23.261640  -10.847210
  H     13.309480  -23.313600  -13.214720
  H     13.454720  -21.786250  -15.396720
  H     12.604630  -20.156360  -15.348520

 Total Charge           Charge          ....    0
 Multiplicity           Mult            ....    1
 Number of Electrons    NEL             ....  474
 Basis Dimension        Dim             .... 1002

ORBITAL ENERGIES
----------------

  NO   OCC          E(Eh)            E(eV)
   0   2.0000     -88.978844     -2421.2374
   1   2.0000     -88.971570     -2421.0395
   2   2.0000     -88.967077     -2420.9172
   3   2.0000     -88.963087     -2420.8087
   4   2.0000     -88.954787     -2420.5828
   5   2.0000     -88.952019     -2420.5075
   6   2.0000     -19.289556      -524.8955
   7   2.0000     -19.279202      -524.6137
   8   2.0000     -19.236369      -523.4482
   9   2.0000     -19.233636      -523.3738
  10   2.0000     -19.228472      -523.2333
  11   2.0000     -19.227397      -523.2041
  12   2.0000     -19.227152      -523.1974
  13   2.0000     -19.225177      -523.1437
  14   2.0000     -19.205467      -522.6073
  15   2.0000     -14.642908      -398.4538
  16   2.0000     -14.639675      -398.3658
  17   2.0000     -10.369532      -282.1693
  18   2.0000     -10.368776      -282.1487
  19   2.0000     -10.366813      -282.0953
  20   2.0000     -10.358897      -281.8799
  21   2.0000     -10.353806      -281.7414
  22   2.0000     -10.347431      -281.5679
  23   2.0000     -10.345814      -281.5239
  24   2.0000     -10.344438      -281.4865
  25   2.0000     -10.333399      -281.1861
  26   2.0000     -10.324851      -280.9535
  27   2.0000     -10.319749      -280.8146
  28   2.0000     -10.319198      -280.7996
  29   2.0000     -10.318579      -280.7828
  30   2.0000     -10.318334      -280.7762
  31   2.0000     -10.317847      -280.7629
  32   2.0000     -10.315554      -280.7005
  33   2.0000     -10.313511      -280.6449
  34   2.0000     -10.309520      -280.5363
  35   2.0000     -10.307756      -280.4883
  36   2.0000     -10.305192      -280.4185
  37   2.0000     -10.302788      -280.3531
  38   2.0000     -10.301489      -280.3178
  39   2.0000     -10.300922      -280.3023
  40   2.0000     -10.300786      -280.2986
  41   2.0000     -10.299049      -280.2514
  42   2.0000     -10.298966      -280.2491
  43   2.0000     -10.298231      -280.2291
  44   2.0000     -10.298187      -280.2279
  45   2.0000     -10.297710      -280.2149
  46   2.0000     -10.297478      -280.2086
  47   2.0000     -10.297367      -280.2056
  48   2.0000     -10.295513      -280.1551
  49   2.0000     -10.292613      -280.0762
  50   2.0000     -10.290646      -280.0227
  51   2.0000     -10.290449      -280.0174
  52   2.0000     -10.289847      -280.0010
  53   2.0000     -10.289159      -279.9823
  54   2.0000     -10.284985      -279.8687
  55   2.0000     -10.283780      -279.8359
  56   2.0000     -10.280759      -279.7537
  57   2.0000     -10.279746      -279.7261
  58   2.0000     -10.279740      -279.7259
  59   2.0000     -10.278865      -279.7021
  60   2.0000     -10.277263      -279.6585
  61   2.0000     -10.276480      -279.6372
  62   2.0000      -8.073745      -219.6978
  63   2.0000      -8.064676      -219.4510
  64   2.0000      -8.063124      -219.4088
  65   2.0000      -8.058842      -219.2922
  66   2.0000      -8.051162      -219.0832
  67   2.0000      -8.048674      -219.0155
  68   2.0000      -6.042832      -164.4338
  69   2.0000      -6.038910      -164.3271
  70   2.0000      -6.036190      -164.2531
  71   2.0000      -6.034012      -164.1938
  72   2.0000      -6.032362      -164.1489
  73   2.0000      -6.029405      -164.0685
  74   2.0000      -6.028332      -164.0392
  75   2.0000      -6.027702      -164.0221
  76   2.0000      -6.027156      -164.0072
  77   2.0000      -6.025768      -163.9695
  78   2.0000      -6.024144      -163.9253
  79   2.0000      -6.020830      -163.8351
  80   2.0000      -6.020568      -163.8280
  81   2.0000      -6.018439      -163.7700
  82   2.0000      -6.016895      -163.7280
  83   2.0000      -6.014528      -163.6636
  84   2.0000      -6.012102      -163.5976
  85   2.0000      -6.009331      -163.5222
  86   2.0000      -1.322304       -35.9817
  87   2.0000      -1.303877       -35.4803
  88   2.0000      -1.212353       -32.9898
  89   2.0000      -1.174832       -31.9688
  90   2.0000      -1.138257       -30.9736
  91   2.0000      -1.136481       -30.9252
  92   2.0000      -1.135840       -30.9078
  93   2.0000      -1.125848       -30.6359
  94   2.0000      -1.122769       -30.5521
  95   2.0000      -1.009361       -27.4661
  96   2.0000      -1.007494       -27.4153
  97   2.0000      -1.004710       -27.3395
  98   2.0000      -1.004624       -27.3372
  99   2.0000      -0.993181       -27.0258
 100   2.0000      -0.981775       -26.7155
 101   2.0000      -0.964988       -26.2586
 102   2.0000      -0.949925       -25.8488
 103   2.0000      -0.947166       -25.7737
 104   2.0000      -0.929903       -25.3040
 105   2.0000      -0.920024       -25.0351
 106   2.0000      -0.913353       -24.8536
 107   2.0000      -0.899392       -24.4737
 108   2.0000      -0.884122       -24.0582
 109   2.0000      -0.873437       -23.7674
 110   2.0000      -0.859181       -23.3795
 111   2.0000      -0.856192       -23.2982
 112   2.0000      -0.855372       -23.2758
 113   2.0000      -0.852627       -23.2012
 114   2.0000      -0.843335       -22.9483
 115   2.0000      -0.837453       -22.7883
 116   2.0000      -0.832797       -22.6616
 117   2.0000      -0.829265       -22.5654
 118   2.0000      -0.821638       -22.3579
 119   2.0000      -0.807610       -21.9762
 120   2.0000      -0.802250       -21.8303
 121   2.0000      -0.789420       -21.4812
 122   2.0000      -0.781998       -21.2793
 123   2.0000      -0.765734       -20.8367
 124   2.0000      -0.762354       -20.7447
 125   2.0000      -0.758683       -20.6448
 126   2.0000      -0.751785       -20.4571
 127   2.0000      -0.744233       -20.2516
 128   2.0000      -0.723584       -19.6897
 129   2.0000      -0.712282       -19.3822
 130   2.0000      -0.699531       -19.0352
 131   2.0000      -0.695984       -18.9387
 132   2.0000      -0.690215       -18.7817
 133   2.0000      -0.679845       -18.4995
 134   2.0000      -0.669560       -18.2197
 135   2.0000      -0.665830       -18.1182
 136   2.0000      -0.662836       -18.0367
 137   2.0000      -0.652060       -17.7434
 138   2.0000      -0.650775       -17.7085
 139   2.0000      -0.642061       -17.4714
 140   2.0000      -0.634867       -17.2756
 141   2.0000      -0.633248       -17.2316
 142   2.0000      -0.631947       -17.1962
 143   2.0000      -0.629906       -17.1406
 144   2.0000      -0.629317       -17.1246
 145   2.0000      -0.620074       -16.8731
 146   2.0000      -0.619163       -16.8483
 147   2.0000      -0.614823       -16.7302
 148   2.0000      -0.609524       -16.5860
 149   2.0000      -0.608283       -16.5522
 150   2.0000      -0.603784       -16.4298
 151   2.0000      -0.603667       -16.4266
 152   2.0000      -0.592280       -16.1168
 153   2.0000      -0.589906       -16.0522
 154   2.0000      -0.583953       -15.8902
 155   2.0000      -0.576869       -15.6974
 156   2.0000      -0.573924       -15.6173
 157   2.0000      -0.571883       -15.5617
 158   2.0000      -0.570554       -15.5256
 159   2.0000      -0.569709       -15.5026
 160   2.0000      -0.565010       -15.3747
 161   2.0000      -0.557440       -15.1687
 162   2.0000      -0.552564       -15.0360
 163   2.0000      -0.548856       -14.9351
 164   2.0000      -0.547753       -14.9051
 165   2.0000      -0.536309       -14.5937
 166   2.0000      -0.528960       -14.3937
 167   2.0000      -0.528235       -14.3740
 168   2.0000      -0.527680       -14.3589
 169   2.0000      -0.526180       -14.3181
 170   2.0000      -0.523431       -14.2433
 171   2.0000      -0.521656       -14.1950
 172   2.0000      -0.519972       -14.1492
 173   2.0000      -0.517616       -14.0851
 174   2.0000      -0.512151       -13.9363
 175   2.0000      -0.510165       -13.8823
 176   2.0000      -0.507664       -13.8143
 177   2.0000      -0.506360       -13.7788
 178   2.0000      -0.505833       -13.7644
 179   2.0000      -0.505427       -13.7534
 180   2.0000      -0.500094       -13.6082
 181   2.0000      -0.492147       -13.3920
 182   2.0000      -0.490276       -13.3411
 183   2.0000      -0.487966       -13.2782
 184   2.0000      -0.485770       -13.2185
 185   2.0000      -0.482292       -13.1238
 186   2.0000      -0.480726       -13.0812
 187   2.0000      -0.478570       -13.0226
 188   2.0000      -0.474286       -12.9060
 189   2.0000      -0.472663       -12.8618
 190   2.0000      -0.471752       -12.8370
 191   2.0000      -0.470603       -12.8058
 192   2.0000      -0.469055       -12.7636
 193   2.0000      -0.467582       -12.7236
 194   2.0000      -0.466445       -12.6926
 195   2.0000      -0.465845       -12.6763
 196   2.0000      -0.455549       -12.3961
 197   2.0000      -0.452015       -12.3000
 198   2.0000      -0.448121       -12.1940
 199   2.0000      -0.439874       -11.9696
 200   2.0000      -0.438492       -11.9320
 201   2.0000      -0.436086       -11.8665
 202   2.0000      -0.431533       -11.7426
 203   2.0000      -0.431025       -11.7288
 204   2.0000      -0.430793       -11.7225
 205   2.0000      -0.429755       -11.6942
 206   2.0000      -0.422105       -11.4861
 207   2.0000      -0.419721       -11.4212
 208   2.0000      -0.414669       -11.2837
 209   2.0000      -0.413727       -11.2581
 210   2.0000      -0.408533       -11.1168
 211   2.0000      -0.395580       -10.7643
 212   2.0000      -0.393287       -10.7019
 213   2.0000      -0.386903       -10.5282
 214   2.0000      -0.379081       -10.3153
 215   2.0000      -0.373181       -10.1548
 216   2.0000      -0.367649       -10.0042
 217   2.0000      -0.363213        -9.8835
 218   2.0000      -0.358961        -9.7678
 219   2.0000      -0.352611        -9.5950
 220   2.0000      -0.348191        -9.4747
 221   2.0000      -0.346138        -9.4189
 222   2.0000      -0.343503        -9.3472
 223   2.0000      -0.341857        -9.3024
 224   2.0000      -0.341041        -9.2802
 225   2.0000      -0.338401        -9.2083
 226   2.0000      -0.334876        -9.1124
 227   2.0000      -0.324690        -8.8353
 228   2.0000      -0.322298        -8.7702
 229   2.0000      -0.319716        -8.6999
 230   2.0000      -0.309192        -8.4135
 231   2.0000      -0.306588        -8.3427
 232   2.0000      -0.301197        -8.1960
 233   2.0000      -0.280081        -7.6214
 234   2.0000      -0.264314        -7.1923
 235   2.0000      -0.234275        -6.3750
 236   2.0000      -0.208635        -5.6772
 237   0.0000      -0.113515        -3.0889
 238   0.0000      -0.096547        -2.6272
 239   0.0000      -0.070778        -1.9260
 240   0.0000      -0.057137        -1.5548
 241   0.0000      -0.040274        -1.0959

MULLIKEN ATOMIC CHARGES
-----------------------
   0 C :   -0.135253
   1 C :    0.068344
   2 C :    0.009735
   3 C :   -0.133285
   4 S :    0.136305
   5 C :    0.180983
   6 O :   -0.188393
   7 C :   -0.117290
   8 C :    0.204844
   9 C :    0.037316
  10 N :    0.259007
  11 O :   -0.237395
  12 O :   -0.263159
  13 N :    0.201084
  14 O :   -0.223296
  15 O :   -0.215560
  16 C :   -0.004063
  17 C :   -0.081515
  18 S :    0.236782
  19 C :    0.000643
  20 C :    0.017118
  21 C :   -0.017260
  22 C :    0.165982
  23 O :   -0.108451
  24 C :   -0.018050
  25 C :   -0.058896
  26 C :    0.001891
  27 C :   -0.035109
  28 C :    0.175534
  29 C :    0.205030
  30 O :   -0.244831
  31 C :    0.212646
  32 C :    0.221405
  33 C :   -0.171835
  34 S :    0.117737
  35 C :   -0.170295
  36 O :   -0.246588
  37 C :   -0.093606
  38 C :    0.076922
  39 C :   -0.104091
  40 S :    0.170576
  41 C :   -0.027310
  42 C :   -0.002599
  43 C :   -0.009786
  44 C :    0.161285
  45 O :   -0.115864
  46 C :   -0.025362
  47 C :   -0.049442
  48 C :   -0.017668
  49 C :    0.028949
  50 C :   -0.012884
  51 C :   -0.015473
  52 C :    0.034062
  53 C :    0.028759
  54 C :   -0.046187
  55 S :    0.080722
  56 C :   -0.062590
  57 C :    0.026348
  58 C :    0.060031
  59 C :   -0.070754
  60 S :    0.091090
  61 C :   -0.020468
  62 H :    0.051994
  63 H :    0.033489
  64 H :    0.017189
  65 H :    0.010403
  66 H :   -0.010474
  67 H :    0.011146
  68 H :   -0.016288
  69 H :    0.032143
  70 H :    0.025544
  71 H :   -0.010635
  72 H :    0.000689
  73 H :   -0.005944
  74 H :   -0.011083
  75 H :   -0.002773
  76 H :   -0.002343
  77 H :   -0.009636
  78 H :   -0.009096
  79 H :   -0.010827
  80 H :   -0.007055
  81 H :   -0.006238
  82 H :    0.026106
  83 H :    0.027168
Sum of atomic charges:    0.0000000

LOEWDIN ATOMIC CHARGES
----------------------
   0 C :   -0.146929
   1 C :   -0.062165
   2 C :   -0.087666
   3 C :   -0.145960
   4 S :    0.468755
   5 C :    0.080826
   6 O :   -0.177860
   7 C :   -0.129615
   8 C :    0.062832
   9 C :   -0.091861
  10 N :    0.279697
  11 O :   -0.202690
  12 O :   -0.218430
  13 N :    0.269812
  14 O :   -0.199007
  15 O :   -0.186635
  16 C :    0.055038
  17 C :   -0.189560
  18 S :    0.536650
  19 C :   -0.135432
  20 C :   -0.119187
  21 C :    0.032064
  22 C :    0.095312
  23 O :   -0.102681
  24 C :   -0.023953
  25 C :   -0.038519
  26 C :   -0.031340
  27 C :   -0.001043
  28 C :    0.012055
  29 C :    0.055800
  30 O :   -0.041836
  31 C :   -0.011608
  32 C :   -0.007502
  33 C :   -0.207422
  34 S :    0.444968
  35 C :   -0.208286
  36 O :   -0.047878
  37 C :   -0.059890
  38 C :   -0.012063
  39 C :   -0.182805
  40 S :    0.458946
  41 C :   -0.154490
  42 C :   -0.110186
  43 C :   -0.006664
  44 C :    0.098800
  45 O :   -0.106387
  46 C :   -0.049747
  47 C :   -0.027748
  48 C :   -0.027795
  49 C :   -0.004152
  50 C :   -0.059871
  51 C :   -0.135735
  52 C :   -0.037282
  53 C :   -0.023909
  54 C :   -0.184677
  55 S :    0.377138
  56 C :   -0.168051
  57 C :   -0.027238
  58 C :   -0.023724
  59 C :   -0.140824
  60 S :    0.363040
  61 C :   -0.062733
  62 H :    0.029139
  63 H :    0.033151
  64 H :    0.043563
  65 H :    0.045104
  66 H :    0.027419
  67 H :    0.038064
  68 H :    0.031660
  69 H :    0.032138
  70 H :    0.029762
  71 H :    0.029754
  72 H :    0.033943
  73 H :    0.036306
  74 H :    0.029108
  75 H :    0.034465
  76 H :    0.021849
  77 H :    0.035885
  78 H :    0.035249
  79 H :    0.032940
  80 H :    0.034002
  81 H :    0.035690
  82 H :    0.031368
  83 H :    0.028743

  Mayer bond orders larger than 0.100000
B(  0-C ,  1-C ) :   1.5599 B(  0-C ,  4-S ) :   1.1739 B(  0-C , 62-H ) :   0.9481
B(  1-C ,  2-C ) :   1.2208 B(  1-C ,  8-C ) :   1.0128 B(  2-C ,  3-C ) :   1.5624
B(  2-C ,  5-C ) :   0.9686 B(  3-C ,  4-S ) :   1.1703 B(  3-C , 63-H ) :   0.9711
B(  5-C ,  6-O ) :   2.1217 B(  5-C ,  7-C ) :   1.0016 B(  7-C ,  8-C ) :   1.1544
B(  7-C , 16-C ) :   1.3849 B(  8-C ,  9-C ) :   1.5204 B(  9-C , 10-N ) :   0.9635
B(  9-C , 13-N ) :   0.8969 B( 10-N , 11-O ) :   1.5228 B( 10-N , 12-O ) :   1.4842
B( 11-O , 12-O ) :   0.2529 B( 13-N , 14-O ) :   1.5265 B( 13-N , 15-O ) :   1.5156
B( 14-O , 15-O ) :   0.2772 B( 16-C , 17-C ) :   1.3855 B( 16-C , 64-H ) :   0.9563
B( 17-C , 18-S ) :   1.0537 B( 17-C , 21-C ) :   1.2622 B( 18-S , 19-C ) :   1.1635
B( 19-C , 20-C ) :   1.2951 B( 19-C , 25-C ) :   1.1427 B( 20-C , 21-C ) :   1.4169
B( 20-C , 22-C ) :   0.9141 B( 21-C , 65-H ) :   1.0122 B( 22-C , 23-O ) :   2.2863
B( 22-C , 24-C ) :   0.9086 B( 24-C , 25-C ) :   1.5092 B( 24-C , 26-C ) :   1.1873
B( 25-C , 66-H ) :   1.0124 B( 26-C , 27-C ) :   1.4968 B( 26-C , 67-H ) :   0.9898
B( 27-C , 28-C ) :   1.2608 B( 27-C , 68-H ) :   0.9557 B( 28-C , 29-C ) :   1.3341
B( 28-C , 36-O ) :   1.0725 B( 29-C , 30-O ) :   1.0950 B( 29-C , 37-C ) :   1.2412
B( 30-O , 31-C ) :   1.0388 B( 31-C , 32-C ) :   1.2054 B( 31-C , 35-C ) :   1.5658
B( 32-C , 33-C ) :   1.5696 B( 32-C , 36-O ) :   1.0550 B( 33-C , 34-S ) :   1.1443
B( 33-C , 69-H ) :   0.9723 B( 34-S , 35-C ) :   1.1496 B( 35-C , 70-H ) :   0.9736
B( 37-C , 38-C ) :   1.5889 B( 37-C , 71-H ) :   0.9531 B( 38-C , 39-C ) :   1.1682
B( 38-C , 72-H ) :   0.9714 B( 39-C , 40-S ) :   1.0826 B( 39-C , 43-C ) :   1.3883
B( 40-S , 41-C ) :   1.1421 B( 41-C , 42-C ) :   1.3780 B( 41-C , 47-C ) :   1.1297
B( 42-C , 43-C ) :   1.3656 B( 42-C , 44-C ) :   0.9234 B( 43-C , 73-H ) :   0.9969
B( 44-C , 45-O ) :   2.2708 B( 44-C , 46-C ) :   0.9134 B( 46-C , 47-C ) :   1.5110
B( 46-C , 48-C ) :   1.2155 B( 47-C , 74-H ) :   1.0156 B( 48-C , 49-C ) :   1.4987
B( 48-C , 75-H ) :   0.9773 B( 49-C , 50-C ) :   1.2358 B( 49-C , 76-H ) :   0.9711
B( 50-C , 51-C ) :   1.4822 B( 50-C , 77-H ) :   0.9854 B( 51-C , 52-C ) :   1.1697
B( 51-C , 55-S ) :   1.0509 B( 52-C , 53-C ) :   1.5680 B( 52-C , 78-H ) :   1.0002
B( 53-C , 54-C ) :   1.1980 B( 53-C , 79-H ) :   0.9935 B( 54-C , 55-S ) :   1.0401
B( 54-C , 56-C ) :   1.5168 B( 56-C , 57-C ) :   1.1627 B( 56-C , 60-S ) :   1.0605
B( 57-C , 58-C ) :   1.6531 B( 57-C , 80-H ) :   0.9921 B( 58-C , 59-C ) :   1.0827
B( 58-C , 81-H ) :   0.9932 B( 59-C , 60-S ) :   1.0068 B( 59-C , 61-C ) :   1.8578
B( 61-C , 82-H ) :   0.9514 B( 61-C , 83-H ) :   0.9420

-----------------------------------------------------------------------------
         ABSORPTION SPECTRUM VIA TRANSITION ELECTRIC DIPOLE MOMENTS
-----------------------------------------------------------------------------
State   Energy  Wavelength   fosc         T2         TX        TY        TZ
        (cm-1)    (nm)                  (au**2)     (au)      (au)      (au)
-----------------------------------------------------------------------------
   0    7756.7   1289.2   1.204509852  51.12240   0.95694  -4.65234  -5.34438
   1   11691.8    855.3   0.499396628  14.06180   2.44513  -1.71253   2.26945
   2   14342.6    697.2   0.175722580   4.03344   1.40321  -1.16152   0.84576
   3   17940.8    557.4   0.173390405   3.18170   0.65148  -1.45123   0.80697
   4   18889.5    529.4   0.385121082   6.71201   1.69989  -1.16510   1.57001
   5   19531.5    512.0   0.607026304  10.23169   1.26809  -1.37110  -2.59687
   6   20122.3    497.0   0.004594582   0.07517   0.03033   0.18491   0.20014
   7   21829.4    458.1   0.083727179   1.26270   0.40059  -0.49437  -0.92619
   8   23384.9    427.6   0.122766877   1.72831   0.51749   1.20441   0.09959
   9   24102.4    414.9   0.044180767   0.60346  -0.30972   0.67870  -0.21657
  10   24868.6    402.1   0.199689001   2.64350   0.39432  -1.39734   0.73175
  11   25199.7    396.8   0.079465799   1.03815   0.09952  -0.75759   0.67402
  12   25323.9    394.9   0.076226324   0.99095   0.28765  -0.81049   0.50130
  13   26281.3    380.5   0.000567134   0.00710   0.02602  -0.07269  -0.03381
  14   26920.4    371.5   0.118283677   1.44650   0.10044   0.92577  -0.76116
  15   27384.7    365.2   0.126218707   1.51737  -0.34938   1.14426  -0.29319
  16   28208.7    354.5   0.093661465   1.09308  -0.13783  -0.57612   0.86149
  17   28277.6    353.6   0.029378084   0.34202  -0.25378  -0.50622   0.14615
  18   28655.5    349.0   0.029836326   0.34278   0.11112   0.39033   0.42198
  19   28811.4    347.1   0.042138748   0.48150   0.12108   0.58307  -0.35618
  20   29054.2    344.2   0.030280499   0.34311  -0.22830  -0.01045  -0.53933
  21   29194.8    342.5   0.209095878   2.35785   0.39856  -0.54474   1.37923
  22   29677.0    337.0   0.009353226   0.10376   0.06902   0.06659  -0.30750
  23   30351.2    329.5   0.003352524   0.03636  -0.08947  -0.14938   0.07774
  24   30951.6    323.1   0.055003136   0.58503  -0.00749   0.59900   0.47558
  25   31169.3    320.8   0.013912953   0.14695  -0.26274   0.26422  -0.09004
  26   31299.6    319.5   0.148197981   1.55876  -0.08274   1.12290  -0.53945
  27   32306.9    309.5   0.059400457   0.60530   0.10787  -0.57077   0.51758
  28   32706.2    305.8   0.048621877   0.48942  -0.26883   0.38393  -0.51937
  29   33352.7    299.8   0.063546064   0.62724  -0.25558   0.57435  -0.48171
  30   33394.7    299.4   0.032393030   0.31934  -0.37335   0.33422  -0.26124
  31   33510.8    298.4   0.200227578   1.96705   0.23418  -1.10128   0.83629
  32   33844.2    295.5   0.000351639   0.00342  -0.00930  -0.05334   0.02211
  33   34273.4    291.8   0.092469917   0.88822   0.27071   0.89222  -0.13740
  34   34474.8    290.1   0.057302885   0.54721  -0.00520  -0.71367   0.19456
  35   34705.1    288.1   0.039932960   0.37880   0.15102  -0.43747   0.40572
  36   34802.6    287.3   0.075112378   0.71052  -0.29647   0.29725  -0.73094
  37   34917.2    286.4   0.053677188   0.50609   0.19828   0.68025   0.06350
  38   35285.9    283.4   0.095418980   0.89024   0.08101  -0.85832   0.38337
  39   35380.0    282.6   0.038488764   0.35814  -0.31806   0.44148  -0.24914
  40   35505.0    281.7   0.167707158   1.55503  -0.22804   0.93015  -0.79866
  41   35819.8    279.2   0.029423576   0.27043   0.21333  -0.20164   0.42925
  42   36121.7    276.8   0.019796692   0.18043   0.13664  -0.36357  -0.17196
  43   36290.3    275.6   0.060420367   0.54811   0.04518   0.67601   0.29846
  44   36575.3    273.4   0.048585130   0.43731  -0.21901   0.49924  -0.37431
  45   36703.3    272.5   0.079357235   0.71180   0.11552   0.24710  -0.79837
  46   37068.0    269.8   0.060464890   0.53701   0.46654  -0.29577  -0.48153
  47   37264.0    268.4   0.036334927   0.32100   0.05387   0.43614   0.35761
  48   37298.2    268.1   0.005014306   0.04426  -0.06062  -0.19193  -0.06120
  49   37459.2    267.0   0.008102047   0.07121   0.09359   0.24981   0.00614
  50   37671.0    265.5   0.000662013   0.00579  -0.01602  -0.01078   0.07357
  51   37763.7    264.8   0.042536942   0.37082   0.17358   0.33397   0.47870
  52   38037.4    262.9   0.067959173   0.58818  -0.14283   0.74681  -0.10027
  53   38182.6    261.9   0.040390336   0.34825   0.30672   0.49241   0.10820
  54   38412.0    260.3   0.010150047   0.08699  -0.21785   0.12123  -0.15759
  55   38672.8    258.6   0.023363615   0.19889   0.11511  -0.40310   0.15214
  56   38911.1    257.0   0.027506027   0.23272  -0.05059  -0.15770  -0.45309
  57   39031.4    256.2   0.015886772   0.13400  -0.27599  -0.01768  -0.23982
  58   39416.7    253.7   0.088666261   0.74055   0.44884  -0.29919   0.67051
  59   39518.9    253.0   0.059760856   0.49784  -0.19888   0.62603  -0.25762
  60   39610.1    252.5   0.050108698   0.41647  -0.25530   0.42244  -0.41574
  61   40175.6    248.9   0.031072144   0.25462   0.25343  -0.02710   0.43549

FINAL SINGLE POINT ENERGY     -4899.449510488105

DIPOLE MOMENT
-------------
                                X             Y             Z
Electronic contribution:     -2.47283      37.24259      42.46500
Nuclear contribution   :      1.43825     -41.95993     -48.37984
                        -----------------------------------------
Total Dipole Moment    :     -1.03458      -4.71734      -5.91483
                        -----------------------------------------
Magnitude (a.u.)       :      7.63603
Magnitude (Debye)      :     19.40923

Rotational constants in cm-1:     0.000780     0.000311     0.000232
Rotational constants in MHz :    23.383320     9.334906     6.945299

                             ****ORCA TERMINATED NORMALLY****
TOTAL RUN TIME: 0 days 0 hours 7 minutes 39 seconds 512 msec
