                         Program Version 4.2.0 -  RELEASE  -
|  1> # ORCA input file
|  2> # SCF done       -191.655752059969          0.000916601131
|  3> ! CAM-B3LYP def2-SVP def2/J RIJCOSX Grid4 TightSCF
|  4> %maxcore 5000
|  5> %tddft
|  6>     Mode sTDDFT
|  7>     Ethresh 5.0
|  8>     maxcore 5000
|  9> end
| 10>
| 11> %pal
| 12>   nprocs 6
| 13>   end
| 14> * xyz 0 1
| 15>    C        6.00877       -19.52991       -23.45282
| 16>    C        5.50043       -19.12938       -22.25480
| 17>    C        6.51079       -19.03139       -21.24120
| 18>    C        7.74944       -19.36056       -21.67841
| 19>    S        7.70787       -19.79394       -23.34994
| 20>    C        5.91029       -18.58333       -19.97500
| 21>    O        6.49157       -18.36324       -18.93517
| 22>    C        4.47634       -18.38795       -20.29752
| 23>    C        4.21822       -18.82515       -21.64428
| 24>    C        2.96328       -19.04968       -22.17274
| 25>    N        2.71340       -19.27513       -23.55277
| 26>    O        1.72646       -19.91459       -23.85392
| 27>    O        3.51468       -18.82443       -24.35370
| 28>    N        1.79154       -19.16224       -21.33595
| 29>    O        0.77777       -18.62322       -21.71718
| 30>    O        1.90599       -19.78954       -20.30209
| 31>    C        3.55693       -17.67652       -19.54366
| 32>    C        3.58202       -17.34333       -18.19492
| 33>    S        2.35555       -16.19233       -17.62167
| 34>    C        2.92207       -16.34022       -16.02364
| 35>    C        3.99855       -17.25516       -15.92893
| 36>    C        4.36717       -17.81185       -17.12946
| 37>    C        4.39389       -17.32583       -14.51232
| 38>    O        5.25835       -18.00417       -14.01163
| 39>    C        3.46313       -16.35327       -13.81609
| 40>    C        2.61068       -15.80253       -14.76513
| 41>    C        3.47086       -16.05636       -12.44834
| 42>    C        4.31413       -16.64850       -11.53917
| 43>    C        4.35567       -16.36159       -10.17130
| 44>    S        5.47193       -17.26879        -9.14709
| 45>    C        4.95949       -16.39740        -7.76818
| 46>    C        3.97230       -15.44078        -8.08886
| 47>    C        3.63233       -15.42186        -9.42295
| 48>    C        3.61994       -14.74465        -6.83638
| 49>    O        2.82674       -13.85148        -6.66210
| 50>    C        4.48212       -15.40144        -5.78551
| 51>    C        5.25973       -16.37666        -6.39656
| 52>    C        4.41376       -14.99758        -4.44756
| 53>    C        5.10849       -15.58005        -3.41693
| 54>    C        5.03142       -15.14005        -2.08114
| 55>    C        5.67722       -15.75988        -1.01198
| 56>    O        5.59281       -15.27546         0.27094
| 57>    C        4.82651       -14.16436         0.44797
| 58>    C        4.15084       -13.54112        -0.63914
| 59>    C        3.43616       -12.45261        -0.25969
| 60>    S        3.58025       -12.17345         1.43512
| 61>    C        4.61304       -13.53724         1.63251
| 62>    O        4.24592       -14.01894        -1.90798
| 63>    C        6.45344       -16.94127        -1.12937
| 64>    C        7.04834       -17.55191        -0.06856
| 65>    C        7.81092       -18.76041        -0.10164
| 66>    C        8.27850       -19.27434         1.09651
| 67>    C        9.00839       -20.47461         1.12901
| 68>    C        9.56139       -21.19939         2.18134
| 69>    C        9.57506       -20.91371         3.64489
| 70>    C       10.72788       -19.94744         4.00106
| 71>    N       10.49876       -18.63179         3.43287
| 72>    C        8.23362       -20.39206         4.18850
| 73>    N        8.06141       -20.86391         5.55461
| 74>    C       10.20454       -22.35226         1.59497
| 75>    C       10.88147       -23.37194         2.15798
| 76>    C       11.48473       -24.45663         1.33793
| 77>    C       11.21623       -24.35113        -0.12934
| 78>    C       10.53376       -23.33047        -0.67815
| 79>    C       10.00928       -22.29992         0.14094
| 80>    C        9.28233       -21.16120        -0.13015
| 81>    C        8.80634       -20.60935        -1.34301
| 82>    C        8.09493       -19.45668        -1.32583
| 83>    C       12.98367       -24.45350         1.56895
| 84>    C       13.65322       -25.44427         2.12360
| 85>    H        5.51470       -19.65047       -24.39568
| 86>    H        8.67308       -19.38495       -21.13603
| 87>    H        2.70226       -17.27793       -20.08161
| 88>    H        5.16105       -18.52193       -17.26490
| 89>    H        1.83661       -15.08391       -14.56679
| 90>    H        2.75756       -15.31429       -12.11137
| 91>    H        5.00297       -17.39984       -11.89920
| 92>    H        2.90253       -14.76395        -9.85759
| 93>    H        5.98052       -17.01224        -5.91668
| 94>    H        3.74839       -14.17176        -4.23581
| 95>    H        5.74742       -16.41841        -3.63416
| 96>    H        2.84167       -11.80778        -0.87193
| 97>    H        4.99944       -13.79661         2.59570
| 98>    H        6.54309       -17.36469        -2.11380
| 99>    H        6.92562       -17.10060         0.90689
|100>    H        8.08070       -18.74333         2.01399
|101>    H        9.77364       -21.85324         4.17071
|102>    H       11.67590       -20.40750         3.67229
|103>    H       10.77010       -19.83719         5.08828
|104>    H       10.54031       -18.67736         2.41992
|105>    H       11.21194       -17.98277         3.74548
|106>    H        7.41660       -20.80761         3.59329
|107>    H        8.21506       -19.29672         4.10372
|108>    H        8.74048       -20.42165         6.16525
|109>    H        7.13902       -20.62110         5.89823
|110>    H       11.03937       -23.43682         3.22612
|111>    H       11.10100       -25.41909         1.70489
|112>    H       11.62783       -25.14195        -0.73804
|113>    H       10.36931       -23.28656        -1.74500
|114>    H        9.01675       -21.11696        -2.27298
|115>    H        7.73625       -19.04130        -2.25390
|116>    H       13.48453       -23.55798         1.22842
|117>    H       13.16824       -26.34407         2.46541
|118>    H       14.72062       -25.39871         2.25708
|119> *
|120>
|121>                          ****END OF INPUT****

CARTESIAN COORDINATES (ANGSTROEM)
---------------------------------
  C      6.008770  -19.529910  -23.452820
  C      5.500430  -19.129380  -22.254800
  C      6.510790  -19.031390  -21.241200
  C      7.749440  -19.360560  -21.678410
  S      7.707870  -19.793940  -23.349940
  C      5.910290  -18.583330  -19.975000
  O      6.491570  -18.363240  -18.935170
  C      4.476340  -18.387950  -20.297520
  C      4.218220  -18.825150  -21.644280
  C      2.963280  -19.049680  -22.172740
  N      2.713400  -19.275130  -23.552770
  O      1.726460  -19.914590  -23.853920
  O      3.514680  -18.824430  -24.353700
  N      1.791540  -19.162240  -21.335950
  O      0.777770  -18.623220  -21.717180
  O      1.905990  -19.789540  -20.302090
  C      3.556930  -17.676520  -19.543660
  C      3.582020  -17.343330  -18.194920
  S      2.355550  -16.192330  -17.621670
  C      2.922070  -16.340220  -16.023640
  C      3.998550  -17.255160  -15.928930
  C      4.367170  -17.811850  -17.129460
  C      4.393890  -17.325830  -14.512320
  O      5.258350  -18.004170  -14.011630
  C      3.463130  -16.353270  -13.816090
  C      2.610680  -15.802530  -14.765130
  C      3.470860  -16.056360  -12.448340
  C      4.314130  -16.648500  -11.539170
  C      4.355670  -16.361590  -10.171300
  S      5.471930  -17.268790   -9.147090
  C      4.959490  -16.397400   -7.768180
  C      3.972300  -15.440780   -8.088860
  C      3.632330  -15.421860   -9.422950
  C      3.619940  -14.744650   -6.836380
  O      2.826740  -13.851480   -6.662100
  C      4.482120  -15.401440   -5.785510
  C      5.259730  -16.376660   -6.396560
  C      4.413760  -14.997580   -4.447560
  C      5.108490  -15.580050   -3.416930
  C      5.031420  -15.140050   -2.081140
  C      5.677220  -15.759880   -1.011980
  O      5.592810  -15.275460    0.270940
  C      4.826510  -14.164360    0.447970
  C      4.150840  -13.541120   -0.639140
  C      3.436160  -12.452610   -0.259690
  S      3.580250  -12.173450    1.435120
  C      4.613040  -13.537240    1.632510
  O      4.245920  -14.018940   -1.907980
  C      6.453440  -16.941270   -1.129370
  C      7.048340  -17.551910   -0.068560
  C      7.810920  -18.760410   -0.101640
  C      8.278500  -19.274340    1.096510
  C      9.008390  -20.474610    1.129010
  C      9.561390  -21.199390    2.181340
  C      9.575060  -20.913710    3.644890
  C     10.727880  -19.947440    4.001060
  N     10.498760  -18.631790    3.432870
  C      8.233620  -20.392060    4.188500
  N      8.061410  -20.863910    5.554610
  C     10.204540  -22.352260    1.594970
  C     10.881470  -23.371940    2.157980
  C     11.484730  -24.456630    1.337930
  C     11.216230  -24.351130   -0.129340
  C     10.533760  -23.330470   -0.678150
  C     10.009280  -22.299920    0.140940
  C      9.282330  -21.161200   -0.130150
  C      8.806340  -20.609350   -1.343010
  C      8.094930  -19.456680   -1.325830
  C     12.983670  -24.453500    1.568950
  C     13.653220  -25.444270    2.123600
  H      5.514700  -19.650470  -24.395680
  H      8.673080  -19.384950  -21.136030
  H      2.702260  -17.277930  -20.081610
  H      5.161050  -18.521930  -17.264900
  H      1.836610  -15.083910  -14.566790
  H      2.757560  -15.314290  -12.111370
  H      5.002970  -17.399840  -11.899200
  H      2.902530  -14.763950   -9.857590
  H      5.980520  -17.012240   -5.916680
  H      3.748390  -14.171760   -4.235810
  H      5.747420  -16.418410   -3.634160
  H      2.841670  -11.807780   -0.871930
  H      4.999440  -13.796610    2.595700
  H      6.543090  -17.364690   -2.113800
  H      6.925620  -17.100600    0.906890
  H      8.080700  -18.743330    2.013990
  H      9.773640  -21.853240    4.170710
  H     11.675900  -20.407500    3.672290
  H     10.770100  -19.837190    5.088280
  H     10.540310  -18.677360    2.419920
  H     11.211940  -17.982770    3.745480
  H      7.416600  -20.807610    3.593290
  H      8.215060  -19.296720    4.103720
  H      8.740480  -20.421650    6.165250
  H      7.139020  -20.621100    5.898230
  H     11.039370  -23.436820    3.226120
  H     11.101000  -25.419090    1.704890
  H     11.627830  -25.141950   -0.738040
  H     10.369310  -23.286560   -1.745000
  H      9.016750  -21.116960   -2.272980
  H      7.736250  -19.041300   -2.253900
  H     13.484530  -23.557980    1.228420
  H     13.168240  -26.344070    2.465410
  H     14.720620  -25.398710    2.257080

 Total Charge           Charge          ....    0
 Multiplicity           Mult            ....    1
 Number of Electrons    NEL             ....  516
 Basis Dimension        Dim             .... 1166

ORBITAL ENERGIES
----------------

  NO   OCC          E(Eh)            E(eV)
   0   2.0000     -88.981820     -2421.3184
   1   2.0000     -88.980183     -2421.2739
   2   2.0000     -88.966399     -2420.8988
   3   2.0000     -88.961185     -2420.7569
   4   2.0000     -19.284911      -524.7691
   5   2.0000     -19.276775      -524.5477
   6   2.0000     -19.235580      -523.4267
   7   2.0000     -19.232904      -523.3539
   8   2.0000     -19.232389      -523.3399
   9   2.0000     -19.231552      -523.3171
  10   2.0000     -19.227229      -523.1995
  11   2.0000     -19.226810      -523.1881
  12   2.0000     -19.200639      -522.4759
  13   2.0000     -14.642471      -398.4419
  14   2.0000     -14.639372      -398.3576
  15   2.0000     -14.383750      -391.4017
  16   2.0000     -14.375373      -391.1738
  17   2.0000     -10.377946      -282.3983
  18   2.0000     -10.373358      -282.2734
  19   2.0000     -10.361089      -281.9396
  20   2.0000     -10.356958      -281.8272
  21   2.0000     -10.351268      -281.6723
  22   2.0000     -10.345104      -281.5046
  23   2.0000     -10.344122      -281.4779
  24   2.0000     -10.343952      -281.4732
  25   2.0000     -10.332565      -281.1634
  26   2.0000     -10.331625      -281.1378
  27   2.0000     -10.325127      -280.9610
  28   2.0000     -10.316986      -280.7395
  29   2.0000     -10.314959      -280.6843
  30   2.0000     -10.312180      -280.6087
  31   2.0000     -10.306117      -280.4437
  32   2.0000     -10.305934      -280.4387
  33   2.0000     -10.304495      -280.3996
  34   2.0000     -10.304063      -280.3878
  35   2.0000     -10.302453      -280.3440
  36   2.0000     -10.301658      -280.3224
  37   2.0000     -10.300731      -280.2971
  38   2.0000     -10.298876      -280.2467
  39   2.0000     -10.298829      -280.2454
  40   2.0000     -10.297973      -280.2221
  41   2.0000     -10.296816      -280.1906
  42   2.0000     -10.296656      -280.1863
  43   2.0000     -10.296610      -280.1850
  44   2.0000     -10.295031      -280.1420
  45   2.0000     -10.288706      -279.9699
  46   2.0000     -10.288115      -279.9538
  47   2.0000     -10.287742      -279.9437
  48   2.0000     -10.285697      -279.8880
  49   2.0000     -10.285131      -279.8726
  50   2.0000     -10.284461      -279.8544
  51   2.0000     -10.283163      -279.8191
  52   2.0000     -10.281023      -279.7609
  53   2.0000     -10.280998      -279.7602
  54   2.0000     -10.280593      -279.7492
  55   2.0000     -10.280413      -279.7442
  56   2.0000     -10.275800      -279.6187
  57   2.0000     -10.275651      -279.6147
  58   2.0000     -10.275046      -279.5982
  59   2.0000     -10.273981      -279.5692
  60   2.0000     -10.273717      -279.5620
  61   2.0000     -10.273157      -279.5468
  62   2.0000     -10.272911      -279.5401
  63   2.0000     -10.271397      -279.4989
  64   2.0000     -10.271266      -279.4954
  65   2.0000     -10.268311      -279.4149
  66   2.0000     -10.265697      -279.3438
  67   2.0000     -10.265603      -279.3413
  68   2.0000     -10.264755      -279.3182
  69   2.0000     -10.264289      -279.3055
  70   2.0000      -8.076781      -219.7804
  71   2.0000      -8.075397      -219.7427
  72   2.0000      -8.062398      -219.3890
  73   2.0000      -8.056988      -219.2418
  74   2.0000      -6.045833      -164.5155
  75   2.0000      -6.044417      -164.4770
  76   2.0000      -6.041840      -164.4068
  77   2.0000      -6.040512      -164.3707
  78   2.0000      -6.039327      -164.3385
  79   2.0000      -6.037832      -164.2978
  80   2.0000      -6.031637      -164.1292
  81   2.0000      -6.026969      -164.0022
  82   2.0000      -6.026494      -163.9892
  83   2.0000      -6.025064      -163.9503
  84   2.0000      -6.022306      -163.8753
  85   2.0000      -6.018675      -163.7765
  86   2.0000      -1.321639       -35.9636
  87   2.0000      -1.303404       -35.4674
  88   2.0000      -1.208770       -32.8923
  89   2.0000      -1.171299       -31.8727
  90   2.0000      -1.144322       -31.1386
  91   2.0000      -1.141223       -31.0542
  92   2.0000      -1.135446       -30.8971
  93   2.0000      -1.125314       -30.6214
  94   2.0000      -1.117661       -30.4131
  95   2.0000      -1.014260       -27.5994
  96   2.0000      -1.013259       -27.5722
  97   2.0000      -1.003853       -27.3162
  98   2.0000      -0.991065       -26.9682
  99   2.0000      -0.987157       -26.8619
 100   2.0000      -0.968867       -26.3642
 101   2.0000      -0.965030       -26.2598
 102   2.0000      -0.954672       -25.9779
 103   2.0000      -0.949536       -25.8382
 104   2.0000      -0.948596       -25.8126
 105   2.0000      -0.947291       -25.7771
 106   2.0000      -0.929412       -25.2906
 107   2.0000      -0.919964       -25.0335
 108   2.0000      -0.915779       -24.9196
 109   2.0000      -0.899752       -24.4835
 110   2.0000      -0.888209       -24.1694
 111   2.0000      -0.876799       -23.8589
 112   2.0000      -0.869196       -23.6520
 113   2.0000      -0.861785       -23.4504
 114   2.0000      -0.857570       -23.3357
 115   2.0000      -0.855729       -23.2856
 116   2.0000      -0.842821       -22.9343
 117   2.0000      -0.839699       -22.8494
 118   2.0000      -0.833560       -22.6823
 119   2.0000      -0.831569       -22.6281
 120   2.0000      -0.827783       -22.5251
 121   2.0000      -0.819765       -22.3069
 122   2.0000      -0.814304       -22.1583
 123   2.0000      -0.798256       -21.7217
 124   2.0000      -0.791490       -21.5375
 125   2.0000      -0.785073       -21.3629
 126   2.0000      -0.769076       -20.9276
 127   2.0000      -0.762060       -20.7367
 128   2.0000      -0.759661       -20.6714
 129   2.0000      -0.758869       -20.6499
 130   2.0000      -0.756923       -20.5969
 131   2.0000      -0.742023       -20.1915
 132   2.0000      -0.728432       -19.8216
 133   2.0000      -0.725130       -19.7318
 134   2.0000      -0.712506       -19.3883
 135   2.0000      -0.702486       -19.1156
 136   2.0000      -0.689458       -18.7611
 137   2.0000      -0.688737       -18.7415
 138   2.0000      -0.678126       -18.4527
 139   2.0000      -0.677262       -18.4292
 140   2.0000      -0.666222       -18.1288
 141   2.0000      -0.664764       -18.0892
 142   2.0000      -0.662056       -18.0155
 143   2.0000      -0.658843       -17.9280
 144   2.0000      -0.651624       -17.7316
 145   2.0000      -0.650858       -17.7107
 146   2.0000      -0.650070       -17.6893
 147   2.0000      -0.644941       -17.5497
 148   2.0000      -0.635988       -17.3061
 149   2.0000      -0.631304       -17.1787
 150   2.0000      -0.627867       -17.0851
 151   2.0000      -0.620570       -16.8866
 152   2.0000      -0.620027       -16.8718
 153   2.0000      -0.615537       -16.7496
 154   2.0000      -0.609582       -16.5876
 155   2.0000      -0.604496       -16.4492
 156   2.0000      -0.601085       -16.3564
 157   2.0000      -0.597931       -16.2705
 158   2.0000      -0.593401       -16.1473
 159   2.0000      -0.592295       -16.1172
 160   2.0000      -0.587257       -15.9801
 161   2.0000      -0.583189       -15.8694
 162   2.0000      -0.576501       -15.6874
 163   2.0000      -0.575143       -15.6504
 164   2.0000      -0.573858       -15.6155
 165   2.0000      -0.573529       -15.6065
 166   2.0000      -0.572311       -15.5734
 167   2.0000      -0.569213       -15.4891
 168   2.0000      -0.565446       -15.3866
 169   2.0000      -0.563710       -15.3393
 170   2.0000      -0.560600       -15.2547
 171   2.0000      -0.555281       -15.1100
 172   2.0000      -0.550513       -14.9802
 173   2.0000      -0.544706       -14.8222
 174   2.0000      -0.536581       -14.6011
 175   2.0000      -0.535518       -14.5722
 176   2.0000      -0.533799       -14.5254
 177   2.0000      -0.532914       -14.5013
 178   2.0000      -0.530958       -14.4481
 179   2.0000      -0.527735       -14.3604
 180   2.0000      -0.527071       -14.3423
 181   2.0000      -0.525605       -14.3024
 182   2.0000      -0.521666       -14.1953
 183   2.0000      -0.520546       -14.1648
 184   2.0000      -0.519274       -14.1302
 185   2.0000      -0.515678       -14.0323
 186   2.0000      -0.513426       -13.9710
 187   2.0000      -0.508559       -13.8386
 188   2.0000      -0.507544       -13.8110
 189   2.0000      -0.506860       -13.7924
 190   2.0000      -0.505401       -13.7527
 191   2.0000      -0.502992       -13.6871
 192   2.0000      -0.500574       -13.6213
 193   2.0000      -0.497112       -13.5271
 194   2.0000      -0.495527       -13.4840
 195   2.0000      -0.490206       -13.3392
 196   2.0000      -0.487361       -13.2618
 197   2.0000      -0.486573       -13.2403
 198   2.0000      -0.483291       -13.1510
 199   2.0000      -0.481247       -13.0954
 200   2.0000      -0.479365       -13.0442
 201   2.0000      -0.479067       -13.0361
 202   2.0000      -0.477248       -12.9866
 203   2.0000      -0.473824       -12.8934
 204   2.0000      -0.472147       -12.8478
 205   2.0000      -0.470939       -12.8149
 206   2.0000      -0.466807       -12.7025
 207   2.0000      -0.465893       -12.6776
 208   2.0000      -0.461978       -12.5711
 209   2.0000      -0.460837       -12.5400
 210   2.0000      -0.453076       -12.3288
 211   2.0000      -0.449683       -12.2365
 212   2.0000      -0.449408       -12.2290
 213   2.0000      -0.441096       -12.0028
 214   2.0000      -0.438526       -11.9329
 215   2.0000      -0.436897       -11.8886
 216   2.0000      -0.436646       -11.8817
 217   2.0000      -0.435980       -11.8636
 218   2.0000      -0.433801       -11.8043
 219   2.0000      -0.433463       -11.7951
 220   2.0000      -0.429052       -11.6751
 221   2.0000      -0.426805       -11.6139
 222   2.0000      -0.425144       -11.5688
 223   2.0000      -0.419411       -11.4128
 224   2.0000      -0.417563       -11.3625
 225   2.0000      -0.414155       -11.2697
 226   2.0000      -0.407757       -11.0956
 227   2.0000      -0.398002       -10.8302
 228   2.0000      -0.396310       -10.7841
 229   2.0000      -0.393424       -10.7056
 230   2.0000      -0.392151       -10.6710
 231   2.0000      -0.384145       -10.4531
 232   2.0000      -0.378769       -10.3068
 233   2.0000      -0.373016       -10.1503
 234   2.0000      -0.372403       -10.1336
 235   2.0000      -0.367077        -9.9887
 236   2.0000      -0.361602        -9.8397
 237   2.0000      -0.358568        -9.7571
 238   2.0000      -0.350852        -9.5472
 239   2.0000      -0.349785        -9.5181
 240   2.0000      -0.346665        -9.4332
 241   2.0000      -0.345265        -9.3951
 242   2.0000      -0.344983        -9.3875
 243   2.0000      -0.341485        -9.2923
 244   2.0000      -0.341151        -9.2832
 245   2.0000      -0.328948        -8.9511
 246   2.0000      -0.324501        -8.8301
 247   2.0000      -0.321258        -8.7419
 248   2.0000      -0.318406        -8.6643
 249   2.0000      -0.315672        -8.5899
 250   2.0000      -0.308717        -8.4006
 251   2.0000      -0.302259        -8.2249
 252   2.0000      -0.294559        -8.0154
 253   2.0000      -0.291757        -7.9391
 254   2.0000      -0.281756        -7.6670
 255   2.0000      -0.253726        -6.9042
 256   2.0000      -0.231786        -6.3072
 257   2.0000      -0.216027        -5.8784
 258   0.0000      -0.113103        -3.0777
 259   0.0000      -0.089125        -2.4252
 260   0.0000      -0.072171        -1.9639
 261   0.0000      -0.069452        -1.8899
 262   0.0000      -0.038758        -1.0547

MULLIKEN ATOMIC CHARGES
-----------------------
   0 C :   -0.133162
   1 C :    0.070749
   2 C :    0.012022
   3 C :   -0.137770
   4 S :    0.135831
   5 C :    0.170309
   6 O :   -0.164496
   7 C :   -0.124505
   8 C :    0.198072
   9 C :    0.034037
  10 N :    0.261109
  11 O :   -0.236728
  12 O :   -0.264061
  13 N :    0.205076
  14 O :   -0.217000
  15 O :   -0.225908
  16 C :    0.046968
  17 C :   -0.139872
  18 S :    0.183826
  19 C :    0.016359
  20 C :   -0.040549
  21 C :    0.068307
  22 C :    0.180401
  23 O :   -0.119513
  24 C :    0.024829
  25 C :   -0.073506
  26 C :   -0.063718
  27 C :    0.070129
  28 C :   -0.103742
  29 S :    0.185289
  30 C :   -0.023519
  31 C :   -0.011538
  32 C :    0.004240
  33 C :    0.163846
  34 O :   -0.109362
  35 C :   -0.022764
  36 C :   -0.049177
  37 C :    0.004650
  38 C :   -0.042140
  39 C :    0.171019
  40 C :    0.200912
  41 O :   -0.246618
  42 C :    0.212544
  43 C :    0.224430
  44 C :   -0.172642
  45 S :    0.113571
  46 C :   -0.170314
  47 O :   -0.253430
  48 C :   -0.063711
  49 C :    0.013407
  50 C :    0.133945
  51 C :   -0.105081
  52 C :    0.035111
  53 C :   -0.048553
  54 C :   -0.032169
  55 C :    0.154346
  56 N :   -0.233810
  57 C :    0.100643
  58 N :   -0.208264
  59 C :    0.100431
  60 C :   -0.128333
  61 C :    0.118559
  62 C :   -0.041446
  63 C :    0.020810
  64 C :    0.014470
  65 C :    0.029353
  66 C :    0.000207
  67 C :   -0.003204
  68 C :   -0.045785
  69 C :   -0.014920
  70 H :    0.051005
  71 H :    0.033941
  72 H :    0.014806
  73 H :    0.027844
  74 H :   -0.007894
  75 H :   -0.021679
  76 H :    0.018771
  77 H :   -0.000466
  78 H :   -0.011280
  79 H :    0.011829
  80 H :   -0.015757
  81 H :    0.029287
  82 H :    0.024749
  83 H :   -0.019850
  84 H :   -0.004558
  85 H :   -0.034413
  86 H :   -0.019854
  87 H :   -0.018248
  88 H :   -0.015496
  89 H :    0.102447
  90 H :    0.095740
  91 H :   -0.000175
  92 H :    0.020437
  93 H :    0.082827
  94 H :    0.089638
  95 H :   -0.000727
  96 H :    0.028310
  97 H :   -0.008761
  98 H :   -0.035522
  99 H :   -0.039365
 100 H :   -0.044215
 101 H :    0.011817
 102 H :    0.018119
 103 H :    0.028200
Sum of atomic charges:   -0.0000000

LOEWDIN ATOMIC CHARGES
----------------------
   0 C :   -0.147142
   1 C :   -0.063691
   2 C :   -0.087319
   3 C :   -0.146421
   4 S :    0.469135
   5 C :    0.081378
   6 O :   -0.152944
   7 C :   -0.119465
   8 C :    0.062599
   9 C :   -0.094562
  10 N :    0.279934
  11 O :   -0.201900
  12 O :   -0.218777
  13 N :    0.270478
  14 O :   -0.188290
  15 O :   -0.201390
  16 C :    0.047843
  17 C :   -0.184361
  18 S :    0.477087
  19 C :   -0.125094
  20 C :   -0.119178
  21 C :    0.050822
  22 C :    0.103946
  23 O :   -0.102626
  24 C :   -0.016370
  25 C :   -0.047701
  26 C :   -0.045799
  27 C :    0.003884
  28 C :   -0.184206
  29 S :    0.473185
  30 C :   -0.149158
  31 C :   -0.110518
  32 C :    0.005189
  33 C :    0.098486
  34 O :   -0.101083
  35 C :   -0.038804
  36 C :   -0.029888
  37 C :   -0.028632
  38 C :   -0.008775
  39 C :    0.014590
  40 C :    0.052247
  41 O :   -0.041362
  42 C :   -0.010541
  43 C :   -0.007195
  44 C :   -0.209108
  45 S :    0.440947
  46 C :   -0.209022
  47 O :   -0.050925
  48 C :   -0.060175
  49 C :    0.014045
  50 C :   -0.034676
  51 C :   -0.002265
  52 C :   -0.030786
  53 C :   -0.028937
  54 C :   -0.041875
  55 C :    0.028503
  56 N :   -0.115605
  57 C :    0.023335
  58 N :   -0.118981
  59 C :   -0.019497
  60 C :    0.069499
  61 C :   -0.030124
  62 C :   -0.028278
  63 C :   -0.018477
  64 C :   -0.034411
  65 C :   -0.033361
  66 C :   -0.006123
  67 C :   -0.030376
  68 C :   -0.004200
  69 C :   -0.052944
  70 H :    0.028842
  71 H :    0.033124
  72 H :    0.034978
  73 H :    0.047048
  74 H :    0.031811
  75 H :    0.029094
  76 H :    0.036244
  77 H :    0.039830
  78 H :    0.027728
  79 H :    0.037570
  80 H :    0.030361
  81 H :    0.030978
  82 H :    0.029394
  83 H :    0.027161
  84 H :    0.033066
  85 H :    0.027264
  86 H :    0.026738
  87 H :    0.000006
  88 H :    0.011467
  89 H :    0.054508
  90 H :    0.057040
  91 H :    0.018219
  92 H :    0.002603
  93 H :    0.047440
  94 H :    0.053985
  95 H :    0.031864
  96 H :    0.055249
  97 H :    0.026107
  98 H :    0.029439
  99 H :    0.026908
 100 H :    0.020764
 101 H :    0.029307
 102 H :    0.022473
 103 H :    0.027600

  Mayer bond orders larger than 0.100000
B(  0-C ,  1-C ) :   1.5545 B(  0-C ,  4-S ) :   1.1758 B(  0-C , 70-H ) :   0.9492
B(  1-C ,  2-C ) :   1.2228 B(  1-C ,  8-C ) :   1.0130 B(  2-C ,  3-C ) :   1.5605
B(  2-C ,  5-C ) :   0.9578 B(  3-C ,  4-S ) :   1.1705 B(  3-C , 71-H ) :   0.9719
B(  5-C ,  6-O ) :   2.1756 B(  5-C ,  7-C ) :   0.9735 B(  7-C ,  8-C ) :   1.1597
B(  7-C , 16-C ) :   1.4609 B(  8-C ,  9-C ) :   1.5125 B(  9-C , 10-N ) :   0.9641
B(  9-C , 13-N ) :   0.9005 B( 10-N , 11-O ) :   1.5231 B( 10-N , 12-O ) :   1.4831
B( 11-O , 12-O ) :   0.2535 B( 13-N , 14-O ) :   1.5170 B( 13-N , 15-O ) :   1.5216
B( 14-O , 15-O ) :   0.2740 B( 16-C , 17-C ) :   1.3318 B( 16-C , 72-H ) :   0.9348
B( 17-C , 18-S ) :   1.0448 B( 17-C , 21-C ) :   1.3189 B( 18-S , 19-C ) :   1.1903
B( 19-C , 20-C ) :   1.3242 B( 19-C , 25-C ) :   1.1246 B( 20-C , 21-C ) :   1.4023
B( 20-C , 22-C ) :   0.9433 B( 21-C , 73-H ) :   0.9839 B( 22-C , 23-O ) :   2.2170
B( 22-C , 24-C ) :   0.9048 B( 24-C , 25-C ) :   1.4799 B( 24-C , 26-C ) :   1.2463
B( 25-C , 74-H ) :   1.0282 B( 26-C , 27-C ) :   1.5356 B( 26-C , 75-H ) :   0.9794
B( 27-C , 28-C ) :   1.1890 B( 27-C , 76-H ) :   0.9508 B( 28-C , 29-S ) :   1.0848
B( 28-C , 32-C ) :   1.3684 B( 29-S , 30-C ) :   1.1581 B( 30-C , 31-C ) :   1.3745
B( 30-C , 36-C ) :   1.1163 B( 31-C , 32-C ) :   1.3771 B( 31-C , 33-C ) :   0.9178
B( 32-C , 77-H ) :   1.0000 B( 33-C , 34-O ) :   2.2819 B( 33-C , 35-C ) :   0.9117
B( 35-C , 36-C ) :   1.5431 B( 35-C , 37-C ) :   1.1685 B( 36-C , 78-H ) :   1.0131
B( 37-C , 38-C ) :   1.5262 B( 37-C , 79-H ) :   0.9861 B( 38-C , 39-C ) :   1.2352
B( 38-C , 80-H ) :   0.9580 B( 39-C , 40-C ) :   1.3738 B( 39-C , 47-O ) :   1.0658
B( 40-C , 41-O ) :   1.0828 B( 40-C , 48-C ) :   1.2018 B( 41-O , 42-C ) :   1.0429
B( 42-C , 43-C ) :   1.2042 B( 42-C , 46-C ) :   1.5686 B( 43-C , 44-C ) :   1.5712
B( 43-C , 47-O ) :   1.0533 B( 44-C , 45-S ) :   1.1420 B( 44-C , 81-H ) :   0.9721
B( 45-S , 46-C ) :   1.1467 B( 46-C , 82-H ) :   0.9732 B( 48-C , 49-C ) :   1.6118
B( 48-C , 83-H ) :   0.9492 B( 49-C , 50-C ) :   1.0796 B( 49-C , 84-H ) :   0.9932
B( 50-C , 51-C ) :   1.4669 B( 50-C , 67-C ) :   1.1141 B( 51-C , 52-C ) :   1.1186
B( 51-C , 85-H ) :   1.0031 B( 52-C , 53-C ) :   1.4577 B( 52-C , 65-C ) :   1.1187
B( 53-C , 54-C ) :   1.0418 B( 53-C , 59-C ) :   1.1238 B( 54-C , 55-C ) :   1.0359
B( 54-C , 57-C ) :   1.0328 B( 54-C , 86-H ) :   0.8721 B( 55-C , 56-N ) :   1.0905
B( 55-C , 87-H ) :   0.9336 B( 55-C , 88-H ) :   0.9359 B( 56-N , 89-H ) :   0.9598
B( 56-N , 90-H ) :   0.9675 B( 57-C , 58-N ) :   1.1072 B( 57-C , 91-H ) :   0.9503
B( 57-C , 92-H ) :   0.9235 B( 58-N , 93-H ) :   0.9706 B( 58-N , 94-H ) :   0.9685
B( 59-C , 60-C ) :   1.6480 B( 59-C , 64-C ) :   1.0456 B( 60-C , 61-C ) :   0.9714
B( 60-C , 95-H ) :   0.9725 B( 61-C , 62-C ) :   0.9911 B( 61-C , 68-C ) :   0.9618
B( 61-C , 96-H ) :   0.8717 B( 62-C , 63-C ) :   1.7200 B( 62-C , 97-H ) :   0.9739
B( 63-C , 64-C ) :   1.1242 B( 63-C , 98-H ) :   0.9901 B( 64-C , 65-C ) :   1.4503
B( 65-C , 66-C ) :   1.1355 B( 66-C , 67-C ) :   1.6275 B( 66-C , 99-H ) :   0.9877
B( 67-C ,100-H ) :   0.9809 B( 68-C , 69-C ) :   2.0077 B( 68-C ,101-H ) :   0.9651
B( 69-C ,102-H ) :   0.9597 B( 69-C ,103-H ) :   0.9530

-----------------------------------------------------------------------------
         ABSORPTION SPECTRUM VIA TRANSITION ELECTRIC DIPOLE MOMENTS
-----------------------------------------------------------------------------
State   Energy  Wavelength   fosc         T2         TX        TY        TZ
        (cm-1)    (nm)                  (au**2)     (au)      (au)      (au)
-----------------------------------------------------------------------------
   0    9218.5   1084.8   1.677232690  59.89722   1.36426  -0.08562   7.61766
   1   13460.8    742.9   0.146951525   3.59402   0.59299  -1.19068  -1.35080
   2   14540.2    687.7   0.080246032   1.81689  -0.29972   0.66559   1.13316
   3   16012.8    624.5   0.055057483   1.13195  -0.34801   0.71569   0.70613
   4   18211.9    549.1   0.094367837   1.70586   0.34419  -0.13964   1.25216
   5   19032.8    525.4   0.320817203   5.54920   0.12726  -0.97964  -2.13853
   6   20445.9    489.1   0.012218242   0.19673  -0.15623   0.34402   0.23233
   7   21547.4    464.1   0.337142212   5.15103  -1.23231   1.66644  -0.92489
   8   22762.7    439.3   0.120077683   1.73666  -0.60738   0.90231  -0.74403
   9   24610.8    406.3   0.082592414   1.10482  -0.33743   0.40211  -0.91064
  10   25162.2    397.4   0.040251858   0.52664  -0.31717  -0.28612  -0.58666
  11   25494.3    392.2   0.000139861   0.00181   0.03800   0.01719  -0.00814
  12   25742.3    388.5   0.030935168   0.39562  -0.42069   0.13098   0.44887
  13   25902.8    386.1   0.063994742   0.81334   0.42932  -0.38738  -0.69207
  14   26005.1    384.5   0.000131471   0.00166  -0.00322   0.03064  -0.02674
  15   26745.6    373.9   0.089860224   1.10609   0.76264  -0.20879  -0.69345
  16   26935.1    371.3   0.426745680   5.21586  -1.23919   1.50593  -1.18846
  17   27604.4    362.3   0.076346863   0.91052   0.38066  -0.71794   0.50017
  18   28195.9    354.7   0.072854926   0.85064  -0.88481   0.07216   0.25008
  19   28375.3    352.4   0.144383371   1.67514   0.86160  -0.68681  -0.67902
  20   29080.2    343.9   0.208141639   2.35634  -0.45184   0.89875   1.15950
  21   29425.5    339.8   0.199734016   2.23462   0.99932  -0.48908   0.99840
  22   29474.3    339.3   0.083490624   0.93254   0.16834  -0.92890  -0.20334
  23   29967.4    333.7   0.041831548   0.45955   0.23199  -0.05016  -0.63499
  24   30737.6    325.3   0.045323394   0.48543   0.26172  -0.61771  -0.18807
  25   31153.0    321.0   0.016459510   0.17394   0.30867   0.18066   0.21454
  26   31222.2    320.3   0.042128661   0.44421   0.22470  -0.51707  -0.35548
  27   31913.2    313.4   0.004197850   0.04330   0.16550   0.10172   0.07463
  28   32067.5    311.8   0.115112979   1.18177   0.96909  -0.27202  -0.41066
  29   32393.6    308.7   0.014616714   0.14855  -0.06996  -0.16129   0.34298
  30   32449.9    308.2   0.020743526   0.21045  -0.16589   0.02504   0.42697
  31   32878.0    304.2   0.024863692   0.24896   0.09247   0.04030  -0.48866
  32   33177.8    301.4   0.021410615   0.21245  -0.19643  -0.04104  -0.41495
  33   33500.1    298.5   0.018229286   0.17914  -0.34743   0.08596   0.22594
  34   33967.6    294.4   0.070279129   0.68114  -0.16508  -0.14796  -0.79498
  35   34379.3    290.9   0.022214207   0.21272   0.12465  -0.14676  -0.41910
  36   34443.8    290.3   0.148031066   1.41487   0.95890  -0.37368  -0.59645
  37   34471.2    290.1   0.159667986   1.52488   0.81919   0.10278   0.91828
  38   34961.6    286.0   0.151558801   1.42714   0.55345  -1.05866   0.00805
  39   35198.2    284.1   0.047528432   0.44454  -0.15073  -0.15778  -0.63002
  40   35352.3    282.9   0.027272911   0.25397   0.23729  -0.22859   0.38133
  41   35496.6    281.7   0.108931700   1.01028   0.48930  -0.85502  -0.19954
  42   35843.0    279.0   0.048924437   0.44936  -0.25307   0.29901   0.54398
  43   36083.9    277.1   0.058594767   0.53459  -0.33420   0.45531   0.46431
  44   36367.1    275.0   0.190322778   1.72289   0.82516  -1.01521   0.10650
  45   36494.8    274.0   0.131698564   1.18802   0.42041  -0.79789  -0.61208
  46   36601.1    273.2   0.043593169   0.39210  -0.23854  -0.35593   0.45664
  47   36808.3    271.7   0.356833823   3.19151  -1.11724   1.35528  -0.32636
  48   36906.0    271.0   0.215487972   1.92222   0.92205  -1.01366   0.21102
  49   37160.9    269.1   0.000739799   0.00655   0.04729   0.00705  -0.06533
  50   37246.0    268.5   0.004953439   0.04378   0.09933  -0.18413  -0.00341
  51   37442.7    267.1   0.011060905   0.09725   0.04611  -0.06080   0.30237
  52   37734.8    265.0   0.019450259   0.16969   0.22882   0.21694   0.26508
  53   37843.8    264.2   0.007432187   0.06465   0.09854  -0.22325   0.07143
  54   37886.4    263.9   0.002555290   0.02220  -0.03428  -0.12323   0.07644
  55   37940.1    263.6   0.000937907   0.00814   0.04934   0.07083   0.02621
  56   38197.2    261.8   0.056640906   0.48817  -0.39466  -0.20997  -0.53696
  57   38250.5    261.4   0.012281416   0.10570   0.07816  -0.13269   0.28633
  58   38593.1    259.1   0.064232884   0.54793   0.57417  -0.36499   0.29162
  59   38694.6    258.4   0.017251033   0.14677  -0.11606   0.05247  -0.36131
  60   38933.4    256.8   0.095456842   0.80716   0.64931  -0.22536   0.57860
  61   39038.7    256.2   0.045997087   0.38789  -0.41237   0.45908   0.08415
  62   39213.1    255.0   0.107431620   0.90194  -0.27586   0.84941   0.32302
  63   39647.7    252.2   0.007503519   0.06230   0.21585  -0.09637  -0.08018
  64   39799.2    251.3   0.099895787   0.82632  -0.51079   0.71007   0.24742
  65   40077.9    249.5   0.030286435   0.24878   0.06730   0.08364  -0.48709
  66   40278.0    248.3   0.000702740   0.00574   0.01785   0.01148   0.07276

FINAL SINGLE POINT ENERGY     -4524.322813070999

DIPOLE MOMENT
-------------
                                X             Y             Z
Electronic contribution:    -61.30316      40.42920    -177.49071
Nuclear contribution   :     64.55582     -40.10038     184.31060
                        -----------------------------------------
Total Dipole Moment    :      3.25267       0.32881       6.81989
                        -----------------------------------------
Magnitude (a.u.)       :      7.56299
Magnitude (Debye)      :     19.22359

Rotational constants in cm-1:     0.001168     0.000171     0.000152
Rotational constants in MHz :    35.022912     5.120804     4.548956

                             ****ORCA TERMINATED NORMALLY****
TOTAL RUN TIME: 0 days 0 hours 10 minutes 14 seconds 235 msec
