                         Program Version 4.2.0 -  RELEASE  -
|  1> # ORCA input file
|  2> # SCF done       -188.557430810787          0.000350268918
|  3> ! CAM-B3LYP def2-SVP def2/J RIJCOSX Grid4 TightSCF
|  4> %maxcore 5000
|  5> %tddft
|  6>     Mode sTDDFT
|  7>     Ethresh 5.0
|  8>     maxcore 5000
|  9> end
| 10>
| 11> %pal
| 12>   nprocs 6
| 13>   end
| 14> * xyz 0 1
| 15>    C        0.15986        -1.85162         0.25798
| 16>    C        0.70827        -3.23348        -0.05853
| 17>    C        2.04657        -3.45371        -0.34862
| 18>    C        2.50154        -4.74173        -0.57871
| 19>    C        1.63010        -5.81352        -0.50558
| 20>    C        0.29782        -5.59770        -0.19278
| 21>    C       -0.16193        -4.31399         0.03218
| 22>    C       -1.09443        -1.53432        -0.54172
| 23>    C       -2.06026        -0.69169        -0.00930
| 24>    C       -3.17709        -0.35430        -0.75265
| 25>    C       -3.33211        -0.84546        -2.03701
| 26>    C       -2.36771        -1.68129        -2.57352
| 27>    C       -1.25248        -2.02568        -1.83124
| 28>    C        1.14692        -0.71075         0.06764
| 29>    C        1.40599        -0.19067         1.33150
| 30>    C        0.59058        -0.90200         2.27533
| 31>    C        0.47809        -0.70469         3.63071
| 32>    C        1.15883         0.30729         4.32598
| 33>    N        1.66259         1.12995         4.94876
| 34>    C       -0.38771        -1.50747         4.39660
| 35>    N       -1.09592        -2.15738         5.02395
| 36>    O       -0.13831        -1.84641         1.66108
| 37>    C        2.39081         0.71942         1.72056
| 38>    N        3.24767         1.41500         2.04203
| 39>    C        1.56410        -0.37193        -1.21760
| 40>    C        2.16142         0.78556        -1.68238
| 41>    C        2.54573         0.99128        -3.03115
| 42>    C        3.03220         2.23744        -3.29499
| 43>    C        3.05342         3.08078        -2.16655
| 44>    S        2.43305         2.23634        -0.76110
| 45>    C        3.49693         4.38593        -2.06456
| 46>    C        3.99093         5.23569        -3.08402
| 47>    C        4.34214         6.47465        -2.64857
| 48>    C        4.15467         6.67925        -1.25466
| 49>    S        3.49637         5.21290        -0.53077
| 50>    C        4.43344         7.83935        -0.59293
| 51>    C        4.28164         8.13906         0.77785
| 52>    N        3.87242         7.29502         1.79064
| 53>    C        3.82753         7.95221         2.97321
| 54>    C        4.20989         9.26784         2.75079
| 55>    C        4.50061         9.36970         1.37575
| 56>    S        4.98078        11.03850         1.02317
| 57>    O        6.37278        11.11132         0.68319
| 58>    O        4.03241        11.65359         0.13157
| 59>    C        4.73580        11.54910         2.76165
| 60>    C        4.35707        10.47904         3.50402
| 61>    C        4.99087        12.89039         3.10285
| 62>    C        5.31737        13.77633         2.11544
| 63>    C        5.60512        15.14144         2.22729
| 64>    C        5.84254        15.89880         1.09939
| 65>    C        6.15755        17.27547         0.99852
| 66>    C        6.30376        17.72199        -0.28264
| 67>    C        6.10231        16.71793        -1.25569
| 68>    S        5.74494        15.18634        -0.49912
| 69>    C        6.12012        16.80594        -2.63765
| 70>    C        6.37379        17.91501        -3.47216
| 71>    C        6.25997        17.63537        -4.80059
| 72>    C        5.90626        16.28901        -5.08557
| 73>    S        5.75336        15.38810        -3.59193
| 74>    C        5.66200        15.78064        -6.33666
| 75>    C        5.27519        14.46717        -6.66909
| 76>    S        4.72821        14.12482        -8.30676
| 77>    C        4.39504        12.46834        -7.99675
| 78>    C        4.69329        12.16169        -6.69120
| 79>    C        5.19258        13.28259        -5.95422
| 80>    O        5.51591        12.91061        -4.69746
| 81>    C        5.21192        11.59078        -4.61330
| 82>    N        5.49946        10.93435        -3.39242
| 83>    O        5.15219         9.76355        -3.31449
| 84>    O        6.08171        11.55248        -2.53615
| 85>    C        4.70988        11.07244        -5.77683
| 86>    H        2.74059        -2.62685        -0.39502
| 87>    H        3.54405        -4.90410        -0.80888
| 88>    H        1.98937        -6.81612        -0.68335
| 89>    H       -0.38461        -6.43116        -0.12049
| 90>    H       -1.19684        -4.13928         0.28543
| 91>    H       -1.94911        -0.30714         0.99370
| 92>    H       -3.92540         0.29620        -0.32543
| 93>    H       -4.20278        -0.58000        -2.61768
| 94>    H       -2.48364        -2.07127        -3.57388
| 95>    H       -0.51133        -2.69015        -2.25167
| 96>    H        1.32459        -1.09699        -1.98610
| 97>    H        2.45421         0.20737        -3.76213
| 98>    H        3.37795         2.56167        -4.26004
| 99>    H        4.06455         4.90360        -4.10383
|100>    H        4.72832         7.27014        -3.26079
|101>    H        4.80715         8.65874        -1.19390
|102>    H        3.65506         6.31694         1.67136
|103>    H        3.53382         7.45623         3.87723
|104>    H        4.16778        10.51744         4.56513
|105>    H        4.91600        13.19828         4.13861
|106>    H        5.34971        13.37653         1.11069
|107>    H        5.63801        15.61859         3.19725
|108>    H        6.26607        17.89324         1.87286
|109>    H        6.54116        18.73677        -0.54884
|110>    H        6.62912        18.88117        -3.07486
|111>    H        6.40996        18.35136        -5.58934
|112>    H        5.73028        16.46987        -7.16765
|113>    H        4.01517        11.84000        -8.77448
|114>    H        4.41106        10.05842        -5.94197
|115> *
|116>
|117>                          ****END OF INPUT****

CARTESIAN COORDINATES (ANGSTROEM)
---------------------------------
  C      0.159860   -1.851620    0.257980
  C      0.708270   -3.233480   -0.058530
  C      2.046570   -3.453710   -0.348620
  C      2.501540   -4.741730   -0.578710
  C      1.630100   -5.813520   -0.505580
  C      0.297820   -5.597700   -0.192780
  C     -0.161930   -4.313990    0.032180
  C     -1.094430   -1.534320   -0.541720
  C     -2.060260   -0.691690   -0.009300
  C     -3.177090   -0.354300   -0.752650
  C     -3.332110   -0.845460   -2.037010
  C     -2.367710   -1.681290   -2.573520
  C     -1.252480   -2.025680   -1.831240
  C      1.146920   -0.710750    0.067640
  C      1.405990   -0.190670    1.331500
  C      0.590580   -0.902000    2.275330
  C      0.478090   -0.704690    3.630710
  C      1.158830    0.307290    4.325980
  N      1.662590    1.129950    4.948760
  C     -0.387710   -1.507470    4.396600
  N     -1.095920   -2.157380    5.023950
  O     -0.138310   -1.846410    1.661080
  C      2.390810    0.719420    1.720560
  N      3.247670    1.415000    2.042030
  C      1.564100   -0.371930   -1.217600
  C      2.161420    0.785560   -1.682380
  C      2.545730    0.991280   -3.031150
  C      3.032200    2.237440   -3.294990
  C      3.053420    3.080780   -2.166550
  S      2.433050    2.236340   -0.761100
  C      3.496930    4.385930   -2.064560
  C      3.990930    5.235690   -3.084020
  C      4.342140    6.474650   -2.648570
  C      4.154670    6.679250   -1.254660
  S      3.496370    5.212900   -0.530770
  C      4.433440    7.839350   -0.592930
  C      4.281640    8.139060    0.777850
  N      3.872420    7.295020    1.790640
  C      3.827530    7.952210    2.973210
  C      4.209890    9.267840    2.750790
  C      4.500610    9.369700    1.375750
  S      4.980780   11.038500    1.023170
  O      6.372780   11.111320    0.683190
  O      4.032410   11.653590    0.131570
  C      4.735800   11.549100    2.761650
  C      4.357070   10.479040    3.504020
  C      4.990870   12.890390    3.102850
  C      5.317370   13.776330    2.115440
  C      5.605120   15.141440    2.227290
  C      5.842540   15.898800    1.099390
  C      6.157550   17.275470    0.998520
  C      6.303760   17.721990   -0.282640
  C      6.102310   16.717930   -1.255690
  S      5.744940   15.186340   -0.499120
  C      6.120120   16.805940   -2.637650
  C      6.373790   17.915010   -3.472160
  C      6.259970   17.635370   -4.800590
  C      5.906260   16.289010   -5.085570
  S      5.753360   15.388100   -3.591930
  C      5.662000   15.780640   -6.336660
  C      5.275190   14.467170   -6.669090
  S      4.728210   14.124820   -8.306760
  C      4.395040   12.468340   -7.996750
  C      4.693290   12.161690   -6.691200
  C      5.192580   13.282590   -5.954220
  O      5.515910   12.910610   -4.697460
  C      5.211920   11.590780   -4.613300
  N      5.499460   10.934350   -3.392420
  O      5.152190    9.763550   -3.314490
  O      6.081710   11.552480   -2.536150
  C      4.709880   11.072440   -5.776830
  H      2.740590   -2.626850   -0.395020
  H      3.544050   -4.904100   -0.808880
  H      1.989370   -6.816120   -0.683350
  H     -0.384610   -6.431160   -0.120490
  H     -1.196840   -4.139280    0.285430
  H     -1.949110   -0.307140    0.993700
  H     -3.925400    0.296200   -0.325430
  H     -4.202780   -0.580000   -2.617680
  H     -2.483640   -2.071270   -3.573880
  H     -0.511330   -2.690150   -2.251670
  H      1.324590   -1.096990   -1.986100
  H      2.454210    0.207370   -3.762130
  H      3.377950    2.561670   -4.260040
  H      4.064550    4.903600   -4.103830
  H      4.728320    7.270140   -3.260790
  H      4.807150    8.658740   -1.193900
  H      3.655060    6.316940    1.671360
  H      3.533820    7.456230    3.877230
  H      4.167780   10.517440    4.565130
  H      4.916000   13.198280    4.138610
  H      5.349710   13.376530    1.110690
  H      5.638010   15.618590    3.197250
  H      6.266070   17.893240    1.872860
  H      6.541160   18.736770   -0.548840
  H      6.629120   18.881170   -3.074860
  H      6.409960   18.351360   -5.589340
  H      5.730280   16.469870   -7.167650
  H      4.015170   11.840000   -8.774480
  H      4.411060   10.058420   -5.941970

 Total Charge           Charge          ....    0
 Multiplicity           Mult            ....    1
 Number of Electrons    NEL             ....  532
 Basis Dimension        Dim             .... 1163

ORBITAL ENERGIES
----------------

  NO   OCC          E(Eh)            E(eV)
   0   2.0000     -89.136381     -2425.5242
   1   2.0000     -88.979276     -2421.2492
   2   2.0000     -88.969285     -2420.9773
   3   2.0000     -88.960423     -2420.7362
   4   2.0000     -88.941311     -2420.2161
   5   2.0000     -88.938992     -2420.1530
   6   2.0000     -19.312842      -525.5291
   7   2.0000     -19.272437      -524.4297
   8   2.0000     -19.257342      -524.0189
   9   2.0000     -19.253405      -523.9118
  10   2.0000     -19.187115      -522.1079
  11   2.0000     -19.184126      -522.0266
  12   2.0000     -14.665737      -399.0750
  13   2.0000     -14.486338      -394.1933
  14   2.0000     -14.394960      -391.7068
  15   2.0000     -14.375875      -391.1875
  16   2.0000     -14.374600      -391.1528
  17   2.0000     -10.394306      -282.8434
  18   2.0000     -10.371315      -282.2178
  19   2.0000     -10.357322      -281.8370
  20   2.0000     -10.351882      -281.6890
  21   2.0000     -10.342524      -281.4344
  22   2.0000     -10.332019      -281.1485
  23   2.0000     -10.332004      -281.1481
  24   2.0000     -10.324781      -280.9516
  25   2.0000     -10.323810      -280.9252
  26   2.0000     -10.321952      -280.8746
  27   2.0000     -10.319746      -280.8146
  28   2.0000     -10.319102      -280.7970
  29   2.0000     -10.317531      -280.7543
  30   2.0000     -10.316805      -280.7345
  31   2.0000     -10.312840      -280.6266
  32   2.0000     -10.309264      -280.5293
  33   2.0000     -10.308811      -280.5170
  34   2.0000     -10.308356      -280.5046
  35   2.0000     -10.307119      -280.4710
  36   2.0000     -10.306855      -280.4638
  37   2.0000     -10.305672      -280.4316
  38   2.0000     -10.304871      -280.4098
  39   2.0000     -10.304053      -280.3875
  40   2.0000     -10.301669      -280.3227
  41   2.0000     -10.300382      -280.2876
  42   2.0000     -10.298006      -280.2230
  43   2.0000     -10.296633      -280.1856
  44   2.0000     -10.292937      -280.0851
  45   2.0000     -10.292878      -280.0834
  46   2.0000     -10.291457      -280.0448
  47   2.0000     -10.290306      -280.0135
  48   2.0000     -10.289848      -280.0010
  49   2.0000     -10.286885      -279.9204
  50   2.0000     -10.285557      -279.8842
  51   2.0000     -10.285282      -279.8768
  52   2.0000     -10.284737      -279.8619
  53   2.0000     -10.283592      -279.8308
  54   2.0000     -10.283267      -279.8219
  55   2.0000     -10.281701      -279.7793
  56   2.0000     -10.281670      -279.7785
  57   2.0000     -10.280491      -279.7464
  58   2.0000     -10.279756      -279.7264
  59   2.0000     -10.276430      -279.6359
  60   2.0000     -10.275922      -279.6221
  61   2.0000     -10.273067      -279.5444
  62   2.0000     -10.272695      -279.5342
  63   2.0000     -10.271725      -279.5078
  64   2.0000     -10.270694      -279.4798
  65   2.0000     -10.270493      -279.4743
  66   2.0000     -10.270309      -279.4693
  67   2.0000     -10.270111      -279.4639
  68   2.0000     -10.269966      -279.4600
  69   2.0000     -10.269844      -279.4567
  70   2.0000     -10.269448      -279.4459
  71   2.0000      -8.200355      -223.1430
  72   2.0000      -8.074246      -219.7114
  73   2.0000      -8.065648      -219.4774
  74   2.0000      -8.056316      -219.2235
  75   2.0000      -8.037680      -218.7164
  76   2.0000      -8.035289      -218.6513
  77   2.0000      -6.169499      -167.8806
  78   2.0000      -6.169051      -167.8684
  79   2.0000      -6.168638      -167.8572
  80   2.0000      -6.043589      -164.4544
  81   2.0000      -6.039265      -164.3368
  82   2.0000      -6.036565      -164.2633
  83   2.0000      -6.035341      -164.2300
  84   2.0000      -6.031328      -164.1208
  85   2.0000      -6.026629      -163.9929
  86   2.0000      -6.025871      -163.9723
  87   2.0000      -6.021664      -163.8578
  88   2.0000      -6.017603      -163.7473
  89   2.0000      -6.007440      -163.4708
  90   2.0000      -6.004997      -163.4043
  91   2.0000      -6.003260      -163.3570
  92   2.0000      -6.000948      -163.2941
  93   2.0000      -5.998432      -163.2256
  94   2.0000      -5.996144      -163.1634
  95   2.0000      -1.337265       -36.3888
  96   2.0000      -1.235421       -33.6175
  97   2.0000      -1.194573       -32.5060
  98   2.0000      -1.191131       -32.4123
  99   2.0000      -1.153960       -31.4008
 100   2.0000      -1.100297       -29.9406
 101   2.0000      -1.069101       -29.0917
 102   2.0000      -1.013525       -27.5794
 103   2.0000      -1.001521       -27.2528
 104   2.0000      -0.994449       -27.0603
 105   2.0000      -0.991682       -26.9850
 106   2.0000      -0.983018       -26.7493
 107   2.0000      -0.974090       -26.5063
 108   2.0000      -0.973368       -26.4867
 109   2.0000      -0.964756       -26.2523
 110   2.0000      -0.957112       -26.0443
 111   2.0000      -0.953917       -25.9574
 112   2.0000      -0.947763       -25.7899
 113   2.0000      -0.941716       -25.6254
 114   2.0000      -0.935242       -25.4492
 115   2.0000      -0.913094       -24.8466
 116   2.0000      -0.912056       -24.8183
 117   2.0000      -0.910813       -24.7845
 118   2.0000      -0.902712       -24.5640
 119   2.0000      -0.885856       -24.1054
 120   2.0000      -0.880241       -23.9526
 121   2.0000      -0.870768       -23.6948
 122   2.0000      -0.864978       -23.5372
 123   2.0000      -0.859729       -23.3944
 124   2.0000      -0.852740       -23.2042
 125   2.0000      -0.844390       -22.9770
 126   2.0000      -0.837465       -22.7886
 127   2.0000      -0.836545       -22.7635
 128   2.0000      -0.834567       -22.7097
 129   2.0000      -0.832020       -22.6404
 130   2.0000      -0.829913       -22.5831
 131   2.0000      -0.823455       -22.4074
 132   2.0000      -0.814934       -22.1755
 133   2.0000      -0.808505       -22.0005
 134   2.0000      -0.797345       -21.6969
 135   2.0000      -0.788489       -21.4559
 136   2.0000      -0.777775       -21.1643
 137   2.0000      -0.772440       -21.0192
 138   2.0000      -0.751355       -20.4454
 139   2.0000      -0.745471       -20.2853
 140   2.0000      -0.726858       -19.7788
 141   2.0000      -0.715262       -19.4633
 142   2.0000      -0.714613       -19.4456
 143   2.0000      -0.710484       -19.3333
 144   2.0000      -0.703107       -19.1325
 145   2.0000      -0.695308       -18.9203
 146   2.0000      -0.690247       -18.7826
 147   2.0000      -0.687288       -18.7021
 148   2.0000      -0.683534       -18.5999
 149   2.0000      -0.680116       -18.5069
 150   2.0000      -0.673123       -18.3166
 151   2.0000      -0.670446       -18.2438
 152   2.0000      -0.665623       -18.1125
 153   2.0000      -0.660582       -17.9754
 154   2.0000      -0.651974       -17.7411
 155   2.0000      -0.649206       -17.6658
 156   2.0000      -0.648068       -17.6348
 157   2.0000      -0.638390       -17.3715
 158   2.0000      -0.635511       -17.2931
 159   2.0000      -0.633937       -17.2503
 160   2.0000      -0.627179       -17.0664
 161   2.0000      -0.626982       -17.0610
 162   2.0000      -0.623524       -16.9670
 163   2.0000      -0.618424       -16.8282
 164   2.0000      -0.617153       -16.7936
 165   2.0000      -0.615918       -16.7600
 166   2.0000      -0.609033       -16.5726
 167   2.0000      -0.602701       -16.4003
 168   2.0000      -0.597664       -16.2633
 169   2.0000      -0.597069       -16.2471
 170   2.0000      -0.591913       -16.1068
 171   2.0000      -0.581061       -15.8115
 172   2.0000      -0.579425       -15.7669
 173   2.0000      -0.573397       -15.6029
 174   2.0000      -0.571843       -15.5606
 175   2.0000      -0.562044       -15.2940
 176   2.0000      -0.558560       -15.1992
 177   2.0000      -0.557524       -15.1710
 178   2.0000      -0.552639       -15.0381
 179   2.0000      -0.547884       -14.9087
 180   2.0000      -0.541479       -14.7344
 181   2.0000      -0.541069       -14.7232
 182   2.0000      -0.534739       -14.5510
 183   2.0000      -0.531700       -14.4683
 184   2.0000      -0.529902       -14.4194
 185   2.0000      -0.529168       -14.3994
 186   2.0000      -0.527330       -14.3494
 187   2.0000      -0.525823       -14.3084
 188   2.0000      -0.520509       -14.1638
 189   2.0000      -0.519497       -14.1362
 190   2.0000      -0.514253       -13.9935
 191   2.0000      -0.513841       -13.9823
 192   2.0000      -0.512202       -13.9377
 193   2.0000      -0.510113       -13.8809
 194   2.0000      -0.506819       -13.7912
 195   2.0000      -0.506013       -13.7693
 196   2.0000      -0.502995       -13.6872
 197   2.0000      -0.502009       -13.6604
 198   2.0000      -0.500320       -13.6144
 199   2.0000      -0.498007       -13.5515
 200   2.0000      -0.497472       -13.5369
 201   2.0000      -0.496056       -13.4984
 202   2.0000      -0.488041       -13.2803
 203   2.0000      -0.484625       -13.1873
 204   2.0000      -0.480998       -13.0886
 205   2.0000      -0.477335       -12.9889
 206   2.0000      -0.476824       -12.9750
 207   2.0000      -0.474122       -12.9015
 208   2.0000      -0.470667       -12.8075
 209   2.0000      -0.467616       -12.7245
 210   2.0000      -0.464810       -12.6481
 211   2.0000      -0.462592       -12.5878
 212   2.0000      -0.458490       -12.4762
 213   2.0000      -0.457004       -12.4357
 214   2.0000      -0.451631       -12.2895
 215   2.0000      -0.450835       -12.2678
 216   2.0000      -0.449962       -12.2441
 217   2.0000      -0.446005       -12.1364
 218   2.0000      -0.444283       -12.0896
 219   2.0000      -0.441775       -12.0213
 220   2.0000      -0.440091       -11.9755
 221   2.0000      -0.439272       -11.9532
 222   2.0000      -0.432614       -11.7720
 223   2.0000      -0.432018       -11.7558
 224   2.0000      -0.425968       -11.5912
 225   2.0000      -0.422344       -11.4926
 226   2.0000      -0.421461       -11.4685
 227   2.0000      -0.419357       -11.4113
 228   2.0000      -0.417383       -11.3576
 229   2.0000      -0.414636       -11.2828
 230   2.0000      -0.413052       -11.2397
 231   2.0000      -0.411275       -11.1914
 232   2.0000      -0.407007       -11.0752
 233   2.0000      -0.405366       -11.0306
 234   2.0000      -0.403212       -10.9720
 235   2.0000      -0.402175       -10.9437
 236   2.0000      -0.401002       -10.9118
 237   2.0000      -0.393489       -10.7074
 238   2.0000      -0.391608       -10.6562
 239   2.0000      -0.389856       -10.6085
 240   2.0000      -0.387687       -10.5495
 241   2.0000      -0.386982       -10.5303
 242   2.0000      -0.384370       -10.4592
 243   2.0000      -0.381496       -10.3810
 244   2.0000      -0.378974       -10.3124
 245   2.0000      -0.369811       -10.0631
 246   2.0000      -0.367010        -9.9869
 247   2.0000      -0.359298        -9.7770
 248   2.0000      -0.353225        -9.6117
 249   2.0000      -0.346262        -9.4223
 250   2.0000      -0.342916        -9.3312
 251   2.0000      -0.340845        -9.2749
 252   2.0000      -0.336036        -9.1440
 253   2.0000      -0.334694        -9.1075
 254   2.0000      -0.327389        -8.9087
 255   2.0000      -0.326019        -8.8714
 256   2.0000      -0.323696        -8.8082
 257   2.0000      -0.319886        -8.7045
 258   2.0000      -0.318726        -8.6730
 259   2.0000      -0.314678        -8.5628
 260   2.0000      -0.308217        -8.3870
 261   2.0000      -0.298614        -8.1257
 262   2.0000      -0.277971        -7.5640
 263   2.0000      -0.264021        -7.1844
 264   2.0000      -0.231012        -6.2861
 265   2.0000      -0.207962        -5.6589
 266   0.0000      -0.102653        -2.7933
 267   0.0000      -0.087642        -2.3849
 268   0.0000      -0.068889        -1.8746
 269   0.0000      -0.038259        -1.0411
 270   0.0000      -0.027175        -0.7395

MULLIKEN ATOMIC CHARGES
-----------------------
   0 C :    0.114869
   1 C :    0.023441
   2 C :   -0.003173
   3 C :    0.024342
   4 C :    0.034330
   5 C :    0.018023
   6 C :    0.007685
   7 C :    0.062442
   8 C :   -0.028026
   9 C :    0.026149
  10 C :    0.031428
  11 C :    0.024013
  12 C :   -0.015712
  13 C :    0.136660
  14 C :   -0.167088
  15 C :    0.344492
  16 C :   -0.422771
  17 C :   -0.202894
  18 N :    0.165658
  19 C :   -0.171473
  20 N :    0.143252
  21 O :   -0.244429
  22 C :   -0.294253
  23 N :    0.202079
  24 C :   -0.098831
  25 C :    0.001113
  26 C :    0.014646
  27 C :    0.050994
  28 C :   -0.069140
  29 S :    0.138977
  30 C :   -0.011159
  31 C :    0.019790
  32 C :    0.065393
  33 C :   -0.046434
  34 S :    0.068817
  35 C :    0.009823
  36 C :   -0.013936
  37 N :   -0.045225
  38 C :    0.012644
  39 C :    0.060074
  40 C :   -0.031058
  41 S :    0.760728
  42 O :   -0.443389
  43 O :   -0.459140
  44 C :   -0.005619
  45 C :    0.028550
  46 C :    0.009580
  47 C :   -0.005686
  48 C :   -0.000225
  49 C :   -0.018724
  50 C :    0.032214
  51 C :    0.035327
  52 C :   -0.043784
  53 S :    0.089548
  54 C :   -0.039859
  55 C :    0.037990
  56 C :    0.029072
  57 C :   -0.028628
  58 S :    0.099471
  59 C :    0.041257
  60 C :   -0.231102
  61 S :    0.149234
  62 C :   -0.138719
  63 C :    0.121501
  64 C :    0.198274
  65 O :   -0.188227
  66 C :    0.253349
  67 N :    0.288728
  68 O :   -0.269068
  69 O :   -0.180536
  70 C :   -0.077309
  71 H :   -0.002521
  72 H :   -0.014290
  73 H :   -0.011747
  74 H :   -0.008760
  75 H :   -0.001272
  76 H :   -0.002452
  77 H :   -0.010800
  78 H :   -0.013104
  79 H :   -0.017807
  80 H :   -0.000615
  81 H :   -0.014135
  82 H :   -0.007991
  83 H :   -0.007860
  84 H :   -0.008707
  85 H :    0.010971
  86 H :    0.000898
  87 H :    0.147120
  88 H :    0.018109
  89 H :   -0.013332
  90 H :   -0.018257
  91 H :    0.048135
  92 H :   -0.017819
  93 H :   -0.011220
  94 H :   -0.012805
  95 H :   -0.013606
  96 H :   -0.012704
  97 H :   -0.021354
  98 H :    0.031236
  99 H :    0.006353
Sum of atomic charges:   -0.0000000

LOEWDIN ATOMIC CHARGES
----------------------
   0 C :    0.078331
   1 C :   -0.033579
   2 C :   -0.022486
   3 C :   -0.021603
   4 C :   -0.016737
   5 C :   -0.018256
   6 C :   -0.001164
   7 C :   -0.025350
   8 C :   -0.011697
   9 C :   -0.015682
  10 C :   -0.020267
  11 C :   -0.021591
  12 C :   -0.023342
  13 C :    0.045265
  14 C :   -0.143635
  15 C :    0.136837
  16 C :   -0.201385
  17 C :   -0.032280
  18 N :   -0.064237
  19 C :   -0.024756
  20 N :   -0.070559
  21 O :   -0.039477
  22 C :   -0.059954
  23 N :   -0.050826
  24 C :   -0.109293
  25 C :   -0.103856
  26 C :   -0.053046
  27 C :   -0.007992
  28 C :   -0.208262
  29 S :    0.452986
  30 C :   -0.129390
  31 C :   -0.053058
  32 C :    0.013997
  33 C :   -0.165470
  34 S :    0.385734
  35 C :   -0.000943
  36 C :   -0.018827
  37 N :    0.105404
  38 C :    0.028054
  39 C :   -0.082172
  40 C :   -0.193289
  41 S :    1.173676
  42 O :   -0.486046
  43 O :   -0.498748
  44 C :   -0.142788
  45 C :   -0.027331
  46 C :   -0.046110
  47 C :   -0.016784
  48 C :   -0.059793
  49 C :   -0.129644
  50 C :   -0.034764
  51 C :   -0.025985
  52 C :   -0.176474
  53 S :    0.408630
  54 C :   -0.179419
  55 C :   -0.029565
  56 C :   -0.035196
  57 C :   -0.141569
  58 S :    0.404326
  59 C :   -0.089962
  60 C :   -0.196324
  61 S :    0.474536
  62 C :   -0.191771
  63 C :   -0.080976
  64 C :    0.008833
  65 O :    0.002338
  66 C :    0.028909
  67 N :    0.279931
  68 O :   -0.233160
  69 O :   -0.146930
  70 C :   -0.010453
  71 H :    0.031148
  72 H :    0.029411
  73 H :    0.029256
  74 H :    0.030960
  75 H :    0.035359
  76 H :    0.032736
  77 H :    0.030995
  78 H :    0.028570
  79 H :    0.028217
  80 H :    0.029121
  81 H :    0.036717
  82 H :    0.034290
  83 H :    0.034679
  84 H :    0.034381
  85 H :    0.042561
  86 H :    0.048899
  87 H :    0.080334
  88 H :    0.032958
  89 H :    0.035366
  90 H :    0.033275
  91 H :    0.010129
  92 H :    0.031214
  93 H :    0.033676
  94 H :    0.032002
  95 H :    0.032067
  96 H :    0.032414
  97 H :    0.033189
  98 H :    0.028316
  99 H :    0.044225

  Mayer bond orders larger than 0.100000
B(  0-C ,  1-C ) :   0.9318 B(  0-C ,  7-C ) :   0.9183 B(  0-C , 13-C ) :   0.9630
B(  0-C , 21-O ) :   0.9866 B(  1-C ,  2-C ) :   1.4339 B(  1-C ,  6-C ) :   1.3912
B(  2-C ,  3-C ) :   1.3632 B(  2-C , 71-H ) :   0.9775 B(  3-C ,  4-C ) :   1.4022
B(  3-C , 72-H ) :   0.9861 B(  4-C ,  5-C ) :   1.3736 B(  4-C , 73-H ) :   0.9935
B(  5-C ,  6-C ) :   1.3907 B(  5-C , 74-H ) :   0.9914 B(  6-C , 75-H ) :   1.0002
B(  7-C ,  8-C ) :   1.3840 B(  7-C , 12-C ) :   1.4009 B(  8-C ,  9-C ) :   1.3892
B(  8-C , 76-H ) :   0.9968 B(  9-C , 10-C ) :   1.3845 B(  9-C , 77-H ) :   0.9904
B( 10-C , 11-C ) :   1.3917 B( 10-C , 78-H ) :   0.9925 B( 11-C , 12-C ) :   1.3812
B( 11-C , 79-H ) :   0.9881 B( 12-C , 80-H ) :   0.9806 B( 13-C , 14-C ) :   1.4436
B( 13-C , 24-C ) :   1.2899 B( 14-C , 15-C ) :   1.1049 B( 14-C , 22-C ) :   1.1827
B( 15-C , 16-C ) :   1.5800 B( 15-C , 21-O ) :   1.2085 B( 16-C , 17-C ) :   1.1856
B( 16-C , 19-C ) :   1.1246 B( 17-C , 18-N ) :   3.0247 B( 19-C , 20-N ) :   3.0491
B( 22-C , 23-N ) :   2.9733 B( 24-C , 25-C ) :   1.4480 B( 24-C , 81-H ) :   0.9405
B( 25-C , 26-C ) :   1.1835 B( 25-C , 29-S ) :   1.1212 B( 26-C , 27-C ) :   1.5411
B( 26-C , 82-H ) :   1.0014 B( 27-C , 28-C ) :   1.2195 B( 27-C , 83-H ) :   0.9924
B( 28-C , 29-S ) :   1.0440 B( 28-C , 30-C ) :   1.4618 B( 30-C , 31-C ) :   1.1942
B( 30-C , 34-S ) :   1.1005 B( 31-C , 32-C ) :   1.5625 B( 31-C , 84-H ) :   0.9952
B( 32-C , 33-C ) :   1.1573 B( 32-C , 85-H ) :   0.9962 B( 33-C , 34-S ) :   0.9967
B( 33-C , 35-C ) :   1.5825 B( 35-C , 36-C ) :   1.1754 B( 35-C , 86-H ) :   0.9399
B( 36-C , 37-N ) :   1.2179 B( 36-C , 40-C ) :   1.4327 B( 37-N , 38-C ) :   1.2580
B( 37-N , 87-H ) :   0.9158 B( 38-C , 39-C ) :   1.3837 B( 38-C , 88-H ) :   0.9901
B( 39-C , 40-C ) :   1.3676 B( 39-C , 45-C ) :   1.0511 B( 40-C , 41-S ) :   0.7915
B( 41-S , 42-O ) :   1.7071 B( 41-S , 43-O ) :   1.6742 B( 41-S , 44-C ) :   0.8109
B( 44-C , 45-C ) :   1.6312 B( 44-C , 46-C ) :   1.2005 B( 45-C , 89-H ) :   0.9975
B( 46-C , 47-C ) :   1.5792 B( 46-C , 90-H ) :   0.9939 B( 47-C , 48-C ) :   1.1722
B( 47-C , 91-H ) :   0.9295 B( 48-C , 49-C ) :   1.5412 B( 48-C , 92-H ) :   0.9898
B( 49-C , 50-C ) :   1.1440 B( 49-C , 53-S ) :   1.0552 B( 50-C , 51-C ) :   1.5816
B( 50-C , 93-H ) :   0.9993 B( 51-C , 52-C ) :   1.1914 B( 51-C , 94-H ) :   0.9946
B( 52-C , 53-S ) :   1.0623 B( 52-C , 54-C ) :   1.4906 B( 54-C , 55-C ) :   1.1898
B( 54-C , 58-S ) :   1.0448 B( 55-C , 56-C ) :   1.5913 B( 55-C , 95-H ) :   0.9931
B( 56-C , 57-C ) :   1.1402 B( 56-C , 96-H ) :   0.9995 B( 57-C , 58-S ) :   1.0520
B( 57-C , 59-C ) :   1.5996 B( 59-C , 60-C ) :   1.1507 B( 59-C , 97-H ) :   0.9451
B( 60-C , 61-S ) :   1.1352 B( 60-C , 62-C ) :   0.1080 B( 60-C , 64-C ) :   1.4248
B( 61-S , 62-C ) :   1.1814 B( 62-C , 63-C ) :   1.4330 B( 62-C , 98-H ) :   0.9756
B( 63-C , 64-C ) :   1.2319 B( 63-C , 70-C ) :   1.0675 B( 64-C , 65-O ) :   1.0905
B( 65-O , 66-C ) :   1.1227 B( 66-C , 67-N ) :   0.9128 B( 66-C , 70-C ) :   1.5740
B( 67-N , 68-O ) :   1.4579 B( 67-N , 69-O ) :   1.5544 B( 68-O , 69-O ) :   0.2712
B( 70-C , 99-H ) :   1.0252

-----------------------------------------------------------------------------
         ABSORPTION SPECTRUM VIA TRANSITION ELECTRIC DIPOLE MOMENTS
-----------------------------------------------------------------------------
State   Energy  Wavelength   fosc         T2         TX        TY        TZ
        (cm-1)    (nm)                  (au**2)     (au)      (au)      (au)
-----------------------------------------------------------------------------
   0   11435.3    874.5   0.670473054  19.30228   0.96100   3.40753  -2.60144
   1   12725.4    785.8   0.279257741   7.22454   0.65313   1.80215   1.88420
   2   14248.9    701.8   0.725569833  16.76388   1.39876   3.74471  -0.88573
   3   14930.9    669.8   0.368606629   8.12741   0.12627   0.01984   2.84799
   4   20824.1    480.2   0.042804102   0.67670  -0.08208  -0.52285  -0.62976
   5   22334.6    447.7   0.037807211   0.55728  -0.02826   0.25656   0.70047
   6   22836.2    437.9   0.252674501   3.64262   0.00911   0.73504   1.76132
   7   23281.2    429.5   0.041760483   0.59052  -0.00442   0.44001   0.63000
   8   24430.1    409.3   0.024886369   0.33536  -0.15998  -0.06585   0.55266
   9   25733.6    388.6   0.567185631   7.25604  -0.66600  -2.34157  -1.15306
  10   26621.0    375.6   0.442246029   5.46910   0.12837   1.58863   1.71140
  11   27418.2    364.7   0.542272767   6.51111  -0.64905  -2.30164   0.89010
  12   27889.3    358.6   0.233388677   2.75498   0.15219   1.15707   1.18026
  13   28777.4    347.5   0.249778738   2.85746  -0.36531  -0.02262   1.65030
  14   29456.2    339.5   0.142540445   1.59308  -0.14560  -0.13143   1.24684
  15   30968.4    322.9   0.057673707   0.61310   0.07829   0.09802  -0.77290
  16   31107.9    321.5   0.103251623   1.09270   0.32998   0.99187  -0.00161
  17   31255.1    319.9   0.020299129   0.21381   0.38525   0.10941   0.23113
  18   31911.6    313.4   0.042460825   0.43804  -0.01953   0.34835   0.56242
  19   32142.1    311.1   0.026762961   0.27412  -0.10093  -0.41955  -0.29649
  20   32472.0    308.0   0.018937363   0.19199   0.18808  -0.19147  -0.34635
  21   33151.6    301.6   0.036567224   0.36313   0.17912   0.06917   0.57119
  22   33227.5    301.0   0.035099261   0.34776  -0.03227  -0.45693   0.37139
  23   33440.8    299.0   0.006947108   0.06839   0.06027   0.23480  -0.09812
  24   33546.0    298.1   0.006269913   0.06153  -0.14660  -0.18427   0.07800
  25   33828.8    295.6   0.001561327   0.01519  -0.06667   0.07138  -0.07519
  26   34010.3    294.0   0.003437599   0.03328   0.04353   0.17512  -0.02669
  27   34034.7    293.8   0.023587307   0.22816   0.06656   0.01167  -0.47285
  28   34384.7    290.8   0.036996972   0.35422  -0.21849  -0.29610   0.46777
  29   34843.9    287.0   0.154395150   1.45876  -0.20762   0.69314  -0.96706
  30   34881.3    286.7   0.067890439   0.64075   0.26541   0.49745  -0.56820
  31   35185.2    284.2   0.019728003   0.18459   0.08598   0.41429   0.07455
  32   36069.1    277.2   0.025410059   0.23192   0.12171   0.04821  -0.46345
  33   36292.3    275.5   0.155610719   1.41156   0.14419  -0.38439   1.11491
  34   36375.6    274.9   0.012323875   0.11154  -0.05685   0.23159  -0.23382
  35   36669.2    272.7   0.041670133   0.37411  -0.26466   0.30333  -0.46049
  36   36843.0    271.4   0.037372135   0.33394  -0.06267   0.01680   0.57422
  37   36972.1    270.5   0.028884135   0.25719   0.02341  -0.21914   0.45675
  38   37168.3    269.0   0.082472905   0.73049   0.04374   0.08198   0.84962
  39   37268.6    268.3   0.107786533   0.95213  -0.11746  -0.06012  -0.96681
  40   37366.4    267.6   0.001691839   0.01491  -0.02553  -0.10329  -0.05988
  41   37679.5    265.4   0.102270368   0.89355  -0.07819   0.09632  -0.93710
  42   37885.8    264.0   0.051989540   0.45177  -0.05502  -0.52382   0.41756
  43   38045.2    262.8   0.022768858   0.19702   0.24123  -0.22960   0.29345
  44   38293.6    261.1   0.033211565   0.28552  -0.12080  -0.38877   0.34610
  45   38491.1    259.8   0.026917538   0.23022  -0.15408   0.22947  -0.39221
  46   38817.2    257.6   0.005134678   0.04355   0.06791  -0.13377  -0.14506
  47   38868.6    257.3   0.007086242   0.06002  -0.09263   0.11372   0.19623
  48   38929.9    256.9   0.027755545   0.23472  -0.14418  -0.42895   0.17300
  49   39241.6    254.8   0.031848195   0.26719  -0.06188   0.07645  -0.50746
  50   39695.6    251.9   0.016416284   0.13615   0.16534   0.28417   0.16750
  51   40051.9    249.7   0.031463321   0.25862  -0.22910  -0.41066   0.19362
  52   40237.3    248.5   0.001105177   0.00904  -0.00521   0.03284   0.08909

FINAL SINGLE POINT ENERGY     -5184.834784984772

DIPOLE MOMENT
-------------
                                X             Y             Z
Electronic contribution:     15.63201      33.45639       2.93940
Nuclear contribution   :    -15.02652     -29.98844      -8.97038
                        -----------------------------------------
Total Dipole Moment    :      0.60549       3.46796      -6.03098
                        -----------------------------------------
Magnitude (a.u.)       :      6.98327
Magnitude (Debye)      :     17.75007

Rotational constants in cm-1:     0.001717     0.000280     0.000250
Rotational constants in MHz :    51.471224     8.381756     7.496564

                             ****ORCA TERMINATED NORMALLY****
TOTAL RUN TIME: 0 days 0 hours 10 minutes 45 seconds 360 msec
