                         Program Version 4.2.0 -  RELEASE  -
|  1> # ORCA input file
|  2> # SCF done       -182.985842991620          0.007709426366
|  3> ! CAM-B3LYP def2-SVP def2/J RIJCOSX Grid4 TightSCF
|  4> %maxcore 5000
|  5> %tddft
|  6>     Mode sTDDFT
|  7>     Ethresh 5.0
|  8>     maxcore 5000
|  9> end
| 10>
| 11> %pal
| 12>   nprocs 6
| 13>   end
| 14> * xyz 0 1
| 15>    C       14.23844        -5.46937        -4.36450
| 16>    C       13.38737        -6.68838        -4.32834
| 17>    C       13.21074        -7.65127        -5.28345
| 18>    C       12.36045        -8.68925        -4.87666
| 19>    C       11.86262        -8.51878        -3.60596
| 20>    S       12.48820        -7.06453        -2.89036
| 21>    C       10.88391        -9.30957        -2.93233
| 22>    C       10.51981       -10.61493        -3.19465
| 23>    C        9.45011       -11.04856        -2.41744
| 24>    C        8.95052       -10.07594        -1.56708
| 25>    S        9.87837        -8.61489        -1.70054
| 26>    C        7.79969       -10.19075        -0.75013
| 27>    C        7.27613        -9.16920        -0.01146
| 28>    C        6.06067        -9.26669         0.77604
| 29>    O        5.75293        -8.30825         1.70743
| 30>    C        6.52949        -7.19157         1.71680
| 31>    C        7.62710        -7.02637         0.82575
| 32>    C        8.25482        -5.83070         0.97181
| 33>    S        7.51443        -4.89260         2.20759
| 34>    C        6.34787        -6.11628         2.52779
| 35>    O        7.98776        -7.99537        -0.05074
| 36>    C        5.20160       -10.31817         0.65061
| 37>    C        4.01184       -10.54139         1.39255
| 38>    C        3.38733       -11.74727         1.49309
| 39>    C        3.91244       -12.99930         1.06612
| 40>    C        3.26113       -14.21531         0.93302
| 41>    C        4.07729       -15.26180         0.50028
| 42>    C        5.39228       -14.88348         0.31354
| 43>    S        5.59851       -13.20178         0.70488
| 44>    C        6.54270       -15.53749        -0.20011
| 45>    C        6.76135       -16.80204        -0.71822
| 46>    C        8.05014       -16.97477        -1.21450
| 47>    C        8.87027       -15.86224        -1.07428
| 48>    S        7.98281       -14.57955        -0.29882
| 49>    C       10.16523       -15.64340        -1.58441
| 50>    C       10.94612       -14.53974        -1.34437
| 51>    C       12.06282       -14.11931        -2.15084
| 52>    C       12.49515       -12.89949        -1.71422
| 53>    C       11.68641       -12.54292        -0.54162
| 54>    C       10.76309       -13.52273        -0.33658
| 55>    C       11.77731       -11.35815         0.19328
| 56>    N       11.80094       -10.38161         0.79949
| 57>    C       13.46784       -12.01388        -2.27522
| 58>    C       14.15749       -11.01961        -1.65073
| 59>    C       14.85860       -10.23833        -2.63560
| 60>    C       14.59803       -10.86033        -3.91927
| 61>    C       13.79014       -11.93358        -3.71266
| 62>    C       13.26451       -12.77372        -4.69929
| 63>    N       12.81750       -13.44679        -5.51762
| 64>    C       15.48399        -9.05087        -2.40010
| 65>    C       15.75920        -8.11893        -3.43758
| 66>    C       15.97305        -6.81576        -3.19797
| 67>    C       15.79192        -5.76816        -4.25213
| 68>    C       16.49405        -4.45533        -4.00408
| 69>    C       16.52762        -3.80069        -2.80994
| 70>    C       17.25899        -2.61453        -2.57853
| 71>    N       17.85016        -1.66400        -2.33230
| 72>    C       15.83777        -4.21703        -1.64719
| 73>    N       15.27542        -4.47881        -0.68228
| 74>    C       17.07479        -3.99633        -5.24711
| 75>    C       16.93331        -5.00601        -6.22856
| 76>    C       16.26146        -6.17914        -5.65486
| 77>    O       16.09392        -7.23859        -6.19973
| 78>    C       17.35095        -4.84108        -7.52871
| 79>    C       17.92136        -3.61507        -7.87952
| 80>    C       18.05741        -2.60671        -6.89166
| 81>    C       17.64902        -2.77734        -5.57726
| 82>    S       18.76402        -1.16100        -7.55090
| 83>    C       18.86303        -1.91869        -9.11931
| 84>    C       18.39585        -3.18998        -9.15031
| 85>   Br       19.56576        -0.95897       -10.56681
| 86>    H       14.07103        -4.91780        -5.29385
| 87>    H       13.96603        -4.82616        -3.52294
| 88>    H       13.67836        -7.61235        -6.25141
| 89>    H       12.08394        -9.51829        -5.50426
| 90>    H       11.01491       -11.22997        -3.92487
| 91>    H        9.02646       -12.03559        -2.47873
| 92>    H        7.32330       -11.15606        -0.74580
| 93>    H        9.10407        -5.46760         0.43302
| 94>    H        5.60342        -5.97882         3.28296
| 95>    H        5.43875       -11.03185        -0.11734
| 96>    H        3.57253        -9.68767         1.89000
| 97>    H        2.41902       -11.79546         1.97293
| 98>    H        2.20780       -14.32691         1.12278
| 99>    H        3.72217       -16.26104         0.32168
|100>    H        5.99878       -17.55822        -0.75226
|101>    H        8.39489       -17.88521        -1.67158
|102>    H       10.52804       -16.38029        -2.29112
|103>    H       12.43854       -14.66671        -2.99444
|104>    H       10.06453       -13.54685         0.47681
|105>    H       14.14514       -10.78975        -0.60424
|106>    H       14.99515       -10.54287        -4.86545
|107>    H       15.60432        -8.71805        -1.37852
|108>    H       15.63942        -8.46282        -4.45102
|109>    H       16.10675        -6.46810        -2.18426
|110>    H       17.22988        -5.63107        -8.25295
|111>    H       17.76500        -1.97995        -4.86204
|112>    H       18.38161        -3.80357       -10.03260
|113> *
|114>
|115>                          ****END OF INPUT****

CARTESIAN COORDINATES (ANGSTROEM)
---------------------------------
  C     14.238440   -5.469370   -4.364500
  C     13.387370   -6.688380   -4.328340
  C     13.210740   -7.651270   -5.283450
  C     12.360450   -8.689250   -4.876660
  C     11.862620   -8.518780   -3.605960
  S     12.488200   -7.064530   -2.890360
  C     10.883910   -9.309570   -2.932330
  C     10.519810  -10.614930   -3.194650
  C      9.450110  -11.048560   -2.417440
  C      8.950520  -10.075940   -1.567080
  S      9.878370   -8.614890   -1.700540
  C      7.799690  -10.190750   -0.750130
  C      7.276130   -9.169200   -0.011460
  C      6.060670   -9.266690    0.776040
  O      5.752930   -8.308250    1.707430
  C      6.529490   -7.191570    1.716800
  C      7.627100   -7.026370    0.825750
  C      8.254820   -5.830700    0.971810
  S      7.514430   -4.892600    2.207590
  C      6.347870   -6.116280    2.527790
  O      7.987760   -7.995370   -0.050740
  C      5.201600  -10.318170    0.650610
  C      4.011840  -10.541390    1.392550
  C      3.387330  -11.747270    1.493090
  C      3.912440  -12.999300    1.066120
  C      3.261130  -14.215310    0.933020
  C      4.077290  -15.261800    0.500280
  C      5.392280  -14.883480    0.313540
  S      5.598510  -13.201780    0.704880
  C      6.542700  -15.537490   -0.200110
  C      6.761350  -16.802040   -0.718220
  C      8.050140  -16.974770   -1.214500
  C      8.870270  -15.862240   -1.074280
  S      7.982810  -14.579550   -0.298820
  C     10.165230  -15.643400   -1.584410
  C     10.946120  -14.539740   -1.344370
  C     12.062820  -14.119310   -2.150840
  C     12.495150  -12.899490   -1.714220
  C     11.686410  -12.542920   -0.541620
  C     10.763090  -13.522730   -0.336580
  C     11.777310  -11.358150    0.193280
  N     11.800940  -10.381610    0.799490
  C     13.467840  -12.013880   -2.275220
  C     14.157490  -11.019610   -1.650730
  C     14.858600  -10.238330   -2.635600
  C     14.598030  -10.860330   -3.919270
  C     13.790140  -11.933580   -3.712660
  C     13.264510  -12.773720   -4.699290
  N     12.817500  -13.446790   -5.517620
  C     15.483990   -9.050870   -2.400100
  C     15.759200   -8.118930   -3.437580
  C     15.973050   -6.815760   -3.197970
  C     15.791920   -5.768160   -4.252130
  C     16.494050   -4.455330   -4.004080
  C     16.527620   -3.800690   -2.809940
  C     17.258990   -2.614530   -2.578530
  N     17.850160   -1.664000   -2.332300
  C     15.837770   -4.217030   -1.647190
  N     15.275420   -4.478810   -0.682280
  C     17.074790   -3.996330   -5.247110
  C     16.933310   -5.006010   -6.228560
  C     16.261460   -6.179140   -5.654860
  O     16.093920   -7.238590   -6.199730
  C     17.350950   -4.841080   -7.528710
  C     17.921360   -3.615070   -7.879520
  C     18.057410   -2.606710   -6.891660
  C     17.649020   -2.777340   -5.577260
  S     18.764020   -1.161000   -7.550900
  C     18.863030   -1.918690   -9.119310
  C     18.395850   -3.189980   -9.150310
  Br    19.565760   -0.958970  -10.566810
  H     14.071030   -4.917800   -5.293850
  H     13.966030   -4.826160   -3.522940
  H     13.678360   -7.612350   -6.251410
  H     12.083940   -9.518290   -5.504260
  H     11.014910  -11.229970   -3.924870
  H      9.026460  -12.035590   -2.478730
  H      7.323300  -11.156060   -0.745800
  H      9.104070   -5.467600    0.433020
  H      5.603420   -5.978820    3.282960
  H      5.438750  -11.031850   -0.117340
  H      3.572530   -9.687670    1.890000
  H      2.419020  -11.795460    1.972930
  H      2.207800  -14.326910    1.122780
  H      3.722170  -16.261040    0.321680
  H      5.998780  -17.558220   -0.752260
  H      8.394890  -17.885210   -1.671580
  H     10.528040  -16.380290   -2.291120
  H     12.438540  -14.666710   -2.994440
  H     10.064530  -13.546850    0.476810
  H     14.145140  -10.789750   -0.604240
  H     14.995150  -10.542870   -4.865450
  H     15.604320   -8.718050   -1.378520
  H     15.639420   -8.462820   -4.451020
  H     16.106750   -6.468100   -2.184260
  H     17.229880   -5.631070   -8.252950
  H     17.765000   -1.979950   -4.862040
  H     18.381610   -3.803570  -10.032600

 Total Charge           Charge          ....    0
 Multiplicity           Mult            ....    1
 Number of Electrons    NEL             ....  552
 Basis Dimension        Dim             .... 1171

ORBITAL ENERGIES
----------------

  NO   OCC          E(Eh)            E(eV)
   0   2.0000    -482.895662    -13140.2590
   1   2.0000     -88.987870     -2421.4831
   2   2.0000     -88.962633     -2420.7963
   3   2.0000     -88.957001     -2420.6430
   4   2.0000     -88.952877     -2420.5308
   5   2.0000     -88.947373     -2420.3811
   6   2.0000     -88.936934     -2420.0970
   7   2.0000     -62.573373     -1702.7080
   8   2.0000     -56.407343     -1534.9218
   9   2.0000     -56.404587     -1534.8469
  10   2.0000     -56.404569     -1534.8463
  11   2.0000     -19.277596      -524.5701
  12   2.0000     -19.274892      -524.4965
  13   2.0000     -19.238470      -523.5054
  14   2.0000     -14.429013      -392.6334
  15   2.0000     -14.427580      -392.5944
  16   2.0000     -14.393108      -391.6564
  17   2.0000     -14.384255      -391.4155
  18   2.0000     -10.385732      -282.6101
  19   2.0000     -10.371563      -282.2246
  20   2.0000     -10.359335      -281.8918
  21   2.0000     -10.354506      -281.7604
  22   2.0000     -10.352236      -281.6987
  23   2.0000     -10.343093      -281.4499
  24   2.0000     -10.340529      -281.3801
  25   2.0000     -10.336728      -281.2767
  26   2.0000     -10.335932      -281.2550
  27   2.0000     -10.330642      -281.1111
  28   2.0000     -10.328819      -281.0614
  29   2.0000     -10.326854      -281.0080
  30   2.0000     -10.323281      -280.9108
  31   2.0000     -10.322563      -280.8912
  32   2.0000     -10.321526      -280.8630
  33   2.0000     -10.321031      -280.8495
  34   2.0000     -10.316001      -280.7127
  35   2.0000     -10.309637      -280.5395
  36   2.0000     -10.308917      -280.5199
  37   2.0000     -10.308454      -280.5073
  38   2.0000     -10.308146      -280.4989
  39   2.0000     -10.307703      -280.4869
  40   2.0000     -10.307602      -280.4841
  41   2.0000     -10.306514      -280.4545
  42   2.0000     -10.296673      -280.1867
  43   2.0000     -10.295539      -280.1559
  44   2.0000     -10.294007      -280.1142
  45   2.0000     -10.293770      -280.1077
  46   2.0000     -10.292895      -280.0839
  47   2.0000     -10.291857      -280.0557
  48   2.0000     -10.290373      -280.0153
  49   2.0000     -10.288710      -279.9700
  50   2.0000     -10.286822      -279.9187
  51   2.0000     -10.286554      -279.9114
  52   2.0000     -10.285924      -279.8942
  53   2.0000     -10.285487      -279.8823
  54   2.0000     -10.285171      -279.8737
  55   2.0000     -10.285023      -279.8697
  56   2.0000     -10.284371      -279.8520
  57   2.0000     -10.278409      -279.6897
  58   2.0000     -10.278049      -279.6799
  59   2.0000     -10.277979      -279.6780
  60   2.0000     -10.277310      -279.6598
  61   2.0000     -10.277095      -279.6540
  62   2.0000     -10.276608      -279.6407
  63   2.0000     -10.276529      -279.6386
  64   2.0000     -10.276511      -279.6381
  65   2.0000     -10.273037      -279.5436
  66   2.0000     -10.270626      -279.4779
  67   2.0000     -10.268621      -279.4234
  68   2.0000     -10.266430      -279.3638
  69   2.0000     -10.264915      -279.3225
  70   2.0000     -10.262985      -279.2700
  71   2.0000     -10.258815      -279.1566
  72   2.0000     -10.256121      -279.0832
  73   2.0000     -10.255659      -279.0707
  74   2.0000     -10.253512      -279.0123
  75   2.0000      -8.802809      -239.5366
  76   2.0000      -8.083869      -219.9733
  77   2.0000      -8.058225      -219.2755
  78   2.0000      -8.052576      -219.1217
  79   2.0000      -8.048658      -219.0151
  80   2.0000      -8.042859      -218.8573
  81   2.0000      -8.031805      -218.5565
  82   2.0000      -6.639193      -180.6616
  83   2.0000      -6.624536      -180.2628
  84   2.0000      -6.624248      -180.2550
  85   2.0000      -6.053559      -164.7257
  86   2.0000      -6.049280      -164.6093
  87   2.0000      -6.045065      -164.4946
  88   2.0000      -6.027555      -164.0181
  89   2.0000      -6.023286      -163.9020
  90   2.0000      -6.021882      -163.8638
  91   2.0000      -6.020253      -163.8194
  92   2.0000      -6.018102      -163.7609
  93   2.0000      -6.017561      -163.7462
  94   2.0000      -6.014737      -163.6693
  95   2.0000      -6.013932      -163.6474
  96   2.0000      -6.012030      -163.5956
  97   2.0000      -6.010465      -163.5531
  98   2.0000      -6.007975      -163.4853
  99   2.0000      -6.005145      -163.4083
 100   2.0000      -6.001128      -163.2990
 101   2.0000      -5.996825      -163.1819
 102   2.0000      -5.993973      -163.1043
 103   2.0000      -2.755028       -74.9681
 104   2.0000      -2.750957       -74.8573
 105   2.0000      -2.750764       -74.8521
 106   2.0000      -2.739093       -74.5345
 107   2.0000      -2.739083       -74.5342
 108   2.0000      -1.203845       -32.7583
 109   2.0000      -1.168506       -31.7967
 110   2.0000      -1.157302       -31.4918
 111   2.0000      -1.037317       -28.2268
 112   2.0000      -1.026491       -27.9322
 113   2.0000      -1.007116       -27.4050
 114   2.0000      -1.005613       -27.3641
 115   2.0000      -1.004675       -27.3386
 116   2.0000      -0.988146       -26.8888
 117   2.0000      -0.984130       -26.7795
 118   2.0000      -0.981208       -26.7000
 119   2.0000      -0.980760       -26.6878
 120   2.0000      -0.975211       -26.5368
 121   2.0000      -0.964292       -26.2397
 122   2.0000      -0.961271       -26.1575
 123   2.0000      -0.955676       -26.0053
 124   2.0000      -0.954126       -25.9631
 125   2.0000      -0.925249       -25.1773
 126   2.0000      -0.920846       -25.0575
 127   2.0000      -0.918963       -25.0062
 128   2.0000      -0.901055       -24.5189
 129   2.0000      -0.900012       -24.4906
 130   2.0000      -0.895175       -24.3589
 131   2.0000      -0.887164       -24.1410
 132   2.0000      -0.871291       -23.7090
 133   2.0000      -0.862251       -23.4630
 134   2.0000      -0.854828       -23.2610
 135   2.0000      -0.845867       -23.0172
 136   2.0000      -0.842585       -22.9279
 137   2.0000      -0.831737       -22.6327
 138   2.0000      -0.831207       -22.6183
 139   2.0000      -0.824295       -22.4302
 140   2.0000      -0.822457       -22.3802
 141   2.0000      -0.820223       -22.3194
 142   2.0000      -0.815368       -22.1873
 143   2.0000      -0.811950       -22.0943
 144   2.0000      -0.806792       -21.9539
 145   2.0000      -0.802288       -21.8314
 146   2.0000      -0.786435       -21.4000
 147   2.0000      -0.780781       -21.2461
 148   2.0000      -0.774076       -21.0637
 149   2.0000      -0.762689       -20.7538
 150   2.0000      -0.751367       -20.4457
 151   2.0000      -0.742582       -20.2067
 152   2.0000      -0.728984       -19.8367
 153   2.0000      -0.723801       -19.6956
 154   2.0000      -0.706553       -19.2263
 155   2.0000      -0.705584       -19.1999
 156   2.0000      -0.700054       -19.0494
 157   2.0000      -0.692095       -18.8329
 158   2.0000      -0.687497       -18.7077
 159   2.0000      -0.685095       -18.6424
 160   2.0000      -0.677689       -18.4408
 161   2.0000      -0.674505       -18.3542
 162   2.0000      -0.669021       -18.2050
 163   2.0000      -0.662068       -18.0158
 164   2.0000      -0.655306       -17.8318
 165   2.0000      -0.648577       -17.6487
 166   2.0000      -0.639974       -17.4146
 167   2.0000      -0.639480       -17.4011
 168   2.0000      -0.633064       -17.2265
 169   2.0000      -0.627270       -17.0689
 170   2.0000      -0.626920       -17.0594
 171   2.0000      -0.622284       -16.9332
 172   2.0000      -0.613151       -16.6847
 173   2.0000      -0.609496       -16.5852
 174   2.0000      -0.607659       -16.5352
 175   2.0000      -0.603912       -16.4333
 176   2.0000      -0.602568       -16.3967
 177   2.0000      -0.596125       -16.2214
 178   2.0000      -0.594533       -16.1781
 179   2.0000      -0.589336       -16.0367
 180   2.0000      -0.584844       -15.9144
 181   2.0000      -0.570221       -15.5165
 182   2.0000      -0.568523       -15.4703
 183   2.0000      -0.566089       -15.4041
 184   2.0000      -0.564162       -15.3516
 185   2.0000      -0.556650       -15.1472
 186   2.0000      -0.555138       -15.1061
 187   2.0000      -0.553037       -15.0489
 188   2.0000      -0.550238       -14.9727
 189   2.0000      -0.542483       -14.7617
 190   2.0000      -0.540213       -14.6999
 191   2.0000      -0.537171       -14.6172
 192   2.0000      -0.533732       -14.5236
 193   2.0000      -0.529368       -14.4048
 194   2.0000      -0.524519       -14.2729
 195   2.0000      -0.522165       -14.2088
 196   2.0000      -0.518898       -14.1199
 197   2.0000      -0.513713       -13.9788
 198   2.0000      -0.511728       -13.9248
 199   2.0000      -0.509261       -13.8577
 200   2.0000      -0.507417       -13.8075
 201   2.0000      -0.506173       -13.7737
 202   2.0000      -0.505273       -13.7492
 203   2.0000      -0.503443       -13.6994
 204   2.0000      -0.500722       -13.6253
 205   2.0000      -0.498173       -13.5560
 206   2.0000      -0.496512       -13.5108
 207   2.0000      -0.494003       -13.4425
 208   2.0000      -0.493563       -13.4305
 209   2.0000      -0.490524       -13.3478
 210   2.0000      -0.487017       -13.2524
 211   2.0000      -0.480658       -13.0794
 212   2.0000      -0.480236       -13.0679
 213   2.0000      -0.475803       -12.9473
 214   2.0000      -0.475179       -12.9303
 215   2.0000      -0.473303       -12.8792
 216   2.0000      -0.472022       -12.8444
 217   2.0000      -0.470139       -12.7931
 218   2.0000      -0.469282       -12.7698
 219   2.0000      -0.468436       -12.7468
 220   2.0000      -0.464584       -12.6420
 221   2.0000      -0.463245       -12.6055
 222   2.0000      -0.461450       -12.5567
 223   2.0000      -0.459882       -12.5140
 224   2.0000      -0.459068       -12.4919
 225   2.0000      -0.456639       -12.4258
 226   2.0000      -0.455126       -12.3846
 227   2.0000      -0.452627       -12.3166
 228   2.0000      -0.450922       -12.2702
 229   2.0000      -0.449850       -12.2410
 230   2.0000      -0.443698       -12.0736
 231   2.0000      -0.439416       -11.9571
 232   2.0000      -0.438927       -11.9438
 233   2.0000      -0.437016       -11.8918
 234   2.0000      -0.435104       -11.8398
 235   2.0000      -0.433412       -11.7937
 236   2.0000      -0.431856       -11.7514
 237   2.0000      -0.429496       -11.6872
 238   2.0000      -0.428477       -11.6595
 239   2.0000      -0.423646       -11.5280
 240   2.0000      -0.422661       -11.5012
 241   2.0000      -0.422058       -11.4848
 242   2.0000      -0.417845       -11.3702
 243   2.0000      -0.415609       -11.3093
 244   2.0000      -0.413904       -11.2629
 245   2.0000      -0.412335       -11.2202
 246   2.0000      -0.408891       -11.1265
 247   2.0000      -0.406534       -11.0624
 248   2.0000      -0.402776       -10.9601
 249   2.0000      -0.399494       -10.8708
 250   2.0000      -0.395201       -10.7540
 251   2.0000      -0.394530       -10.7357
 252   2.0000      -0.387276       -10.5383
 253   2.0000      -0.384631       -10.4663
 254   2.0000      -0.378934       -10.3113
 255   2.0000      -0.376772       -10.2525
 256   2.0000      -0.373217       -10.1558
 257   2.0000      -0.364782        -9.9262
 258   2.0000      -0.358157        -9.7459
 259   2.0000      -0.348355        -9.4792
 260   2.0000      -0.340635        -9.2692
 261   2.0000      -0.337872        -9.1940
 262   2.0000      -0.329654        -8.9703
 263   2.0000      -0.322158        -8.7664
 264   2.0000      -0.320852        -8.7308
 265   2.0000      -0.317693        -8.6449
 266   2.0000      -0.306135        -8.3304
 267   2.0000      -0.305948        -8.3253
 268   2.0000      -0.303055        -8.2465
 269   2.0000      -0.294781        -8.0214
 270   2.0000      -0.287864        -7.8332
 271   2.0000      -0.283480        -7.7139
 272   2.0000      -0.274370        -7.4660
 273   2.0000      -0.259298        -7.0559
 274   2.0000      -0.239526        -6.5178
 275   2.0000      -0.220386        -5.9970
 276   0.0000      -0.089034        -2.4227
 277   0.0000      -0.083744        -2.2788
 278   0.0000      -0.060804        -1.6546
 279   0.0000      -0.052630        -1.4321
 280   0.0000      -0.048177        -1.3110

MULLIKEN ATOMIC CHARGES
-----------------------
   0 C :    0.277736
   1 C :   -0.226745
   2 C :    0.026523
   3 C :    0.021050
   4 C :   -0.069717
   5 S :    0.139986
   6 C :   -0.046157
   7 C :    0.023486
   8 C :    0.024202
   9 C :   -0.048690
  10 S :    0.159101
  11 C :   -0.044789
  12 C :    0.180879
  13 C :    0.212381
  14 O :   -0.236535
  15 C :    0.208562
  16 C :    0.226352
  17 C :   -0.165943
  18 S :    0.117369
  19 C :   -0.175251
  20 O :   -0.265523
  21 C :   -0.134966
  22 C :    0.044729
  23 C :    0.035895
  24 C :   -0.056821
  25 C :    0.022267
  26 C :    0.014140
  27 C :   -0.030834
  28 S :    0.067381
  29 C :   -0.006102
  30 C :    0.001335
  31 C :    0.044186
  32 C :   -0.072643
  33 S :    0.089037
  34 C :    0.043540
  35 C :    0.066287
  36 C :   -0.119633
  37 C :    0.114405
  38 C :   -0.087503
  39 C :   -0.061681
  40 C :   -0.199725
  41 N :    0.145175
  42 C :    0.155032
  43 C :   -0.114811
  44 C :    0.091441
  45 C :   -0.005645
  46 C :   -0.149446
  47 C :   -0.189411
  48 N :    0.144682
  49 C :    0.008035
  50 C :    0.070264
  51 C :   -0.038352
  52 C :   -0.252000
  53 C :    0.255433
  54 C :   -0.314452
  55 C :   -0.193272
  56 N :    0.163075
  57 C :   -0.215249
  58 N :    0.194262
  59 C :    0.022712
  60 C :    0.036461
  61 C :    0.133122
  62 O :   -0.140214
  63 C :   -0.081794
  64 C :    0.119229
  65 C :   -0.083831
  66 C :   -0.028296
  67 S :    0.195458
  68 C :   -0.123211
  69 C :    0.042611
  70 Br:    0.035636
  71 H :    0.022945
  72 H :    0.020092
  73 H :   -0.013336
  74 H :   -0.011937
  75 H :   -0.019288
  76 H :   -0.023668
  77 H :   -0.014144
  78 H :    0.031552
  79 H :    0.024401
  80 H :    0.020052
  81 H :    0.002030
  82 H :   -0.009980
  83 H :   -0.017484
  84 H :   -0.016895
  85 H :   -0.013468
  86 H :   -0.007478
  87 H :    0.004803
  88 H :   -0.015207
  89 H :    0.000389
  90 H :   -0.009584
  91 H :   -0.007970
  92 H :    0.004679
  93 H :    0.032967
  94 H :    0.024501
  95 H :   -0.004114
  96 H :   -0.000030
  97 H :    0.001956
Sum of atomic charges:   -0.0000000

LOEWDIN ATOMIC CHARGES
----------------------
   0 C :   -0.000898
   1 C :   -0.189920
   2 C :   -0.058091
   3 C :   -0.055493
   4 C :   -0.177122
   5 S :    0.437455
   6 C :   -0.192183
   7 C :   -0.054581
   8 C :   -0.044232
   9 C :   -0.172076
  10 S :    0.461432
  11 C :   -0.047186
  12 C :    0.024345
  13 C :    0.058276
  14 O :   -0.039252
  15 C :   -0.012630
  16 C :   -0.010081
  17 C :   -0.208799
  18 S :    0.447349
  19 C :   -0.214516
  20 O :   -0.045934
  21 C :   -0.093896
  22 C :   -0.009208
  23 C :   -0.057611
  24 C :   -0.151524
  25 C :   -0.060908
  26 C :   -0.040624
  27 C :   -0.201149
  28 S :    0.455130
  29 C :   -0.158327
  30 C :   -0.063454
  31 C :   -0.021174
  32 C :   -0.184319
  33 S :    0.455830
  34 C :    0.032505
  35 C :   -0.048642
  36 C :   -0.030001
  37 C :   -0.021646
  38 C :   -0.063466
  39 C :   -0.017770
  40 C :   -0.026799
  41 N :   -0.071818
  42 C :   -0.012898
  43 C :   -0.023228
  44 C :   -0.028149
  45 C :    0.022717
  46 C :   -0.077742
  47 C :   -0.030319
  48 N :   -0.076046
  49 C :    0.056016
  50 C :   -0.012418
  51 C :   -0.003590
  52 C :   -0.064060
  53 C :    0.085438
  54 C :   -0.128740
  55 C :   -0.018797
  56 N :   -0.039796
  57 C :   -0.031279
  58 N :   -0.031072
  59 C :   -0.025228
  60 C :   -0.054322
  61 C :    0.102794
  62 O :   -0.117626
  63 C :    0.026687
  64 C :   -0.027965
  65 C :   -0.139988
  66 C :   -0.004279
  67 S :    0.437933
  68 C :   -0.266730
  69 C :   -0.069814
  70 Br:    0.146783
  71 H :    0.039547
  72 H :    0.036602
  73 H :    0.026642
  74 H :    0.031314
  75 H :    0.030431
  76 H :    0.026586
  77 H :    0.034981
  78 H :    0.032355
  79 H :    0.028681
  80 H :    0.017472
  81 H :    0.034379
  82 H :    0.034788
  83 H :    0.030702
  84 H :    0.031244
  85 H :    0.032072
  86 H :    0.034812
  87 H :    0.044932
  88 H :    0.027116
  89 H :    0.015671
  90 H :    0.029664
  91 H :    0.030695
  92 H :    0.039426
  93 H :    0.029998
  94 H :    0.031750
  95 H :    0.043180
  96 H :    0.042702
  97 H :    0.040977

  Mayer bond orders larger than 0.100000
B(  0-C ,  1-C ) :   1.0765 B(  0-C , 52-C ) :   0.9424 B(  0-C , 71-H ) :   0.9137
B(  0-C , 72-H ) :   0.9009 B(  1-C ,  2-C ) :   1.5619 B(  1-C ,  4-C ) :   0.1089
B(  1-C ,  5-S ) :   1.1309 B(  2-C ,  3-C ) :   1.2413 B(  2-C , 73-H ) :   0.9937
B(  3-C ,  4-C ) :   1.5445 B(  3-C , 74-H ) :   0.9954 B(  4-C ,  5-S ) :   1.1344
B(  4-C ,  6-C ) :   1.0845 B(  6-C ,  7-C ) :   1.5048 B(  6-C ,  9-C ) :   0.1031
B(  6-C , 10-S ) :   1.1230 B(  7-C ,  8-C ) :   1.2828 B(  7-C , 75-H ) :   0.9941
B(  8-C ,  9-C ) :   1.4469 B(  8-C , 76-H ) :   0.9974 B(  9-C , 10-S ) :   1.1174
B(  9-C , 11-C ) :   1.1765 B( 11-C , 12-C ) :   1.6465 B( 11-C , 77-H ) :   0.9552
B( 12-C , 13-C ) :   0.9965 B( 12-C , 20-O ) :   1.0429 B( 13-C , 14-O ) :   1.0985
B( 13-C , 21-C ) :   1.6976 B( 14-O , 15-C ) :   1.0542 B( 15-C , 16-C ) :   1.2122
B( 15-C , 19-C ) :   1.5551 B( 16-C , 17-C ) :   1.5579 B( 16-C , 20-O ) :   1.0384
B( 17-C , 18-S ) :   1.1505 B( 17-C , 78-H ) :   0.9728 B( 18-S , 19-C ) :   1.1533
B( 19-C , 79-H ) :   0.9734 B( 21-C , 22-C ) :   1.1189 B( 21-C , 80-H ) :   0.9085
B( 22-C , 23-C ) :   1.6725 B( 22-C , 81-H ) :   0.9730 B( 23-C , 24-C ) :   1.1360
B( 23-C , 82-H ) :   0.9691 B( 24-C , 25-C ) :   1.4629 B( 24-C , 28-S ) :   1.1149
B( 25-C , 26-C ) :   1.2846 B( 25-C , 83-H ) :   0.9979 B( 26-C , 27-C ) :   1.4948
B( 26-C , 84-H ) :   0.9975 B( 27-C , 28-S ) :   1.1017 B( 27-C , 29-C ) :   1.1252
B( 29-C , 30-C ) :   1.4736 B( 29-C , 33-S ) :   1.1421 B( 30-C , 31-C ) :   1.3001
B( 30-C , 85-H ) :   0.9999 B( 31-C , 32-C ) :   1.4204 B( 31-C , 86-H ) :   0.9975
B( 32-C , 33-S ) :   1.0875 B( 32-C , 34-C ) :   1.1885 B( 34-C , 35-C ) :   1.5046
B( 34-C , 87-H ) :   0.9727 B( 35-C , 36-C ) :   1.0800 B( 35-C , 39-C ) :   1.0857
B( 36-C , 37-C ) :   1.5744 B( 36-C , 88-H ) :   1.0153 B( 37-C , 38-C ) :   1.1790
B( 37-C , 42-C ) :   0.9482 B( 38-C , 39-C ) :   1.6361 B( 38-C , 40-C ) :   1.0877
B( 39-C , 89-H ) :   0.9941 B( 40-C , 41-N ) :   2.9899 B( 42-C , 43-C ) :   1.5953
B( 42-C , 46-C ) :   1.1585 B( 43-C , 44-C ) :   1.0747 B( 43-C , 90-H ) :   1.0127
B( 44-C , 45-C ) :   1.0712 B( 44-C , 49-C ) :   1.5522 B( 45-C , 46-C ) :   1.6539
B( 45-C , 91-H ) :   1.0109 B( 46-C , 47-C ) :   1.0826 B( 47-C , 48-N ) :   2.9898
B( 49-C , 50-C ) :   1.1196 B( 49-C , 92-H ) :   0.9803 B( 50-C , 51-C ) :   1.7760
B( 50-C , 93-H ) :   0.9435 B( 51-C , 52-C ) :   0.9457 B( 51-C , 94-H ) :   0.9713
B( 52-C , 53-C ) :   0.9480 B( 52-C , 61-C ) :   0.8826 B( 53-C , 54-C ) :   1.7289
B( 53-C , 59-C ) :   1.0579 B( 54-C , 55-C ) :   1.1304 B( 54-C , 57-C ) :   1.1264
B( 55-C , 56-N ) :   2.9873 B( 57-C , 58-N ) :   3.0003 B( 59-C , 60-C ) :   1.2620
B( 59-C , 66-C ) :   1.3749 B( 60-C , 61-C ) :   0.9742 B( 60-C , 63-C ) :   1.3941
B( 61-C , 62-O ) :   2.1879 B( 63-C , 64-C ) :   1.2535 B( 63-C , 95-H ) :   1.0220
B( 64-C , 65-C ) :   1.2863 B( 64-C , 69-C ) :   1.1659 B( 65-C , 66-C ) :   1.3515
B( 65-C , 67-S ) :   1.0871 B( 66-C , 96-H ) :   0.9839 B( 67-S , 68-C ) :   1.0875
B( 68-C , 69-C ) :   1.6142 B( 68-C , 70-Br) :   1.0263 B( 69-C , 97-H ) :   1.0003

-----------------------------------------------------------------------------
         ABSORPTION SPECTRUM VIA TRANSITION ELECTRIC DIPOLE MOMENTS
-----------------------------------------------------------------------------
State   Energy  Wavelength   fosc         T2         TX        TY        TZ
        (cm-1)    (nm)                  (au**2)     (au)      (au)      (au)
-----------------------------------------------------------------------------
   0   13455.2    743.2   0.047382972   1.15933   0.64713  -0.85007   0.13390
   1   17318.6    577.4   0.022718425   0.43186  -0.50230  -0.40503   0.12451
   2   17861.1    559.9   0.271880463   5.01124   2.20226   0.27722  -0.29059
   3   19010.0    526.0   0.064058421   1.10935   0.68944   0.76507  -0.22068
   4   21214.3    471.4   0.235871877   3.66036  -1.02126  -1.52833   0.53064
   5   21560.1    463.8   0.001313281   0.02005  -0.11253   0.08188   0.02618
   6   22400.0    446.4   1.065857828  15.66484   3.23746   1.66135  -1.55681
   7   23007.2    434.6   0.256102275   3.66459   1.58135  -0.33445  -1.02570
   8   24679.7    405.2   0.004918770   0.06561  -0.18936  -0.11612   0.12757
   9   25372.4    394.1   0.098233448   1.27460   0.95149  -0.30453  -0.52586
  10   26428.2    378.4   0.115384019   1.43732   0.63322   1.01686  -0.04849
  11   26582.2    376.2   0.448958402   5.56019   1.04810   2.10179   0.21014
  12   27569.8    362.7   0.027877080   0.33288  -0.52955  -0.12607   0.19123
  13   28439.1    351.6   0.002741215   0.03173   0.08458   0.14621  -0.05658
  14   28493.1    351.0   0.086064344   0.99439  -0.21388  -0.96937  -0.09475
  15   28927.9    345.7   0.131123941   1.49225   0.75740   0.92712  -0.24298
  16   29377.8    340.4   0.191925609   2.15075   0.91822  -0.18353  -1.12868
  17   29385.4    340.3   0.270641605   3.03207   1.48065   0.57345  -0.71478
  18   29880.3    334.7   0.445362988   4.90687  -0.55951  -0.85866   1.96380
  19   30215.2    331.0   0.017860934   0.19461   0.05162   0.40567  -0.16544
  20   30312.0    329.9   0.082270485   0.89352  -0.57282   0.61210   0.43674
  21   30529.0    327.6   0.178444758   1.92428   0.53298  -1.15653  -0.55014
  22   31077.2    321.8   0.009950204   0.10541   0.05709   0.24945   0.19980
  23   31706.0    315.4   0.152616279   1.58465  -0.75201  -0.97791   0.25066
  24   31879.7    313.7   0.006910053   0.07136   0.09270   0.23258   0.09312
  25   31925.2    313.2   0.089450183   0.92241   0.43755   0.83086   0.20156
  26   32151.4    311.0   0.023476976   0.24039   0.28847   0.38188   0.10650
  27   32659.1    306.2   0.000568125   0.00573   0.02475  -0.07150  -0.00130
  28   33250.6    300.7   0.020427841   0.20225  -0.18064   0.03956   0.40995
  29   33372.4    299.6   0.365613648   3.60670  -0.30586   0.13302   1.86961
  30   33550.4    298.1   0.065116547   0.63895   0.23830  -0.61147  -0.45636
  31   33683.3    296.9   0.004254928   0.04159   0.10352  -0.09243  -0.14942
  32   33786.6    296.0   0.079858283   0.77813  -0.67694  -0.48579   0.28963
  33   33987.3    294.2   0.011155993   0.10806   0.24815   0.20887  -0.05344
  34   34375.7    290.9   0.041930680   0.40157   0.18474   0.60026  -0.08438
  35   34389.0    290.8   0.048627759   0.46552  -0.25986   0.62833   0.05657
  36   34790.8    287.4   0.067827920   0.64183   0.35514   0.70238   0.14954
  37   34960.5    286.0   0.004823167   0.04542  -0.03517  -0.21000  -0.00897
  38   35322.1    283.1   0.083872584   0.78172  -0.37548  -0.74257   0.29887
  39   35731.0    279.9   0.042413941   0.39079   0.43919   0.44263  -0.04446
  40   35810.8    279.2   0.011976995   0.11011  -0.15219  -0.25850   0.14185
  41   36399.5    274.7   0.006027728   0.05452   0.08245   0.18345   0.11859
  42   36448.6    274.4   0.035636015   0.32187  -0.43258  -0.31809   0.18320
  43   36967.4    270.5   0.017482218   0.15569  -0.03936   0.03585   0.39096
  44   37128.9    269.3   0.141974273   1.25885  -0.05871   0.72687   0.85268
  45   37304.6    268.1   0.021780723   0.19221   0.13535  -0.40589  -0.09563
  46   37455.9    267.0   0.185884868   1.63380  -0.06153  -1.26058  -0.20234
  47   37537.6    266.4   0.001233014   0.01081  -0.02963   0.09859   0.01471
  48   37653.8    265.6   0.022910701   0.20031   0.06412  -0.44218  -0.02599
  49   37779.5    264.7   0.057556244   0.50155   0.03844   0.51096   0.48886
  50   37870.0    264.1   0.000123661   0.00108  -0.02495   0.01108  -0.01816
  51   37995.0    263.2   0.086897458   0.75293  -0.32499  -0.75001  -0.29121
  52   38108.5    262.4   0.023167500   0.20014   0.18889   0.37277  -0.15969
  53   38257.3    261.4   0.022732865   0.19562  -0.21670  -0.14702   0.35643
  54   38899.9    257.1   0.059902545   0.50696  -0.36377  -0.50495  -0.34591
  55   38962.0    256.7   0.002269923   0.01918   0.12755   0.04323   0.03229
  56   39025.4    256.2   0.084302927   0.71117   0.40309   0.73455   0.09551
  57   39226.4    254.9   0.017212527   0.14446  -0.23113  -0.28991   0.08361
  58   39334.5    254.2   0.019867351   0.16628   0.31056  -0.06805  -0.25534
  59   39673.4    252.1   0.096645387   0.80197  -0.63592  -0.62801   0.05638
  60   39858.7    250.9   0.009872016   0.08154   0.10098  -0.11431  -0.24140
  61   40025.5    249.8   0.006145285   0.05055   0.16799  -0.05115   0.14039
  62   40290.6    248.2   0.027450775   0.22430  -0.36745  -0.29356   0.05568

FINAL SINGLE POINT ENERGY     -7591.805990353281

DIPOLE MOMENT
-------------
                                X             Y             Z
Electronic contribution:    101.80737     112.25959     -86.05951
Nuclear contribution   :   -102.54879    -112.23973      84.05630
                        -----------------------------------------
Total Dipole Moment    :     -0.74142       0.01986      -2.00321
                        -----------------------------------------
Magnitude (a.u.)       :      2.13610
Magnitude (Debye)      :      5.42954

Rotational constants in cm-1:     0.001621     0.000316     0.000284
Rotational constants in MHz :    48.593758     9.480667     8.515318

                             ****ORCA TERMINATED NORMALLY****
TOTAL RUN TIME: 0 days 0 hours 11 minutes 19 seconds 293 msec
