                         Program Version 4.2.0 -  RELEASE  -
|  1> # ORCA input file
|  2> # SCF done       -157.750904167874          0.000467167714
|  3> ! CAM-B3LYP def2-SVP def2/J RIJCOSX Grid4 TightSCF
|  4> %maxcore 5000
|  5> %tddft
|  6>     Mode sTDDFT
|  7>     Ethresh 5.0
|  8>     maxcore 5000
|  9> end
| 10>
| 11> %pal
| 12>   nprocs 6
| 13>   end
| 14> * xyz 0 1
| 15>    C        6.79178        -1.08475         6.53191
| 16>    C        7.71329        -1.80333         5.87423
| 17>    C        9.12280        -1.55088         5.78348
| 18>    C        9.80154        -2.45787         5.04570
| 19>    C        8.98813        -3.49065         4.50056
| 20>    S        7.31908        -3.26721         4.95817
| 21>    C        9.39797        -4.55032         3.71631
| 22>    C       10.70663        -4.85488         3.27736
| 23>    C       10.77797        -5.98363         2.52018
| 24>    C        9.53300        -6.63098         2.31766
| 25>    S        8.26082        -5.74315         3.12699
| 26>    C        9.37503        -7.79439         1.59596
| 27>    C        8.20328        -8.50790         1.33583
| 28>    S        8.29802       -10.01266         0.41755
| 29>    C        6.57634       -10.31980         0.48680
| 30>    C        5.95330        -9.28286         1.19554
| 31>    C        6.86323        -8.29753         1.65606
| 32>    O        6.21008        -7.33124         2.32421
| 33>    C        4.89828        -7.68552         2.29922
| 34>    N        3.98163        -6.82430         2.94396
| 35>    O        2.81047        -7.15058         2.91060
| 36>    O        4.42288        -5.82902         3.48082
| 37>    C        4.67414        -8.86286         1.62797
| 38>    C        6.03142       -11.45829        -0.10419
| 39>    S        4.31284       -11.85262        -0.09448
| 40>    C        4.53298       -13.34699        -0.98937
| 41>    C        5.89513       -13.52073        -1.27904
| 42>    C        6.70133       -12.46968        -0.78254
| 43>    O        7.99760       -12.67428        -1.07152
| 44>    C        8.02955       -13.85472        -1.75149
| 45>    N        9.28043       -14.33682        -2.18671
| 46>    O        9.27247       -15.39688        -2.78909
| 47>    O       10.26729       -13.67546        -1.93785
| 48>    C        6.78462       -14.41704        -1.91044
| 49>    C        3.46098       -14.17050        -1.31317
| 50>    S        3.62190       -15.66554        -2.21872
| 51>    C        1.89398       -16.04595        -2.18026
| 52>    C        1.22870       -15.01999        -1.46979
| 53>    C        2.11223       -14.01080        -1.01157
| 54>    O        1.46421       -13.05128        -0.33519
| 55>    C        0.15754       -13.43181        -0.34713
| 56>    N       -0.78206       -12.60560         0.30274
| 57>    O       -1.94164       -12.98076         0.27865
| 58>    O       -0.37787       -11.59270         0.83462
| 59>    C       -0.04763       -14.61411        -1.01783
| 60>    C        1.51854       -17.21679        -2.81596
| 61>    C        0.27995       -17.80898        -3.00275
| 62>    C        0.09372       -19.03068        -3.68651
| 63>    C       -1.20516       -19.44252        -3.76903
| 64>    C       -2.11706       -18.56205        -3.15304
| 65>    S       -1.26216       -17.19680        -2.46506
| 66>    C       -3.49107       -18.67913        -3.05828
| 67>    C       -4.29886       -19.73205        -3.56636
| 68>    C       -5.62173       -19.58234        -3.32395
| 69>    C       -5.95728       -18.39051        -2.60134
| 70>    S       -4.47628       -17.48281        -2.25566
| 71>    C       -7.17313       -17.97324        -2.21936
| 72>    H        7.06966        -0.20059         7.07830
| 73>    H        5.75464        -1.36599         6.53382
| 74>    H        9.56331        -0.70190         6.27528
| 75>    H       10.86218        -2.42693         4.87048
| 76>    H       11.55312        -4.24190         3.52899
| 77>    H       11.68578        -6.37704         2.09807
| 78>    H       10.27727        -8.22107         1.17725
| 79>    H        3.72498        -9.33578         1.47948
| 80>    H        6.56890       -15.33874        -2.40978
| 81>    H       -0.99915       -15.08525        -1.13994
| 82>    H        2.34325       -17.77016        -3.25055
| 83>    H        0.92646       -19.57204        -4.09917
| 84>    H       -1.52123       -20.34756        -4.25482
| 85>    H       -3.86914       -20.56520        -4.09341
| 86>    H       -6.38610       -20.27435        -3.62915
| 87>    H       -8.04973       -18.55296        -2.44907
| 88>    H       -7.31131       -17.05526        -1.67810
| 89> *
| 90>
| 91>                          ****END OF INPUT****

CARTESIAN COORDINATES (ANGSTROEM)
---------------------------------
  C      6.791780   -1.084750    6.531910
  C      7.713290   -1.803330    5.874230
  C      9.122800   -1.550880    5.783480
  C      9.801540   -2.457870    5.045700
  C      8.988130   -3.490650    4.500560
  S      7.319080   -3.267210    4.958170
  C      9.397970   -4.550320    3.716310
  C     10.706630   -4.854880    3.277360
  C     10.777970   -5.983630    2.520180
  C      9.533000   -6.630980    2.317660
  S      8.260820   -5.743150    3.126990
  C      9.375030   -7.794390    1.595960
  C      8.203280   -8.507900    1.335830
  S      8.298020  -10.012660    0.417550
  C      6.576340  -10.319800    0.486800
  C      5.953300   -9.282860    1.195540
  C      6.863230   -8.297530    1.656060
  O      6.210080   -7.331240    2.324210
  C      4.898280   -7.685520    2.299220
  N      3.981630   -6.824300    2.943960
  O      2.810470   -7.150580    2.910600
  O      4.422880   -5.829020    3.480820
  C      4.674140   -8.862860    1.627970
  C      6.031420  -11.458290   -0.104190
  S      4.312840  -11.852620   -0.094480
  C      4.532980  -13.346990   -0.989370
  C      5.895130  -13.520730   -1.279040
  C      6.701330  -12.469680   -0.782540
  O      7.997600  -12.674280   -1.071520
  C      8.029550  -13.854720   -1.751490
  N      9.280430  -14.336820   -2.186710
  O      9.272470  -15.396880   -2.789090
  O     10.267290  -13.675460   -1.937850
  C      6.784620  -14.417040   -1.910440
  C      3.460980  -14.170500   -1.313170
  S      3.621900  -15.665540   -2.218720
  C      1.893980  -16.045950   -2.180260
  C      1.228700  -15.019990   -1.469790
  C      2.112230  -14.010800   -1.011570
  O      1.464210  -13.051280   -0.335190
  C      0.157540  -13.431810   -0.347130
  N     -0.782060  -12.605600    0.302740
  O     -1.941640  -12.980760    0.278650
  O     -0.377870  -11.592700    0.834620
  C     -0.047630  -14.614110   -1.017830
  C      1.518540  -17.216790   -2.815960
  C      0.279950  -17.808980   -3.002750
  C      0.093720  -19.030680   -3.686510
  C     -1.205160  -19.442520   -3.769030
  C     -2.117060  -18.562050   -3.153040
  S     -1.262160  -17.196800   -2.465060
  C     -3.491070  -18.679130   -3.058280
  C     -4.298860  -19.732050   -3.566360
  C     -5.621730  -19.582340   -3.323950
  C     -5.957280  -18.390510   -2.601340
  S     -4.476280  -17.482810   -2.255660
  C     -7.173130  -17.973240   -2.219360
  H      7.069660   -0.200590    7.078300
  H      5.754640   -1.365990    6.533820
  H      9.563310   -0.701900    6.275280
  H     10.862180   -2.426930    4.870480
  H     11.553120   -4.241900    3.528990
  H     11.685780   -6.377040    2.098070
  H     10.277270   -8.221070    1.177250
  H      3.724980   -9.335780    1.479480
  H      6.568900  -15.338740   -2.409780
  H     -0.999150  -15.085250   -1.139940
  H      2.343250  -17.770160   -3.250550
  H      0.926460  -19.572040   -4.099170
  H     -1.521230  -20.347560   -4.254820
  H     -3.869140  -20.565200   -4.093410
  H     -6.386100  -20.274350   -3.629150
  H     -8.049730  -18.552960   -2.449070
  H     -7.311310  -17.055260   -1.678100

 Total Charge           Charge          ....    0
 Multiplicity           Mult            ....    1
 Number of Electrons    NEL             ....  450
 Basis Dimension        Dim             ....  911

ORBITAL ENERGIES
----------------

  NO   OCC          E(Eh)            E(eV)
   0   2.0000     -88.980377     -2421.2791
   1   2.0000     -88.979849     -2421.2648
   2   2.0000     -88.967195     -2420.9204
   3   2.0000     -88.965390     -2420.8713
   4   2.0000     -88.956221     -2420.6218
   5   2.0000     -88.934392     -2420.0278
   6   2.0000     -88.931532     -2419.9500
   7   2.0000     -19.318697      -525.6885
   8   2.0000     -19.317126      -525.6457
   9   2.0000     -19.305653      -525.3335
  10   2.0000     -19.243416      -523.6400
  11   2.0000     -19.241095      -523.5768
  12   2.0000     -19.240979      -523.5737
  13   2.0000     -19.238664      -523.5107
  14   2.0000     -19.235020      -523.4115
  15   2.0000     -19.233610      -523.3731
  16   2.0000     -14.655629      -398.7999
  17   2.0000     -14.653387      -398.7389
  18   2.0000     -14.647447      -398.5773
  19   2.0000     -10.390094      -282.7288
  20   2.0000     -10.386855      -282.6407
  21   2.0000     -10.381690      -282.5002
  22   2.0000     -10.359291      -281.8906
  23   2.0000     -10.353608      -281.7360
  24   2.0000     -10.344555      -281.4896
  25   2.0000     -10.337493      -281.2975
  26   2.0000     -10.336082      -281.2591
  27   2.0000     -10.331054      -281.1223
  28   2.0000     -10.330305      -281.1019
  29   2.0000     -10.328975      -281.0657
  30   2.0000     -10.326895      -281.0091
  31   2.0000     -10.324320      -280.9390
  32   2.0000     -10.323837      -280.9259
  33   2.0000     -10.321909      -280.8734
  34   2.0000     -10.318663      -280.7851
  35   2.0000     -10.315912      -280.7102
  36   2.0000     -10.315099      -280.6881
  37   2.0000     -10.308782      -280.5162
  38   2.0000     -10.308237      -280.5014
  39   2.0000     -10.305136      -280.4170
  40   2.0000     -10.304928      -280.4114
  41   2.0000     -10.304591      -280.4022
  42   2.0000     -10.303895      -280.3832
  43   2.0000     -10.302855      -280.3549
  44   2.0000     -10.302448      -280.3439
  45   2.0000     -10.302247      -280.3384
  46   2.0000     -10.299813      -280.2722
  47   2.0000     -10.298516      -280.2369
  48   2.0000     -10.297521      -280.2098
  49   2.0000     -10.296216      -280.1743
  50   2.0000     -10.288450      -279.9630
  51   2.0000     -10.283836      -279.8374
  52   2.0000     -10.283219      -279.8206
  53   2.0000     -10.281334      -279.7693
  54   2.0000     -10.279863      -279.7293
  55   2.0000     -10.277338      -279.6606
  56   2.0000     -10.264940      -279.3232
  57   2.0000      -8.074544      -219.7195
  58   2.0000      -8.074404      -219.7157
  59   2.0000      -8.061796      -219.3726
  60   2.0000      -8.061262      -219.3581
  61   2.0000      -8.053032      -219.1341
  62   2.0000      -8.030551      -218.5224
  63   2.0000      -8.028266      -218.4602
  64   2.0000      -6.044207      -164.4712
  65   2.0000      -6.044144      -164.4695
  66   2.0000      -6.040108      -164.3597
  67   2.0000      -6.039860      -164.3530
  68   2.0000      -6.035951      -164.2466
  69   2.0000      -6.035872      -164.2444
  70   2.0000      -6.031392      -164.1225
  71   2.0000      -6.030968      -164.1110
  72   2.0000      -6.027208      -164.0087
  73   2.0000      -6.026846      -163.9988
  74   2.0000      -6.023362      -163.9040
  75   2.0000      -6.022813      -163.8891
  76   2.0000      -6.022387      -163.8775
  77   2.0000      -6.018832      -163.7807
  78   2.0000      -6.013651      -163.6398
  79   2.0000      -6.000316      -163.2769
  80   2.0000      -5.998083      -163.2161
  81   2.0000      -5.996146      -163.1634
  82   2.0000      -5.994052      -163.1064
  83   2.0000      -5.991326      -163.0323
  84   2.0000      -5.988851      -162.9649
  85   2.0000      -1.325737       -36.0751
  86   2.0000      -1.323649       -36.0183
  87   2.0000      -1.318410       -35.8758
  88   2.0000      -1.239896       -33.7393
  89   2.0000      -1.237153       -33.6646
  90   2.0000      -1.228261       -33.4227
  91   2.0000      -1.141724       -31.0679
  92   2.0000      -1.139806       -31.0157
  93   2.0000      -1.134444       -30.8698
  94   2.0000      -1.015786       -27.6409
  95   2.0000      -1.010624       -27.5005
  96   2.0000      -1.000513       -27.2253
  97   2.0000      -0.988921       -26.9099
  98   2.0000      -0.986186       -26.8355
  99   2.0000      -0.982814       -26.7437
 100   2.0000      -0.963636       -26.2219
 101   2.0000      -0.942084       -25.6354
 102   2.0000      -0.938576       -25.5400
 103   2.0000      -0.930814       -25.3287
 104   2.0000      -0.911079       -24.7917
 105   2.0000      -0.901410       -24.5286
 106   2.0000      -0.897437       -24.4205
 107   2.0000      -0.892896       -24.2969
 108   2.0000      -0.887475       -24.1494
 109   2.0000      -0.878626       -23.9086
 110   2.0000      -0.866532       -23.5795
 111   2.0000      -0.861123       -23.4323
 112   2.0000      -0.851116       -23.1601
 113   2.0000      -0.839150       -22.8344
 114   2.0000      -0.838037       -22.8041
 115   2.0000      -0.829246       -22.5649
 116   2.0000      -0.814806       -22.1720
 117   2.0000      -0.806942       -21.9580
 118   2.0000      -0.801635       -21.8136
 119   2.0000      -0.796674       -21.6786
 120   2.0000      -0.787363       -21.4252
 121   2.0000      -0.780329       -21.2338
 122   2.0000      -0.762709       -20.7544
 123   2.0000      -0.745755       -20.2930
 124   2.0000      -0.730191       -19.8695
 125   2.0000      -0.723512       -19.6878
 126   2.0000      -0.714150       -19.4330
 127   2.0000      -0.709665       -19.3110
 128   2.0000      -0.693872       -18.8812
 129   2.0000      -0.684534       -18.6271
 130   2.0000      -0.681538       -18.5456
 131   2.0000      -0.678229       -18.4556
 132   2.0000      -0.665548       -18.1105
 133   2.0000      -0.662625       -18.0309
 134   2.0000      -0.647596       -17.6220
 135   2.0000      -0.644931       -17.5495
 136   2.0000      -0.643363       -17.5068
 137   2.0000      -0.641232       -17.4488
 138   2.0000      -0.641132       -17.4461
 139   2.0000      -0.639471       -17.4009
 140   2.0000      -0.635473       -17.2921
 141   2.0000      -0.633004       -17.2249
 142   2.0000      -0.625828       -17.0296
 143   2.0000      -0.620086       -16.8734
 144   2.0000      -0.616239       -16.7687
 145   2.0000      -0.614082       -16.7100
 146   2.0000      -0.612943       -16.6790
 147   2.0000      -0.611545       -16.6410
 148   2.0000      -0.605993       -16.4899
 149   2.0000      -0.596498       -16.2315
 150   2.0000      -0.592516       -16.1232
 151   2.0000      -0.585916       -15.9436
 152   2.0000      -0.582570       -15.8525
 153   2.0000      -0.580379       -15.7929
 154   2.0000      -0.576920       -15.6988
 155   2.0000      -0.571829       -15.5602
 156   2.0000      -0.570566       -15.5259
 157   2.0000      -0.568181       -15.4610
 158   2.0000      -0.562982       -15.3195
 159   2.0000      -0.558933       -15.2094
 160   2.0000      -0.556264       -15.1367
 161   2.0000      -0.547051       -14.8860
 162   2.0000      -0.540538       -14.7088
 163   2.0000      -0.533017       -14.5041
 164   2.0000      -0.527203       -14.3459
 165   2.0000      -0.524641       -14.2762
 166   2.0000      -0.518525       -14.1098
 167   2.0000      -0.515417       -14.0252
 168   2.0000      -0.512803       -13.9541
 169   2.0000      -0.511214       -13.9108
 170   2.0000      -0.508832       -13.8460
 171   2.0000      -0.505136       -13.7455
 172   2.0000      -0.499695       -13.5974
 173   2.0000      -0.495791       -13.4912
 174   2.0000      -0.494747       -13.4628
 175   2.0000      -0.488972       -13.3056
 176   2.0000      -0.488109       -13.2821
 177   2.0000      -0.485084       -13.1998
 178   2.0000      -0.484666       -13.1884
 179   2.0000      -0.477259       -12.9869
 180   2.0000      -0.474540       -12.9129
 181   2.0000      -0.473066       -12.8728
 182   2.0000      -0.466411       -12.6917
 183   2.0000      -0.461909       -12.5692
 184   2.0000      -0.460831       -12.5398
 185   2.0000      -0.459894       -12.5144
 186   2.0000      -0.453401       -12.3377
 187   2.0000      -0.446789       -12.1577
 188   2.0000      -0.441979       -12.0269
 189   2.0000      -0.440835       -11.9957
 190   2.0000      -0.438226       -11.9247
 191   2.0000      -0.434545       -11.8246
 192   2.0000      -0.424616       -11.5544
 193   2.0000      -0.423179       -11.5153
 194   2.0000      -0.423092       -11.5129
 195   2.0000      -0.415190       -11.2979
 196   2.0000      -0.410738       -11.1768
 197   2.0000      -0.405858       -11.0440
 198   2.0000      -0.396476       -10.7887
 199   2.0000      -0.392561       -10.6821
 200   2.0000      -0.390376       -10.6227
 201   2.0000      -0.387767       -10.5517
 202   2.0000      -0.385580       -10.4922
 203   2.0000      -0.381520       -10.3817
 204   2.0000      -0.379347       -10.3226
 205   2.0000      -0.377294       -10.2667
 206   2.0000      -0.376036       -10.2324
 207   2.0000      -0.371089       -10.0978
 208   2.0000      -0.370478       -10.0812
 209   2.0000      -0.369057       -10.0426
 210   2.0000      -0.364156        -9.9092
 211   2.0000      -0.362712        -9.8699
 212   2.0000      -0.352912        -9.6032
 213   2.0000      -0.348260        -9.4766
 214   2.0000      -0.340325        -9.2607
 215   2.0000      -0.330726        -8.9995
 216   2.0000      -0.330193        -8.9850
 217   2.0000      -0.326474        -8.8838
 218   2.0000      -0.322471        -8.7749
 219   2.0000      -0.316800        -8.6206
 220   2.0000      -0.312354        -8.4996
 221   2.0000      -0.292401        -7.9566
 222   2.0000      -0.261936        -7.1276
 223   2.0000      -0.226096        -6.1524
 224   2.0000      -0.195633        -5.3234
 225   0.0000      -0.110745        -3.0135
 226   0.0000      -0.076367        -2.0780
 227   0.0000      -0.062479        -1.7001
 228   0.0000      -0.050459        -1.3731
 229   0.0000      -0.050034        -1.3615

MULLIKEN ATOMIC CHARGES
-----------------------
   0 C :   -0.028425
   1 C :   -0.066146
   2 C :    0.052212
   3 C :    0.028937
   4 C :   -0.071638
   5 S :    0.107536
   6 C :   -0.043300
   7 C :    0.033816
   8 C :    0.028977
   9 C :   -0.034068
  10 S :    0.104583
  11 C :    0.032096
  12 C :   -0.204820
  13 S :    0.179696
  14 C :   -0.123358
  15 C :    0.088783
  16 C :    0.195480
  17 O :   -0.184701
  18 C :    0.248309
  19 N :    0.272486
  20 O :   -0.246802
  21 O :   -0.231194
  22 C :   -0.110325
  23 C :   -0.162114
  24 S :    0.186749
  25 C :   -0.095757
  26 C :    0.088269
  27 C :    0.165851
  28 O :   -0.181089
  29 C :    0.231736
  30 N :    0.279008
  31 O :   -0.254941
  32 O :   -0.232941
  33 C :   -0.093375
  34 C :   -0.161374
  35 S :    0.131903
  36 C :   -0.121155
  37 C :    0.125244
  38 C :    0.144983
  39 O :   -0.181538
  40 C :    0.223157
  41 N :    0.280432
  42 O :   -0.254156
  43 O :   -0.233329
  44 C :   -0.097470
  45 C :    0.016399
  46 C :   -0.016892
  47 C :    0.024696
  48 C :    0.033032
  49 C :   -0.036436
  50 S :    0.064460
  51 C :   -0.057565
  52 C :    0.027058
  53 C :    0.062107
  54 C :   -0.072939
  55 S :    0.102267
  56 C :   -0.013135
  57 H :    0.019580
  58 H :    0.027938
  59 H :   -0.011757
  60 H :   -0.012164
  61 H :   -0.015803
  62 H :   -0.015027
  63 H :   -0.021267
  64 H :    0.023110
  65 H :    0.014954
  66 H :    0.021778
  67 H :   -0.016751
  68 H :   -0.008097
  69 H :   -0.008599
  70 H :   -0.006478
  71 H :   -0.003399
  72 H :    0.029153
  73 H :    0.033552
Sum of atomic charges:    0.0000000

LOEWDIN ATOMIC CHARGES
----------------------
   0 C :   -0.070535
   1 C :   -0.140987
   2 C :   -0.028830
   3 C :   -0.028446
   4 C :   -0.173119
   5 S :    0.373465
   6 C :   -0.189008
   7 C :   -0.029995
   8 C :   -0.038821
   9 C :   -0.141898
  10 S :    0.403323
  11 C :   -0.092839
  12 C :   -0.190142
  13 S :    0.467530
  14 C :   -0.190250
  15 C :   -0.081021
  16 C :    0.012836
  17 O :    0.008371
  18 C :    0.027568
  19 N :    0.271183
  20 O :   -0.208134
  21 O :   -0.194427
  22 C :   -0.014527
  23 C :   -0.214198
  24 S :    0.469049
  25 C :   -0.177130
  26 C :   -0.085913
  27 C :    0.016616
  28 O :    0.007433
  29 C :    0.024211
  30 N :    0.272444
  31 O :   -0.215706
  32 O :   -0.194631
  33 C :   -0.010405
  34 C :   -0.220342
  35 S :    0.443745
  36 C :   -0.144308
  37 C :   -0.083877
  38 C :    0.021606
  39 O :    0.008154
  40 C :    0.016800
  41 N :    0.271752
  42 O :   -0.215185
  43 O :   -0.195518
  44 C :   -0.011856
  45 C :   -0.092678
  46 C :   -0.140031
  47 C :   -0.037633
  48 C :   -0.026026
  49 C :   -0.188167
  50 S :    0.404925
  51 C :   -0.162375
  52 C :   -0.028281
  53 C :   -0.017987
  54 C :   -0.142137
  55 S :    0.371342
  56 C :   -0.052518
  57 H :    0.028383
  58 H :    0.028612
  59 H :    0.033119
  60 H :    0.031832
  61 H :    0.030447
  62 H :    0.031948
  63 H :    0.034629
  64 H :    0.045311
  65 H :    0.041700
  66 H :    0.030271
  67 H :    0.035934
  68 H :    0.035142
  69 H :    0.034122
  70 H :    0.034538
  71 H :    0.037054
  72 H :    0.032901
  73 H :    0.031583

  Mayer bond orders larger than 0.100000
B(  0-C ,  1-C ) :   1.8571 B(  0-C , 57-H ) :   0.9520 B(  0-C , 58-H ) :   0.9416
B(  1-C ,  2-C ) :   1.0812 B(  1-C ,  5-S ) :   1.0078 B(  2-C ,  3-C ) :   1.6551
B(  2-C , 59-H ) :   0.9932 B(  3-C ,  4-C ) :   1.1560 B(  3-C , 60-H ) :   0.9921
B(  4-C ,  5-S ) :   1.0598 B(  4-C ,  6-C ) :   1.5295 B(  6-C ,  7-C ) :   1.1811
B(  6-C , 10-S ) :   1.0301 B(  7-C ,  8-C ) :   1.5870 B(  7-C , 61-H ) :   0.9924
B(  8-C ,  9-C ) :   1.1530 B(  8-C , 62-H ) :   1.0009 B(  9-C , 10-S ) :   1.0562
B(  9-C , 11-C ) :   1.5579 B( 11-C , 12-C ) :   1.1979 B( 11-C , 63-H ) :   0.9414
B( 12-C , 13-S ) :   1.0915 B( 12-C , 14-C ) :   0.1045 B( 12-C , 16-C ) :   1.3866
B( 13-S , 14-C ) :   1.1277 B( 14-C , 15-C ) :   1.3249 B( 14-C , 23-C ) :   1.2834
B( 15-C , 16-C ) :   1.2591 B( 15-C , 22-C ) :   1.0993 B( 16-C , 17-O ) :   1.1075
B( 17-O , 18-C ) :   1.1199 B( 18-C , 19-N ) :   0.9193 B( 18-C , 22-C ) :   1.5566
B( 19-N , 20-O ) :   1.5294 B( 19-N , 21-O ) :   1.5087 B( 20-O , 21-O ) :   0.2797
B( 22-C , 64-H ) :   1.0199 B( 23-C , 24-S ) :   1.0790 B( 23-C , 25-C ) :   0.1009
B( 23-C , 27-C ) :   1.4136 B( 24-S , 25-C ) :   1.1244 B( 25-C , 26-C ) :   1.3090
B( 25-C , 34-C ) :   1.2992 B( 26-C , 27-C ) :   1.2471 B( 26-C , 33-C ) :   1.1047
B( 27-C , 28-O ) :   1.1291 B( 28-O , 29-C ) :   1.1165 B( 29-C , 30-N ) :   0.9291
B( 29-C , 33-C ) :   1.5510 B( 30-N , 31-O ) :   1.5216 B( 30-N , 32-O ) :   1.5056
B( 31-O , 32-O ) :   0.2770 B( 33-C , 65-H ) :   1.0172 B( 34-C , 35-S ) :   1.0779
B( 34-C , 38-C ) :   1.3998 B( 35-S , 36-C ) :   1.1174 B( 36-C , 37-C ) :   1.2617
B( 36-C , 45-C ) :   1.2717 B( 37-C , 38-C ) :   1.2556 B( 37-C , 44-C ) :   1.1154
B( 38-C , 39-O ) :   1.1397 B( 39-O , 40-C ) :   1.1080 B( 40-C , 41-N ) :   0.9309
B( 40-C , 44-C ) :   1.5426 B( 41-N , 42-O ) :   1.5169 B( 41-N , 43-O ) :   1.5013
B( 42-O , 43-O ) :   0.2759 B( 44-C , 66-H ) :   1.0087 B( 45-C , 46-C ) :   1.5199
B( 45-C , 67-H ) :   0.9360 B( 46-C , 47-C ) :   1.1744 B( 46-C , 50-S ) :   1.0576
B( 47-C , 48-C ) :   1.5640 B( 47-C , 68-H ) :   1.0006 B( 48-C , 49-C ) :   1.2016
B( 48-C , 69-H ) :   0.9920 B( 49-C , 50-S ) :   1.0375 B( 49-C , 51-C ) :   1.5061
B( 51-C , 52-C ) :   1.1640 B( 51-C , 55-S ) :   1.0674 B( 52-C , 53-C ) :   1.6497
B( 52-C , 70-H ) :   0.9923 B( 53-C , 54-C ) :   1.0843 B( 53-C , 71-H ) :   0.9930
B( 54-C , 55-S ) :   1.0063 B( 54-C , 56-C ) :   1.8575 B( 56-C , 72-H ) :   0.9515
B( 56-C , 73-H ) :   0.9416

-----------------------------------------------------------------------------
         ABSORPTION SPECTRUM VIA TRANSITION ELECTRIC DIPOLE MOMENTS
-----------------------------------------------------------------------------
State   Energy  Wavelength   fosc         T2         TX        TY        TZ
        (cm-1)    (nm)                  (au**2)     (au)      (au)      (au)
-----------------------------------------------------------------------------
   0    7557.3   1323.2   1.366233600  59.51569   4.68134   5.49809   2.71510
   1   13218.0    756.5   0.205261918   5.11233  -2.15115   0.39226   0.57535
   2   13536.1    738.8   0.213250257   5.18645  -1.73528  -1.35180  -0.58981
   3   15321.4    652.7   0.046622520   1.00178  -0.23823   0.80759   0.54114
   4   17147.3    583.2   0.604307143  11.60214   0.34850   2.86472   1.80943
   5   19167.3    521.7   0.186266546   3.19926   1.70392  -0.25543  -0.48028
   6   20675.8    483.7   0.116637623   1.85717   1.30580   0.36512   0.13694
   7   21024.5    475.6   0.058511837   0.91621   0.93700  -0.06585  -0.18412
   8   23127.7    432.4   0.042862317   0.61012   0.50736  -0.50137  -0.31834
   9   25130.1    397.9   0.017901859   0.23452   0.06597  -0.43660  -0.19888
  10   25900.4    386.1   0.008203175   0.10427  -0.31821  -0.02947   0.04629
  11   26550.5    376.6   0.214813527   2.66357   1.31119  -0.70637  -0.66739
  12   26969.6    370.8   0.001553431   0.01896  -0.07745   0.11345  -0.00964
  13   28602.2    349.6   0.014417666   0.16595   0.26690   0.29148   0.09877
  14   29645.6    337.3   0.089456997   0.99341  -0.73709   0.50634   0.44014
  15   29882.8    334.6   0.024806402   0.27329   0.22372  -0.41057  -0.23382
  16   30746.8    325.2   0.056062090   0.60027  -0.65776   0.29828   0.28044
  17   31535.0    317.1   0.039302336   0.41030   0.60863  -0.10881  -0.16743
  18   31808.0    314.4   0.125346635   1.29733   0.84935  -0.58797  -0.47983
  19   31910.1    313.4   0.035527768   0.36654  -0.44420   0.31587   0.26353
  20   32111.6    311.4   0.177892163   1.82377   1.15261  -0.51490  -0.47972
  21   32259.3    310.0   0.000566224   0.00578  -0.07419  -0.00953  -0.01353
  22   32957.1    303.4   0.060930994   0.60865  -0.44043   0.54615   0.34115
  23   33183.4    301.4   0.000161140   0.00160  -0.03415   0.01951   0.00718
  24   33279.7    300.5   0.261640519   2.58822  -1.45079   0.47753   0.50536
  25   33654.9    297.1   0.052643672   0.51496  -0.60827   0.28540   0.25201
  26   33732.6    296.4   0.000054996   0.00054   0.00433  -0.00691  -0.02168
  27   34074.1    293.5   0.113363845   1.09528   0.46445  -0.78039  -0.52016
  28   34694.7    288.2   0.022143090   0.21011  -0.00173   0.39807   0.22727
  29   35023.3    285.5   0.000134778   0.00127  -0.01596   0.02620   0.01805
  30   35408.0    282.4   0.036941841   0.34347   0.57956   0.00620  -0.08689
  31   35502.9    281.7   0.027093598   0.25123  -0.49559   0.00790   0.07461
  32   36267.0    275.7   0.010411532   0.09451   0.06349  -0.25340  -0.16208
  33   36317.6    275.3   0.211039951   1.91304  -1.35569   0.13490   0.23863
  34   36857.5    271.3   0.000936349   0.00836  -0.02762  -0.02842   0.08242
  35   37117.5    269.4   0.562504488   4.98911   1.55570  -1.24597  -1.00821
  36   37390.3    267.4   0.047354219   0.41694   0.47714  -0.34292  -0.26774
  37   37469.5    266.9   0.016707346   0.14679  -0.37758  -0.06251   0.01794
  38   37987.8    263.2   0.019685071   0.17060  -0.41217  -0.01235   0.02371
  39   38607.3    259.0   0.103557066   0.88305   0.79781  -0.36389  -0.33784
  40   38748.1    258.1   0.263453975   2.23836  -1.01868   0.86897   0.66749
  41   38972.2    256.6   0.002852859   0.02410   0.10686  -0.06588  -0.09132
  42   39283.3    254.6   0.044534549   0.37322   0.33407  -0.42021  -0.29162
  43   39706.5    251.8   0.026671197   0.22113  -0.46328   0.02738   0.07584
  44   40089.3    249.4   0.019414303   0.15943  -0.38222   0.03560   0.10986
  45   40224.4    248.6   0.152608249   1.24901   0.92150  -0.48508  -0.40563

FINAL SINGLE POINT ENERGY     -5082.761129971233

DIPOLE MOMENT
-------------
                                X             Y             Z
Electronic contribution:     12.58255      -2.28997      -4.02161
Nuclear contribution   :    -13.79762      -0.63410       2.44329
                        -----------------------------------------
Total Dipole Moment    :     -1.21507      -2.92407      -1.57833
                        -----------------------------------------
Magnitude (a.u.)       :      3.53804
Magnitude (Debye)      :      8.99298

Rotational constants in cm-1:     0.002257     0.000390     0.000333
Rotational constants in MHz :    67.651036    11.687537     9.968466

                             ****ORCA TERMINATED NORMALLY****
TOTAL RUN TIME: 0 days 0 hours 6 minutes 23 seconds 991 msec
