                         Program Version 4.2.0 -  RELEASE  -
|  1> # ORCA input file
|  2> # SCF done       -195.407525070261          0.000693600733
|  3> ! CAM-B3LYP def2-SVP def2/J RIJCOSX Grid4 TightSCF
|  4> %maxcore 5000
|  5> %tddft
|  6>     Mode sTDDFT
|  7>     Ethresh 5.0
|  8>     maxcore 5000
|  9> end
| 10>
| 11> %pal
| 12>   nprocs 6
| 13>   end
| 14> * xyz 0 1
| 15>    C       -3.28247        -4.07341        -6.96695
| 16>    C       -3.93295        -5.14556        -6.39317
| 17>    C       -3.42723        -6.45868        -6.37883
| 18>    N       -3.06519        -7.54839        -6.32692
| 19>    C       -5.20533        -5.10057        -5.79270
| 20>    N       -6.25161        -5.16135        -5.31927
| 21>    C       -2.03291        -4.15300        -7.72226
| 22>    C       -1.75838        -2.87782        -8.27384
| 23>    C       -0.66252        -2.63295        -9.06244
| 24>    C        0.20878        -3.69842        -9.31897
| 25>    C       -0.07008        -4.96552        -8.75850
| 26>    C       -1.18150        -5.21361        -7.96027
| 27>    S        1.13288        -6.13953        -9.20156
| 28>    C        1.98027        -4.92700       -10.12453
| 29>    C        1.39624        -3.70600       -10.10170
| 30>   Br        3.55625        -5.38872       -11.03270
| 31>    C       -2.81858        -1.93147        -7.86022
| 32>    O       -2.89299        -0.75604        -8.16453
| 33>    C       -3.73367        -2.71155        -7.00950
| 34>    C       -4.82677        -2.18772        -6.33837
| 35>    C       -5.32267        -0.90420        -6.49243
| 36>    C       -6.46000        -0.46250        -5.82759
| 37>    C       -7.17759         0.72242        -6.06659
| 38>    C       -8.34363         0.82109        -5.34924
| 39>    C       -8.57032        -0.27040        -4.49911
| 40>    S       -7.26128        -1.41657        -4.60003
| 41>    C       -9.68604        -0.52426        -3.69849
| 42>    C      -10.86125         0.22749        -3.58399
| 43>    C      -11.80032        -0.34912        -2.76214
| 44>    C      -11.38396        -1.55266        -2.18198
| 45>    S       -9.77539        -1.96060        -2.71945
| 46>    C      -12.11551        -2.35854        -1.30987
| 47>    C      -11.63066        -3.46457        -0.65636
| 48>    C      -12.42769        -4.29821         0.13156
| 49>    C      -12.05533        -5.42240         0.87821
| 50>    C      -13.11112        -6.08479         1.46505
| 51>    C      -14.35554        -5.51814         1.17103
| 52>    S      -14.15341        -4.06809         0.21968
| 53>    C      -15.65150        -5.97433         1.41560
| 54>    C      -16.13036        -7.00196         2.24251
| 55>    C      -17.48829        -7.17747         2.16673
| 56>    C      -18.13370        -6.31640         1.25291
| 57>    S      -16.95981        -5.24787         0.52348
| 58>    C      -19.46757        -6.26516         0.90192
| 59>    C      -19.93506        -5.41858        -0.11154
| 60>    O      -19.03532        -4.65020        -0.79542
| 61>    C      -21.19186        -5.17243        -0.65288
| 62>    C      -22.60698        -5.52073        -0.56515
| 63>    O      -23.19895        -6.27588         0.16361
| 64>    N      -23.19644        -4.75093        -1.57112
| 65>    C      -22.32268        -3.94590        -2.29652
| 66>    O      -22.63832        -3.21198        -3.19734
| 67>    C      -21.01637        -4.22734        -1.69339
| 68>    C      -19.66796        -3.93010        -1.76146
| 69>    C      -18.90585        -3.10294        -2.63129
| 70>    C      -17.55454        -3.07993        -2.57872
| 71>    C      -16.70513        -2.26361        -3.40843
| 72>    C      -17.15038        -1.03875        -3.82816
| 73>    S      -16.01796        -0.12919        -4.72998
| 74>    C      -14.87977        -1.43828        -4.61151
| 75>    C      -15.35244        -2.52904        -3.86644
| 76>    C      -14.50034        -3.65465        -3.71706
| 77>    C      -15.02295        -4.87506        -3.00591
| 78>    C      -16.06916        -5.59848        -3.85661
| 79>    C      -13.22643        -3.65617        -4.27775
| 80>    C      -12.25035        -4.76928        -3.98736
| 81>    C      -12.43693        -5.98995        -4.89361
| 82>    C      -12.80025        -2.58750        -5.10697
| 83>    C      -11.60679        -2.40544        -5.90884
| 84>    C      -11.59810        -1.18746        -6.51919
| 85>    S      -12.97626        -0.20857        -6.21479
| 86>    C      -13.63946        -1.46850        -5.22502
| 87>    C      -10.54893        -3.36906        -6.18941
| 88>    C       -9.32784        -3.05278        -6.60401
| 89>    H       -0.48214        -1.65164        -9.47262
| 90>    H       -1.34946        -6.19799        -7.55650
| 91>    H        1.78400        -2.84529       -10.61545
| 92>    H       -5.35883        -2.83671        -5.65312
| 93>    H       -4.85030        -0.23394        -7.19572
| 94>    H       -6.83781         1.45307        -6.77874
| 95>    H       -9.03309         1.64255        -5.42623
| 96>    H      -11.00693         1.15475        -4.10734
| 97>    H      -12.76893         0.07313        -2.56102
| 98>    H      -13.14716        -2.07140        -1.14643
| 99>    H      -10.58517        -3.72452        -0.75831
|100>    H      -11.02877        -5.73297         0.96082
|101>    H      -13.01203        -6.97811         2.05523
|102>    H      -15.48180        -7.57614         2.88005
|103>    H      -18.03806        -7.91083         2.72933
|104>    H      -20.18555        -6.90220         1.39258
|105>    H      -24.18881        -4.77549        -1.75680
|106>    H      -19.47202        -2.54422        -3.36056
|107>    H      -17.08271        -3.70408        -1.83685
|108>    H      -18.09980        -0.59652        -3.59739
|109>    H      -15.45761        -4.59494        -2.04896
|110>    H      -14.21780        -5.57141        -2.78836
|111>    H      -16.91896        -4.95428        -4.06608
|112>    H      -16.42861        -6.48136        -3.33251
|113>    H      -15.63785        -5.90873        -4.80560
|114>    H      -12.34104        -5.07689        -2.94364
|115>    H      -11.23982        -4.37740        -4.09882
|116>    H      -13.33632        -6.53948        -4.63037
|117>    H      -11.58669        -6.66149        -4.79578
|118>    H      -12.52734        -5.69059        -5.93564
|119>    H      -10.85226        -0.81273        -7.19201
|120>    H      -10.80423        -4.41112        -6.10084
|121>    H       -9.00530        -2.03413        -6.73414
|122>    H       -8.59654        -3.81274        -6.81533
|123> *
|124>
|125>                          ****END OF INPUT****

CARTESIAN COORDINATES (ANGSTROEM)
---------------------------------
  C     -3.282470   -4.073410   -6.966950
  C     -3.932950   -5.145560   -6.393170
  C     -3.427230   -6.458680   -6.378830
  N     -3.065190   -7.548390   -6.326920
  C     -5.205330   -5.100570   -5.792700
  N     -6.251610   -5.161350   -5.319270
  C     -2.032910   -4.153000   -7.722260
  C     -1.758380   -2.877820   -8.273840
  C     -0.662520   -2.632950   -9.062440
  C      0.208780   -3.698420   -9.318970
  C     -0.070080   -4.965520   -8.758500
  C     -1.181500   -5.213610   -7.960270
  S      1.132880   -6.139530   -9.201560
  C      1.980270   -4.927000  -10.124530
  C      1.396240   -3.706000  -10.101700
  Br     3.556250   -5.388720  -11.032700
  C     -2.818580   -1.931470   -7.860220
  O     -2.892990   -0.756040   -8.164530
  C     -3.733670   -2.711550   -7.009500
  C     -4.826770   -2.187720   -6.338370
  C     -5.322670   -0.904200   -6.492430
  C     -6.460000   -0.462500   -5.827590
  C     -7.177590    0.722420   -6.066590
  C     -8.343630    0.821090   -5.349240
  C     -8.570320   -0.270400   -4.499110
  S     -7.261280   -1.416570   -4.600030
  C     -9.686040   -0.524260   -3.698490
  C    -10.861250    0.227490   -3.583990
  C    -11.800320   -0.349120   -2.762140
  C    -11.383960   -1.552660   -2.181980
  S     -9.775390   -1.960600   -2.719450
  C    -12.115510   -2.358540   -1.309870
  C    -11.630660   -3.464570   -0.656360
  C    -12.427690   -4.298210    0.131560
  C    -12.055330   -5.422400    0.878210
  C    -13.111120   -6.084790    1.465050
  C    -14.355540   -5.518140    1.171030
  S    -14.153410   -4.068090    0.219680
  C    -15.651500   -5.974330    1.415600
  C    -16.130360   -7.001960    2.242510
  C    -17.488290   -7.177470    2.166730
  C    -18.133700   -6.316400    1.252910
  S    -16.959810   -5.247870    0.523480
  C    -19.467570   -6.265160    0.901920
  C    -19.935060   -5.418580   -0.111540
  O    -19.035320   -4.650200   -0.795420
  C    -21.191860   -5.172430   -0.652880
  C    -22.606980   -5.520730   -0.565150
  O    -23.198950   -6.275880    0.163610
  N    -23.196440   -4.750930   -1.571120
  C    -22.322680   -3.945900   -2.296520
  O    -22.638320   -3.211980   -3.197340
  C    -21.016370   -4.227340   -1.693390
  C    -19.667960   -3.930100   -1.761460
  C    -18.905850   -3.102940   -2.631290
  C    -17.554540   -3.079930   -2.578720
  C    -16.705130   -2.263610   -3.408430
  C    -17.150380   -1.038750   -3.828160
  S    -16.017960   -0.129190   -4.729980
  C    -14.879770   -1.438280   -4.611510
  C    -15.352440   -2.529040   -3.866440
  C    -14.500340   -3.654650   -3.717060
  C    -15.022950   -4.875060   -3.005910
  C    -16.069160   -5.598480   -3.856610
  C    -13.226430   -3.656170   -4.277750
  C    -12.250350   -4.769280   -3.987360
  C    -12.436930   -5.989950   -4.893610
  C    -12.800250   -2.587500   -5.106970
  C    -11.606790   -2.405440   -5.908840
  C    -11.598100   -1.187460   -6.519190
  S    -12.976260   -0.208570   -6.214790
  C    -13.639460   -1.468500   -5.225020
  C    -10.548930   -3.369060   -6.189410
  C     -9.327840   -3.052780   -6.604010
  H     -0.482140   -1.651640   -9.472620
  H     -1.349460   -6.197990   -7.556500
  H      1.784000   -2.845290  -10.615450
  H     -5.358830   -2.836710   -5.653120
  H     -4.850300   -0.233940   -7.195720
  H     -6.837810    1.453070   -6.778740
  H     -9.033090    1.642550   -5.426230
  H    -11.006930    1.154750   -4.107340
  H    -12.768930    0.073130   -2.561020
  H    -13.147160   -2.071400   -1.146430
  H    -10.585170   -3.724520   -0.758310
  H    -11.028770   -5.732970    0.960820
  H    -13.012030   -6.978110    2.055230
  H    -15.481800   -7.576140    2.880050
  H    -18.038060   -7.910830    2.729330
  H    -20.185550   -6.902200    1.392580
  H    -24.188810   -4.775490   -1.756800
  H    -19.472020   -2.544220   -3.360560
  H    -17.082710   -3.704080   -1.836850
  H    -18.099800   -0.596520   -3.597390
  H    -15.457610   -4.594940   -2.048960
  H    -14.217800   -5.571410   -2.788360
  H    -16.918960   -4.954280   -4.066080
  H    -16.428610   -6.481360   -3.332510
  H    -15.637850   -5.908730   -4.805600
  H    -12.341040   -5.076890   -2.943640
  H    -11.239820   -4.377400   -4.098820
  H    -13.336320   -6.539480   -4.630370
  H    -11.586690   -6.661490   -4.795780
  H    -12.527340   -5.690590   -5.935640
  H    -10.852260   -0.812730   -7.192010
  H    -10.804230   -4.411120   -6.100840
  H     -9.005300   -2.034130   -6.734140
  H     -8.596540   -3.812740   -6.815330

 Total Charge           Charge          ....    0
 Multiplicity           Mult            ....    1
 Number of Electrons    NEL             ....  588
 Basis Dimension        Dim             .... 1252

ORBITAL ENERGIES
----------------

  NO   OCC          E(Eh)            E(eV)
   0   2.0000    -482.872881    -13139.6391
   1   2.0000     -88.968579     -2420.9581
   2   2.0000     -88.967465     -2420.9278
   3   2.0000     -88.964256     -2420.8405
   4   2.0000     -88.963799     -2420.8280
   5   2.0000     -88.959543     -2420.7122
   6   2.0000     -88.956061     -2420.6175
   7   2.0000     -88.955452     -2420.6009
   8   2.0000     -62.550588     -1702.0880
   9   2.0000     -56.384521     -1534.3008
  10   2.0000     -56.381841     -1534.2279
  11   2.0000     -56.381799     -1534.2267
  12   2.0000     -19.315673      -525.6062
  13   2.0000     -19.210282      -522.7383
  14   2.0000     -19.210029      -522.7315
  15   2.0000     -19.191661      -522.2317
  16   2.0000     -14.453914      -393.3110
  17   2.0000     -14.395115      -391.7110
  18   2.0000     -14.391028      -391.5998
  19   2.0000     -10.399973      -282.9976
  20   2.0000     -10.399778      -282.9923
  21   2.0000     -10.367307      -282.1088
  22   2.0000     -10.367123      -282.1038
  23   2.0000     -10.343276      -281.4548
  24   2.0000     -10.341810      -281.4150
  25   2.0000     -10.332139      -281.1518
  26   2.0000     -10.332077      -281.1501
  27   2.0000     -10.331248      -281.1276
  28   2.0000     -10.330707      -281.1128
  29   2.0000     -10.330513      -281.1075
  30   2.0000     -10.319481      -280.8074
  31   2.0000     -10.319273      -280.8017
  32   2.0000     -10.316121      -280.7159
  33   2.0000     -10.315606      -280.7019
  34   2.0000     -10.312639      -280.6212
  35   2.0000     -10.308891      -280.5192
  36   2.0000     -10.308473      -280.5078
  37   2.0000     -10.307879      -280.4917
  38   2.0000     -10.306971      -280.4669
  39   2.0000     -10.306959      -280.4666
  40   2.0000     -10.306690      -280.4593
  41   2.0000     -10.305983      -280.4401
  42   2.0000     -10.304944      -280.4118
  43   2.0000     -10.303174      -280.3636
  44   2.0000     -10.302275      -280.3391
  45   2.0000     -10.300209      -280.2829
  46   2.0000     -10.299662      -280.2680
  47   2.0000     -10.299503      -280.2637
  48   2.0000     -10.299210      -280.2557
  49   2.0000     -10.299024      -280.2507
  50   2.0000     -10.296078      -280.1705
  51   2.0000     -10.295576      -280.1569
  52   2.0000     -10.294695      -280.1329
  53   2.0000     -10.294450      -280.1262
  54   2.0000     -10.294162      -280.1184
  55   2.0000     -10.293610      -280.1034
  56   2.0000     -10.292791      -280.0811
  57   2.0000     -10.288910      -279.9755
  58   2.0000     -10.288049      -279.9520
  59   2.0000     -10.288041      -279.9518
  60   2.0000     -10.287015      -279.9239
  61   2.0000     -10.286081      -279.8985
  62   2.0000     -10.285259      -279.8761
  63   2.0000     -10.282643      -279.8049
  64   2.0000     -10.281804      -279.7821
  65   2.0000     -10.281445      -279.7723
  66   2.0000     -10.280660      -279.7510
  67   2.0000     -10.280225      -279.7391
  68   2.0000     -10.278644      -279.6961
  69   2.0000     -10.270971      -279.4873
  70   2.0000     -10.266925      -279.3772
  71   2.0000     -10.265993      -279.3519
  72   2.0000     -10.264253      -279.3045
  73   2.0000     -10.264151      -279.3018
  74   2.0000     -10.262927      -279.2685
  75   2.0000     -10.255977      -279.0793
  76   2.0000     -10.255463      -279.0653
  77   2.0000     -10.252811      -278.9932
  78   2.0000      -8.780003      -238.9160
  79   2.0000      -8.064355      -219.4423
  80   2.0000      -8.062580      -219.3940
  81   2.0000      -8.059977      -219.3231
  82   2.0000      -8.059823      -219.3189
  83   2.0000      -8.055537      -219.2023
  84   2.0000      -8.051505      -219.0926
  85   2.0000      -8.051247      -219.0856
  86   2.0000      -6.616226      -180.0367
  87   2.0000      -6.601753      -179.6428
  88   2.0000      -6.601614      -179.6390
  89   2.0000      -6.033930      -164.1916
  90   2.0000      -6.032420      -164.1505
  91   2.0000      -6.029880      -164.0814
  92   2.0000      -6.029491      -164.0708
  93   2.0000      -6.029237      -164.0639
  94   2.0000      -6.027898      -164.0274
  95   2.0000      -6.025665      -163.9667
  96   2.0000      -6.025443      -163.9607
  97   2.0000      -6.025241      -163.9551
  98   2.0000      -6.025025      -163.9493
  99   2.0000      -6.023797      -163.9158
 100   2.0000      -6.021714      -163.8592
 101   2.0000      -6.021418      -163.8511
 102   2.0000      -6.021014      -163.8401
 103   2.0000      -6.020962      -163.8387
 104   2.0000      -6.020749      -163.8329
 105   2.0000      -6.016966      -163.7300
 106   2.0000      -6.016758      -163.7243
 107   2.0000      -6.016581      -163.7195
 108   2.0000      -6.012979      -163.6215
 109   2.0000      -6.012962      -163.6210
 110   2.0000      -2.732107       -74.3444
 111   2.0000      -2.728039       -74.2337
 112   2.0000      -2.727937       -74.2310
 113   2.0000      -2.716442       -73.9181
 114   2.0000      -2.716416       -73.9174
 115   2.0000      -1.233407       -33.5627
 116   2.0000      -1.154491       -31.4153
 117   2.0000      -1.133686       -30.8492
 118   2.0000      -1.104844       -30.0643
 119   2.0000      -1.042312       -28.3628
 120   2.0000      -1.019446       -27.7405
 121   2.0000      -1.010520       -27.4976
 122   2.0000      -1.007343       -27.4112
 123   2.0000      -1.003348       -27.3025
 124   2.0000      -0.997175       -27.1345
 125   2.0000      -0.992813       -27.0158
 126   2.0000      -0.985645       -26.8208
 127   2.0000      -0.976884       -26.5824
 128   2.0000      -0.972667       -26.4676
 129   2.0000      -0.967568       -26.3289
 130   2.0000      -0.939611       -25.5681
 131   2.0000      -0.929376       -25.2896
 132   2.0000      -0.925725       -25.1903
 133   2.0000      -0.925139       -25.1743
 134   2.0000      -0.922585       -25.1048
 135   2.0000      -0.908096       -24.7105
 136   2.0000      -0.898510       -24.4497
 137   2.0000      -0.888863       -24.1872
 138   2.0000      -0.886096       -24.1119
 139   2.0000      -0.879676       -23.9372
 140   2.0000      -0.870713       -23.6933
 141   2.0000      -0.867168       -23.5968
 142   2.0000      -0.866618       -23.5819
 143   2.0000      -0.858133       -23.3510
 144   2.0000      -0.856826       -23.3154
 145   2.0000      -0.855101       -23.2685
 146   2.0000      -0.850329       -23.1386
 147   2.0000      -0.839775       -22.8514
 148   2.0000      -0.832376       -22.6501
 149   2.0000      -0.832221       -22.6459
 150   2.0000      -0.820035       -22.3143
 151   2.0000      -0.817942       -22.2573
 152   2.0000      -0.810957       -22.0673
 153   2.0000      -0.805420       -21.9166
 154   2.0000      -0.790390       -21.5076
 155   2.0000      -0.782456       -21.2917
 156   2.0000      -0.777863       -21.1667
 157   2.0000      -0.770535       -20.9673
 158   2.0000      -0.765527       -20.8311
 159   2.0000      -0.755298       -20.5527
 160   2.0000      -0.739988       -20.1361
 161   2.0000      -0.735334       -20.0094
 162   2.0000      -0.723502       -19.6875
 163   2.0000      -0.721100       -19.6221
 164   2.0000      -0.712679       -19.3930
 165   2.0000      -0.705497       -19.1976
 166   2.0000      -0.700921       -19.0730
 167   2.0000      -0.695588       -18.9279
 168   2.0000      -0.693983       -18.8842
 169   2.0000      -0.691261       -18.8102
 170   2.0000      -0.677033       -18.4230
 171   2.0000      -0.675473       -18.3805
 172   2.0000      -0.669793       -18.2260
 173   2.0000      -0.665174       -18.1003
 174   2.0000      -0.655259       -17.8305
 175   2.0000      -0.649558       -17.6754
 176   2.0000      -0.647581       -17.6216
 177   2.0000      -0.642557       -17.4849
 178   2.0000      -0.638439       -17.3728
 179   2.0000      -0.636478       -17.3195
 180   2.0000      -0.631700       -17.1894
 181   2.0000      -0.630784       -17.1645
 182   2.0000      -0.621155       -16.9025
 183   2.0000      -0.615990       -16.7620
 184   2.0000      -0.612369       -16.6634
 185   2.0000      -0.609858       -16.5951
 186   2.0000      -0.604273       -16.4431
 187   2.0000      -0.603438       -16.4204
 188   2.0000      -0.594263       -16.1707
 189   2.0000      -0.590041       -16.0558
 190   2.0000      -0.588886       -16.0244
 191   2.0000      -0.583878       -15.8881
 192   2.0000      -0.580083       -15.7849
 193   2.0000      -0.577585       -15.7169
 194   2.0000      -0.575189       -15.6517
 195   2.0000      -0.567788       -15.4503
 196   2.0000      -0.561925       -15.2908
 197   2.0000      -0.558318       -15.1926
 198   2.0000      -0.551045       -14.9947
 199   2.0000      -0.548199       -14.9173
 200   2.0000      -0.545926       -14.8554
 201   2.0000      -0.543217       -14.7817
 202   2.0000      -0.539133       -14.6706
 203   2.0000      -0.535753       -14.5786
 204   2.0000      -0.534558       -14.5461
 205   2.0000      -0.528634       -14.3849
 206   2.0000      -0.524534       -14.2733
 207   2.0000      -0.521482       -14.1903
 208   2.0000      -0.519430       -14.1344
 209   2.0000      -0.517948       -14.0941
 210   2.0000      -0.517326       -14.0772
 211   2.0000      -0.516138       -14.0448
 212   2.0000      -0.515778       -14.0350
 213   2.0000      -0.513657       -13.9773
 214   2.0000      -0.511770       -13.9260
 215   2.0000      -0.510050       -13.8792
 216   2.0000      -0.509483       -13.8637
 217   2.0000      -0.507173       -13.8009
 218   2.0000      -0.506091       -13.7714
 219   2.0000      -0.504011       -13.7148
 220   2.0000      -0.499851       -13.6016
 221   2.0000      -0.496733       -13.5168
 222   2.0000      -0.494381       -13.4528
 223   2.0000      -0.490813       -13.3557
 224   2.0000      -0.489366       -13.3163
 225   2.0000      -0.488005       -13.2793
 226   2.0000      -0.487566       -13.2673
 227   2.0000      -0.484632       -13.1875
 228   2.0000      -0.481861       -13.1121
 229   2.0000      -0.481206       -13.0943
 230   2.0000      -0.477839       -13.0027
 231   2.0000      -0.477519       -12.9940
 232   2.0000      -0.476273       -12.9601
 233   2.0000      -0.473960       -12.8971
 234   2.0000      -0.471986       -12.8434
 235   2.0000      -0.471069       -12.8184
 236   2.0000      -0.469257       -12.7691
 237   2.0000      -0.466996       -12.7076
 238   2.0000      -0.458882       -12.4868
 239   2.0000      -0.457920       -12.4606
 240   2.0000      -0.455383       -12.3916
 241   2.0000      -0.452560       -12.3148
 242   2.0000      -0.451557       -12.2875
 243   2.0000      -0.449889       -12.2421
 244   2.0000      -0.447191       -12.1687
 245   2.0000      -0.442402       -12.0384
 246   2.0000      -0.441079       -12.0024
 247   2.0000      -0.440452       -11.9853
 248   2.0000      -0.435041       -11.8381
 249   2.0000      -0.432775       -11.7764
 250   2.0000      -0.430878       -11.7248
 251   2.0000      -0.429373       -11.6838
 252   2.0000      -0.428702       -11.6656
 253   2.0000      -0.427738       -11.6393
 254   2.0000      -0.423298       -11.5185
 255   2.0000      -0.421391       -11.4666
 256   2.0000      -0.417078       -11.3493
 257   2.0000      -0.413522       -11.2525
 258   2.0000      -0.412936       -11.2366
 259   2.0000      -0.411550       -11.1989
 260   2.0000      -0.409861       -11.1529
 261   2.0000      -0.406669       -11.0660
 262   2.0000      -0.406205       -11.0534
 263   2.0000      -0.403478       -10.9792
 264   2.0000      -0.400982       -10.9113
 265   2.0000      -0.393174       -10.6988
 266   2.0000      -0.390662       -10.6304
 267   2.0000      -0.386998       -10.5308
 268   2.0000      -0.384644       -10.4667
 269   2.0000      -0.381517       -10.3816
 270   2.0000      -0.378844       -10.3089
 271   2.0000      -0.371945       -10.1211
 272   2.0000      -0.369435       -10.0528
 273   2.0000      -0.367145        -9.9905
 274   2.0000      -0.362555        -9.8656
 275   2.0000      -0.361371        -9.8334
 276   2.0000      -0.358318        -9.7503
 277   2.0000      -0.352481        -9.5915
 278   2.0000      -0.345911        -9.4127
 279   2.0000      -0.345266        -9.3952
 280   2.0000      -0.341491        -9.2924
 281   2.0000      -0.339391        -9.2353
 282   2.0000      -0.332142        -9.0381
 283   2.0000      -0.324538        -8.8311
 284   2.0000      -0.315270        -8.5789
 285   2.0000      -0.312770        -8.5109
 286   2.0000      -0.311194        -8.4680
 287   2.0000      -0.297601        -8.0981
 288   2.0000      -0.289496        -7.8776
 289   2.0000      -0.275995        -7.5102
 290   2.0000      -0.267408        -7.2766
 291   2.0000      -0.262227        -7.1356
 292   2.0000      -0.247451        -6.7335
 293   2.0000      -0.204284        -5.5588
 294   0.0000      -0.131227        -3.5709
 295   0.0000      -0.080138        -2.1807
 296   0.0000      -0.052315        -1.4236
 297   0.0000      -0.048923        -1.3313
 298   0.0000      -0.036244        -0.9862

MULLIKEN ATOMIC CHARGES
-----------------------
   0 C :    0.327471
   1 C :   -0.371214
   2 C :   -0.187304
   3 N :    0.125261
   4 C :   -0.196248
   5 N :    0.126007
   6 C :    0.011865
   7 C :   -0.008813
   8 C :   -0.081522
   9 C :    0.118029
  10 C :   -0.091145
  11 C :   -0.027428
  12 S :    0.175216
  13 C :   -0.125584
  14 C :    0.038334
  15 Br:    0.009803
  16 C :    0.136750
  17 O :   -0.169490
  18 C :   -0.098452
  19 C :   -0.047376
  20 C :   -0.017429
  21 C :   -0.003018
  22 C :    0.016468
  23 C :    0.033644
  24 C :   -0.070526
  25 S :    0.111806
  26 C :   -0.017029
  27 C :    0.024056
  28 C :    0.070256
  29 C :   -0.049895
  30 S :    0.122265
  31 C :    0.030607
  32 C :   -0.012907
  33 C :   -0.027160
  34 C :    0.024602
  35 C :    0.034626
  36 C :   -0.044499
  37 S :    0.075180
  38 C :   -0.015217
  39 C :    0.031748
  40 C :    0.030614
  41 C :   -0.008484
  42 S :    0.077149
  43 C :   -0.018916
  44 C :    0.090713
  45 O :   -0.255616
  46 C :   -0.025374
  47 C :    0.156809
  48 O :   -0.144552
  49 N :   -0.167645
  50 C :    0.160991
  51 O :   -0.144446
  52 C :   -0.033969
  53 C :    0.097003
  54 C :   -0.030207
  55 C :   -0.011073
  56 C :    0.071976
  57 C :   -0.111479
  58 S :    0.137312
  59 C :   -0.167445
  60 C :    0.135955
  61 C :   -0.139053
  62 C :    0.049564
  63 C :    0.032344
  64 C :   -0.105311
  65 C :   -0.000583
  66 C :    0.029369
  67 C :    0.104819
  68 C :    0.089432
  69 C :   -0.138119
  70 S :    0.103785
  71 C :   -0.143658
  72 C :   -0.040599
  73 C :    0.000623
  74 H :   -0.018424
  75 H :   -0.011562
  76 H :   -0.008773
  77 H :    0.015799
  78 H :    0.014091
  79 H :   -0.004631
  80 H :   -0.008885
  81 H :   -0.012691
  82 H :   -0.007861
  83 H :    0.010162
  84 H :    0.005404
  85 H :   -0.001421
  86 H :   -0.004366
  87 H :   -0.005529
  88 H :    0.000432
  89 H :    0.013026
  90 H :    0.137633
  91 H :    0.008834
  92 H :    0.019103
  93 H :    0.025922
  94 H :    0.002462
  95 H :   -0.011090
  96 H :    0.020581
  97 H :    0.011402
  98 H :    0.010644
  99 H :    0.017771
 100 H :    0.013926
 101 H :    0.008042
 102 H :    0.023678
 103 H :    0.022583
 104 H :    0.020357
 105 H :   -0.011517
 106 H :    0.008761
 107 H :    0.032474
Sum of atomic charges:   -0.0000000

LOEWDIN ATOMIC CHARGES
----------------------
   0 C :    0.072418
   1 C :   -0.167623
   2 C :   -0.020032
   3 N :   -0.077497
   4 C :   -0.019135
   5 N :   -0.080493
   6 C :   -0.016879
   7 C :   -0.047596
   8 C :    0.014856
   9 C :   -0.037623
  10 C :   -0.147011
  11 C :   -0.015696
  12 S :    0.424274
  13 C :   -0.276724
  14 C :   -0.070966
  15 Br:    0.126174
  16 C :    0.079523
  17 O :   -0.163567
  18 C :   -0.115677
  19 C :    0.038816
  20 C :   -0.073304
  21 C :   -0.111245
  22 C :   -0.052026
  23 C :   -0.017684
  24 C :   -0.198571
  25 S :    0.435466
  26 C :   -0.142919
  27 C :   -0.043635
  28 C :   -0.010084
  29 C :   -0.156017
  30 S :    0.425006
  31 C :   -0.025485
  32 C :   -0.061079
  33 C :   -0.135997
  34 C :   -0.036871
  35 C :   -0.023714
  36 C :   -0.176237
  37 S :    0.421959
  38 C :   -0.173931
  39 C :   -0.030624
  40 C :   -0.025189
  41 C :   -0.139227
  42 S :    0.421197
  43 C :   -0.059371
  44 C :    0.059278
  45 O :   -0.004288
  46 C :   -0.092685
  47 C :    0.082314
  48 O :   -0.163048
  49 N :   -0.007583
  50 C :    0.083300
  51 O :   -0.161946
  52 C :   -0.099423
  53 C :    0.078218
  54 C :   -0.049424
  55 C :    0.017586
  56 C :   -0.068547
  57 C :   -0.157929
  58 S :    0.423858
  59 C :   -0.181504
  60 C :   -0.044667
  61 C :   -0.020598
  62 C :   -0.036772
  63 C :   -0.049281
  64 C :   -0.016014
  65 C :   -0.035575
  66 C :   -0.053011
  67 C :   -0.037844
  68 C :   -0.057834
  69 C :   -0.163339
  70 S :    0.408001
  71 C :   -0.180523
  72 C :   -0.036756
  73 C :   -0.033172
  74 H :    0.037689
  75 H :    0.039396
  76 H :    0.036679
  77 H :    0.029003
  78 H :    0.038015
  79 H :    0.036970
  80 H :    0.033767
  81 H :    0.029059
  82 H :    0.036846
  83 H :    0.031737
  84 H :    0.033012
  85 H :    0.038301
  86 H :    0.036355
  87 H :    0.035265
  88 H :    0.038097
  89 H :    0.052117
  90 H :    0.094209
  91 H :    0.043102
  92 H :    0.025232
  93 H :    0.025727
  94 H :    0.000574
  95 H :    0.024533
  96 H :    0.023279
  97 H :    0.024602
  98 H :    0.023272
  99 H :    0.025236
 100 H :    0.025438
 101 H :    0.022175
 102 H :    0.029225
 103 H :    0.023793
 104 H :    0.022129
 105 H :    0.032297
 106 H :    0.012210
 107 H :    0.029902

  Mayer bond orders larger than 0.100000
B(  0-C ,  1-C ) :   1.5533 B(  0-C ,  6-C ) :   0.9845 B(  0-C , 18-C ) :   1.1424
B(  1-C ,  2-C ) :   1.1516 B(  1-C ,  4-C ) :   1.1640 B(  2-C ,  3-N ) :   2.9591
B(  4-C ,  5-N ) :   2.9462 B(  6-C ,  7-C ) :   1.2805 B(  6-C , 11-C ) :   1.4245
B(  7-C ,  8-C ) :   1.4356 B(  7-C , 16-C ) :   0.9302 B(  8-C ,  9-C ) :   1.2344
B(  8-C , 74-H ) :   1.0161 B(  9-C , 10-C ) :   1.3227 B(  9-C , 14-C ) :   1.1582
B( 10-C , 11-C ) :   1.3146 B( 10-C , 12-S ) :   1.0801 B( 11-C , 75-H ) :   0.9797
B( 12-S , 13-C ) :   1.0859 B( 13-C , 14-C ) :   1.6213 B( 13-C , 15-Br) :   1.0106
B( 14-C , 76-H ) :   1.0006 B( 16-C , 17-O ) :   2.1854 B( 16-C , 18-C ) :   0.9769
B( 18-C , 19-C ) :   1.4212 B( 19-C , 20-C ) :   1.3218 B( 19-C , 77-H ) :   0.9442
B( 20-C , 21-C ) :   1.3457 B( 20-C , 78-H ) :   0.9815 B( 21-C , 22-C ) :   1.2274
B( 21-C , 25-S ) :   1.1003 B( 22-C , 23-C ) :   1.4679 B( 22-C , 79-H ) :   1.0032
B( 23-C , 24-C ) :   1.2798 B( 23-C , 80-H ) :   0.9971 B( 24-C , 25-S ) :   1.0687
B( 24-C , 26-C ) :   1.3608 B( 26-C , 27-C ) :   1.2686 B( 26-C , 30-S ) :   1.1045
B( 27-C , 28-C ) :   1.4806 B( 27-C , 81-H ) :   0.9930 B( 28-C , 29-C ) :   1.2435
B( 28-C , 82-H ) :   0.9956 B( 29-C , 30-S ) :   1.0593 B( 29-C , 31-C ) :   1.4357
B( 31-C , 32-C ) :   1.3030 B( 31-C , 83-H ) :   0.9639 B( 32-C , 33-C ) :   1.4114
B( 32-C , 84-H ) :   0.9789 B( 33-C , 34-C ) :   1.2345 B( 33-C , 37-S ) :   1.0784
B( 34-C , 35-C ) :   1.4855 B( 34-C , 85-H ) :   1.0022 B( 35-C , 36-C ) :   1.2666
B( 35-C , 86-H ) :   0.9963 B( 36-C , 37-S ) :   1.0664 B( 36-C , 38-C ) :   1.3899
B( 38-C , 39-C ) :   1.2378 B( 38-C , 42-S ) :   1.0554 B( 39-C , 40-C ) :   1.5392
B( 39-C , 87-H ) :   0.9990 B( 40-C , 41-C ) :   1.1752 B( 40-C , 88-H ) :   1.0007
B( 41-C , 42-S ) :   1.0634 B( 41-C , 43-C ) :   1.4828 B( 43-C , 44-C ) :   1.2522
B( 43-C , 89-H ) :   0.9686 B( 44-C , 45-O ) :   1.0929 B( 44-C , 46-C ) :   1.3480
B( 45-O , 53-C ) :   1.1259 B( 46-C , 47-C ) :   0.8906 B( 46-C , 52-C ) :   1.2918
B( 47-C , 48-O ) :   2.2693 B( 47-C , 49-N ) :   1.0701 B( 49-N , 50-C ) :   1.0801
B( 49-N , 90-H ) :   0.9141 B( 50-C , 51-O ) :   2.2699 B( 50-C , 52-C ) :   0.8785
B( 52-C , 53-C ) :   1.3816 B( 53-C , 54-C ) :   1.1739 B( 54-C , 55-C ) :   1.6712
B( 54-C , 91-H ) :   0.9651 B( 55-C , 56-C ) :   1.0204 B( 55-C , 92-H ) :   0.9741
B( 56-C , 57-C ) :   1.5900 B( 56-C , 60-C ) :   1.1345 B( 57-C , 58-S ) :   1.1305
B( 57-C , 93-H ) :   0.9624 B( 58-S , 59-C ) :   1.0729 B( 59-C , 60-C ) :   1.3750
B( 59-C , 71-C ) :   1.3775 B( 60-C , 61-C ) :   1.2366 B( 61-C , 62-C ) :   1.0744
B( 61-C , 64-C ) :   1.5092 B( 62-C , 63-C ) :   1.1079 B( 62-C , 94-H ) :   0.9134
B( 62-C , 95-H ) :   0.9045 B( 63-C , 96-H ) :   0.9629 B( 63-C , 97-H ) :   0.9647
B( 63-C , 98-H ) :   0.9542 B( 64-C , 65-C ) :   1.0505 B( 64-C , 67-C ) :   1.2673
B( 65-C , 66-C ) :   1.0973 B( 65-C , 99-H ) :   0.9182 B( 65-C ,100-H ) :   0.9258
B( 66-C ,101-H ) :   0.9602 B( 66-C ,102-H ) :   0.9640 B( 66-C ,103-H ) :   0.9598
B( 67-C , 68-C ) :   1.1453 B( 67-C , 71-C ) :   1.3759 B( 68-C , 69-C ) :   1.6071
B( 68-C , 72-C ) :   1.0251 B( 69-C , 70-S ) :   1.1037 B( 69-C ,104-H ) :   0.9607
B( 70-S , 71-C ) :   1.0767 B( 72-C , 73-C ) :   1.9754 B( 72-C ,105-H ) :   0.9603
B( 73-C ,106-H ) :   0.9503 B( 73-C ,107-H ) :   0.9412

-----------------------------------------------------------------------------
         ABSORPTION SPECTRUM VIA TRANSITION ELECTRIC DIPOLE MOMENTS
-----------------------------------------------------------------------------
State   Energy  Wavelength   fosc         T2         TX        TY        TZ
        (cm-1)    (nm)                  (au**2)     (au)      (au)      (au)
-----------------------------------------------------------------------------
   0    4213.7   2373.2   0.532941057  41.63766   5.80546   1.03206  -2.62090
   1   12028.6    831.3   0.012775570   0.34965  -0.32233  -0.08288  -0.48876
   2   13701.0    729.9   0.025986370   0.62441   0.32140  -0.63883  -0.33615
   3   14586.2    685.6   0.345043419   7.78765  -0.78276   0.67131   2.59312
   4   15495.3    645.4   0.080740138   1.71540  -0.10714  -1.27893   0.26127
   5   19387.4    515.8   0.067733081   1.15016   0.03727   0.85520  -0.64607
   6   21091.1    474.1   0.061088696   0.95354   0.62866  -0.70915   0.23544
   7   21392.5    467.5   0.383558463   5.90263   0.64497   1.99831  -1.22205
   8   22268.9    449.1   0.028726047   0.42467  -0.22774   0.26758  -0.54882
   9   23551.4    424.6   0.134773108   1.88392   0.21115  -1.05827   0.84818
  10   23848.8    419.3   0.480975958   6.63946  -1.44169   2.07991  -0.48474
  11   24711.9    404.7   0.116468156   1.55159  -0.35209  -0.96175   0.70899
  12   25323.9    394.9   0.114563628   1.48933  -1.15654   0.35268  -0.16542
  13   25662.2    389.7   0.164197645   2.10644   1.22868  -0.66833   0.38746
  14   25828.0    387.2   0.055592936   0.70861  -0.57081  -0.51896   0.33685
  15   26346.9    379.6   0.098927044   1.23612   1.10852   0.07699  -0.03725
  16   26488.3    377.5   0.008564161   0.10644  -0.10165  -0.30470  -0.05714
  17   26685.2    374.7   0.000641780   0.00792   0.02455   0.06268   0.05819
  18   27376.0    365.3   0.016860366   0.20276  -0.38985   0.05023  -0.21966
  19   28172.1    355.0   0.042334216   0.49471  -0.26714   0.61764  -0.20460
  20   28826.9    346.9   0.047054479   0.53738   0.62409  -0.35990   0.13549
  21   29204.5    342.4   0.034156360   0.38503   0.28787  -0.24490  -0.49213
  22   29791.7    335.7   0.253979113   2.80658   1.45173   0.56390  -0.61730
  23   30459.0    328.3   0.230002376   2.48595  -1.38911  -0.51094   0.54338
  24   30764.6    325.0   0.293970670   3.14578   1.70717   0.20608  -0.43461
  25   30964.0    323.0   0.010910543   0.11600  -0.01515   0.23798   0.24319
  26   31272.2    319.8   0.037280989   0.39247   0.43088  -0.37445  -0.25807
  27   31483.4    317.6   0.055732282   0.58278   0.59783   0.34764  -0.32331
  28   31950.5    313.0   0.025487328   0.26262   0.04118   0.41786  -0.29379
  29   32012.2    312.4   0.081167966   0.83473  -0.66017  -0.10907   0.62210
  30   32064.1    311.9   0.034185936   0.35100  -0.36548   0.22838   0.40653
  31   32176.1    310.8   0.021668088   0.22170  -0.46176   0.00221   0.09206
  32   32191.5    310.6   0.184818746   1.89008   1.32096  -0.24244  -0.29390
  33   32412.8    308.5   0.172394369   1.75099  -0.85557  -0.09601   1.00487
  34   32645.1    306.3   0.043081524   0.43446  -0.65872  -0.00322  -0.02330
  35   32997.4    303.1   0.051796150   0.51677   0.66474  -0.03486  -0.27143
  36   33329.6    300.0   0.002133958   0.02108  -0.13561   0.04233  -0.02995
  37   33924.4    294.8   0.026898679   0.26103  -0.49667  -0.11064   0.04587
  38   34391.9    290.8   0.001436679   0.01375  -0.07910  -0.06265   0.05975
  39   34681.1    288.3   0.023417890   0.22230  -0.01458  -0.18311   0.43423
  40   34987.1    285.8   0.006509669   0.06125   0.21878  -0.02239   0.11353
  41   35707.8    280.1   0.033931849   0.31284   0.54441   0.01848  -0.12695
  42   35760.9    279.6   0.064087264   0.58998  -0.35695  -0.59777   0.32441
  43   36113.8    276.9   0.007713993   0.07032   0.08773   0.17246  -0.18133
  44   36175.6    276.4   0.047823797   0.43522  -0.41847  -0.35945   0.36180
  45   36363.4    275.0   0.183416870   1.66055  -0.72225  -0.51098   0.93691
  46   36555.0    273.6   0.050656420   0.45621  -0.03822  -0.60530   0.29726
  47   36809.3    271.7   0.065156934   0.58274   0.00687  -0.75686   0.09930
  48   37079.4    269.7   0.016615525   0.14752  -0.33267   0.18183  -0.06158
  49   37280.9    268.2   0.164139089   1.44944  -1.06708  -0.38551   0.40268
  50   37483.4    266.8   0.002787164   0.02448   0.13267   0.07915  -0.02473
  51   37524.4    266.5   0.022684989   0.19902   0.32353  -0.29210   0.09500
  52   37725.9    265.1   0.063994589   0.55844   0.43528   0.43173  -0.42729
  53   38114.3    262.4   0.028092389   0.24265   0.41196  -0.25338  -0.09346
  54   38398.4    260.4   0.081613222   0.69972   0.73579   0.22200  -0.33022
  55   38606.9    259.0   0.090957472   0.77562   0.69696   0.39429  -0.36661
  56   38757.7    258.0   0.078837341   0.66965   0.76785  -0.12513  -0.25377
  57   38865.4    257.3   0.059630772   0.50511   0.63779   0.01141  -0.31337
  58   39208.7    255.0   0.012598318   0.10578  -0.10845  -0.30142  -0.05625
  59   39562.5    252.8   0.029889794   0.24872   0.49011   0.08908   0.02414
  60   39954.2    250.3   0.020668024   0.17030   0.27705  -0.09757  -0.28987
  61   40211.1    248.7   0.034188813   0.27991  -0.21658   0.37212  -0.30745

FINAL SINGLE POINT ENERGY     -8090.791782301119

DIPOLE MOMENT
-------------
                                X             Y             Z
Electronic contribution:    180.72066      -8.83447     -79.34837
Nuclear contribution   :   -183.19194       9.98031      81.85503
                        -----------------------------------------
Total Dipole Moment    :     -2.47128       1.14584       2.50665
                        -----------------------------------------
Magnitude (a.u.)       :      3.70182
Magnitude (Debye)      :      9.40927

Rotational constants in cm-1:     0.001886     0.000212     0.000204
Rotational constants in MHz :    56.552237     6.369115     6.111117

                             ****ORCA TERMINATED NORMALLY****
TOTAL RUN TIME: 0 days 0 hours 25 minutes 21 seconds 962 msec
