                         Program Version 4.2.0 -  RELEASE  -
|  1> # ORCA input file
|  2> # SCF done       -162.956920340757          0.000384343136
|  3> ! CAM-B3LYP def2-SVP def2/J RIJCOSX Grid4 TightSCF
|  4> %maxcore 5000
|  5> %tddft
|  6>     Mode sTDDFT
|  7>     Ethresh 5.0
|  8>     maxcore 5000
|  9> end
| 10>
| 11> %pal
| 12>   nprocs 6
| 13>   end
| 14> * xyz 0 1
| 15>    C       -1.48706        -1.86327        -0.33327
| 16>    C       -0.93407        -2.22813        -1.53826
| 17>    C       -0.13842        -3.37514        -1.72918
| 18>    N        0.52461        -4.28680        -1.95013
| 19>    C       -1.05888        -1.50621        -2.74111
| 20>    N       -1.11431        -0.97428        -3.75825
| 21>    C       -1.36648        -2.60929         0.91368
| 22>    C       -2.01604        -1.88867         1.94637
| 23>    C       -2.08297        -2.34304         3.23983
| 24>    C       -1.49087        -3.57757         3.52899
| 25>    C       -0.84348        -4.29058         2.49245
| 26>    C       -0.76767        -3.82611         1.18519
| 27>    S       -0.17776        -5.78951         3.06719
| 28>    C       -0.77292        -5.44346         4.66941
| 29>    C       -1.43473        -4.26675         4.77139
| 30>   Br       -0.46183        -6.66747         6.05568
| 31>    C       -2.56325        -0.63529         1.39602
| 32>    O       -2.98183         0.31061         2.02380
| 33>    C       -2.31629        -0.70650        -0.07315
| 34>    C       -2.73652         0.23122        -0.97072
| 35>    C       -3.77298         1.16079        -0.70887
| 36>    O       -3.84477         2.30591        -1.44651
| 37>    C       -4.87752         1.11374         0.12352
| 38>    C       -5.62796         0.26760         1.05935
| 39>    O       -5.43947        -0.85581         1.44711
| 40>    N       -6.73395         1.04948         1.38847
| 41>    C       -6.81745         2.27520         0.73230
| 42>    O       -7.70471         3.07722         0.86834
| 43>    C       -5.61819         2.29444        -0.10967
| 44>    C       -4.94802         3.01017        -1.08552
| 45>    C       -5.27316         4.24939        -1.69935
| 46>    C       -4.55420         4.80637        -2.69938
| 47>    C       -4.93522         6.03101        -3.32863
| 48>    C       -4.33274         6.61923        -4.37782
| 49>    C       -3.10694         6.11396        -5.06313
| 50>    C       -4.92200         7.88146        -4.96440
| 51>    N       -4.04424         9.02281        -4.83943
| 52>    C       -3.20911         9.48681        -5.79528
| 53>    C       -3.05904         8.99235        -7.05433
| 54>    C       -2.22443         9.57471        -8.02427
| 55>    C       -2.01414         9.03001        -9.26533
| 56>    C       -1.23320         9.54297       -10.32617
| 57>    C       -1.20925         8.75753       -11.44103
| 58>    C       -1.96036         7.56971       -11.32179
| 59>    S       -2.72275         7.49029        -9.75094
| 60>    C       -2.11076         6.54978       -12.24395
| 61>    C       -1.59451         6.44587       -13.54904
| 62>    C       -1.91832         5.28075       -14.18228
| 63>    C       -2.70345         4.38715       -13.41677
| 64>    S       -3.03162         5.11073       -11.85291
| 65>    C       -3.11434         3.14409       -13.84198
| 66>    C       -3.84920         2.14589       -13.19746
| 67>    S       -4.10241         0.64795       -14.09853
| 68>    C       -4.99005        -0.13901       -12.82704
| 69>    C       -5.09287         0.73277       -11.74764
| 70>    C       -4.46345         1.99640       -11.94972
| 71>    N       -4.67367         2.69502       -10.80777
| 72>    N       -5.37241         1.98142        -9.91291
| 73>    C       -5.63581         0.81363       -10.44036
| 74>    C       -5.49862        -1.46475       -12.92842
| 75>    C       -5.36050        -2.25940       -13.99370
| 76>    H       -2.58723        -1.76997         4.00147
| 77>    H       -0.26233        -4.40742         0.43223
| 78>    H       -1.86717        -3.89823         5.68364
| 79>    H       -2.30133         0.28750        -1.95898
| 80>    H       -7.44087         0.73494         2.03773
| 81>    H       -6.16772         4.72176        -1.31930
| 82>    H       -3.67405         4.28831        -3.04988
| 83>    H       -5.82594         6.49457        -2.92135
| 84>    H       -2.58885         5.36357        -4.47606
| 85>    H       -2.41964         6.93387        -5.26626
| 86>    H       -3.37757         5.67143        -6.02273
| 87>    H       -5.86207         8.12169        -4.45846
| 88>    H       -5.13568         7.72951        -6.02489
| 89>    H       -3.93702         9.38791        -3.90678
| 90>    H       -2.63336        10.35423        -5.49892
| 91>    H       -3.58739         8.10092        -7.35903
| 92>    H       -1.71729        10.50091        -7.78888
| 93>    H       -0.71353        10.48064       -10.23372
| 94>    H       -0.66649         8.99564       -12.33830
| 95>    H       -1.00082         7.22738       -13.98820
| 96>    H       -1.60874         5.03018       -15.18166
| 97>    H       -2.79859         2.88556       -14.84596
| 98>    H       -4.37416         3.62615       -10.57329
| 99>    H       -6.19018         0.07849        -9.89353
|100>    H       -6.02691        -1.81240       -12.04974
|101>    H       -4.83595        -1.92732       -14.87438
|102>    H       -5.76468        -3.25522       -14.01071
|103> *
|104>
|105>                          ****END OF INPUT****

CARTESIAN COORDINATES (ANGSTROEM)
---------------------------------
  C     -1.487060   -1.863270   -0.333270
  C     -0.934070   -2.228130   -1.538260
  C     -0.138420   -3.375140   -1.729180
  N      0.524610   -4.286800   -1.950130
  C     -1.058880   -1.506210   -2.741110
  N     -1.114310   -0.974280   -3.758250
  C     -1.366480   -2.609290    0.913680
  C     -2.016040   -1.888670    1.946370
  C     -2.082970   -2.343040    3.239830
  C     -1.490870   -3.577570    3.528990
  C     -0.843480   -4.290580    2.492450
  C     -0.767670   -3.826110    1.185190
  S     -0.177760   -5.789510    3.067190
  C     -0.772920   -5.443460    4.669410
  C     -1.434730   -4.266750    4.771390
  Br    -0.461830   -6.667470    6.055680
  C     -2.563250   -0.635290    1.396020
  O     -2.981830    0.310610    2.023800
  C     -2.316290   -0.706500   -0.073150
  C     -2.736520    0.231220   -0.970720
  C     -3.772980    1.160790   -0.708870
  O     -3.844770    2.305910   -1.446510
  C     -4.877520    1.113740    0.123520
  C     -5.627960    0.267600    1.059350
  O     -5.439470   -0.855810    1.447110
  N     -6.733950    1.049480    1.388470
  C     -6.817450    2.275200    0.732300
  O     -7.704710    3.077220    0.868340
  C     -5.618190    2.294440   -0.109670
  C     -4.948020    3.010170   -1.085520
  C     -5.273160    4.249390   -1.699350
  C     -4.554200    4.806370   -2.699380
  C     -4.935220    6.031010   -3.328630
  C     -4.332740    6.619230   -4.377820
  C     -3.106940    6.113960   -5.063130
  C     -4.922000    7.881460   -4.964400
  N     -4.044240    9.022810   -4.839430
  C     -3.209110    9.486810   -5.795280
  C     -3.059040    8.992350   -7.054330
  C     -2.224430    9.574710   -8.024270
  C     -2.014140    9.030010   -9.265330
  C     -1.233200    9.542970  -10.326170
  C     -1.209250    8.757530  -11.441030
  C     -1.960360    7.569710  -11.321790
  S     -2.722750    7.490290   -9.750940
  C     -2.110760    6.549780  -12.243950
  C     -1.594510    6.445870  -13.549040
  C     -1.918320    5.280750  -14.182280
  C     -2.703450    4.387150  -13.416770
  S     -3.031620    5.110730  -11.852910
  C     -3.114340    3.144090  -13.841980
  C     -3.849200    2.145890  -13.197460
  S     -4.102410    0.647950  -14.098530
  C     -4.990050   -0.139010  -12.827040
  C     -5.092870    0.732770  -11.747640
  C     -4.463450    1.996400  -11.949720
  N     -4.673670    2.695020  -10.807770
  N     -5.372410    1.981420   -9.912910
  C     -5.635810    0.813630  -10.440360
  C     -5.498620   -1.464750  -12.928420
  C     -5.360500   -2.259400  -13.993700
  H     -2.587230   -1.769970    4.001470
  H     -0.262330   -4.407420    0.432230
  H     -1.867170   -3.898230    5.683640
  H     -2.301330    0.287500   -1.958980
  H     -7.440870    0.734940    2.037730
  H     -6.167720    4.721760   -1.319300
  H     -3.674050    4.288310   -3.049880
  H     -5.825940    6.494570   -2.921350
  H     -2.588850    5.363570   -4.476060
  H     -2.419640    6.933870   -5.266260
  H     -3.377570    5.671430   -6.022730
  H     -5.862070    8.121690   -4.458460
  H     -5.135680    7.729510   -6.024890
  H     -3.937020    9.387910   -3.906780
  H     -2.633360   10.354230   -5.498920
  H     -3.587390    8.100920   -7.359030
  H     -1.717290   10.500910   -7.788880
  H     -0.713530   10.480640  -10.233720
  H     -0.666490    8.995640  -12.338300
  H     -1.000820    7.227380  -13.988200
  H     -1.608740    5.030180  -15.181660
  H     -2.798590    2.885560  -14.845960
  H     -4.374160    3.626150  -10.573290
  H     -6.190180    0.078490   -9.893530
  H     -6.026910   -1.812400  -12.049740
  H     -4.835950   -1.927320  -14.874380
  H     -5.764680   -3.255220  -14.010710

 Total Charge           Charge          ....    0
 Multiplicity           Mult            ....    1
 Number of Electrons    NEL             ....  476
 Basis Dimension        Dim             .... 1023

ORBITAL ENERGIES
----------------

  NO   OCC          E(Eh)            E(eV)
   0   2.0000    -482.885764    -13139.9897
   1   2.0000     -88.975674     -2421.1512
   2   2.0000     -88.945079     -2420.3186
   3   2.0000     -88.934901     -2420.0417
   4   2.0000     -88.929305     -2419.8894
   5   2.0000     -62.563483     -1702.4389
   6   2.0000     -56.397435     -1534.6522
   7   2.0000     -56.394715     -1534.5782
   8   2.0000     -56.394685     -1534.5774
   9   2.0000     -19.317850      -525.6654
  10   2.0000     -19.216633      -522.9112
  11   2.0000     -19.216174      -522.8987
  12   2.0000     -19.213336      -522.8214
  13   2.0000     -14.461121      -393.5071
  14   2.0000     -14.457328      -393.4039
  15   2.0000     -14.446844      -393.1186
  16   2.0000     -14.421178      -392.4202
  17   2.0000     -14.418662      -392.3517
  18   2.0000     -14.416845      -392.3023
  19   2.0000     -10.404429      -283.1189
  20   2.0000     -10.402813      -283.0749
  21   2.0000     -10.371554      -282.2243
  22   2.0000     -10.369195      -282.1601
  23   2.0000     -10.365223      -282.0521
  24   2.0000     -10.359339      -281.8920
  25   2.0000     -10.345274      -281.5092
  26   2.0000     -10.344584      -281.4904
  27   2.0000     -10.326114      -280.9878
  28   2.0000     -10.325340      -280.9668
  29   2.0000     -10.322278      -280.8835
  30   2.0000     -10.320807      -280.8434
  31   2.0000     -10.320775      -280.8426
  32   2.0000     -10.319424      -280.8058
  33   2.0000     -10.309367      -280.5321
  34   2.0000     -10.308065      -280.4967
  35   2.0000     -10.308058      -280.4965
  36   2.0000     -10.306129      -280.4440
  37   2.0000     -10.303999      -280.3861
  38   2.0000     -10.300732      -280.2972
  39   2.0000     -10.300431      -280.2890
  40   2.0000     -10.299357      -280.2597
  41   2.0000     -10.298695      -280.2417
  42   2.0000     -10.296807      -280.1904
  43   2.0000     -10.295715      -280.1607
  44   2.0000     -10.295276      -280.1487
  45   2.0000     -10.294748      -280.1343
  46   2.0000     -10.294662      -280.1320
  47   2.0000     -10.293768      -280.1077
  48   2.0000     -10.292856      -280.0828
  49   2.0000     -10.292491      -280.0729
  50   2.0000     -10.292256      -280.0665
  51   2.0000     -10.285845      -279.8921
  52   2.0000     -10.282100      -279.7902
  53   2.0000     -10.278301      -279.6868
  54   2.0000     -10.274595      -279.5859
  55   2.0000     -10.274214      -279.5756
  56   2.0000     -10.272325      -279.5242
  57   2.0000     -10.272158      -279.5196
  58   2.0000     -10.272045      -279.5165
  59   2.0000     -10.271620      -279.5050
  60   2.0000     -10.270215      -279.4668
  61   2.0000     -10.268762      -279.4272
  62   2.0000     -10.263087      -279.2728
  63   2.0000     -10.258256      -279.1413
  64   2.0000     -10.256406      -279.0910
  65   2.0000      -8.792912      -239.2673
  66   2.0000      -8.071618      -219.6399
  67   2.0000      -8.040011      -218.7798
  68   2.0000      -8.031206      -218.5402
  69   2.0000      -8.025562      -218.3867
  70   2.0000      -6.629219      -180.3902
  71   2.0000      -6.614645      -179.9936
  72   2.0000      -6.614444      -179.9882
  73   2.0000      -6.041304      -164.3923
  74   2.0000      -6.037041      -164.2762
  75   2.0000      -6.032857      -164.1624
  76   2.0000      -6.009372      -163.5233
  77   2.0000      -6.005265      -163.4116
  78   2.0000      -6.002098      -163.3254
  79   2.0000      -6.000963      -163.2945
  80   2.0000      -5.997126      -163.1901
  81   2.0000      -5.995311      -163.1407
  82   2.0000      -5.992010      -163.0509
  83   2.0000      -5.991420      -163.0348
  84   2.0000      -5.986395      -162.8981
  85   2.0000      -2.745098       -74.6979
  86   2.0000      -2.741014       -74.5868
  87   2.0000      -2.740824       -74.5816
  88   2.0000      -2.729269       -74.2672
  89   2.0000      -2.729247       -74.2666
  90   2.0000      -1.233384       -33.5621
  91   2.0000      -1.159352       -31.5476
  92   2.0000      -1.139514       -31.0078
  93   2.0000      -1.131030       -30.7769
  94   2.0000      -1.125927       -30.6380
  95   2.0000      -1.046279       -28.4707
  96   2.0000      -1.044335       -28.4178
  97   2.0000      -1.024111       -27.8675
  98   2.0000      -1.014700       -27.6114
  99   2.0000      -0.995749       -27.0957
 100   2.0000      -0.991555       -26.9816
 101   2.0000      -0.980803       -26.6890
 102   2.0000      -0.967730       -26.3333
 103   2.0000      -0.956976       -26.0406
 104   2.0000      -0.948566       -25.8118
 105   2.0000      -0.939061       -25.5532
 106   2.0000      -0.929783       -25.3007
 107   2.0000      -0.921295       -25.0697
 108   2.0000      -0.909417       -24.7465
 109   2.0000      -0.905337       -24.6355
 110   2.0000      -0.897705       -24.4278
 111   2.0000      -0.888997       -24.1908
 112   2.0000      -0.886220       -24.1153
 113   2.0000      -0.875392       -23.8206
 114   2.0000      -0.870511       -23.6878
 115   2.0000      -0.858524       -23.3616
 116   2.0000      -0.841024       -22.8854
 117   2.0000      -0.836415       -22.7600
 118   2.0000      -0.829651       -22.5759
 119   2.0000      -0.827932       -22.5292
 120   2.0000      -0.821888       -22.3647
 121   2.0000      -0.807722       -21.9792
 122   2.0000      -0.799386       -21.7524
 123   2.0000      -0.795512       -21.6470
 124   2.0000      -0.782244       -21.2859
 125   2.0000      -0.779002       -21.1977
 126   2.0000      -0.768910       -20.9231
 127   2.0000      -0.763153       -20.7665
 128   2.0000      -0.755418       -20.5560
 129   2.0000      -0.751644       -20.4533
 130   2.0000      -0.722947       -19.6724
 131   2.0000      -0.718857       -19.5611
 132   2.0000      -0.704830       -19.1794
 133   2.0000      -0.697131       -18.9699
 134   2.0000      -0.692285       -18.8380
 135   2.0000      -0.689553       -18.7637
 136   2.0000      -0.685505       -18.6535
 137   2.0000      -0.674606       -18.3570
 138   2.0000      -0.667937       -18.1755
 139   2.0000      -0.666057       -18.1243
 140   2.0000      -0.657863       -17.9014
 141   2.0000      -0.651732       -17.7345
 142   2.0000      -0.643631       -17.5141
 143   2.0000      -0.636983       -17.3332
 144   2.0000      -0.633958       -17.2509
 145   2.0000      -0.625134       -17.0108
 146   2.0000      -0.619244       -16.8505
 147   2.0000      -0.612406       -16.6644
 148   2.0000      -0.610343       -16.6083
 149   2.0000      -0.605863       -16.4864
 150   2.0000      -0.599912       -16.3244
 151   2.0000      -0.598419       -16.2838
 152   2.0000      -0.594981       -16.1903
 153   2.0000      -0.591145       -16.0859
 154   2.0000      -0.589395       -16.0383
 155   2.0000      -0.587197       -15.9784
 156   2.0000      -0.578108       -15.7311
 157   2.0000      -0.569581       -15.4991
 158   2.0000      -0.566514       -15.4156
 159   2.0000      -0.562588       -15.3088
 160   2.0000      -0.552537       -15.0353
 161   2.0000      -0.552313       -15.0292
 162   2.0000      -0.549657       -14.9569
 163   2.0000      -0.548165       -14.9163
 164   2.0000      -0.544124       -14.8064
 165   2.0000      -0.538130       -14.6433
 166   2.0000      -0.533117       -14.5068
 167   2.0000      -0.531165       -14.4537
 168   2.0000      -0.527706       -14.3596
 169   2.0000      -0.525458       -14.2984
 170   2.0000      -0.523185       -14.2366
 171   2.0000      -0.519452       -14.1350
 172   2.0000      -0.518336       -14.1046
 173   2.0000      -0.513094       -13.9620
 174   2.0000      -0.512003       -13.9323
 175   2.0000      -0.509859       -13.8740
 176   2.0000      -0.509269       -13.8579
 177   2.0000      -0.507491       -13.8095
 178   2.0000      -0.502225       -13.6662
 179   2.0000      -0.495157       -13.4739
 180   2.0000      -0.494796       -13.4641
 181   2.0000      -0.493868       -13.4388
 182   2.0000      -0.488786       -13.3006
 183   2.0000      -0.483120       -13.1464
 184   2.0000      -0.481868       -13.1123
 185   2.0000      -0.481289       -13.0965
 186   2.0000      -0.478261       -13.0141
 187   2.0000      -0.472688       -12.8625
 188   2.0000      -0.472219       -12.8497
 189   2.0000      -0.467715       -12.7272
 190   2.0000      -0.463931       -12.6242
 191   2.0000      -0.460133       -12.5208
 192   2.0000      -0.458671       -12.4811
 193   2.0000      -0.457617       -12.4524
 194   2.0000      -0.453102       -12.3295
 195   2.0000      -0.450506       -12.2589
 196   2.0000      -0.449294       -12.2259
 197   2.0000      -0.447914       -12.1884
 198   2.0000      -0.446577       -12.1520
 199   2.0000      -0.445429       -12.1207
 200   2.0000      -0.441340       -12.0095
 201   2.0000      -0.439952       -11.9717
 202   2.0000      -0.439718       -11.9653
 203   2.0000      -0.432191       -11.7605
 204   2.0000      -0.431879       -11.7520
 205   2.0000      -0.428297       -11.6545
 206   2.0000      -0.425884       -11.5889
 207   2.0000      -0.420030       -11.4296
 208   2.0000      -0.419175       -11.4063
 209   2.0000      -0.416279       -11.3275
 210   2.0000      -0.413434       -11.2501
 211   2.0000      -0.410134       -11.1603
 212   2.0000      -0.409265       -11.1367
 213   2.0000      -0.398913       -10.8550
 214   2.0000      -0.391767       -10.6605
 215   2.0000      -0.386247       -10.5103
 216   2.0000      -0.385874       -10.5002
 217   2.0000      -0.380636       -10.3576
 218   2.0000      -0.375111       -10.2073
 219   2.0000      -0.374313       -10.1856
 220   2.0000      -0.370492       -10.0816
 221   2.0000      -0.363595        -9.8939
 222   2.0000      -0.359364        -9.7788
 223   2.0000      -0.348924        -9.4947
 224   2.0000      -0.347374        -9.4525
 225   2.0000      -0.338848        -9.2205
 226   2.0000      -0.333766        -9.0822
 227   2.0000      -0.331992        -9.0340
 228   2.0000      -0.323898        -8.8137
 229   2.0000      -0.322959        -8.7882
 230   2.0000      -0.315023        -8.5722
 231   2.0000      -0.310069        -8.4374
 232   2.0000      -0.299666        -8.1543
 233   2.0000      -0.294196        -8.0055
 234   2.0000      -0.284915        -7.7529
 235   2.0000      -0.269765        -7.3407
 236   2.0000      -0.239776        -6.5246
 237   2.0000      -0.182321        -4.9612
 238   0.0000      -0.103022        -2.8034
 239   0.0000      -0.063776        -1.7354
 240   0.0000      -0.062155        -1.6913
 241   0.0000      -0.052199        -1.4204
 242   0.0000      -0.016856        -0.4587

MULLIKEN ATOMIC CHARGES
-----------------------
   0 C :    0.307326
   1 C :   -0.349431
   2 C :   -0.181506
   3 N :    0.151719
   4 C :   -0.185391
   5 N :    0.154481
   6 C :    0.021745
   7 C :   -0.006529
   8 C :   -0.060142
   9 C :    0.116387
  10 C :   -0.091193
  11 C :   -0.022934
  12 S :    0.187679
  13 C :   -0.123034
  14 C :    0.040759
  15 Br:    0.024956
  16 C :    0.151954
  17 O :   -0.148519
  18 C :   -0.078194
  19 C :   -0.025401
  20 C :    0.119943
  21 O :   -0.202065
  22 C :   -0.016342
  23 C :    0.181405
  24 O :   -0.143615
  25 N :   -0.163510
  26 C :    0.171224
  27 O :   -0.141892
  28 C :   -0.053575
  29 C :    0.107535
  30 C :   -0.046600
  31 C :    0.044179
  32 C :   -0.003316
  33 C :   -0.176882
  34 C :    0.099610
  35 C :    0.212073
  36 N :   -0.154916
  37 C :    0.056907
  38 C :   -0.062764
  39 C :    0.001126
  40 C :   -0.039943
  41 C :    0.040848
  42 C :    0.012333
  43 C :   -0.034740
  44 S :    0.029263
  45 C :   -0.036800
  46 C :    0.021428
  47 C :    0.024706
  48 C :   -0.028311
  49 S :    0.005425
  50 C :    0.029466
  51 C :   -0.219945
  52 S :    0.115138
  53 C :   -0.113143
  54 C :    0.007615
  55 C :    0.173012
  56 N :   -0.048982
  57 N :   -0.062381
  58 C :   -0.010580
  59 C :    0.007371
  60 C :   -0.027539
  61 H :   -0.008856
  62 H :   -0.005981
  63 H :   -0.002689
  64 H :    0.030231
  65 H :    0.139935
  66 H :    0.011047
  67 H :    0.009831
  68 H :   -0.022801
  69 H :    0.018092
  70 H :    0.039122
  71 H :    0.042904
  72 H :    0.009550
  73 H :    0.036603
  74 H :    0.125450
  75 H :    0.003456
  76 H :   -0.006068
  77 H :   -0.025624
  78 H :   -0.022020
  79 H :   -0.021907
  80 H :   -0.019207
  81 H :   -0.019648
  82 H :   -0.026993
  83 H :    0.136466
  84 H :   -0.010504
  85 H :   -0.009982
  86 H :    0.019093
  87 H :    0.023004
Sum of atomic charges:    0.0000000

LOEWDIN ATOMIC CHARGES
----------------------
   0 C :    0.074581
   1 C :   -0.135986
   2 C :   -0.017925
   3 N :   -0.050100
   4 C :   -0.020689
   5 N :   -0.047246
   6 C :   -0.019469
   7 C :   -0.043939
   8 C :    0.027119
   9 C :   -0.030545
  10 C :   -0.142462
  11 C :   -0.009510
  12 S :    0.432920
  13 C :   -0.270408
  14 C :   -0.069569
  15 Br:    0.137921
  16 C :    0.088555
  17 O :   -0.134866
  18 C :   -0.068510
  19 C :    0.046386
  20 C :    0.047864
  21 O :    0.020250
  22 C :   -0.052982
  23 C :    0.091045
  24 O :   -0.148930
  25 N :   -0.001093
  26 C :    0.086423
  27 O :   -0.158517
  28 C :   -0.101844
  29 C :    0.087200
  30 C :   -0.051655
  31 C :    0.022079
  32 C :   -0.059368
  33 C :   -0.008817
  34 C :   -0.049059
  35 C :    0.047823
  36 N :    0.000869
  37 C :    0.040550
  38 C :   -0.132579
  39 C :   -0.037810
  40 C :   -0.172596
  41 C :   -0.032324
  42 C :   -0.049938
  43 C :   -0.176741
  44 S :    0.343984
  45 C :   -0.191468
  46 C :   -0.041655
  47 C :   -0.042039
  48 C :   -0.158844
  49 S :    0.359859
  50 C :   -0.084177
  51 C :   -0.200883
  52 S :    0.442949
  53 C :   -0.177166
  54 C :   -0.089640
  55 C :   -0.025145
  56 N :    0.084958
  57 N :   -0.055364
  58 C :   -0.045243
  59 C :   -0.038455
  60 C :   -0.053350
  61 H :    0.042274
  62 H :    0.041063
  63 H :    0.039224
  64 H :    0.051717
  65 H :    0.095809
  66 H :    0.044955
  67 H :    0.032997
  68 H :    0.026670
  69 H :    0.030774
  70 H :    0.040911
  71 H :    0.046312
  72 H :    0.029425
  73 H :    0.038662
  74 H :    0.080789
  75 H :    0.029119
  76 H :    0.012936
  77 H :    0.028698
  78 H :    0.030003
  79 H :    0.028556
  80 H :    0.030245
  81 H :    0.030475
  82 H :    0.032514
  83 H :    0.053671
  84 H :    0.019720
  85 H :    0.035193
  86 H :    0.017404
  87 H :    0.025454

  Mayer bond orders larger than 0.100000
B(  0-C ,  1-C ) :   1.6292 B(  0-C ,  6-C ) :   1.0108 B(  0-C , 18-C ) :   1.0840
B(  1-C ,  2-C ) :   1.1442 B(  1-C ,  4-C ) :   1.1453 B(  2-C ,  3-N ) :   2.9667
B(  4-C ,  5-N ) :   2.9658 B(  6-C ,  7-C ) :   1.2706 B(  6-C , 11-C ) :   1.4013
B(  7-C ,  8-C ) :   1.4291 B(  7-C , 16-C ) :   0.9357 B(  8-C ,  9-C ) :   1.2464
B(  8-C , 61-H ) :   1.0155 B(  9-C , 10-C ) :   1.3023 B(  9-C , 14-C ) :   1.1641
B( 10-C , 11-C ) :   1.3373 B( 10-C , 12-S ) :   1.0865 B( 11-C , 62-H ) :   0.9794
B( 12-S , 13-C ) :   1.0861 B( 13-C , 14-C ) :   1.6182 B( 13-C , 15-Br) :   1.0195
B( 14-C , 63-H ) :   1.0002 B( 16-C , 17-O ) :   2.2296 B( 16-C , 18-C ) :   0.9215
B( 18-C , 19-C ) :   1.6092 B( 19-C , 20-C ) :   1.1596 B( 19-C , 64-H ) :   0.9319
B( 20-C , 21-O ) :   1.1217 B( 20-C , 22-C ) :   1.4360 B( 21-O , 29-C ) :   1.1733
B( 22-C , 23-C ) :   0.8680 B( 22-C , 28-C ) :   1.3122 B( 23-C , 24-O ) :   2.2323
B( 23-C , 25-N ) :   1.0905 B( 25-N , 26-C ) :   1.0757 B( 25-N , 65-H ) :   0.9152
B( 26-C , 27-O ) :   2.2676 B( 26-C , 28-C ) :   0.8801 B( 28-C , 29-C ) :   1.3668
B( 29-C , 30-C ) :   1.1517 B( 30-C , 31-C ) :   1.6524 B( 30-C , 66-H ) :   0.9695
B( 31-C , 32-C ) :   1.0954 B( 31-C , 67-H ) :   0.9808 B( 32-C , 33-C ) :   1.7394
B( 32-C , 68-H ) :   0.9759 B( 33-C , 34-C ) :   1.0887 B( 33-C , 35-C ) :   1.0477
B( 34-C , 69-H ) :   0.9476 B( 34-C , 70-H ) :   0.9412 B( 34-C , 71-H ) :   0.9379
B( 35-C , 36-N ) :   0.9882 B( 35-C , 72-H ) :   0.9382 B( 35-C , 73-H ) :   0.9201
B( 36-N , 37-C ) :   1.2181 B( 36-N , 74-H ) :   0.9404 B( 37-C , 38-C ) :   1.6058
B( 37-C , 75-H ) :   0.9656 B( 38-C , 39-C ) :   1.1594 B( 38-C , 76-H ) :   0.9570
B( 39-C , 40-C ) :   1.5836 B( 39-C , 77-H ) :   0.9830 B( 40-C , 41-C ) :   1.1507
B( 40-C , 44-S ) :   1.0104 B( 41-C , 42-C ) :   1.5808 B( 41-C , 78-H ) :   0.9969
B( 42-C , 43-C ) :   1.1985 B( 42-C , 79-H ) :   0.9933 B( 43-C , 44-S ) :   1.0449
B( 43-C , 45-C ) :   1.4918 B( 45-C , 46-C ) :   1.2086 B( 45-C , 49-S ) :   1.0342
B( 46-C , 47-C ) :   1.5687 B( 46-C , 80-H ) :   0.9912 B( 47-C , 48-C ) :   1.1651
B( 47-C , 81-H ) :   0.9984 B( 48-C , 49-S ) :   1.0145 B( 48-C , 50-C ) :   1.5837
B( 50-C , 51-C ) :   1.2133 B( 50-C , 82-H ) :   0.9297 B( 51-C , 52-S ) :   1.1033
B( 51-C , 53-C ) :   0.1096 B( 51-C , 55-C ) :   1.3334 B( 52-S , 53-C ) :   1.1256
B( 53-C , 54-C ) :   1.3426 B( 53-C , 59-C ) :   1.1625 B( 54-C , 55-C ) :   1.2575
B( 54-C , 58-C ) :   1.1544 B( 55-C , 56-N ) :   1.1507 B( 56-N , 57-N ) :   1.1369
B( 56-N , 83-H ) :   0.9329 B( 57-N , 58-C ) :   1.7359 B( 58-C , 84-H ) :   0.9985
B( 59-C , 60-C ) :   1.8864 B( 59-C , 85-H ) :   0.9632 B( 60-C , 86-H ) :   0.9569
B( 60-C , 87-H ) :   0.9504

-----------------------------------------------------------------------------
         ABSORPTION SPECTRUM VIA TRANSITION ELECTRIC DIPOLE MOMENTS
-----------------------------------------------------------------------------
State   Energy  Wavelength   fosc         T2         TX        TY        TZ
        (cm-1)    (nm)                  (au**2)     (au)      (au)      (au)
-----------------------------------------------------------------------------
   0    8425.3   1186.9   0.025921439   1.01286  -0.12626   0.19860  -0.97851
   1   13541.6    738.5   1.112609083  27.04874   1.07587   4.05581   3.07273
   2   17078.4    585.5   0.143135679   2.75916   0.38872   1.59806  -0.23293
   3   18597.6    537.7   0.025607560   0.45330  -0.19232  -0.61648   0.19045
   4   19374.6    516.1   0.688512222  11.69915   1.50380  -2.97905   0.75034
   5   21068.1    474.7   0.050601830   0.79071   0.75033  -0.42499   0.21702
   6   21516.3    464.8   0.043896006   0.67164   0.30100  -0.67832  -0.34774
   7   25182.4    397.1   0.168224324   2.19921   0.00190   0.70064  -1.30702
   8   25698.4    389.1   0.891789969  11.42436  -1.47065  -1.51605   2.63877
   9   26113.7    382.9   0.074229402   0.93580   0.71830  -0.57042  -0.30736
  10   27980.8    357.4   0.019276206   0.22680  -0.23803   0.26838  -0.31323
  11   28046.3    356.6   0.111707455   1.31124   0.00230  -0.31074   1.10212
  12   28648.6    349.1   0.008541097   0.09815  -0.19325  -0.22162   0.10810
  13   29055.5    344.2   0.045065667   0.51062  -0.16019  -0.65316   0.24153
  14   29439.4    339.7   0.084449960   0.94438  -0.34266  -0.27147   0.86791
  15   29719.6    336.5   0.001354061   0.01500   0.04527   0.08537  -0.07525
  16   30550.5    327.3   0.109563894   1.18066  -0.29751   0.87062  -0.57807
  17   30815.4    324.5   0.388208176   4.14737   0.23521   1.44591  -1.41471
  18   31328.9    319.2   0.156348939   1.64295  -0.16346  -0.93094   0.86579
  19   31470.0    317.8   0.147481725   1.54283   0.27417   0.89840  -0.81274
  20   32489.2    307.8   0.524223679   5.31194  -0.14588   0.84568  -2.13904
  21   33639.4    297.3   0.163620603   1.60127   1.08158  -0.05625  -0.65445
  22   33739.6    296.4   0.042191725   0.41168  -0.41635   0.05784   0.48476
  23   33808.3    295.8   0.008083633   0.07872  -0.17879  -0.06932   0.20480
  24   33948.6    294.6   0.001733481   0.01681   0.05405   0.02963  -0.11407
  25   34088.3    293.4   0.000777756   0.00751   0.02464  -0.07748  -0.03001
  26   34261.8    291.9   0.000508861   0.00489  -0.06006   0.03549  -0.00483
  27   34867.4    286.8   0.045365586   0.42833   0.30548  -0.01785  -0.57853
  28   35198.9    284.1   0.000685703   0.00641   0.01297  -0.07680  -0.01861
  29   35624.6    280.7   0.015585007   0.14402   0.15693   0.15592  -0.30835
  30   36650.2    272.8   0.008100557   0.07276   0.03794  -0.19569  -0.18174
  31   36711.8    272.4   0.183716159   1.64747  -0.34203   0.49876   1.13213
  32   37461.9    266.9   0.004078162   0.03584   0.12555   0.01369   0.14103
  33   37676.2    265.4   0.181875132   1.58921  -0.80976   0.90823   0.32956
  34   38089.6    262.5   0.061314035   0.52994  -0.44569   0.28801   0.49835
  35   38510.4    259.7   0.003147112   0.02690   0.01959  -0.16126  -0.02270
  36   38543.9    259.4   0.030632941   0.26164  -0.07636   0.39667   0.31379
  37   38724.4    258.2   0.004942242   0.04202   0.05251  -0.09425  -0.17429
  38   38966.8    256.6   0.061838719   0.52245   0.30207   0.62350   0.20604
  39   39163.4    255.3   0.067946065   0.57116  -0.36984   0.53554   0.38416
  40   39222.9    255.0   0.037008442   0.31062  -0.27204   0.31818   0.36794
  41   39459.5    253.4   0.026480205   0.22093  -0.16625   0.18218   0.40012
  42   39597.6    252.5   0.047420042   0.39425  -0.12763  -0.58684  -0.18325
  43   39778.0    251.4   0.004372725   0.03619   0.09479   0.14763  -0.07356
  44   40000.1    250.0   0.029200797   0.24033   0.12148  -0.42530   0.21142

FINAL SINGLE POINT ENERGY     -6561.647596798369

DIPOLE MOMENT
-------------
                                X             Y             Z
Electronic contribution:     37.57488    -141.92292     157.39905
Nuclear contribution   :    -37.70862     144.32347    -155.54411
                        -----------------------------------------
Total Dipole Moment    :     -0.13374       2.40056       1.85494
                        -----------------------------------------
Magnitude (a.u.)       :      3.03667
Magnitude (Debye)      :      7.71861

Rotational constants in cm-1:     0.001286     0.000299     0.000265
Rotational constants in MHz :    38.546092     8.958354     7.942713

                             ****ORCA TERMINATED NORMALLY****
TOTAL RUN TIME: 0 days 0 hours 7 minutes 30 seconds 590 msec
