                         Program Version 4.2.0 -  RELEASE  -
|  1> # ORCA input file
|  2> # SCF done       -174.293095011860          0.000736337047
|  3> ! CAM-B3LYP def2-SVP def2/J RIJCOSX Grid4 TightSCF
|  4> %maxcore 5000
|  5> %tddft
|  6>     Mode sTDDFT
|  7>     Ethresh 5.0
|  8>     maxcore 5000
|  9> end
| 10>
| 11> %pal
| 12>   nprocs 6
| 13>   end
| 14> * xyz 0 1
| 15>    C       -3.09511        -0.53398         2.16413
| 16>    C       -4.18824        -0.18112         2.92203
| 17>    C       -4.56714        -0.82736         4.11485
| 18>    N       -4.92630        -1.30604         5.09578
| 19>    C       -5.07310         0.87376         2.62781
| 20>    N       -5.83687         1.71545         2.45663
| 21>    C       -2.18520        -1.63594         2.45236
| 22>    C       -1.17319        -1.66803         1.46118
| 23>    C       -0.16705        -2.60151         1.45829
| 24>    C       -0.16384        -3.56086         2.47734
| 25>    C       -1.17809        -3.52214         3.46266
| 26>    C       -2.19178        -2.57190         3.47049
| 27>    S       -0.98352        -4.79460         4.63035
| 28>    C        0.43675        -5.35502         3.78789
| 29>    C        0.75152        -4.62792         2.69015
| 30>   Br        1.37154        -6.84414         4.44048
| 31>    C       -1.39212        -0.56769         0.50363
| 32>    O       -0.62014        -0.18144        -0.34453
| 33>    C       -2.66853         0.07548         0.92510
| 34>    C       -3.24153         1.13690         0.28485
| 35>    C       -2.95964         1.49920        -1.05389
| 36>    O       -3.22863         2.77184        -1.46582
| 37>    C       -2.54618         0.76877        -2.15469
| 38>    C       -2.21976        -0.57894        -2.63412
| 39>    O       -2.21691        -1.64643        -2.07903
| 40>    N       -1.96040        -0.38635        -3.99110
| 41>    C       -2.14012         0.91317        -4.45683
| 42>    O       -1.98859         1.27091        -5.59625
| 43>    C       -2.54722         1.65247        -3.25835
| 44>    C       -2.97128         2.88421        -2.79459
| 45>    C       -3.17138         4.11407        -3.47888
| 46>    C       -3.60029         5.23995        -2.86711
| 47>    C       -3.83609         6.46673        -3.56126
| 48>    C       -4.22797         7.61767        -2.98866
| 49>    C       -4.43386         7.79727        -1.51683
| 50>    C       -4.51658         8.85387        -3.81141
| 51>    N       -4.72508         8.61457        -5.21047
| 52>    C       -3.80020         8.81973        -6.17134
| 53>    C       -3.95124         8.43748        -7.46792
| 54>    C       -3.01575         8.72622        -8.47576
| 55>    C       -3.16106         8.37281        -9.79305
| 56>    C       -2.27591         8.65405       -10.86018
| 57>    C       -2.69426         8.19325       -12.07229
| 58>    C       -3.93161         7.51377       -12.03355
| 59>    S       -4.55424         7.48089       -10.40189
| 60>    C       -4.62012         6.92849       -13.08073
| 61>    C       -4.25575         6.89598       -14.44310
| 62>    C       -5.15327         6.23579       -15.22206
| 63>    C       -6.27630         5.70290       -14.52655
| 64>    S       -6.13602         6.08432       -12.82241
| 65>    C       -7.27066         5.01991       -15.17757
| 66>    C       -8.46233         4.39112       -14.72851
| 67>    C       -9.30957         3.78785       -15.68257
| 68>    O       -8.90397         3.91909       -16.97754
| 69>    C       -9.21964         2.94640       -17.95178
| 70>    C      -10.52616         3.14575       -15.30529
| 71>    O      -11.29554         2.66629       -16.32718
| 72>    C      -12.51131         2.03038       -16.01603
| 73>    C      -10.89887         3.04174       -13.98379
| 74>    C      -10.07635         3.61137       -13.00636
| 75>    C       -8.86812         4.30088       -13.36970
| 76>    N       -8.24055         4.77933       -12.30646
| 77>    S       -9.07655         4.40258       -10.97633
| 78>    N      -10.28563         3.61103       -11.69095
| 79>    H        0.58732        -2.59866         0.68775
| 80>    H       -2.93962        -2.58382         4.24556
| 81>    H        1.59380        -4.83338         2.05508
| 82>    H       -3.97698         1.75190         0.78499
| 83>    H       -1.68933        -1.14591        -4.59921
| 84>    H       -2.96059         4.09005        -4.53826
| 85>    H       -3.79286         5.20594        -1.80496
| 86>    H       -3.68493         6.43405        -4.63283
| 87>    H       -3.67764         7.26853        -0.94365
| 88>    H       -5.41017         7.41175        -1.22150
| 89>    H       -4.39495         8.85132        -1.25173
| 90>    H       -3.68545         9.55965        -3.70091
| 91>    H       -5.41283         9.33662        -3.40095
| 92>    H       -5.52104         8.04316        -5.45442
| 93>    H       -2.91847         9.36236        -5.85817
| 94>    H       -4.83992         7.89237        -7.75746
| 95>    H       -2.12217         9.27225        -8.20275
| 96>    H       -1.35817         9.19180       -10.69787
| 97>    H       -2.14726         8.32006       -12.98921
| 98>    H       -3.35627         7.35602       -14.81231
| 99>    H       -5.05284         6.10820       -16.28592
|100>    H       -7.12424         4.94185       -16.24747
|101>    H       -9.13237         1.93338       -17.55384
|102>    H       -8.48303         3.08839       -18.74392
|103>    H      -10.22195         3.09134       -18.35849
|104>    H      -12.94005         1.74136       -16.97444
|105>    H      -13.19840         2.70795       -15.50047
|106>    H      -12.35286         1.13635       -15.40532
|107>    H      -11.80686         2.55622       -13.67333
|108> *
|109>
|110>                          ****END OF INPUT****

CARTESIAN COORDINATES (ANGSTROEM)
---------------------------------
  C     -3.095110   -0.533980    2.164130
  C     -4.188240   -0.181120    2.922030
  C     -4.567140   -0.827360    4.114850
  N     -4.926300   -1.306040    5.095780
  C     -5.073100    0.873760    2.627810
  N     -5.836870    1.715450    2.456630
  C     -2.185200   -1.635940    2.452360
  C     -1.173190   -1.668030    1.461180
  C     -0.167050   -2.601510    1.458290
  C     -0.163840   -3.560860    2.477340
  C     -1.178090   -3.522140    3.462660
  C     -2.191780   -2.571900    3.470490
  S     -0.983520   -4.794600    4.630350
  C      0.436750   -5.355020    3.787890
  C      0.751520   -4.627920    2.690150
  Br     1.371540   -6.844140    4.440480
  C     -1.392120   -0.567690    0.503630
  O     -0.620140   -0.181440   -0.344530
  C     -2.668530    0.075480    0.925100
  C     -3.241530    1.136900    0.284850
  C     -2.959640    1.499200   -1.053890
  O     -3.228630    2.771840   -1.465820
  C     -2.546180    0.768770   -2.154690
  C     -2.219760   -0.578940   -2.634120
  O     -2.216910   -1.646430   -2.079030
  N     -1.960400   -0.386350   -3.991100
  C     -2.140120    0.913170   -4.456830
  O     -1.988590    1.270910   -5.596250
  C     -2.547220    1.652470   -3.258350
  C     -2.971280    2.884210   -2.794590
  C     -3.171380    4.114070   -3.478880
  C     -3.600290    5.239950   -2.867110
  C     -3.836090    6.466730   -3.561260
  C     -4.227970    7.617670   -2.988660
  C     -4.433860    7.797270   -1.516830
  C     -4.516580    8.853870   -3.811410
  N     -4.725080    8.614570   -5.210470
  C     -3.800200    8.819730   -6.171340
  C     -3.951240    8.437480   -7.467920
  C     -3.015750    8.726220   -8.475760
  C     -3.161060    8.372810   -9.793050
  C     -2.275910    8.654050  -10.860180
  C     -2.694260    8.193250  -12.072290
  C     -3.931610    7.513770  -12.033550
  S     -4.554240    7.480890  -10.401890
  C     -4.620120    6.928490  -13.080730
  C     -4.255750    6.895980  -14.443100
  C     -5.153270    6.235790  -15.222060
  C     -6.276300    5.702900  -14.526550
  S     -6.136020    6.084320  -12.822410
  C     -7.270660    5.019910  -15.177570
  C     -8.462330    4.391120  -14.728510
  C     -9.309570    3.787850  -15.682570
  O     -8.903970    3.919090  -16.977540
  C     -9.219640    2.946400  -17.951780
  C    -10.526160    3.145750  -15.305290
  O    -11.295540    2.666290  -16.327180
  C    -12.511310    2.030380  -16.016030
  C    -10.898870    3.041740  -13.983790
  C    -10.076350    3.611370  -13.006360
  C     -8.868120    4.300880  -13.369700
  N     -8.240550    4.779330  -12.306460
  S     -9.076550    4.402580  -10.976330
  N    -10.285630    3.611030  -11.690950
  H      0.587320   -2.598660    0.687750
  H     -2.939620   -2.583820    4.245560
  H      1.593800   -4.833380    2.055080
  H     -3.976980    1.751900    0.784990
  H     -1.689330   -1.145910   -4.599210
  H     -2.960590    4.090050   -4.538260
  H     -3.792860    5.205940   -1.804960
  H     -3.684930    6.434050   -4.632830
  H     -3.677640    7.268530   -0.943650
  H     -5.410170    7.411750   -1.221500
  H     -4.394950    8.851320   -1.251730
  H     -3.685450    9.559650   -3.700910
  H     -5.412830    9.336620   -3.400950
  H     -5.521040    8.043160   -5.454420
  H     -2.918470    9.362360   -5.858170
  H     -4.839920    7.892370   -7.757460
  H     -2.122170    9.272250   -8.202750
  H     -1.358170    9.191800  -10.697870
  H     -2.147260    8.320060  -12.989210
  H     -3.356270    7.356020  -14.812310
  H     -5.052840    6.108200  -16.285920
  H     -7.124240    4.941850  -16.247470
  H     -9.132370    1.933380  -17.553840
  H     -8.483030    3.088390  -18.743920
  H    -10.221950    3.091340  -18.358490
  H    -12.940050    1.741360  -16.974440
  H    -13.198400    2.707950  -15.500470
  H    -12.352860    1.136350  -15.405320
  H    -11.806860    2.556220  -13.673330

 Total Charge           Charge          ....    0
 Multiplicity           Mult            ....    1
 Number of Electrons    NEL             ....  500
 Basis Dimension        Dim             .... 1075

ORBITAL ENERGIES
----------------

  NO   OCC          E(Eh)            E(eV)
   0   2.0000    -482.886326    -13140.0050
   1   2.0000     -88.992958     -2421.6215
   2   2.0000     -88.976444     -2421.1721
   3   2.0000     -88.918060     -2419.5834
   4   2.0000     -88.910681     -2419.3826
   5   2.0000     -62.564049     -1702.4543
   6   2.0000     -56.398005     -1534.6677
   7   2.0000     -56.395280     -1534.5936
   8   2.0000     -56.395250     -1534.5928
   9   2.0000     -19.318396      -525.6803
  10   2.0000     -19.246987      -523.7371
  11   2.0000     -19.230290      -523.2828
  12   2.0000     -19.216980      -522.9206
  13   2.0000     -19.216067      -522.8958
  14   2.0000     -19.211894      -522.7822
  15   2.0000     -14.456523      -393.3820
  16   2.0000     -14.439453      -392.9175
  17   2.0000     -14.420409      -392.3993
  18   2.0000     -14.418065      -392.3355
  19   2.0000     -14.411961      -392.1694
  20   2.0000     -14.407777      -392.0555
  21   2.0000     -10.404019      -283.1077
  22   2.0000     -10.401700      -283.0447
  23   2.0000     -10.372175      -282.2412
  24   2.0000     -10.369775      -282.1759
  25   2.0000     -10.365991      -282.0730
  26   2.0000     -10.360009      -281.9102
  27   2.0000     -10.346260      -281.5360
  28   2.0000     -10.345656      -281.5196
  29   2.0000     -10.335259      -281.2367
  30   2.0000     -10.327188      -281.0171
  31   2.0000     -10.326866      -281.0083
  32   2.0000     -10.326821      -281.0071
  33   2.0000     -10.323992      -280.9301
  34   2.0000     -10.322915      -280.9008
  35   2.0000     -10.322748      -280.8963
  36   2.0000     -10.320752      -280.8419
  37   2.0000     -10.315348      -280.6949
  38   2.0000     -10.310121      -280.5527
  39   2.0000     -10.308838      -280.5178
  40   2.0000     -10.308700      -280.5140
  41   2.0000     -10.307045      -280.4689
  42   2.0000     -10.305288      -280.4211
  43   2.0000     -10.304647      -280.4037
  44   2.0000     -10.301461      -280.3170
  45   2.0000     -10.301242      -280.3110
  46   2.0000     -10.299803      -280.2719
  47   2.0000     -10.298989      -280.2497
  48   2.0000     -10.297363      -280.2055
  49   2.0000     -10.296867      -280.1920
  50   2.0000     -10.295314      -280.1497
  51   2.0000     -10.294928      -280.1392
  52   2.0000     -10.293278      -280.0943
  53   2.0000     -10.285021      -279.8696
  54   2.0000     -10.283165      -279.8191
  55   2.0000     -10.282561      -279.8027
  56   2.0000     -10.279788      -279.7272
  57   2.0000     -10.277047      -279.6527
  58   2.0000     -10.271325      -279.4970
  59   2.0000     -10.268252      -279.4134
  60   2.0000     -10.266342      -279.3614
  61   2.0000     -10.263620      -279.2873
  62   2.0000     -10.260964      -279.2150
  63   2.0000     -10.259140      -279.1654
  64   2.0000     -10.257914      -279.1320
  65   2.0000     -10.253629      -279.0154
  66   2.0000     -10.251929      -278.9692
  67   2.0000     -10.247481      -278.8481
  68   2.0000      -8.793481      -239.2828
  69   2.0000      -8.084943      -220.0025
  70   2.0000      -8.072409      -219.6614
  71   2.0000      -8.014416      -218.0833
  72   2.0000      -8.005293      -217.8351
  73   2.0000      -6.629803      -180.4061
  74   2.0000      -6.615200      -180.0087
  75   2.0000      -6.615001      -180.0033
  76   2.0000      -6.056320      -164.8008
  77   2.0000      -6.048777      -164.5956
  78   2.0000      -6.046797      -164.5417
  79   2.0000      -6.042094      -164.4137
  80   2.0000      -6.037825      -164.2976
  81   2.0000      -6.033639      -164.1837
  82   2.0000      -5.984148      -162.8369
  83   2.0000      -5.980217      -162.7300
  84   2.0000      -5.975258      -162.5950
  85   2.0000      -5.975230      -162.5943
  86   2.0000      -5.970885      -162.4760
  87   2.0000      -5.966094      -162.3457
  88   2.0000      -2.745651       -74.7130
  89   2.0000      -2.741596       -74.6026
  90   2.0000      -2.741422       -74.5979
  91   2.0000      -2.729820       -74.2822
  92   2.0000      -2.729810       -74.2819
  93   2.0000      -1.234020       -33.5794
  94   2.0000      -1.158518       -31.5249
  95   2.0000      -1.155182       -31.4341
  96   2.0000      -1.138601       -30.9829
  97   2.0000      -1.131407       -30.7871
  98   2.0000      -1.127043       -30.6684
  99   2.0000      -1.095456       -29.8089
 100   2.0000      -1.045564       -28.4512
 101   2.0000      -1.043190       -28.3866
 102   2.0000      -1.025152       -27.8958
 103   2.0000      -1.015865       -27.6431
 104   2.0000      -0.997232       -27.1361
 105   2.0000      -0.992592       -27.0098
 106   2.0000      -0.966464       -26.2988
 107   2.0000      -0.953873       -25.9562
 108   2.0000      -0.949533       -25.8381
 109   2.0000      -0.942372       -25.6432
 110   2.0000      -0.939936       -25.5770
 111   2.0000      -0.931481       -25.3469
 112   2.0000      -0.930049       -25.3079
 113   2.0000      -0.923192       -25.1213
 114   2.0000      -0.910291       -24.7703
 115   2.0000      -0.899035       -24.4640
 116   2.0000      -0.887110       -24.1395
 117   2.0000      -0.882443       -24.0125
 118   2.0000      -0.871484       -23.7143
 119   2.0000      -0.861219       -23.4350
 120   2.0000      -0.843385       -22.9497
 121   2.0000      -0.841582       -22.9006
 122   2.0000      -0.833559       -22.6823
 123   2.0000      -0.830260       -22.5925
 124   2.0000      -0.817409       -22.2428
 125   2.0000      -0.811413       -22.0797
 126   2.0000      -0.797995       -21.7145
 127   2.0000      -0.792916       -21.5764
 128   2.0000      -0.791363       -21.5341
 129   2.0000      -0.782426       -21.2909
 130   2.0000      -0.779903       -21.2222
 131   2.0000      -0.769364       -20.9355
 132   2.0000      -0.766085       -20.8462
 133   2.0000      -0.763970       -20.7887
 134   2.0000      -0.755633       -20.5618
 135   2.0000      -0.742806       -20.2128
 136   2.0000      -0.720831       -19.6148
 137   2.0000      -0.714728       -19.4487
 138   2.0000      -0.705126       -19.1875
 139   2.0000      -0.696801       -18.9609
 140   2.0000      -0.694020       -18.8852
 141   2.0000      -0.690257       -18.7829
 142   2.0000      -0.681339       -18.5402
 143   2.0000      -0.675152       -18.3718
 144   2.0000      -0.671185       -18.2639
 145   2.0000      -0.660305       -17.9678
 146   2.0000      -0.658645       -17.9226
 147   2.0000      -0.642004       -17.4698
 148   2.0000      -0.634986       -17.2788
 149   2.0000      -0.629195       -17.1213
 150   2.0000      -0.623990       -16.9796
 151   2.0000      -0.613234       -16.6869
 152   2.0000      -0.611558       -16.6413
 153   2.0000      -0.610307       -16.6073
 154   2.0000      -0.603701       -16.4275
 155   2.0000      -0.601082       -16.3563
 156   2.0000      -0.599832       -16.3223
 157   2.0000      -0.597989       -16.2721
 158   2.0000      -0.595859       -16.2141
 159   2.0000      -0.592709       -16.1284
 160   2.0000      -0.589894       -16.0518
 161   2.0000      -0.586905       -15.9705
 162   2.0000      -0.583248       -15.8710
 163   2.0000      -0.570913       -15.5353
 164   2.0000      -0.567099       -15.4315
 165   2.0000      -0.563890       -15.3442
 166   2.0000      -0.559569       -15.2266
 167   2.0000      -0.558980       -15.2106
 168   2.0000      -0.554221       -15.0811
 169   2.0000      -0.551457       -15.0059
 170   2.0000      -0.548587       -14.9278
 171   2.0000      -0.542469       -14.7613
 172   2.0000      -0.537790       -14.6340
 173   2.0000      -0.533430       -14.5154
 174   2.0000      -0.532226       -14.4826
 175   2.0000      -0.530659       -14.4400
 176   2.0000      -0.527769       -14.3613
 177   2.0000      -0.527064       -14.3421
 178   2.0000      -0.524259       -14.2658
 179   2.0000      -0.519960       -14.1488
 180   2.0000      -0.518534       -14.1100
 181   2.0000      -0.515563       -14.0292
 182   2.0000      -0.512889       -13.9564
 183   2.0000      -0.511359       -13.9148
 184   2.0000      -0.509703       -13.8697
 185   2.0000      -0.508411       -13.8346
 186   2.0000      -0.505149       -13.7458
 187   2.0000      -0.502047       -13.6614
 188   2.0000      -0.495720       -13.4892
 189   2.0000      -0.495168       -13.4742
 190   2.0000      -0.492325       -13.3968
 191   2.0000      -0.488098       -13.2818
 192   2.0000      -0.483920       -13.1681
 193   2.0000      -0.482228       -13.1221
 194   2.0000      -0.480305       -13.0698
 195   2.0000      -0.478572       -13.0226
 196   2.0000      -0.473670       -12.8892
 197   2.0000      -0.471387       -12.8271
 198   2.0000      -0.470172       -12.7940
 199   2.0000      -0.468189       -12.7401
 200   2.0000      -0.459490       -12.5034
 201   2.0000      -0.458038       -12.4638
 202   2.0000      -0.454965       -12.3802
 203   2.0000      -0.452532       -12.3140
 204   2.0000      -0.452324       -12.3084
 205   2.0000      -0.449847       -12.2409
 206   2.0000      -0.447605       -12.1799
 207   2.0000      -0.447018       -12.1640
 208   2.0000      -0.442092       -12.0299
 209   2.0000      -0.440737       -11.9931
 210   2.0000      -0.439733       -11.9657
 211   2.0000      -0.437356       -11.9011
 212   2.0000      -0.435390       -11.8476
 213   2.0000      -0.432727       -11.7751
 214   2.0000      -0.429702       -11.6928
 215   2.0000      -0.427235       -11.6256
 216   2.0000      -0.423961       -11.5366
 217   2.0000      -0.421295       -11.4640
 218   2.0000      -0.417157       -11.3514
 219   2.0000      -0.413532       -11.2528
 220   2.0000      -0.411451       -11.1962
 221   2.0000      -0.410789       -11.1781
 222   2.0000      -0.400032       -10.8854
 223   2.0000      -0.392450       -10.6791
 224   2.0000      -0.389114       -10.5883
 225   2.0000      -0.386388       -10.5141
 226   2.0000      -0.382048       -10.3961
 227   2.0000      -0.380786       -10.3617
 228   2.0000      -0.375633       -10.2215
 229   2.0000      -0.375605       -10.2207
 230   2.0000      -0.373513       -10.1638
 231   2.0000      -0.367393        -9.9973
 232   2.0000      -0.363729        -9.8976
 233   2.0000      -0.362527        -9.8649
 234   2.0000      -0.359588        -9.7849
 235   2.0000      -0.358541        -9.7564
 236   2.0000      -0.347827        -9.4649
 237   2.0000      -0.340193        -9.2571
 238   2.0000      -0.328677        -8.9438
 239   2.0000      -0.322743        -8.7823
 240   2.0000      -0.316308        -8.6072
 241   2.0000      -0.315894        -8.5959
 242   2.0000      -0.310173        -8.4402
 243   2.0000      -0.295401        -8.0383
 244   2.0000      -0.295097        -8.0300
 245   2.0000      -0.286449        -7.7947
 246   2.0000      -0.277429        -7.5492
 247   2.0000      -0.270453        -7.3594
 248   2.0000      -0.242736        -6.6052
 249   2.0000      -0.178206        -4.8492
 250   0.0000      -0.104424        -2.8415
 251   0.0000      -0.064296        -1.7496
 252   0.0000      -0.054866        -1.4930
 253   0.0000      -0.052134        -1.4186
 254   0.0000      -0.017598        -0.4789

MULLIKEN ATOMIC CHARGES
-----------------------
   0 C :    0.306487
   1 C :   -0.347351
   2 C :   -0.183464
   3 N :    0.154187
   4 C :   -0.190718
   5 N :    0.151758
   6 C :    0.021384
   7 C :   -0.011950
   8 C :   -0.060229
   9 C :    0.113655
  10 C :   -0.090955
  11 C :   -0.022358
  12 S :    0.186602
  13 C :   -0.121938
  14 C :    0.040350
  15 Br:    0.025403
  16 C :    0.156216
  17 O :   -0.146478
  18 C :   -0.078182
  19 C :   -0.032975
  20 C :    0.122666
  21 O :   -0.203860
  22 C :   -0.017385
  23 C :    0.184132
  24 O :   -0.143028
  25 N :   -0.163026
  26 C :    0.169095
  27 O :   -0.137042
  28 C :   -0.047716
  29 C :    0.100171
  30 C :   -0.041086
  31 C :    0.042844
  32 C :   -0.003743
  33 C :   -0.212112
  34 C :    0.078293
  35 C :    0.208088
  36 N :   -0.152769
  37 C :    0.056567
  38 C :   -0.023221
  39 C :   -0.014012
  40 C :   -0.035631
  41 C :    0.039511
  42 C :    0.009842
  43 C :   -0.046877
  44 S :    0.051061
  45 C :   -0.036766
  46 C :    0.032628
  47 C :    0.013009
  48 C :    0.034089
  49 S :    0.094185
  50 C :   -0.128422
  51 C :    0.042467
  52 C :    0.106709
  53 O :   -0.325387
  54 C :    0.212125
  55 C :    0.227483
  56 O :   -0.329059
  57 C :    0.183509
  58 C :   -0.216404
  59 C :    0.075515
  60 C :    0.043084
  61 N :   -0.317448
  62 S :    0.473206
  63 N :   -0.280874
  64 H :   -0.006782
  65 H :   -0.004269
  66 H :   -0.002427
  67 H :    0.030568
  68 H :    0.140650
  69 H :    0.018020
  70 H :    0.005690
  71 H :   -0.006738
  72 H :    0.038648
  73 H :    0.046613
  74 H :    0.019331
  75 H :    0.037194
  76 H :    0.024520
  77 H :    0.122320
  78 H :   -0.001159
  79 H :   -0.015277
  80 H :   -0.028772
  81 H :   -0.025392
  82 H :   -0.023586
  83 H :   -0.027873
  84 H :   -0.023284
  85 H :   -0.015681
  86 H :    0.010694
  87 H :    0.022484
  88 H :    0.025360
  89 H :    0.034490
  90 H :    0.028207
  91 H :    0.026921
  92 H :   -0.044320
Sum of atomic charges:   -0.0000000

LOEWDIN ATOMIC CHARGES
----------------------
   0 C :    0.075236
   1 C :   -0.137641
   2 C :   -0.018186
   3 N :   -0.050854
   4 C :   -0.020070
   5 N :   -0.051586
   6 C :   -0.020131
   7 C :   -0.044169
   8 C :    0.026763
   9 C :   -0.030488
  10 C :   -0.142666
  11 C :   -0.009518
  12 S :    0.432969
  13 C :   -0.270019
  14 C :   -0.069572
  15 Br:    0.138293
  16 C :    0.088393
  17 O :   -0.133734
  18 C :   -0.070159
  19 C :    0.046512
  20 C :    0.046777
  21 O :    0.018717
  22 C :   -0.050670
  23 C :    0.091031
  24 O :   -0.148347
  25 N :   -0.000925
  26 C :    0.085720
  27 O :   -0.154941
  28 C :   -0.100670
  29 C :    0.087969
  30 C :   -0.049387
  31 C :    0.020312
  32 C :   -0.061692
  33 C :   -0.017874
  34 C :   -0.049950
  35 C :    0.040539
  36 N :    0.000670
  37 C :    0.038936
  38 C :   -0.122352
  39 C :   -0.042631
  40 C :   -0.173814
  41 C :   -0.033279
  42 C :   -0.049977
  43 C :   -0.171173
  44 S :    0.351597
  45 C :   -0.207085
  46 C :   -0.033786
  47 C :   -0.046161
  48 C :   -0.132371
  49 S :    0.405095
  50 C :   -0.074218
  51 C :   -0.052888
  52 C :    0.034293
  53 O :   -0.103497
  54 C :    0.078101
  55 C :    0.043760
  56 O :   -0.097317
  57 C :    0.078252
  58 C :   -0.102497
  59 C :   -0.052332
  60 C :   -0.044047
  61 N :   -0.293636
  62 S :    0.601984
  63 N :   -0.302266
  64 H :    0.042672
  65 H :    0.041249
  66 H :    0.039402
  67 H :    0.051286
  68 H :    0.096307
  69 H :    0.047527
  70 H :    0.031133
  71 H :    0.030406
  72 H :    0.037936
  73 H :    0.046575
  74 H :    0.032832
  75 H :    0.041386
  76 H :    0.031728
  77 H :    0.080959
  78 H :    0.026553
  79 H :    0.017757
  80 H :    0.027653
  81 H :    0.028339
  82 H :    0.027562
  83 H :    0.025348
  84 H :    0.027486
  85 H :    0.032440
  86 H :    0.012982
  87 H :    0.019377
  88 H :    0.013102
  89 H :    0.027697
  90 H :    0.018496
  91 H :    0.017291
  92 H :    0.033176

  Mayer bond orders larger than 0.100000
B(  0-C ,  1-C ) :   1.6239 B(  0-C ,  6-C ) :   1.0122 B(  0-C , 18-C ) :   1.0860
B(  1-C ,  2-C ) :   1.1456 B(  1-C ,  4-C ) :   1.1484 B(  2-C ,  3-N ) :   2.9662
B(  4-C ,  5-N ) :   2.9673 B(  6-C ,  7-C ) :   1.2713 B(  6-C , 11-C ) :   1.4034
B(  7-C ,  8-C ) :   1.4310 B(  7-C , 16-C ) :   0.9362 B(  8-C ,  9-C ) :   1.2485
B(  8-C , 64-H ) :   1.0150 B(  9-C , 10-C ) :   1.3028 B(  9-C , 14-C ) :   1.1653
B( 10-C , 11-C ) :   1.3370 B( 10-C , 12-S ) :   1.0857 B( 11-C , 65-H ) :   0.9787
B( 12-S , 13-C ) :   1.0861 B( 13-C , 14-C ) :   1.6162 B( 13-C , 15-Br) :   1.0194
B( 14-C , 66-H ) :   1.0006 B( 16-C , 17-O ) :   2.2291 B( 16-C , 18-C ) :   0.9263
B( 18-C , 19-C ) :   1.6000 B( 19-C , 20-C ) :   1.1657 B( 19-C , 67-H ) :   0.9326
B( 20-C , 21-O ) :   1.1193 B( 20-C , 22-C ) :   1.4325 B( 21-O , 29-C ) :   1.1728
B( 22-C , 23-C ) :   0.8683 B( 22-C , 28-C ) :   1.3152 B( 23-C , 24-O ) :   2.2329
B( 23-C , 25-N ) :   1.0888 B( 25-N , 26-C ) :   1.0761 B( 25-N , 68-H ) :   0.9144
B( 26-C , 27-O ) :   2.2723 B( 26-C , 28-C ) :   0.8787 B( 28-C , 29-C ) :   1.3625
B( 29-C , 30-C ) :   1.1556 B( 30-C , 31-C ) :   1.6452 B( 30-C , 69-H ) :   0.9707
B( 31-C , 32-C ) :   1.0952 B( 31-C , 70-H ) :   0.9801 B( 32-C , 33-C ) :   1.7639
B( 32-C , 71-H ) :   0.9746 B( 33-C , 34-C ) :   1.0770 B( 33-C , 35-C ) :   0.9993
B( 34-C , 72-H ) :   0.9499 B( 34-C , 73-H ) :   0.9440 B( 34-C , 74-H ) :   0.9550
B( 35-C , 36-N ) :   1.0517 B( 35-C , 75-H ) :   0.9178 B( 35-C , 76-H ) :   0.9406
B( 36-N , 37-C ) :   1.1986 B( 36-N , 77-H ) :   0.9401 B( 37-C , 38-C ) :   1.6088
B( 37-C , 78-H ) :   0.9682 B( 38-C , 39-C ) :   1.1679 B( 38-C , 79-H ) :   0.9627
B( 39-C , 40-C ) :   1.5846 B( 39-C , 80-H ) :   0.9790 B( 40-C , 41-C ) :   1.1484
B( 40-C , 44-S ) :   1.0103 B( 41-C , 42-C ) :   1.5822 B( 41-C , 81-H ) :   0.9972
B( 42-C , 43-C ) :   1.1928 B( 42-C , 82-H ) :   0.9936 B( 43-C , 44-S ) :   1.0484
B( 43-C , 45-C ) :   1.5061 B( 45-C , 46-C ) :   1.1859 B( 45-C , 49-S ) :   0.9953
B( 46-C , 47-C ) :   1.5846 B( 46-C , 83-H ) :   0.9922 B( 47-C , 48-C ) :   1.1376
B( 47-C , 84-H ) :   1.0012 B( 48-C , 49-S ) :   1.0523 B( 48-C , 50-C ) :   1.5384
B( 50-C , 51-C ) :   1.1753 B( 50-C , 85-H ) :   0.9499 B( 51-C , 52-C ) :   1.4241
B( 51-C , 58-C ) :   0.1122 B( 51-C , 60-C ) :   1.1442 B( 52-C , 53-O ) :   1.1725
B( 52-C , 55-C ) :   1.1841 B( 53-O , 54-C ) :   0.9374 B( 54-C , 86-H ) :   0.9730
B( 54-C , 87-H ) :   0.9771 B( 54-C , 88-H ) :   0.9744 B( 55-C , 56-O ) :   1.1291
B( 55-C , 58-C ) :   1.3569 B( 56-O , 57-C ) :   0.9620 B( 57-C , 89-H ) :   0.9774
B( 57-C , 90-H ) :   0.9689 B( 57-C , 91-H ) :   0.9688 B( 58-C , 59-C ) :   1.1471
B( 58-C , 92-H ) :   1.0384 B( 59-C , 60-C ) :   1.1599 B( 59-C , 63-N ) :   1.5431
B( 60-C , 61-N ) :   1.5180 B( 61-N , 62-S ) :   1.2238 B( 61-N , 63-N ) :   0.1422
B( 62-S , 63-N ) :   1.2403

-----------------------------------------------------------------------------
         ABSORPTION SPECTRUM VIA TRANSITION ELECTRIC DIPOLE MOMENTS
-----------------------------------------------------------------------------
State   Energy  Wavelength   fosc         T2         TX        TY        TZ
        (cm-1)    (nm)                  (au**2)     (au)      (au)      (au)
-----------------------------------------------------------------------------
   0    7833.1   1276.6   0.014688470   0.61733  -0.22902   0.27249  -0.70045
   1   13508.6    740.3   0.899913749  21.93137  -2.90397  -1.93446  -3.12349
   2   15633.2    639.7   0.025263596   0.53201  -0.38325  -0.62059  -0.00121
   3   17949.1    557.1   0.000140832   0.00258   0.04502   0.01150   0.02059
   4   19266.1    519.0   0.830125984  14.18490   0.10955  -2.10455   3.12150
   5   20183.2    495.5   0.322802153   5.26528  -0.69050  -1.20594  -1.82598
   6   21900.4    456.6   0.008166913   0.12277  -0.02703   0.15695  -0.31210
   7   25093.6    398.5   0.172315304   2.26067  -0.90678   1.17630  -0.23395
   8   25197.2    396.9   0.099965563   1.30609  -0.68935  -0.27653   0.86857
   9   25855.3    386.8   0.057637033   0.73388   0.11288   0.62309  -0.57698
  10   27634.5    361.9   0.002578801   0.03072  -0.07069  -0.12687   0.09812
  11   27807.7    359.6   0.045087525   0.53378   0.33268  -0.54744   0.35130
  12   27950.6    357.8   0.132286892   1.55812  -0.90802   0.85467  -0.05623
  13   28928.8    345.7   0.215769967   2.45548   0.63717   1.10655  -0.90832
  14   29343.6    340.8   0.184725219   2.07247  -0.98825  -0.13962   1.03747
  15   30959.2    323.0   0.001106313   0.01176   0.05290  -0.07894   0.05229
  16   30966.8    322.9   0.037756919   0.40140  -0.22644   0.59170   0.00336
  17   31148.6    321.0   0.689820273   7.29077  -0.86458   2.52654  -0.39982
  18   31498.7    317.5   0.095862251   1.00191  -0.18376   0.95309   0.24447
  19   31982.7    312.7   0.019340031   0.19908   0.24911  -0.34846   0.12488
  20   32190.7    310.6   0.406406898   4.15629  -1.57003   1.24412  -0.37877
  21   32392.5    308.7   0.204343293   2.07679  -0.14505   0.34341   1.39205
  22   32755.9    305.3   0.003570484   0.03589  -0.14162   0.12253   0.02856
  23   32999.3    303.0   0.007814429   0.07796   0.08838   0.23296  -0.12600
  24   33110.4    302.0   0.113596363   1.12947  -0.14074   0.78578   0.70158
  25   33157.6    301.6   0.025331246   0.25151  -0.49448  -0.01411  -0.08244
  26   33388.0    299.5   0.329617130   3.25008  -1.08666   0.31431   1.40373
  27   34061.3    293.6   0.000585535   0.00566  -0.02627  -0.06514   0.02693
  28   34113.7    293.1   0.003065949   0.02959   0.00794  -0.09558   0.14279
  29   34271.9    291.8   0.000882665   0.00848  -0.04007  -0.05885   0.05839
  30   34752.3    287.8   0.006357465   0.06022   0.19052   0.03358  -0.15100
  31   36539.7    273.7   0.006447415   0.05809  -0.11403  -0.11274   0.17993
  32   36617.0    273.1   0.285836632   2.56987   0.67056   0.22435  -1.43871
  33   36917.4    270.9   0.000083198   0.00074   0.02394   0.01264   0.00297
  34   37039.2    270.0   0.006857595   0.06095   0.12144   0.11589   0.18104
  35   37548.2    266.3   0.014208455   0.12458   0.31261  -0.16387   0.00080
  36   37628.1    265.8   0.048584520   0.42507   0.34057   0.36231   0.42168
  37   38040.0    262.9   0.002359313   0.02042  -0.08261   0.11529  -0.01737
  38   38727.9    258.2   0.000114557   0.00097  -0.02772  -0.01390   0.00349
  39   38909.1    257.0   0.027379505   0.23166   0.33992   0.26157  -0.21838
  40   39105.1    255.7   0.049021491   0.41269  -0.47695  -0.13312   0.40926
  41   39163.1    255.3   0.014161337   0.11904  -0.06491  -0.05688  -0.33406
  42   39191.3    255.2   0.002286357   0.01921   0.08484   0.10918   0.00940
  43   39799.8    251.3   0.023193135   0.19185   0.10053   0.20347  -0.37462
  44   39825.4    251.1   0.000358508   0.00296  -0.00531   0.05391  -0.00541
  45   39986.8    250.1   0.002234279   0.01839  -0.10820  -0.04548  -0.06796
  46   40312.5    248.1   0.008475947   0.06922   0.05392   0.13448  -0.21961

FINAL SINGLE POINT ENERGY     -6751.196455010835

DIPOLE MOMENT
-------------
                                X             Y             Z
Electronic contribution:     82.24206    -152.50620     168.65841
Nuclear contribution   :    -81.21497     153.00478    -168.58499
                        -----------------------------------------
Total Dipole Moment    :      1.02709       0.49858       0.07343
                        -----------------------------------------
Magnitude (a.u.)       :      1.14406
Magnitude (Debye)      :      2.90798

Rotational constants in cm-1:     0.001340     0.000220     0.000206
Rotational constants in MHz :    40.168450     6.588514     6.174247

                             ****ORCA TERMINATED NORMALLY****
TOTAL RUN TIME: 0 days 0 hours 7 minutes 52 seconds 473 msec
