                         Program Version 4.2.0 -  RELEASE  -
|  1> # ORCA input file
|  2> # SCF done       -184.435452707759          0.000632888046
|  3> ! CAM-B3LYP def2-SVP def2/J RIJCOSX Grid4 TightSCF
|  4> %maxcore 5000
|  5> %tddft
|  6>     Mode sTDDFT
|  7>     Ethresh 5.0
|  8>     maxcore 5000
|  9> end
| 10>
| 11> %pal
| 12>   nprocs 6
| 13>   end
| 14> * xyz 0 1
| 15>    C      -14.58289        -0.13885        -1.26079
| 16>    C      -14.70734         0.22414         0.05556
| 17>    C      -15.92020         0.20293         0.77711
| 18>    N      -16.86264         0.19483         1.43217
| 19>    C      -13.66334         0.67967         0.88290
| 20>    N      -12.87150         1.07515         1.61651
| 21>    C      -15.67604        -0.57479        -2.11937
| 22>    C      -15.16036        -0.87108        -3.40512
| 23>    C      -15.95687        -1.28087        -4.44639
| 24>    C      -17.33341        -1.38034        -4.21767
| 25>    C      -17.84149        -1.07604        -2.93094
| 26>    C      -17.03165        -0.68910        -1.87042
| 27>    S      -19.56973        -1.21603        -2.87312
| 28>    C      -19.58640        -1.66844        -4.55697
| 29>    C      -18.36283        -1.72785        -5.13317
| 30>   Br      -21.22307        -2.00233        -5.39513
| 31>    C      -13.71139        -0.59979        -3.42607
| 32>    O      -12.99442        -0.62179        -4.40551
| 33>    C      -13.36406        -0.16568        -2.05032
| 34>    C      -12.13394         0.26699        -1.64642
| 35>    C      -10.91553         0.11030        -2.37068
| 36>    C       -9.87715         1.01638        -2.30056
| 37>    O       -8.68051         0.80081        -2.93760
| 38>    C       -8.62289        -0.29148        -3.75348
| 39>    C       -9.71560        -1.19857        -3.85840
| 40>    C       -9.48750        -2.19524        -4.74730
| 41>    S       -7.92422        -2.04494        -5.46094
| 42>    C       -7.58088        -0.62097        -4.55632
| 43>    O      -10.83370        -1.05337        -3.09777
| 44>    C       -9.87297         2.29715        -1.66038
| 45>    C      -10.90067         3.01596        -1.15996
| 46>    C      -10.72212         4.32639        -0.60841
| 47>    C      -11.63473         4.96801         0.14238
| 48>    C      -12.91549         4.34790         0.60072
| 49>    C      -11.43690         6.41707         0.51553
| 50>    N      -12.50077         7.18174        -0.10799
| 51>    C      -13.62968         7.52564         0.53946
| 52>    C      -14.85264         7.59066        -0.05918
| 53>    C      -16.03737         7.97189         0.58659
| 54>    C      -17.28422         7.66969         0.09642
| 55>    C      -18.54633         7.95243         0.66410
| 56>    C      -19.59499         7.35930         0.02354
| 57>    C      -19.21010         6.55995        -1.07483
| 58>    S      -17.49294         6.65884        -1.33246
| 59>    C      -19.98504         5.68344        -1.81858
| 60>    C      -21.34344         5.35017        -1.67722
| 61>    C      -21.72309         4.28041        -2.43832
| 62>    C      -20.67947         3.70075        -3.19261
| 63>    S      -19.22697         4.63546        -2.99928
| 64>    C      -20.81078         2.58331        -4.01065
| 65>    C      -19.85555         1.86947        -4.71168
| 66>    C      -18.46271         1.83824        -4.68044
| 67>    C      -17.47469         2.19769        -3.72223
| 68>    C      -17.64293         2.35485        -2.35449
| 69>    C      -16.60461         2.71418        -1.48635
| 70>    N      -15.77079         3.02079        -0.75368
| 71>    C      -18.83643         2.02298        -1.69137
| 72>    N      -19.79178         1.71591        -1.13178
| 73>    C      -16.16790         2.15036        -4.37984
| 74>    C      -16.33176         1.57803        -5.66260
| 75>    C      -17.77206         1.31568        -5.87751
| 76>    O      -18.28054         0.77957        -6.84214
| 77>    C      -15.27476         1.31272        -6.49584
| 78>    C      -13.98980         1.64072        -6.04633
| 79>    C      -13.84296         2.25025        -4.78238
| 80>    C      -14.91324         2.50899        -3.93398
| 81>    S      -12.17509         2.56291        -4.41285
| 82>    C      -11.70292         1.84445        -5.92869
| 83>    C      -12.73852         1.41960        -6.68552
| 84>   Br       -9.88409         1.73961        -6.36012
| 85>    H      -15.53488        -1.50386        -5.41362
| 86>    H      -17.46877        -0.47410        -0.90923
| 87>    H      -18.19509        -1.97197        -6.16602
| 88>    H      -12.03621         0.73654        -0.67913
| 89>    H      -10.13953        -2.99945        -5.01535
| 90>    H       -6.64913        -0.10894        -4.67250
| 91>    H       -8.88364         2.73863        -1.64533
| 92>    H      -11.91427         2.65407        -1.20575
| 93>    H       -9.78029         4.81437        -0.82598
| 94>    H      -12.71710         3.42348         1.13968
| 95>    H      -13.57293         4.09963        -0.23268
| 96>    H      -13.46099         5.01655         1.26176
| 97>    H      -10.47236         6.78455         0.15375
| 98>    H      -11.48979         6.56174         1.59718
| 99>    H      -12.61697         6.97290        -1.09291
|100>    H      -13.51435         7.75669         1.59079
|101>    H      -14.94085         7.24609        -1.08201
|102>    H      -15.97731         8.47129         1.54437
|103>    H      -18.64172         8.57085         1.53940
|104>    H      -20.62204         7.44795         0.32803
|105>    H      -21.99620         5.87955        -1.00694
|106>    H      -22.71232         3.85933        -2.44104
|107>    H      -21.83558         2.26346        -4.15701
|108>    H      -20.25469         1.23734        -5.50187
|109>    H      -15.42784         0.85297        -7.45980
|110>    H      -14.74447         2.96784        -2.97449
|111>    H      -12.62720         0.94831        -7.64483
|112> *
|113>
|114>                          ****END OF INPUT****

CARTESIAN COORDINATES (ANGSTROEM)
---------------------------------
  C    -14.582890   -0.138850   -1.260790
  C    -14.707340    0.224140    0.055560
  C    -15.920200    0.202930    0.777110
  N    -16.862640    0.194830    1.432170
  C    -13.663340    0.679670    0.882900
  N    -12.871500    1.075150    1.616510
  C    -15.676040   -0.574790   -2.119370
  C    -15.160360   -0.871080   -3.405120
  C    -15.956870   -1.280870   -4.446390
  C    -17.333410   -1.380340   -4.217670
  C    -17.841490   -1.076040   -2.930940
  C    -17.031650   -0.689100   -1.870420
  S    -19.569730   -1.216030   -2.873120
  C    -19.586400   -1.668440   -4.556970
  C    -18.362830   -1.727850   -5.133170
  Br   -21.223070   -2.002330   -5.395130
  C    -13.711390   -0.599790   -3.426070
  O    -12.994420   -0.621790   -4.405510
  C    -13.364060   -0.165680   -2.050320
  C    -12.133940    0.266990   -1.646420
  C    -10.915530    0.110300   -2.370680
  C     -9.877150    1.016380   -2.300560
  O     -8.680510    0.800810   -2.937600
  C     -8.622890   -0.291480   -3.753480
  C     -9.715600   -1.198570   -3.858400
  C     -9.487500   -2.195240   -4.747300
  S     -7.924220   -2.044940   -5.460940
  C     -7.580880   -0.620970   -4.556320
  O    -10.833700   -1.053370   -3.097770
  C     -9.872970    2.297150   -1.660380
  C    -10.900670    3.015960   -1.159960
  C    -10.722120    4.326390   -0.608410
  C    -11.634730    4.968010    0.142380
  C    -12.915490    4.347900    0.600720
  C    -11.436900    6.417070    0.515530
  N    -12.500770    7.181740   -0.107990
  C    -13.629680    7.525640    0.539460
  C    -14.852640    7.590660   -0.059180
  C    -16.037370    7.971890    0.586590
  C    -17.284220    7.669690    0.096420
  C    -18.546330    7.952430    0.664100
  C    -19.594990    7.359300    0.023540
  C    -19.210100    6.559950   -1.074830
  S    -17.492940    6.658840   -1.332460
  C    -19.985040    5.683440   -1.818580
  C    -21.343440    5.350170   -1.677220
  C    -21.723090    4.280410   -2.438320
  C    -20.679470    3.700750   -3.192610
  S    -19.226970    4.635460   -2.999280
  C    -20.810780    2.583310   -4.010650
  C    -19.855550    1.869470   -4.711680
  C    -18.462710    1.838240   -4.680440
  C    -17.474690    2.197690   -3.722230
  C    -17.642930    2.354850   -2.354490
  C    -16.604610    2.714180   -1.486350
  N    -15.770790    3.020790   -0.753680
  C    -18.836430    2.022980   -1.691370
  N    -19.791780    1.715910   -1.131780
  C    -16.167900    2.150360   -4.379840
  C    -16.331760    1.578030   -5.662600
  C    -17.772060    1.315680   -5.877510
  O    -18.280540    0.779570   -6.842140
  C    -15.274760    1.312720   -6.495840
  C    -13.989800    1.640720   -6.046330
  C    -13.842960    2.250250   -4.782380
  C    -14.913240    2.508990   -3.933980
  S    -12.175090    2.562910   -4.412850
  C    -11.702920    1.844450   -5.928690
  C    -12.738520    1.419600   -6.685520
  Br    -9.884090    1.739610   -6.360120
  H    -15.534880   -1.503860   -5.413620
  H    -17.468770   -0.474100   -0.909230
  H    -18.195090   -1.971970   -6.166020
  H    -12.036210    0.736540   -0.679130
  H    -10.139530   -2.999450   -5.015350
  H     -6.649130   -0.108940   -4.672500
  H     -8.883640    2.738630   -1.645330
  H    -11.914270    2.654070   -1.205750
  H     -9.780290    4.814370   -0.825980
  H    -12.717100    3.423480    1.139680
  H    -13.572930    4.099630   -0.232680
  H    -13.460990    5.016550    1.261760
  H    -10.472360    6.784550    0.153750
  H    -11.489790    6.561740    1.597180
  H    -12.616970    6.972900   -1.092910
  H    -13.514350    7.756690    1.590790
  H    -14.940850    7.246090   -1.082010
  H    -15.977310    8.471290    1.544370
  H    -18.641720    8.570850    1.539400
  H    -20.622040    7.447950    0.328030
  H    -21.996200    5.879550   -1.006940
  H    -22.712320    3.859330   -2.441040
  H    -21.835580    2.263460   -4.157010
  H    -20.254690    1.237340   -5.501870
  H    -15.427840    0.852970   -7.459800
  H    -14.744470    2.967840   -2.974490
  H    -12.627200    0.948310   -7.644830

 Total Charge           Charge          ....    0
 Multiplicity           Mult            ....    1
 Number of Electrons    NEL             ....  568
 Basis Dimension        Dim             .... 1171

ORBITAL ENERGIES
----------------

  NO   OCC          E(Eh)            E(eV)
   0   2.0000    -482.871339    -13139.5971
   1   2.0000    -482.870276    -13139.5682
   2   2.0000     -88.958870     -2420.6939
   3   2.0000     -88.958208     -2420.6759
   4   2.0000     -88.957237     -2420.6495
   5   2.0000     -88.955297     -2420.5967
   6   2.0000     -88.952628     -2420.5241
   7   2.0000     -62.548691     -1702.0364
   8   2.0000     -62.547917     -1702.0153
   9   2.0000     -56.382594     -1534.2484
  10   2.0000     -56.381820     -1534.2273
  11   2.0000     -56.380005     -1534.1779
  12   2.0000     -56.379912     -1534.1754
  13   2.0000     -56.379194     -1534.1559
  14   2.0000     -56.379140     -1534.1544
  15   2.0000     -19.278709      -524.6004
  16   2.0000     -19.264204      -524.2057
  17   2.0000     -19.200437      -522.4704
  18   2.0000     -19.190402      -522.1974
  19   2.0000     -14.462447      -393.5432
  20   2.0000     -14.410167      -392.1206
  21   2.0000     -14.400540      -391.8586
  22   2.0000     -14.400114      -391.8470
  23   2.0000     -14.387703      -391.5093
  24   2.0000     -10.358053      -281.8569
  25   2.0000     -10.352437      -281.7041
  26   2.0000     -10.347642      -281.5737
  27   2.0000     -10.346993      -281.5560
  28   2.0000     -10.339801      -281.3603
  29   2.0000     -10.339621      -281.3554
  30   2.0000     -10.337902      -281.3086
  31   2.0000     -10.336110      -281.2599
  32   2.0000     -10.333614      -281.1919
  33   2.0000     -10.333269      -281.1825
  34   2.0000     -10.329112      -281.0694
  35   2.0000     -10.328230      -281.0454
  36   2.0000     -10.327659      -281.0299
  37   2.0000     -10.314696      -280.6771
  38   2.0000     -10.314286      -280.6660
  39   2.0000     -10.313201      -280.6365
  40   2.0000     -10.310773      -280.5704
  41   2.0000     -10.310591      -280.5655
  42   2.0000     -10.308563      -280.5103
  43   2.0000     -10.308459      -280.5074
  44   2.0000     -10.308129      -280.4985
  45   2.0000     -10.307471      -280.4805
  46   2.0000     -10.304781      -280.4073
  47   2.0000     -10.304239      -280.3926
  48   2.0000     -10.303901      -280.3834
  49   2.0000     -10.302859      -280.3550
  50   2.0000     -10.292361      -280.0694
  51   2.0000     -10.291925      -280.0575
  52   2.0000     -10.291576      -280.0480
  53   2.0000     -10.291456      -280.0448
  54   2.0000     -10.291396      -280.0431
  55   2.0000     -10.290958      -280.0312
  56   2.0000     -10.290913      -280.0300
  57   2.0000     -10.290197      -280.0105
  58   2.0000     -10.289172      -279.9826
  59   2.0000     -10.288014      -279.9511
  60   2.0000     -10.287846      -279.9465
  61   2.0000     -10.287240      -279.9300
  62   2.0000     -10.285211      -279.8748
  63   2.0000     -10.284873      -279.8656
  64   2.0000     -10.284394      -279.8526
  65   2.0000     -10.283523      -279.8289
  66   2.0000     -10.281814      -279.7824
  67   2.0000     -10.280917      -279.7580
  68   2.0000     -10.280564      -279.7484
  69   2.0000     -10.277709      -279.6707
  70   2.0000     -10.276916      -279.6491
  71   2.0000     -10.276732      -279.6441
  72   2.0000     -10.276367      -279.6342
  73   2.0000     -10.273815      -279.5647
  74   2.0000     -10.268347      -279.4159
  75   2.0000     -10.267885      -279.4034
  76   2.0000     -10.263115      -279.2736
  77   2.0000     -10.255240      -279.0593
  78   2.0000      -8.778010      -238.8618
  79   2.0000      -8.777350      -238.8438
  80   2.0000      -8.055031      -219.1885
  81   2.0000      -8.053223      -219.1393
  82   2.0000      -8.052519      -219.1202
  83   2.0000      -8.050140      -219.0554
  84   2.0000      -8.048459      -219.0097
  85   2.0000      -6.614111      -179.9791
  86   2.0000      -6.613485      -179.9621
  87   2.0000      -6.599808      -179.5899
  88   2.0000      -6.599701      -179.5870
  89   2.0000      -6.599248      -179.5747
  90   2.0000      -6.598919      -179.5657
  91   2.0000      -6.024632      -163.9386
  92   2.0000      -6.022997      -163.8941
  93   2.0000      -6.022266      -163.8742
  94   2.0000      -6.020581      -163.8283
  95   2.0000      -6.019521      -163.7995
  96   2.0000      -6.018690      -163.7769
  97   2.0000      -6.017965      -163.7572
  98   2.0000      -6.017895      -163.7552
  99   2.0000      -6.016207      -163.7093
 100   2.0000      -6.015287      -163.6843
 101   2.0000      -6.014554      -163.6643
 102   2.0000      -6.013787      -163.6435
 103   2.0000      -6.013772      -163.6431
 104   2.0000      -6.012088      -163.5972
 105   2.0000      -6.010137      -163.5442
 106   2.0000      -2.730031       -74.2879
 107   2.0000      -2.729413       -74.2711
 108   2.0000      -2.725990       -74.1779
 109   2.0000      -2.725929       -74.1763
 110   2.0000      -2.725417       -74.1624
 111   2.0000      -2.725191       -74.1562
 112   2.0000      -2.714551       -73.8667
 113   2.0000      -2.714544       -73.8665
 114   2.0000      -2.713862       -73.8480
 115   2.0000      -2.713846       -73.8475
 116   2.0000      -1.201688       -32.6996
 117   2.0000      -1.162685       -31.6383
 118   2.0000      -1.114537       -30.3281
 119   2.0000      -1.104001       -30.0414
 120   2.0000      -1.064157       -28.9572
 121   2.0000      -1.010266       -27.4907
 122   2.0000      -1.005321       -27.3562
 123   2.0000      -1.001933       -27.2640
 124   2.0000      -0.999983       -27.2109
 125   2.0000      -0.993720       -27.0405
 126   2.0000      -0.983818       -26.7711
 127   2.0000      -0.982953       -26.7475
 128   2.0000      -0.980558       -26.6823
 129   2.0000      -0.975171       -26.5358
 130   2.0000      -0.971578       -26.4380
 131   2.0000      -0.965320       -26.2677
 132   2.0000      -0.936382       -25.4802
 133   2.0000      -0.929494       -25.2928
 134   2.0000      -0.922445       -25.1010
 135   2.0000      -0.919629       -25.0244
 136   2.0000      -0.908823       -24.7303
 137   2.0000      -0.894455       -24.3394
 138   2.0000      -0.891710       -24.2647
 139   2.0000      -0.888010       -24.1640
 140   2.0000      -0.884566       -24.0703
 141   2.0000      -0.869927       -23.6719
 142   2.0000      -0.868216       -23.6253
 143   2.0000      -0.865467       -23.5506
 144   2.0000      -0.859879       -23.3985
 145   2.0000      -0.853509       -23.2252
 146   2.0000      -0.849190       -23.1076
 147   2.0000      -0.836781       -22.7700
 148   2.0000      -0.827250       -22.5106
 149   2.0000      -0.820268       -22.3206
 150   2.0000      -0.818383       -22.2693
 151   2.0000      -0.812745       -22.1159
 152   2.0000      -0.808340       -21.9961
 153   2.0000      -0.804481       -21.8910
 154   2.0000      -0.794053       -21.6073
 155   2.0000      -0.779818       -21.2199
 156   2.0000      -0.773633       -21.0516
 157   2.0000      -0.757018       -20.5995
 158   2.0000      -0.749492       -20.3947
 159   2.0000      -0.745569       -20.2880
 160   2.0000      -0.734912       -19.9980
 161   2.0000      -0.729140       -19.8409
 162   2.0000      -0.723634       -19.6911
 163   2.0000      -0.705461       -19.1966
 164   2.0000      -0.698296       -19.0016
 165   2.0000      -0.687642       -18.7117
 166   2.0000      -0.686239       -18.6735
 167   2.0000      -0.680676       -18.5221
 168   2.0000      -0.675783       -18.3890
 169   2.0000      -0.672784       -18.3074
 170   2.0000      -0.666220       -18.1288
 171   2.0000      -0.661578       -18.0024
 172   2.0000      -0.656278       -17.8582
 173   2.0000      -0.653533       -17.7835
 174   2.0000      -0.641001       -17.4425
 175   2.0000      -0.640110       -17.4183
 176   2.0000      -0.636259       -17.3135
 177   2.0000      -0.633498       -17.2384
 178   2.0000      -0.623571       -16.9682
 179   2.0000      -0.617106       -16.7923
 180   2.0000      -0.609626       -16.5888
 181   2.0000      -0.607977       -16.5439
 182   2.0000      -0.600803       -16.3487
 183   2.0000      -0.599425       -16.3112
 184   2.0000      -0.595111       -16.1938
 185   2.0000      -0.592302       -16.1174
 186   2.0000      -0.587509       -15.9869
 187   2.0000      -0.586276       -15.9534
 188   2.0000      -0.576031       -15.6746
 189   2.0000      -0.574120       -15.6226
 190   2.0000      -0.567449       -15.4411
 191   2.0000      -0.562464       -15.3054
 192   2.0000      -0.560508       -15.2522
 193   2.0000      -0.558854       -15.2072
 194   2.0000      -0.552305       -15.0290
 195   2.0000      -0.546016       -14.8578
 196   2.0000      -0.542768       -14.7695
 197   2.0000      -0.537614       -14.6292
 198   2.0000      -0.533315       -14.5122
 199   2.0000      -0.532401       -14.4874
 200   2.0000      -0.529209       -14.4005
 201   2.0000      -0.524235       -14.2652
 202   2.0000      -0.522454       -14.2167
 203   2.0000      -0.519120       -14.1260
 204   2.0000      -0.516112       -14.0441
 205   2.0000      -0.513938       -13.9850
 206   2.0000      -0.512125       -13.9356
 207   2.0000      -0.509025       -13.8513
 208   2.0000      -0.507775       -13.8173
 209   2.0000      -0.504927       -13.7398
 210   2.0000      -0.504238       -13.7210
 211   2.0000      -0.502166       -13.6646
 212   2.0000      -0.500293       -13.6137
 213   2.0000      -0.498838       -13.5741
 214   2.0000      -0.496279       -13.5044
 215   2.0000      -0.491139       -13.3646
 216   2.0000      -0.489653       -13.3241
 217   2.0000      -0.486526       -13.2390
 218   2.0000      -0.485901       -13.2220
 219   2.0000      -0.482435       -13.1277
 220   2.0000      -0.480958       -13.0875
 221   2.0000      -0.477566       -12.9952
 222   2.0000      -0.476703       -12.9718
 223   2.0000      -0.476589       -12.9686
 224   2.0000      -0.474913       -12.9230
 225   2.0000      -0.471187       -12.8216
 226   2.0000      -0.465740       -12.6734
 227   2.0000      -0.464566       -12.6415
 228   2.0000      -0.463347       -12.6083
 229   2.0000      -0.462071       -12.5736
 230   2.0000      -0.459285       -12.4978
 231   2.0000      -0.457925       -12.4608
 232   2.0000      -0.453983       -12.3535
 233   2.0000      -0.447452       -12.1758
 234   2.0000      -0.443689       -12.0734
 235   2.0000      -0.442292       -12.0354
 236   2.0000      -0.440483       -11.9862
 237   2.0000      -0.438652       -11.9363
 238   2.0000      -0.437684       -11.9100
 239   2.0000      -0.437408       -11.9025
 240   2.0000      -0.431420       -11.7395
 241   2.0000      -0.430376       -11.7111
 242   2.0000      -0.428393       -11.6572
 243   2.0000      -0.427231       -11.6255
 244   2.0000      -0.426445       -11.6041
 245   2.0000      -0.425844       -11.5878
 246   2.0000      -0.424649       -11.5553
 247   2.0000      -0.422983       -11.5100
 248   2.0000      -0.417854       -11.3704
 249   2.0000      -0.416575       -11.3356
 250   2.0000      -0.415327       -11.3016
 251   2.0000      -0.413332       -11.2473
 252   2.0000      -0.411436       -11.1957
 253   2.0000      -0.409973       -11.1559
 254   2.0000      -0.404229       -10.9996
 255   2.0000      -0.403172       -10.9709
 256   2.0000      -0.399029       -10.8581
 257   2.0000      -0.397118       -10.8061
 258   2.0000      -0.395555       -10.7636
 259   2.0000      -0.386873       -10.5274
 260   2.0000      -0.383263       -10.4291
 261   2.0000      -0.377839       -10.2815
 262   2.0000      -0.368049       -10.0151
 263   2.0000      -0.363578        -9.8935
 264   2.0000      -0.361167        -9.8278
 265   2.0000      -0.360148        -9.8001
 266   2.0000      -0.358955        -9.7677
 267   2.0000      -0.347891        -9.4666
 268   2.0000      -0.345199        -9.3934
 269   2.0000      -0.338666        -9.2156
 270   2.0000      -0.325686        -8.8624
 271   2.0000      -0.323173        -8.7940
 272   2.0000      -0.321903        -8.7594
 273   2.0000      -0.316970        -8.6252
 274   2.0000      -0.307126        -8.3573
 275   2.0000      -0.299831        -8.1588
 276   2.0000      -0.297938        -8.1073
 277   2.0000      -0.294753        -8.0206
 278   2.0000      -0.289874        -7.8879
 279   2.0000      -0.277295        -7.5456
 280   2.0000      -0.272756        -7.4221
 281   2.0000      -0.265100        -7.2138
 282   2.0000      -0.245591        -6.6829
 283   2.0000      -0.219886        -5.9834
 284   0.0000      -0.093549        -2.5456
 285   0.0000      -0.084266        -2.2930
 286   0.0000      -0.050231        -1.3669
 287   0.0000      -0.046334        -1.2608
 288   0.0000      -0.029287        -0.7970

MULLIKEN ATOMIC CHARGES
-----------------------
   0 C :    0.322524
   1 C :   -0.356098
   2 C :   -0.197644
   3 N :    0.165451
   4 C :   -0.143643
   5 N :    0.117502
   6 C :    0.012410
   7 C :   -0.014399
   8 C :   -0.054815
   9 C :    0.079873
  10 C :   -0.094050
  11 C :   -0.018948
  12 S :    0.211690
  13 C :   -0.151182
  14 C :    0.084943
  15 Br:    0.016717
  16 C :    0.145516
  17 O :   -0.144848
  18 C :   -0.059962
  19 C :   -0.121433
  20 C :    0.147307
  21 C :    0.181015
  22 O :   -0.243611
  23 C :    0.216405
  24 C :    0.233842
  25 C :   -0.166581
  26 S :    0.106659
  27 C :   -0.175423
  28 O :   -0.231362
  29 C :   -0.005873
  30 C :    0.014473
  31 C :   -0.003728
  32 C :   -0.243779
  33 C :    0.096799
  34 C :    0.219661
  35 N :   -0.132702
  36 C :    0.059586
  37 C :   -0.027609
  38 C :    0.037327
  39 C :   -0.063260
  40 C :    0.064701
  41 C :    0.011663
  42 C :   -0.010100
  43 S :    0.102581
  44 C :   -0.074901
  45 C :    0.044118
  46 C :    0.046300
  47 C :   -0.040454
  48 S :    0.122857
  49 C :    0.000928
  50 C :    0.019368
  51 C :   -0.161398
  52 C :    0.290383
  53 C :   -0.372297
  54 C :   -0.165403
  55 N :    0.127400
  56 C :   -0.222396
  57 N :    0.156947
  58 C :    0.027068
  59 C :    0.019962
  60 C :    0.127562
  61 O :   -0.170249
  62 C :   -0.105637
  63 C :    0.133163
  64 C :   -0.083341
  65 C :   -0.071191
  66 S :    0.139163
  67 C :   -0.108740
  68 C :    0.062103
  69 Br:    0.007750
  70 H :   -0.016720
  71 H :    0.002508
  72 H :   -0.001537
  73 H :    0.045044
  74 H :    0.026749
  75 H :    0.021456
  76 H :    0.003854
  77 H :    0.011638
  78 H :   -0.024425
  79 H :    0.052002
  80 H :    0.046992
  81 H :    0.004956
  82 H :    0.012046
  83 H :    0.030723
  84 H :    0.129001
  85 H :    0.017884
  86 H :    0.002095
  87 H :   -0.001889
  88 H :   -0.003406
  89 H :   -0.007573
  90 H :   -0.012192
  91 H :   -0.012454
  92 H :   -0.009842
  93 H :    0.018325
  94 H :   -0.023471
  95 H :   -0.033458
  96 H :   -0.014963
Sum of atomic charges:    0.0000000

LOEWDIN ATOMIC CHARGES
----------------------
   0 C :    0.075457
   1 C :   -0.135076
   2 C :   -0.018276
   3 N :   -0.049133
   4 C :   -0.002050
   5 N :   -0.066248
   6 C :   -0.025643
   7 C :   -0.050973
   8 C :    0.022301
   9 C :   -0.035788
  10 C :   -0.143541
  11 C :   -0.007012
  12 S :    0.456713
  13 C :   -0.275380
  14 C :   -0.061072
  15 Br:    0.134257
  16 C :    0.078163
  17 O :   -0.138750
  18 C :   -0.077874
  19 C :    0.039835
  20 C :    0.008406
  21 C :    0.048039
  22 O :   -0.043331
  23 C :   -0.012900
  24 C :   -0.003396
  25 C :   -0.202839
  26 S :    0.435290
  27 C :   -0.213584
  28 O :   -0.037531
  29 C :   -0.038166
  30 C :    0.001773
  31 C :   -0.054041
  32 C :   -0.027892
  33 C :   -0.061176
  34 C :    0.051044
  35 N :    0.021139
  36 C :    0.075254
  37 C :   -0.123553
  38 C :    0.015571
  39 C :   -0.185049
  40 C :    0.003399
  41 C :   -0.057056
  42 C :   -0.124360
  43 S :    0.403243
  44 C :   -0.217727
  45 C :   -0.013383
  46 C :   -0.047528
  47 C :   -0.109839
  48 S :    0.476055
  49 C :   -0.082222
  50 C :    0.029741
  51 C :   -0.130286
  52 C :    0.039508
  53 C :   -0.193874
  54 C :   -0.001826
  55 N :   -0.095188
  56 C :   -0.037637
  57 N :   -0.073573
  58 C :   -0.011904
  59 C :   -0.054185
  60 C :    0.082187
  61 O :   -0.164752
  62 C :    0.016519
  63 C :   -0.036662
  64 C :   -0.147665
  65 C :   -0.037770
  66 S :    0.428950
  67 C :   -0.274279
  68 C :   -0.059724
  69 Br:    0.134407
  70 H :    0.037389
  71 H :    0.041792
  72 H :    0.038973
  73 H :    0.045634
  74 H :    0.031180
  75 H :    0.027510
  76 H :    0.039063
  77 H :    0.027622
  78 H :    0.025620
  79 H :    0.045039
  80 H :    0.038312
  81 H :    0.028011
  82 H :    0.026917
  83 H :    0.033966
  84 H :    0.085278
  85 H :    0.032667
  86 H :    0.022223
  87 H :    0.038525
  88 H :    0.037527
  89 H :    0.034019
  90 H :    0.033139
  91 H :    0.034315
  92 H :    0.037908
  93 H :    0.040300
  94 H :    0.035538
  95 H :    0.030225
  96 H :    0.035772

  Mayer bond orders larger than 0.100000
B(  0-C ,  1-C ) :   1.6351 B(  0-C ,  6-C ) :   1.0096 B(  0-C , 18-C ) :   1.0483
B(  1-C ,  2-C ) :   1.1415 B(  1-C ,  4-C ) :   1.1670 B(  2-C ,  3-N ) :   2.9739
B(  4-C ,  5-N ) :   2.8490 B(  6-C ,  7-C ) :   1.2705 B(  6-C , 11-C ) :   1.3979
B(  7-C ,  8-C ) :   1.4244 B(  7-C , 16-C ) :   0.9498 B(  8-C ,  9-C ) :   1.2413
B(  8-C , 70-H ) :   1.0120 B(  9-C , 10-C ) :   1.3064 B(  9-C , 14-C ) :   1.1684
B( 10-C , 11-C ) :   1.3343 B( 10-C , 12-S ) :   1.1034 B( 11-C , 71-H ) :   0.9777
B( 12-S , 13-C ) :   1.0835 B( 13-C , 14-C ) :   1.6097 B( 13-C , 15-Br) :   1.0153
B( 14-C , 72-H ) :   0.9951 B( 16-C , 17-O ) :   2.1989 B( 16-C , 18-C ) :   0.9413
B( 18-C , 19-C ) :   1.6232 B( 19-C , 20-C ) :   1.1711 B( 19-C , 73-H ) :   0.9117
B( 20-C , 21-C ) :   1.4569 B( 20-C , 28-O ) :   1.0794 B( 21-C , 22-O ) :   1.0748
B( 21-C , 29-C ) :   1.1335 B( 22-O , 23-C ) :   1.0363 B( 23-C , 24-C ) :   1.2039
B( 23-C , 27-C ) :   1.5716 B( 24-C , 25-C ) :   1.5786 B( 24-C , 28-O ) :   1.0511
B( 25-C , 26-S ) :   1.1357 B( 25-C , 74-H ) :   0.9705 B( 26-S , 27-C ) :   1.1447
B( 27-C , 75-H ) :   0.9724 B( 29-C , 30-C ) :   1.6715 B( 29-C , 76-H ) :   0.9611
B( 30-C , 31-C ) :   1.1128 B( 30-C , 77-H ) :   0.9542 B( 31-C , 32-C ) :   1.7545
B( 31-C , 78-H ) :   0.9776 B( 32-C , 33-C ) :   1.0603 B( 32-C , 34-C ) :   1.0516
B( 33-C , 79-H ) :   0.9289 B( 33-C , 80-H ) :   0.9294 B( 33-C , 81-H ) :   0.9339
B( 34-C , 35-N ) :   0.9842 B( 34-C , 82-H ) :   0.9423 B( 34-C , 83-H ) :   0.9288
B( 35-N , 36-C ) :   1.2869 B( 35-N , 84-H ) :   0.9337 B( 36-C , 37-C ) :   1.5381
B( 36-C , 85-H ) :   0.9708 B( 37-C , 38-C ) :   1.2239 B( 37-C , 86-H ) :   0.9539
B( 38-C , 39-C ) :   1.5302 B( 38-C , 87-H ) :   0.9805 B( 39-C , 40-C ) :   1.1844
B( 39-C , 43-S ) :   1.0183 B( 40-C , 41-C ) :   1.5418 B( 40-C , 88-H ) :   0.9972
B( 41-C , 42-C ) :   1.2297 B( 41-C , 89-H ) :   0.9955 B( 42-C , 43-S ) :   1.1225
B( 42-C , 44-C ) :   1.4021 B( 44-C , 45-C ) :   1.2498 B( 44-C , 48-S ) :   1.0428
B( 45-C , 46-C ) :   1.5139 B( 45-C , 90-H ) :   0.9915 B( 46-C , 47-C ) :   1.2192
B( 46-C , 91-H ) :   0.9972 B( 47-C , 48-S ) :   1.1401 B( 47-C , 49-C ) :   1.3591
B( 49-C , 50-C ) :   1.4187 B( 49-C , 92-H ) :   0.9548 B( 50-C , 51-C ) :   1.3762
B( 50-C , 93-H ) :   0.9253 B( 51-C , 52-C ) :   1.1763 B( 51-C , 60-C ) :   0.9863
B( 52-C , 53-C ) :   1.4982 B( 52-C , 58-C ) :   1.0060 B( 53-C , 54-C ) :   1.1982
B( 53-C , 56-C ) :   1.1656 B( 54-C , 55-N ) :   2.8748 B( 56-C , 57-N ) :   2.9583
B( 58-C , 59-C ) :   1.2902 B( 58-C , 65-C ) :   1.4144 B( 59-C , 60-C ) :   0.9210
B( 59-C , 62-C ) :   1.4193 B( 60-C , 61-O ) :   2.2054 B( 62-C , 63-C ) :   1.2229
B( 62-C , 94-H ) :   1.0199 B( 63-C , 64-C ) :   1.3344 B( 63-C , 68-C ) :   1.1601
B( 64-C , 65-C ) :   1.2893 B( 64-C , 66-S ) :   1.0782 B( 65-C , 95-H ) :   0.9893
B( 66-S , 67-C ) :   1.0783 B( 67-C , 68-C ) :   1.6338 B( 67-C , 69-Br) :   1.0098
B( 68-C , 96-H ) :   0.9964

-----------------------------------------------------------------------------
         ABSORPTION SPECTRUM VIA TRANSITION ELECTRIC DIPOLE MOMENTS
-----------------------------------------------------------------------------
State   Energy  Wavelength   fosc         T2         TX        TY        TZ
        (cm-1)    (nm)                  (au**2)     (au)      (au)      (au)
-----------------------------------------------------------------------------
   0   11921.9    838.8   0.337129576   9.30950   0.79621   2.40043   1.70690
   1   15313.3    653.0   0.123294336   2.65064  -0.66178  -1.32169  -0.68250
   2   16758.6    596.7   0.235594937   4.62810   1.63950   1.39280   0.01627
   3   20584.4    485.8   0.030484988   0.48756   0.39603   0.37944   0.43213
   4   21151.0    472.8   0.165756587   2.57997  -1.52549   0.39456  -0.31170
   5   21473.6    465.7   0.016547203   0.25369   0.32237   0.05400   0.38321
   6   22233.8    449.8   0.037336569   0.55284   0.07714  -0.47608  -0.56589
   7   22911.0    436.5   0.019929191   0.28637  -0.34134  -0.08675  -0.40290
   8   23821.7    419.8   0.015407182   0.21292   0.38047  -0.16971   0.19842
   9   23889.8    418.6   0.138066800   1.90262   1.37342  -0.11853   0.04791
  10   24610.3    406.3   0.096658999   1.29301  -0.81195  -0.25022  -0.75573
  11   25312.6    395.1   0.112983621   1.46945  -0.41404   1.11740   0.22236
  12   25804.4    387.5   0.020636534   0.26328  -0.47316   0.19658  -0.02745
  13   26420.2    378.5   0.723151585   9.01090  -2.95095   0.54295   0.08925
  14   26956.8    371.0   0.061704086   0.75357  -0.82100   0.20457  -0.19411
  15   27325.7    366.0   0.109451474   1.31864   0.91944   0.38501   0.57011
  16   28087.9    356.0   0.047125680   0.55235  -0.42491  -0.41965  -0.44237
  17   28301.8    353.3   0.052476952   0.61042  -0.26480  -0.32667  -0.65848
  18   28680.7    348.7   0.032470100   0.37271   0.40155   0.14920   0.43498
  19   28954.5    345.4   0.431781618   4.90935  -2.20144   0.06038   0.24369
  20   29125.4    343.3   0.138025853   1.56014   1.03883   0.05077   0.69166
  21   29563.5    338.3   0.037215766   0.41443   0.64276   0.01375  -0.03302
  22   29836.7    335.2   0.039046030   0.43083  -0.01851  -0.21215  -0.62087
  23   30095.1    332.3   0.172298791   1.88479  -0.65064   0.86798   0.84146
  24   30179.0    331.4   0.077960867   0.85045   0.85841   0.32176   0.10023
  25   30616.2    326.6   0.027862380   0.29960   0.04172   0.02314   0.54527
  26   31025.2    322.3   0.062168797   0.65968  -0.57517   0.06209  -0.57009
  27   31218.2    320.3   0.078673232   0.82965  -0.53742  -0.00102   0.73541
  28   31224.6    320.3   0.038648458   0.40748   0.53041   0.34972  -0.06199
  29   31421.8    318.3   0.261427908   2.73903  -0.90071  -0.69349  -1.20284
  30   31850.1    314.0   0.008053007   0.08324   0.02741   0.18049  -0.22341
  31   32090.4    311.6   0.329481582   3.38012  -1.50850   0.58142   0.87550
  32   32208.8    310.5   0.165530156   1.69191   0.18625   1.20261   0.45929
  33   32429.2    308.4   0.005622244   0.05708  -0.15216  -0.02319   0.18272
  34   32572.0    307.0   0.006128366   0.06194   0.15830  -0.00558  -0.19196
  35   33232.7    300.9   0.008248098   0.08171  -0.17940  -0.19107   0.11408
  36   33566.3    297.9   0.005610652   0.05503  -0.17587   0.12806  -0.08774
  37   33808.3    295.8   0.016593914   0.16159  -0.32745   0.21793   0.08286
  38   33946.7    294.6   0.020796839   0.20169   0.28397   0.07506  -0.33973
  39   34149.4    292.8   0.019521265   0.18819   0.32126   0.23382   0.17410
  40   34421.1    290.5   0.000435390   0.00416  -0.02571  -0.00546  -0.05893
  41   34595.2    289.1   0.061694337   0.58709  -0.69532   0.24942  -0.20350
  42   34901.2    286.5   0.016166753   0.15250  -0.37903   0.04406  -0.08299
  43   35199.3    284.1   0.048022035   0.44914  -0.39365  -0.39665  -0.36993
  44   35312.2    283.2   0.038916759   0.36282   0.11290  -0.20024  -0.55676
  45   35648.7    280.5   0.025275271   0.23341  -0.31245  -0.00187  -0.36849
  46   35987.4    277.9   0.057847189   0.52918   0.28033  -0.25357  -0.62153
  47   36287.9    275.6   0.001549097   0.01405  -0.07558   0.01260  -0.09046
  48   36653.3    272.8   0.050286593   0.45166   0.41956  -0.32089  -0.41553
  49   36790.1    271.8   0.327643305   2.93188   0.73126  -0.86421  -1.28463
  50   37010.7    270.2   0.059628272   0.53040   0.13973  -0.32822  -0.63493
  51   37033.8    270.0   0.178014226   1.58246  -0.95881  -0.59606  -0.55484
  52   37375.7    267.6   0.071866054   0.63301  -0.64581  -0.10987   0.45152
  53   37500.3    266.7   0.008024884   0.07045   0.21892  -0.05044   0.14135
  54   37583.6    266.1   0.025503683   0.22340  -0.39651   0.25655   0.01906
  55   37846.1    264.2   0.199160554   1.73244   1.17682   0.04509  -0.58779
  56   38242.4    261.5   0.063387847   0.54568   0.54484   0.09719  -0.48927
  57   38312.7    261.0   0.059605851   0.51218   0.05903   0.11607   0.70372
  58   38565.8    259.3   0.027990526   0.23894   0.19243   0.22867   0.38681
  59   38957.6    256.7   0.073994640   0.62529  -0.06566   0.52872   0.58433
  60   39182.4    255.2   0.000307934   0.00259  -0.03871   0.03275   0.00404
  61   39236.5    254.9   0.110336724   0.92577   0.07405  -0.61976  -0.73225
  62   39392.5    253.9   0.015307471   0.12793   0.08445   0.22028   0.26884
  63   39705.6    251.9   0.024745994   0.20518   0.25122  -0.13440  -0.35214
  64   40035.1    249.8   0.089649483   0.73719  -0.60642   0.19494   0.57572

FINAL SINGLE POINT ENERGY     -9783.377142338823

DIPOLE MOMENT
-------------
                                X             Y             Z
Electronic contribution:    -16.46003     -75.24150     -82.07813
Nuclear contribution   :     17.90150      78.77170      82.21668
                        -----------------------------------------
Total Dipole Moment    :      1.44147       3.53019       0.13856
                        -----------------------------------------
Magnitude (a.u.)       :      3.81566
Magnitude (Debye)      :      9.69865

Rotational constants in cm-1:     0.001100     0.000747     0.000543
Rotational constants in MHz :    32.988159    22.387738    16.282551

                             ****ORCA TERMINATED NORMALLY****
TOTAL RUN TIME: 0 days 0 hours 14 minutes 6 seconds 939 msec
