                         Program Version 4.2.0 -  RELEASE  -
|  1> # ORCA input file
|  2> # SCF done       -207.666381936051          0.000440548089
|  3> ! CAM-B3LYP def2-SVP def2/J RIJCOSX Grid4 TightSCF
|  4> %maxcore 5000
|  5> %tddft
|  6>     Mode sTDDFT
|  7>     Ethresh 5.0
|  8>     maxcore 5000
|  9> end
| 10>
| 11> %pal
| 12>   nprocs 6
| 13>   end
| 14> * xyz 0 1
| 15>    C       -6.31440        -2.50641        -2.35674
| 16>    C       -6.89257        -2.23561        -1.14215
| 17>    C       -7.28793        -3.22182        -0.21499
| 18>    N       -7.63915        -3.97643         0.57580
| 19>    C       -7.16341        -0.94406        -0.64559
| 20>    N       -7.40758         0.07373        -0.17261
| 21>    C       -5.97440        -3.82989        -2.86172
| 22>    C       -5.33104        -3.69131        -4.11651
| 23>    C       -4.88725        -4.76781        -4.84507
| 24>    C       -5.08098        -6.04435        -4.30718
| 25>    C       -5.72732        -6.17416        -3.05416
| 26>    C       -6.18008        -5.08575        -2.31944
| 27>    S       -5.87327        -7.83919        -2.58007
| 28>    C       -5.07357        -8.33168        -4.04931
| 29>    C       -4.71491        -7.30404        -4.85512
| 30>   Br       -4.79183       -10.15505        -4.38165
| 31>    C       -5.25208        -2.26459        -4.47829
| 32>    O       -4.89644        -1.80836        -5.53994
| 33>    C       -5.86266        -1.53151        -3.32985
| 34>    C       -6.09436        -0.19015        -3.31599
| 35>    C       -5.43514         0.73488        -4.16642
| 36>    O       -6.04137         1.91838        -4.46590
| 37>    C       -4.17479         0.74232        -4.73071
| 38>    C       -2.90117         0.00912        -4.81106
| 39>    O       -2.54035        -1.01378        -4.29285
| 40>    N       -2.11159         0.82454        -5.61384
| 41>    C       -2.69924         2.02403        -6.01930
| 42>    O       -2.16573         2.85964        -6.69738
| 43>    C       -4.03592         1.97081        -5.41587
| 44>    C       -5.21673         2.66923        -5.23853
| 45>    C       -5.63927         3.93760        -5.73478
| 46>    C       -6.83867         4.47023        -5.43433
| 47>    C       -7.30255         5.76468        -5.89972
| 48>    C       -7.80055         6.66221        -4.94198
| 49>    C       -8.13008         7.96359        -5.25122
| 50>    C       -7.99124         8.43262        -6.55513
| 51>    C       -7.56761         7.55288        -7.52131
| 52>    C       -7.24176         6.21977        -7.21842
| 53>    N       -6.96775         5.53730        -8.39178
| 54>    C       -6.76779         4.12483        -8.56820
| 55>    C       -7.02342         6.36948        -9.47986
| 56>    O       -6.87135         6.02550       -10.62635
| 57>    C       -7.31732         7.77762        -8.97847
| 58>    C       -6.06776         8.66030        -9.19678
| 59>    C       -4.98782         8.24714        -8.19166
| 60>    O       -4.49024         7.15274        -8.06265
| 61>    N       -4.70566         9.33286        -7.41391
| 62>    C       -3.76751         9.30542        -6.32446
| 63>    C       -5.46556        10.43456        -7.78046
| 64>    C       -5.47570        11.69689        -7.23371
| 65>    C       -6.34095        12.66471        -7.77558
| 66>    C       -7.16457        12.31345        -8.85373
| 67>    C       -7.14612        11.03866        -9.39492
| 68>    C       -6.29467        10.09670        -8.85823
| 69>    C       -6.32221        13.97761        -7.18602
| 70>    C       -7.06681        15.05340        -7.54756
| 71>    C       -7.01922        16.34304        -6.96888
| 72>    C       -6.22339        16.82386        -5.95911
| 73>    C       -6.25009        18.15643        -5.46763
| 74>    C       -5.36016        18.41986        -4.47097
| 75>    C       -4.57161        17.30916        -4.10521
| 76>    S       -5.00663        15.91831        -5.07597
| 77>    C       -3.58075        17.21739        -3.14835
| 78>    C       -3.07827        18.20288        -2.27510
| 79>    C       -2.08471        17.75901        -1.45312
| 80>    C       -1.74051        16.39534        -1.61824
| 81>    S       -2.74025        15.70380        -2.88359
| 82>    C       -0.76725        15.73847        -0.90336
| 83>    C       -0.33387        14.40915        -0.94236
| 84>    S        1.02036        13.98847         0.10368
| 85>    C        1.06893        12.31892        -0.37292
| 86>    C        0.06463        12.08785        -1.31074
| 87>    C       -0.70994        13.24641        -1.62367
| 88>    N       -1.63442        12.83876        -2.52526
| 89>    N       -1.50641        11.53497        -2.80891
| 90>    C       -0.50974        11.06235        -2.10591
| 91>    C        2.04528        11.45357         0.20191
| 92>    C        2.18796        10.15510        -0.07980
| 93>    H       -4.40025        -4.62753        -5.79702
| 94>    H       -6.67115        -5.23742        -1.37278
| 95>    H       -4.21365        -7.42718        -5.79772
| 96>    H       -6.81520         0.23959        -2.63302
| 97>    H       -1.16552         0.57718        -5.86753
| 98>    H       -4.92843         4.45978        -6.35794
| 99>    H       -7.47474         3.95787        -4.72261
|100>    H       -7.88381         6.31926        -3.92120
|101>    H       -8.48754         8.62582        -4.47806
|102>    H       -8.22549         9.45648        -6.80432
|103>    H       -7.46360         3.56279        -7.94527
|104>    H       -5.74453         3.83225        -8.32893
|105>    H       -6.95313         3.90947        -9.62156
|106>    H       -8.16208         8.21332        -9.51667
|107>    H       -5.71784         8.51074       -10.22294
|108>    H       -3.33491         8.30645        -6.29168
|109>    H       -4.27127         9.51443        -5.37873
|110>    H       -2.97558        10.04008        -6.47912
|111>    H       -4.83505        11.95245        -6.40398
|112>    H       -7.82978        13.04827        -9.27758
|113>    H       -7.78830        10.79020       -10.22675
|114>    H       -5.62350        14.08214        -6.36932
|115>    H       -7.77636        14.95098        -8.35748
|116>    H       -7.70387        17.07168        -7.38612
|117>    H       -6.93203        18.88230        -5.87503
|118>    H       -5.25037        19.37690        -3.99294
|119>    H       -3.45969        19.20810        -2.27674
|120>    H       -1.58442        18.37214        -0.72427
|121>    H       -0.23685        16.35747        -0.18910
|122>    H       -2.35538        13.37611        -2.97620
|123>    H       -0.24002        10.02949        -2.18522
|124>    H        2.70577        11.92445         0.91872
|125>    H        1.55367         9.65208        -0.78666
|126>    H        2.95122         9.56507         0.39481
|127> *
|128>
|129>                          ****END OF INPUT****

CARTESIAN COORDINATES (ANGSTROEM)
---------------------------------
  C     -6.314400   -2.506410   -2.356740
  C     -6.892570   -2.235610   -1.142150
  C     -7.287930   -3.221820   -0.214990
  N     -7.639150   -3.976430    0.575800
  C     -7.163410   -0.944060   -0.645590
  N     -7.407580    0.073730   -0.172610
  C     -5.974400   -3.829890   -2.861720
  C     -5.331040   -3.691310   -4.116510
  C     -4.887250   -4.767810   -4.845070
  C     -5.080980   -6.044350   -4.307180
  C     -5.727320   -6.174160   -3.054160
  C     -6.180080   -5.085750   -2.319440
  S     -5.873270   -7.839190   -2.580070
  C     -5.073570   -8.331680   -4.049310
  C     -4.714910   -7.304040   -4.855120
  Br    -4.791830  -10.155050   -4.381650
  C     -5.252080   -2.264590   -4.478290
  O     -4.896440   -1.808360   -5.539940
  C     -5.862660   -1.531510   -3.329850
  C     -6.094360   -0.190150   -3.315990
  C     -5.435140    0.734880   -4.166420
  O     -6.041370    1.918380   -4.465900
  C     -4.174790    0.742320   -4.730710
  C     -2.901170    0.009120   -4.811060
  O     -2.540350   -1.013780   -4.292850
  N     -2.111590    0.824540   -5.613840
  C     -2.699240    2.024030   -6.019300
  O     -2.165730    2.859640   -6.697380
  C     -4.035920    1.970810   -5.415870
  C     -5.216730    2.669230   -5.238530
  C     -5.639270    3.937600   -5.734780
  C     -6.838670    4.470230   -5.434330
  C     -7.302550    5.764680   -5.899720
  C     -7.800550    6.662210   -4.941980
  C     -8.130080    7.963590   -5.251220
  C     -7.991240    8.432620   -6.555130
  C     -7.567610    7.552880   -7.521310
  C     -7.241760    6.219770   -7.218420
  N     -6.967750    5.537300   -8.391780
  C     -6.767790    4.124830   -8.568200
  C     -7.023420    6.369480   -9.479860
  O     -6.871350    6.025500  -10.626350
  C     -7.317320    7.777620   -8.978470
  C     -6.067760    8.660300   -9.196780
  C     -4.987820    8.247140   -8.191660
  O     -4.490240    7.152740   -8.062650
  N     -4.705660    9.332860   -7.413910
  C     -3.767510    9.305420   -6.324460
  C     -5.465560   10.434560   -7.780460
  C     -5.475700   11.696890   -7.233710
  C     -6.340950   12.664710   -7.775580
  C     -7.164570   12.313450   -8.853730
  C     -7.146120   11.038660   -9.394920
  C     -6.294670   10.096700   -8.858230
  C     -6.322210   13.977610   -7.186020
  C     -7.066810   15.053400   -7.547560
  C     -7.019220   16.343040   -6.968880
  C     -6.223390   16.823860   -5.959110
  C     -6.250090   18.156430   -5.467630
  C     -5.360160   18.419860   -4.470970
  C     -4.571610   17.309160   -4.105210
  S     -5.006630   15.918310   -5.075970
  C     -3.580750   17.217390   -3.148350
  C     -3.078270   18.202880   -2.275100
  C     -2.084710   17.759010   -1.453120
  C     -1.740510   16.395340   -1.618240
  S     -2.740250   15.703800   -2.883590
  C     -0.767250   15.738470   -0.903360
  C     -0.333870   14.409150   -0.942360
  S      1.020360   13.988470    0.103680
  C      1.068930   12.318920   -0.372920
  C      0.064630   12.087850   -1.310740
  C     -0.709940   13.246410   -1.623670
  N     -1.634420   12.838760   -2.525260
  N     -1.506410   11.534970   -2.808910
  C     -0.509740   11.062350   -2.105910
  C      2.045280   11.453570    0.201910
  C      2.187960   10.155100   -0.079800
  H     -4.400250   -4.627530   -5.797020
  H     -6.671150   -5.237420   -1.372780
  H     -4.213650   -7.427180   -5.797720
  H     -6.815200    0.239590   -2.633020
  H     -1.165520    0.577180   -5.867530
  H     -4.928430    4.459780   -6.357940
  H     -7.474740    3.957870   -4.722610
  H     -7.883810    6.319260   -3.921200
  H     -8.487540    8.625820   -4.478060
  H     -8.225490    9.456480   -6.804320
  H     -7.463600    3.562790   -7.945270
  H     -5.744530    3.832250   -8.328930
  H     -6.953130    3.909470   -9.621560
  H     -8.162080    8.213320   -9.516670
  H     -5.717840    8.510740  -10.222940
  H     -3.334910    8.306450   -6.291680
  H     -4.271270    9.514430   -5.378730
  H     -2.975580   10.040080   -6.479120
  H     -4.835050   11.952450   -6.403980
  H     -7.829780   13.048270   -9.277580
  H     -7.788300   10.790200  -10.226750
  H     -5.623500   14.082140   -6.369320
  H     -7.776360   14.950980   -8.357480
  H     -7.703870   17.071680   -7.386120
  H     -6.932030   18.882300   -5.875030
  H     -5.250370   19.376900   -3.992940
  H     -3.459690   19.208100   -2.276740
  H     -1.584420   18.372140   -0.724270
  H     -0.236850   16.357470   -0.189100
  H     -2.355380   13.376110   -2.976200
  H     -0.240020   10.029490   -2.185220
  H      2.705770   11.924450    0.918720
  H      1.553670    9.652080   -0.786660
  H      2.951220    9.565070    0.394810

 Total Charge           Charge          ....    0
 Multiplicity           Mult            ....    1
 Number of Electrons    NEL             ....  590
 Basis Dimension        Dim             .... 1296

ORBITAL ENERGIES
----------------

  NO   OCC          E(Eh)            E(eV)
   0   2.0000    -482.885558    -13139.9841
   1   2.0000     -88.975383     -2421.1433
   2   2.0000     -88.964992     -2420.8605
   3   2.0000     -88.952336     -2420.5161
   4   2.0000     -88.945386     -2420.3270
   5   2.0000     -62.563251     -1702.4326
   6   2.0000     -56.397205     -1534.6460
   7   2.0000     -56.394482     -1534.5719
   8   2.0000     -56.394456     -1534.5712
   9   2.0000     -19.314839      -525.5835
  10   2.0000     -19.216273      -522.9014
  11   2.0000     -19.211081      -522.7601
  12   2.0000     -19.208805      -522.6982
  13   2.0000     -19.186475      -522.0905
  14   2.0000     -19.183587      -522.0119
  15   2.0000     -14.479008      -393.9938
  16   2.0000     -14.453035      -393.2871
  17   2.0000     -14.447250      -393.1297
  18   2.0000     -14.445949      -393.0943
  19   2.0000     -14.437137      -392.8545
  20   2.0000     -14.417710      -392.3258
  21   2.0000     -14.416839      -392.3021
  22   2.0000     -10.399444      -282.9833
  23   2.0000     -10.398585      -282.9599
  24   2.0000     -10.369245      -282.1615
  25   2.0000     -10.368653      -282.1454
  26   2.0000     -10.368633      -282.1449
  27   2.0000     -10.365134      -282.0496
  28   2.0000     -10.361302      -281.9454
  29   2.0000     -10.359108      -281.8857
  30   2.0000     -10.344899      -281.4990
  31   2.0000     -10.343390      -281.4580
  32   2.0000     -10.325900      -280.9820
  33   2.0000     -10.324361      -280.9401
  34   2.0000     -10.320194      -280.8268
  35   2.0000     -10.319907      -280.8189
  36   2.0000     -10.319419      -280.8057
  37   2.0000     -10.317170      -280.7445
  38   2.0000     -10.314751      -280.6786
  39   2.0000     -10.313796      -280.6527
  40   2.0000     -10.311757      -280.5972
  41   2.0000     -10.310073      -280.5513
  42   2.0000     -10.310006      -280.5495
  43   2.0000     -10.308903      -280.5195
  44   2.0000     -10.307827      -280.4902
  45   2.0000     -10.306414      -280.4518
  46   2.0000     -10.306280      -280.4481
  47   2.0000     -10.305903      -280.4379
  48   2.0000     -10.304147      -280.3901
  49   2.0000     -10.300857      -280.3006
  50   2.0000     -10.300505      -280.2910
  51   2.0000     -10.297525      -280.2099
  52   2.0000     -10.297130      -280.1991
  53   2.0000     -10.296440      -280.1804
  54   2.0000     -10.296341      -280.1777
  55   2.0000     -10.294993      -280.1410
  56   2.0000     -10.292833      -280.0822
  57   2.0000     -10.292405      -280.0706
  58   2.0000     -10.291543      -280.0471
  59   2.0000     -10.290901      -280.0297
  60   2.0000     -10.290695      -280.0241
  61   2.0000     -10.289057      -279.9795
  62   2.0000     -10.288948      -279.9765
  63   2.0000     -10.287325      -279.9323
  64   2.0000     -10.287068      -279.9254
  65   2.0000     -10.284341      -279.8512
  66   2.0000     -10.283138      -279.8184
  67   2.0000     -10.281220      -279.7662
  68   2.0000     -10.279950      -279.7317
  69   2.0000     -10.279939      -279.7314
  70   2.0000     -10.275699      -279.6160
  71   2.0000     -10.274204      -279.5753
  72   2.0000     -10.274038      -279.5708
  73   2.0000     -10.273716      -279.5620
  74   2.0000     -10.273672      -279.5608
  75   2.0000     -10.273190      -279.5477
  76   2.0000     -10.272364      -279.5252
  77   2.0000     -10.271136      -279.4918
  78   2.0000     -10.270126      -279.4643
  79   2.0000     -10.268039      -279.4075
  80   2.0000     -10.265414      -279.3361
  81   2.0000     -10.265204      -279.3304
  82   2.0000      -8.792661      -239.2605
  83   2.0000      -8.071409      -219.6342
  84   2.0000      -8.060047      -219.3250
  85   2.0000      -8.048741      -219.0174
  86   2.0000      -8.041031      -218.8076
  87   2.0000      -6.628969      -180.3834
  88   2.0000      -6.614414      -179.9873
  89   2.0000      -6.614165      -179.9806
  90   2.0000      -6.041102      -164.3867
  91   2.0000      -6.036826      -164.2704
  92   2.0000      -6.032614      -164.1558
  93   2.0000      -6.029301      -164.0656
  94   2.0000      -6.025218      -163.9545
  95   2.0000      -6.022292      -163.8749
  96   2.0000      -6.018508      -163.7719
  97   2.0000      -6.014599      -163.6656
  98   2.0000      -6.010784      -163.5618
  99   2.0000      -6.009541      -163.5279
 100   2.0000      -6.006747      -163.4519
 101   2.0000      -6.002034      -163.3236
 102   2.0000      -2.744855       -74.6913
 103   2.0000      -2.740732       -74.5791
 104   2.0000      -2.740604       -74.5756
 105   2.0000      -2.729004       -74.2600
 106   2.0000      -2.729003       -74.2600
 107   2.0000      -1.231090       -33.4997
 108   2.0000      -1.155140       -31.4329
 109   2.0000      -1.143188       -31.1077
 110   2.0000      -1.136402       -30.9231
 111   2.0000      -1.132624       -30.8203
 112   2.0000      -1.130408       -30.7600
 113   2.0000      -1.124889       -30.6098
 114   2.0000      -1.053694       -28.6725
 115   2.0000      -1.051555       -28.6143
 116   2.0000      -1.041994       -28.3541
 117   2.0000      -1.023734       -27.8572
 118   2.0000      -1.014399       -27.6032
 119   2.0000      -0.997307       -27.1381
 120   2.0000      -0.995630       -27.0925
 121   2.0000      -0.990960       -26.9654
 122   2.0000      -0.985737       -26.8233
 123   2.0000      -0.972164       -26.4539
 124   2.0000      -0.953893       -25.9567
 125   2.0000      -0.949455       -25.8360
 126   2.0000      -0.946501       -25.7556
 127   2.0000      -0.933017       -25.3887
 128   2.0000      -0.926470       -25.2105
 129   2.0000      -0.922539       -25.1036
 130   2.0000      -0.920816       -25.0567
 131   2.0000      -0.909172       -24.7398
 132   2.0000      -0.903485       -24.5851
 133   2.0000      -0.897883       -24.4327
 134   2.0000      -0.890567       -24.2336
 135   2.0000      -0.886058       -24.1109
 136   2.0000      -0.879306       -23.9271
 137   2.0000      -0.872965       -23.7546
 138   2.0000      -0.866230       -23.5713
 139   2.0000      -0.854619       -23.2554
 140   2.0000      -0.847605       -23.0645
 141   2.0000      -0.846246       -23.0275
 142   2.0000      -0.839964       -22.8566
 143   2.0000      -0.836650       -22.7664
 144   2.0000      -0.829585       -22.5742
 145   2.0000      -0.823462       -22.4076
 146   2.0000      -0.818854       -22.2821
 147   2.0000      -0.813546       -22.1377
 148   2.0000      -0.805664       -21.9232
 149   2.0000      -0.791273       -21.5316
 150   2.0000      -0.790276       -21.5045
 151   2.0000      -0.780161       -21.2292
 152   2.0000      -0.767624       -20.8881
 153   2.0000      -0.764593       -20.8056
 154   2.0000      -0.762224       -20.7412
 155   2.0000      -0.756524       -20.5861
 156   2.0000      -0.750162       -20.4130
 157   2.0000      -0.730760       -19.8850
 158   2.0000      -0.726589       -19.7715
 159   2.0000      -0.708581       -19.2815
 160   2.0000      -0.704993       -19.1838
 161   2.0000      -0.703416       -19.1409
 162   2.0000      -0.702376       -19.1126
 163   2.0000      -0.700610       -19.0646
 164   2.0000      -0.699697       -19.0397
 165   2.0000      -0.693533       -18.8720
 166   2.0000      -0.690405       -18.7869
 167   2.0000      -0.682732       -18.5781
 168   2.0000      -0.676046       -18.3962
 169   2.0000      -0.672200       -18.2915
 170   2.0000      -0.669217       -18.2103
 171   2.0000      -0.659499       -17.9459
 172   2.0000      -0.657044       -17.8791
 173   2.0000      -0.652715       -17.7613
 174   2.0000      -0.645930       -17.5766
 175   2.0000      -0.630831       -17.1658
 176   2.0000      -0.627816       -17.0838
 177   2.0000      -0.624466       -16.9926
 178   2.0000      -0.620547       -16.8859
 179   2.0000      -0.619710       -16.8632
 180   2.0000      -0.609747       -16.5921
 181   2.0000      -0.608656       -16.5624
 182   2.0000      -0.607400       -16.5282
 183   2.0000      -0.599866       -16.3232
 184   2.0000      -0.595169       -16.1954
 185   2.0000      -0.594470       -16.1764
 186   2.0000      -0.590616       -16.0715
 187   2.0000      -0.589645       -16.0450
 188   2.0000      -0.586455       -15.9582
 189   2.0000      -0.582993       -15.8640
 190   2.0000      -0.578749       -15.7486
 191   2.0000      -0.572146       -15.5689
 192   2.0000      -0.566621       -15.4185
 193   2.0000      -0.565111       -15.3774
 194   2.0000      -0.561127       -15.2691
 195   2.0000      -0.558050       -15.1853
 196   2.0000      -0.553912       -15.0727
 197   2.0000      -0.550680       -14.9848
 198   2.0000      -0.547783       -14.9059
 199   2.0000      -0.546702       -14.8765
 200   2.0000      -0.546249       -14.8642
 201   2.0000      -0.544757       -14.8236
 202   2.0000      -0.540570       -14.7097
 203   2.0000      -0.539101       -14.6697
 204   2.0000      -0.535918       -14.5831
 205   2.0000      -0.533091       -14.5061
 206   2.0000      -0.531311       -14.4577
 207   2.0000      -0.529833       -14.4175
 208   2.0000      -0.527051       -14.3418
 209   2.0000      -0.524699       -14.2778
 210   2.0000      -0.524186       -14.2638
 211   2.0000      -0.522958       -14.2304
 212   2.0000      -0.517905       -14.0929
 213   2.0000      -0.515589       -14.0299
 214   2.0000      -0.515253       -14.0208
 215   2.0000      -0.512383       -13.9426
 216   2.0000      -0.511183       -13.9100
 217   2.0000      -0.507955       -13.8222
 218   2.0000      -0.507758       -13.8168
 219   2.0000      -0.504835       -13.7373
 220   2.0000      -0.498927       -13.5765
 221   2.0000      -0.498250       -13.5581
 222   2.0000      -0.496018       -13.4973
 223   2.0000      -0.494334       -13.4515
 224   2.0000      -0.493933       -13.4406
 225   2.0000      -0.493507       -13.4290
 226   2.0000      -0.488056       -13.2807
 227   2.0000      -0.480617       -13.0782
 228   2.0000      -0.480200       -13.0669
 229   2.0000      -0.477553       -12.9949
 230   2.0000      -0.476972       -12.9791
 231   2.0000      -0.474493       -12.9116
 232   2.0000      -0.472132       -12.8474
 233   2.0000      -0.471555       -12.8317
 234   2.0000      -0.470856       -12.8127
 235   2.0000      -0.465719       -12.6729
 236   2.0000      -0.463668       -12.6170
 237   2.0000      -0.462745       -12.5919
 238   2.0000      -0.461546       -12.5593
 239   2.0000      -0.458329       -12.4718
 240   2.0000      -0.457716       -12.4551
 241   2.0000      -0.456748       -12.4287
 242   2.0000      -0.452908       -12.3243
 243   2.0000      -0.450324       -12.2539
 244   2.0000      -0.449351       -12.2275
 245   2.0000      -0.448492       -12.2041
 246   2.0000      -0.446294       -12.1443
 247   2.0000      -0.445280       -12.1167
 248   2.0000      -0.443419       -12.0661
 249   2.0000      -0.441546       -12.0151
 250   2.0000      -0.439580       -11.9616
 251   2.0000      -0.438665       -11.9367
 252   2.0000      -0.437083       -11.8936
 253   2.0000      -0.434017       -11.8102
 254   2.0000      -0.428888       -11.6706
 255   2.0000      -0.428058       -11.6481
 256   2.0000      -0.426243       -11.5987
 257   2.0000      -0.423171       -11.5151
 258   2.0000      -0.421611       -11.4726
 259   2.0000      -0.419501       -11.4152
 260   2.0000      -0.416381       -11.3303
 261   2.0000      -0.414980       -11.2922
 262   2.0000      -0.410432       -11.1684
 263   2.0000      -0.402095       -10.9415
 264   2.0000      -0.401366       -10.9217
 265   2.0000      -0.392391       -10.6775
 266   2.0000      -0.388018       -10.5585
 267   2.0000      -0.383415       -10.4333
 268   2.0000      -0.382514       -10.4087
 269   2.0000      -0.374797       -10.1987
 270   2.0000      -0.372383       -10.1331
 271   2.0000      -0.371313       -10.1040
 272   2.0000      -0.369416       -10.0523
 273   2.0000      -0.364487        -9.9182
 274   2.0000      -0.359161        -9.7733
 275   2.0000      -0.358964        -9.7679
 276   2.0000      -0.346819        -9.4374
 277   2.0000      -0.346343        -9.4245
 278   2.0000      -0.343900        -9.3580
 279   2.0000      -0.339537        -9.2393
 280   2.0000      -0.339367        -9.2347
 281   2.0000      -0.335577        -9.1315
 282   2.0000      -0.330967        -9.0061
 283   2.0000      -0.327643        -8.9156
 284   2.0000      -0.323760        -8.8100
 285   2.0000      -0.316806        -8.6207
 286   2.0000      -0.316531        -8.6133
 287   2.0000      -0.314826        -8.5669
 288   2.0000      -0.300518        -8.1775
 289   2.0000      -0.294126        -8.0036
 290   2.0000      -0.283345        -7.7102
 291   2.0000      -0.277817        -7.5598
 292   2.0000      -0.263903        -7.1812
 293   2.0000      -0.254696        -6.9306
 294   2.0000      -0.202598        -5.5130
 295   0.0000      -0.099422        -2.7054
 296   0.0000      -0.082936        -2.2568
 297   0.0000      -0.062516        -1.7012
 298   0.0000      -0.042655        -1.1607
 299   0.0000      -0.036440        -0.9916

MULLIKEN ATOMIC CHARGES
-----------------------
   0 C :    0.306219
   1 C :   -0.343941
   2 C :   -0.184392
   3 N :    0.152054
   4 C :   -0.194943
   5 N :    0.159040
   6 C :    0.017269
   7 C :   -0.018896
   8 C :   -0.058785
   9 C :    0.114096
  10 C :   -0.089879
  11 C :   -0.017879
  12 S :    0.187071
  13 C :   -0.124217
  14 C :    0.043231
  15 Br:    0.025112
  16 C :    0.161008
  17 O :   -0.144300
  18 C :   -0.075961
  19 C :   -0.035779
  20 C :    0.112420
  21 O :   -0.200924
  22 C :   -0.012348
  23 C :    0.179677
  24 O :   -0.141323
  25 N :   -0.162863
  26 C :    0.164632
  27 O :   -0.130169
  28 C :   -0.042757
  29 C :    0.083989
  30 C :   -0.028812
  31 C :   -0.052141
  32 C :    0.001712
  33 C :   -0.009381
  34 C :    0.027889
  35 C :   -0.034727
  36 C :   -0.060511
  37 C :    0.182302
  38 N :   -0.218955
  39 C :    0.138062
  40 C :    0.128745
  41 O :   -0.194760
  42 C :    0.025720
  43 C :    0.046416
  44 C :    0.113982
  45 O :   -0.204749
  46 N :   -0.225981
  47 C :    0.123400
  48 C :    0.245775
  49 C :   -0.181345
  50 C :    0.144437
  51 C :   -0.034125
  52 C :   -0.039455
  53 C :   -0.028367
  54 C :   -0.022589
  55 C :    0.028888
  56 C :   -0.012013
  57 C :   -0.009520
  58 C :    0.030403
  59 C :    0.027067
  60 C :   -0.031145
  61 S :    0.030536
  62 C :   -0.023019
  63 C :    0.022622
  64 C :    0.032776
  65 C :   -0.035355
  66 S :    0.014099
  67 C :    0.047029
  68 C :   -0.226137
  69 S :    0.139232
  70 C :   -0.123206
  71 C :    0.002853
  72 C :    0.164228
  73 N :   -0.045530
  74 N :   -0.063228
  75 C :   -0.014823
  76 C :    0.043467
  77 C :   -0.018837
  78 H :   -0.009213
  79 H :   -0.006713
  80 H :   -0.002874
  81 H :    0.035201
  82 H :    0.139798
  83 H :    0.044450
  84 H :    0.022949
  85 H :   -0.024305
  86 H :   -0.017136
  87 H :   -0.013439
  88 H :    0.029957
  89 H :    0.042912
  90 H :    0.049439
  91 H :    0.035489
  92 H :    0.053790
  93 H :    0.054640
  94 H :    0.036970
  95 H :    0.038332
  96 H :   -0.039620
  97 H :   -0.031640
  98 H :   -0.029301
  99 H :   -0.015102
 100 H :   -0.021167
 101 H :   -0.020925
 102 H :   -0.014812
 103 H :   -0.016384
 104 H :   -0.013552
 105 H :   -0.011158
 106 H :   -0.018997
 107 H :    0.138562
 108 H :    0.000821
 109 H :   -0.012364
 110 H :    0.014266
 111 H :    0.031738
Sum of atomic charges:   -0.0000000

LOEWDIN ATOMIC CHARGES
----------------------
   0 C :    0.074433
   1 C :   -0.135352
   2 C :   -0.017952
   3 N :   -0.050113
   4 C :   -0.021751
   5 N :   -0.049063
   6 C :   -0.020088
   7 C :   -0.045377
   8 C :    0.026497
   9 C :   -0.030763
  10 C :   -0.142697
  11 C :   -0.009363
  12 S :    0.433035
  13 C :   -0.270553
  14 C :   -0.069406
  15 Br:    0.138408
  16 C :    0.089145
  17 O :   -0.130344
  18 C :   -0.070706
  19 C :    0.047728
  20 C :    0.043108
  21 O :    0.020866
  22 C :   -0.049396
  23 C :    0.088002
  24 O :   -0.149887
  25 N :   -0.001717
  26 C :    0.085803
  27 O :   -0.149408
  28 C :   -0.103101
  29 C :    0.088257
  30 C :   -0.045730
  31 C :    0.023309
  32 C :   -0.065362
  33 C :   -0.003407
  34 C :   -0.042415
  35 C :   -0.011314
  36 C :   -0.044969
  37 C :    0.050440
  38 N :   -0.000334
  39 C :    0.034714
  40 C :    0.081715
  41 O :   -0.187064
  42 C :   -0.020412
  43 C :   -0.019694
  44 C :    0.081696
  45 O :   -0.199428
  46 N :   -0.006844
  47 C :    0.035393
  48 C :    0.035640
  49 C :   -0.054377
  50 C :   -0.011209
  51 C :   -0.033477
  52 C :   -0.016089
  53 C :   -0.047075
  54 C :   -0.031027
  55 C :   -0.032343
  56 C :   -0.066291
  57 C :   -0.140643
  58 C :   -0.034165
  59 C :   -0.038699
  60 C :   -0.188681
  61 S :    0.377451
  62 C :   -0.169533
  63 C :   -0.044755
  64 C :   -0.026410
  65 C :   -0.166188
  66 S :    0.368128
  67 C :   -0.064813
  68 C :   -0.211933
  69 S :    0.459706
  70 C :   -0.164652
  71 C :   -0.091540
  72 C :   -0.016577
  73 N :    0.089799
  74 N :   -0.055297
  75 C :   -0.041430
  76 C :   -0.044065
  77 C :   -0.033514
  78 H :    0.042210
  79 H :    0.040995
  80 H :    0.039336
  81 H :    0.051870
  82 H :    0.095759
  83 H :    0.051087
  84 H :    0.035653
  85 H :    0.029517
  86 H :    0.028598
  87 H :    0.034108
  88 H :    0.026029
  89 H :    0.029141
  90 H :    0.037500
  91 H :    0.047933
  92 H :    0.055043
  93 H :    0.040479
  94 H :    0.029150
  95 H :    0.029426
  96 H :    0.027892
  97 H :    0.024120
  98 H :    0.029349
  99 H :    0.006113
 100 H :    0.027269
 101 H :    0.032700
 102 H :    0.032467
 103 H :    0.031167
 104 H :    0.032821
 105 H :    0.033908
 106 H :    0.035922
 107 H :    0.054020
 108 H :    0.021078
 109 H :    0.030367
 110 H :    0.023346
 111 H :    0.029147

  Mayer bond orders larger than 0.100000
B(  0-C ,  1-C ) :   1.6381 B(  0-C ,  6-C ) :   1.0108 B(  0-C , 18-C ) :   1.0731
B(  1-C ,  2-C ) :   1.1425 B(  1-C ,  4-C ) :   1.1427 B(  2-C ,  3-N ) :   2.9690
B(  4-C ,  5-N ) :   2.9823 B(  6-C ,  7-C ) :   1.2715 B(  6-C , 11-C ) :   1.4047
B(  7-C ,  8-C ) :   1.4279 B(  7-C , 16-C ) :   0.9417 B(  8-C ,  9-C ) :   1.2485
B(  8-C , 78-H ) :   1.0149 B(  9-C , 10-C ) :   1.3021 B(  9-C , 14-C ) :   1.1626
B( 10-C , 11-C ) :   1.3364 B( 10-C , 12-S ) :   1.0858 B( 11-C , 79-H ) :   0.9782
B( 12-S , 13-C ) :   1.0863 B( 13-C , 14-C ) :   1.6193 B( 13-C , 15-Br) :   1.0196
B( 14-C , 80-H ) :   0.9995 B( 16-C , 17-O ) :   2.2219 B( 16-C , 18-C ) :   0.9285
B( 18-C , 19-C ) :   1.6125 B( 19-C , 20-C ) :   1.1576 B( 19-C , 81-H ) :   0.9361
B( 20-C , 21-O ) :   1.1187 B( 20-C , 22-C ) :   1.4434 B( 21-O , 29-C ) :   1.1804
B( 22-C , 23-C ) :   0.8632 B( 22-C , 28-C ) :   1.3103 B( 23-C , 24-O ) :   2.2442
B( 23-C , 25-N ) :   1.0932 B( 25-N , 26-C ) :   1.0696 B( 25-N , 82-H ) :   0.9143
B( 26-C , 27-O ) :   2.2813 B( 26-C , 28-C ) :   0.8759 B( 28-C , 29-C ) :   1.3665
B( 29-C , 30-C ) :   1.1776 B( 30-C , 31-C ) :   1.7194 B( 30-C , 83-H ) :   0.9534
B( 31-C , 32-C ) :   0.9965 B( 31-C , 84-H ) :   0.9650 B( 32-C , 33-C ) :   1.3232
B( 32-C , 37-C ) :   1.3795 B( 33-C , 34-C ) :   1.4255 B( 33-C , 85-H ) :   0.9936
B( 34-C , 35-C ) :   1.2948 B( 34-C , 86-H ) :   0.9901 B( 35-C , 36-C ) :   1.4752
B( 35-C , 87-H ) :   1.0018 B( 36-C , 37-C ) :   1.3247 B( 36-C , 42-C ) :   0.9545
B( 37-C , 38-N ) :   1.0794 B( 38-N , 39-C ) :   0.9666 B( 38-N , 40-C ) :   1.1148
B( 39-C , 88-H ) :   0.9683 B( 39-C , 89-H ) :   0.9629 B( 39-C , 90-H ) :   0.9511
B( 40-C , 41-O ) :   2.1705 B( 40-C , 42-C ) :   0.9183 B( 42-C , 43-C ) :   1.0340
B( 42-C , 91-H ) :   0.8865 B( 43-C , 44-C ) :   0.9096 B( 43-C , 53-C ) :   0.9773
B( 43-C , 92-H ) :   0.8690 B( 44-C , 45-O ) :   2.1127 B( 44-C , 46-N ) :   1.1497
B( 46-N , 47-C ) :   0.9619 B( 46-N , 48-C ) :   1.0415 B( 47-C , 93-H ) :   0.9584
B( 47-C , 94-H ) :   0.9717 B( 47-C , 95-H ) :   0.9722 B( 48-C , 49-C ) :   1.3403
B( 48-C , 53-C ) :   1.3602 B( 49-C , 50-C ) :   1.2452 B( 49-C , 96-H ) :   1.0228
B( 50-C , 51-C ) :   1.3591 B( 50-C , 54-C ) :   1.1126 B( 51-C , 52-C ) :   1.3635
B( 51-C , 97-H ) :   0.9891 B( 52-C , 53-C ) :   1.4080 B( 52-C , 98-H ) :   1.0039
B( 54-C , 55-C ) :   1.6215 B( 54-C , 99-H ) :   0.9595 B( 55-C , 56-C ) :   1.1959
B( 55-C ,100-H ) :   0.9667 B( 56-C , 57-C ) :   1.5741 B( 56-C ,101-H ) :   0.9607
B( 57-C , 58-C ) :   1.1515 B( 57-C , 61-S ) :   1.0404 B( 58-C , 59-C ) :   1.5841
B( 58-C ,102-H ) :   0.9980 B( 59-C , 60-C ) :   1.1947 B( 59-C ,103-H ) :   0.9930
B( 60-C , 61-S ) :   1.0279 B( 60-C , 62-C ) :   1.4970 B( 62-C , 63-C ) :   1.2016
B( 62-C , 66-S ) :   1.0489 B( 63-C , 64-C ) :   1.5723 B( 63-C ,104-H ) :   0.9918
B( 64-C , 65-C ) :   1.1632 B( 64-C ,105-H ) :   0.9988 B( 65-C , 66-S ) :   1.0078
B( 65-C , 67-C ) :   1.5888 B( 67-C , 68-C ) :   1.2129 B( 67-C ,106-H ) :   0.9311
B( 68-C , 69-S ) :   1.1014 B( 68-C , 70-C ) :   0.1086 B( 68-C , 72-C ) :   1.3222
B( 69-S , 70-C ) :   1.1568 B( 70-C , 71-C ) :   1.3372 B( 70-C , 76-C ) :   1.1359
B( 71-C , 72-C ) :   1.2663 B( 71-C , 75-C ) :   1.1574 B( 72-C , 73-N ) :   1.1638
B( 73-N , 74-N ) :   1.1364 B( 73-N ,107-H ) :   0.9314 B( 74-N , 75-C ) :   1.7364
B( 75-C ,108-H ) :   0.9970 B( 76-C , 77-C ) :   1.9063 B( 76-C ,109-H ) :   0.9510
B( 77-C ,110-H ) :   0.9556 B( 77-C ,111-H ) :   0.9481

-----------------------------------------------------------------------------
         ABSORPTION SPECTRUM VIA TRANSITION ELECTRIC DIPOLE MOMENTS
-----------------------------------------------------------------------------
State   Energy  Wavelength   fosc         T2         TX        TY        TZ
        (cm-1)    (nm)                  (au**2)     (au)      (au)      (au)
-----------------------------------------------------------------------------
   0   13043.2    766.7   0.958440879  24.19122  -3.58245   0.63953  -3.30882
   1   15769.9    634.1   0.000071371   0.00149   0.01187  -0.02771   0.02411
   2   19840.4    504.0   0.829612160  13.76579  -0.27043  -3.29942   1.67526
   3   20560.9    486.4   0.009674172   0.15490   0.04556  -0.34983  -0.17449
   4   24402.7    409.8   0.004368265   0.05893   0.06906  -0.22965  -0.03772
   5   24669.2    405.4   1.215076635  16.21528   0.63196  -3.85996  -0.95740
   6   25003.9    399.9   0.025646718   0.33768   0.54979   0.08947   0.16552
   7   25814.5    387.4   0.152278979   1.94201  -0.18090   1.27375   0.53559
   8   26182.0    381.9   0.001403676   0.01765  -0.00413  -0.05965  -0.11864
   9   26561.2    376.5   0.007195020   0.08918  -0.06438  -0.07942   0.28058
  10   26905.2    371.7   0.043847833   0.53652   0.47785  -0.06011  -0.55188
  11   27690.1    361.1   0.200196008   2.38016   0.25873  -1.49411  -0.28436
  12   28487.5    351.0   0.021175858   0.24472  -0.23599  -0.14964   0.40821
  13   28531.9    350.5   0.211681104   2.44246   0.03966  -1.51554  -0.37951
  14   29226.2    342.2   0.005006922   0.05640   0.14021  -0.15574   0.11173
  15   30116.1    332.0   0.307856663   3.36532  -0.95481   1.44011  -0.61623
  16   30227.1    330.8   0.000207897   0.00226   0.04240  -0.00802   0.02006
  17   30262.4    330.4   0.207388063   2.25609  -0.61844   1.28564  -0.46985
  18   31223.4    320.3   0.003488816   0.03679   0.12117  -0.14860  -0.00452
  19   31336.0    319.1   0.000238771   0.00251  -0.01021   0.04208   0.02518
  20   32443.7    308.2   0.540945867   5.48906  -0.54626   1.91520   1.23397
  21   32731.2    305.5   0.057130478   0.57462   0.45338  -0.56563   0.22166
  22   33000.0    303.0   0.060415072   0.60271  -0.50122   0.46464   0.36822
  23   33172.5    301.5   0.003171100   0.03147   0.13689  -0.08100   0.07856
  24   33629.5    297.4   0.094506577   0.92516  -0.42608   0.85163   0.13546
  25   33749.9    296.3   0.088022940   0.85862   0.83973   0.19785  -0.33812
  26   34498.6    289.9   0.000927603   0.00885   0.07982   0.01154   0.04846
  27   34570.1    289.3   0.108608522   1.03428  -0.39940   0.93287   0.06722
  28   34655.7    288.6   0.149974505   1.42468  -0.05495   1.15937   0.27844
  29   34810.1    287.3   0.025348575   0.23973  -0.39310   0.17811  -0.23125
  30   34933.2    286.3   0.001613983   0.01521   0.04092  -0.10095  -0.05784
  31   35129.4    284.7   0.050470772   0.47298   0.42861  -0.53271   0.07418
  32   35259.1    283.6   0.049867727   0.46561  -0.46385  -0.00515  -0.50043
  33   35661.5    280.4   0.017723957   0.16362   0.19283   0.34777   0.07412
  34   35856.2    278.9   0.005786221   0.05313  -0.02248  -0.21525   0.07930
  35   36145.0    276.7   0.007777013   0.07083  -0.19891  -0.13902   0.10928
  36   36333.0    275.2   0.001138290   0.01031   0.08483  -0.00174   0.05581
  37   36686.8    272.6   0.140845437   1.26389  -0.43543  -0.60705   0.84011
  38   37125.5    269.4   0.084178344   0.74645   0.59169  -0.39118   0.49329
  39   37999.6    263.2   0.062013529   0.53726   0.39573   0.41502  -0.45652
  40   38102.6    262.4   0.019721266   0.17039   0.30070  -0.28272   0.00631
  41   38382.3    260.5   0.037481432   0.32149   0.29755   0.26528  -0.40320
  42   38418.1    260.3   0.001808357   0.01550  -0.03458  -0.08877   0.08012
  43   38763.1    258.0   0.004619314   0.03923  -0.11306  -0.10269  -0.12611
  44   38869.6    257.3   0.012289694   0.10409  -0.20871   0.05440   0.23994
  45   38990.1    256.5   0.000164832   0.00139   0.03497  -0.00363   0.01247
  46   39312.1    254.4   0.153523604   1.28566   0.25902   0.35220  -1.04619
  47   39504.7    253.1   0.003129444   0.02608   0.09459  -0.09604  -0.08892
  48   39750.2    251.6   0.017887542   0.14814   0.26268  -0.24915  -0.13065
  49   39823.2    251.1   0.001949582   0.01612  -0.09602   0.07531   0.03502
  50   39841.0    251.0   0.002085300   0.01723  -0.03764  -0.12535  -0.01005
  51   39970.3    250.2   0.000683797   0.00563  -0.03314   0.06695  -0.00717
  52   40130.2    249.2   0.004211015   0.03455  -0.13155  -0.05376  -0.11979

FINAL SINGLE POINT ENERGY     -7303.720987799192

DIPOLE MOMENT
-------------
                                X             Y             Z
Electronic contribution:      0.63118    -251.04726      23.23048
Nuclear contribution   :     -0.18445     253.59776     -23.11246
                        -----------------------------------------
Total Dipole Moment    :      0.44672       2.55050       0.11802
                        -----------------------------------------
Magnitude (a.u.)       :      2.59202
Magnitude (Debye)      :      6.58839

Rotational constants in cm-1:     0.001122     0.000189     0.000172
Rotational constants in MHz :    33.642792     5.662385     5.145200

                             ****ORCA TERMINATED NORMALLY****
TOTAL RUN TIME: 0 days 0 hours 11 minutes 39 seconds 962 msec
