                         Program Version 4.2.0 -  RELEASE  -
|  1> # ORCA input file
|  2> # SCF done       -183.541207396049          0.000702950975
|  3> ! CAM-B3LYP def2-SVP def2/J RIJCOSX Grid4 TightSCF
|  4> %maxcore 5000
|  5> %tddft
|  6>     Mode sTDDFT
|  7>     Ethresh 5.0
|  8>     maxcore 5000
|  9> end
| 10>
| 11> %pal
| 12>   nprocs 6
| 13>   end
| 14> * xyz 0 1
| 15>    C        6.32117        -2.36610       -10.03705
| 16>    C        7.11169        -3.33782        -9.56273
| 17>    C        8.51914        -3.51333        -9.78453
| 18>    C        9.04916        -4.59584        -9.17549
| 19>    C        8.11370        -5.36476        -8.42482
| 20>    S        6.52052        -4.64615        -8.52411
| 21>    C        8.35824        -6.51147        -7.70866
| 22>    C        9.59308        -7.19156        -7.55140
| 23>    C        9.51066        -8.30842        -6.78371
| 24>    C        8.20723        -8.57922        -6.28777
| 25>    S        7.08726        -7.35031        -6.83483
| 26>    C        7.83613        -9.63671        -5.49866
| 27>    C        6.52443        -9.84637        -5.04592
| 28>    O        5.53392        -8.96711        -5.37782
| 29>    C        5.96542       -10.84741        -4.26518
| 30>    C        6.25094       -12.07960        -3.54288
| 31>    O        7.27274       -12.70020        -3.38335
| 32>    N        5.00631       -12.44725        -3.01864
| 33>    C        3.95919       -11.58892        -3.32807
| 34>    O        2.81053       -11.74127        -2.97821
| 35>    C        4.58639       -10.54665        -4.13269
| 36>    C        4.35435        -9.37345        -4.83268
| 37>    C        3.18813        -8.60385        -5.04585
| 38>    C        1.99029        -8.94852        -4.50771
| 39>    C        0.79738        -8.20513        -4.65489
| 40>    S        0.83525        -6.64687        -5.44266
| 41>    C       -0.83641        -6.36653        -5.06824
| 42>    C       -1.37542        -7.42141        -4.34859
| 43>    C       -0.47591        -8.49316        -4.17694
| 44>    C       -0.91948        -9.82695        -3.63734
| 45>    C       -0.36895       -11.01547        -4.43836
| 46>    C       -2.45142        -9.87594        -3.67001
| 47>    C       -3.04592        -8.66640        -2.96909
| 48>    C       -2.74825        -7.37313        -3.73447
| 49>    C       -2.86622        -6.19212        -2.76228
| 50>    C       -1.49803        -5.19190        -5.53999
| 51>    C       -0.87093        -4.15155        -6.11780
| 52>    C       -1.52715        -2.92634        -6.53007
| 53>    C       -0.96448        -1.73984        -6.15853
| 54>    S       -1.95740        -0.36148        -6.41371
| 55>    C       -3.19166        -1.38240        -7.08387
| 56>    C       -2.81619        -2.73426        -7.15540
| 57>    C       -3.63834        -3.62450        -7.89240
| 58>    C       -3.05657        -4.93579        -8.35489
| 59>    C       -2.28207        -4.70654        -9.65706
| 60>    C       -4.88855        -3.21298        -8.33492
| 61>    C       -5.77524        -4.14670        -9.11918
| 62>    C       -6.58224        -5.06425        -8.19642
| 63>    C       -5.33710        -1.89332        -8.08407
| 64>    C       -6.57712        -1.23595        -8.43226
| 65>    C       -6.51955         0.10952        -8.19673
| 66>    S       -5.04696         0.65526        -7.51204
| 67>    C       -4.43223        -0.96975        -7.53892
| 68>    C       -7.80220        -1.85022        -8.88575
| 69>    C       -8.69872        -1.24759        -9.69090
| 70>    C       -9.93346        -1.84959       -10.07009
| 71>    O      -10.27272        -3.09550        -9.63905
| 72>    C      -10.95446        -1.37455       -10.86473
| 73>    C      -11.40510        -0.23766       -11.66552
| 74>    O      -10.88847         0.82280       -11.90625
| 75>    N      -12.65380        -0.64583       -12.13843
| 76>    C      -13.06236        -1.91601       -11.73749
| 77>    O      -14.10296        -2.43731       -12.04340
| 78>    C      -11.95069        -2.38756       -10.90604
| 79>    C      -11.49271        -3.43235       -10.13926
| 80>    C      -12.08937        -4.70364        -9.84068
| 81>    C      -11.51978        -5.63149        -9.07426
| 82>    H        6.72081        -1.58957       -10.66506
| 83>    H        5.27197        -2.32937        -9.80809
| 84>    H        9.06901        -2.81741       -10.39299
| 85>    H       10.08504        -4.87905        -9.23501
| 86>    H       10.50014        -6.83820        -8.00814
| 87>    H       10.33762        -8.95580        -6.55151
| 88>    H        8.57297       -10.36455        -5.19670
| 89>    H        4.87925       -13.28041        -2.46269
| 90>    H        3.29823        -7.72241        -5.66199
| 91>    H        1.94187        -9.82973        -3.88732
| 92>    H       -0.58711        -9.92123        -2.59628
| 93>    H       -0.31415       -10.77336        -5.49745
| 94>    H       -1.03426       -11.86786        -4.31750
| 95>    H        0.61333       -11.32315        -4.09735
| 96>    H       -2.79094       -10.79090        -3.18174
| 97>    H       -2.78681        -9.90231        -4.70987
| 98>    H       -2.61640        -8.59762        -1.96687
| 99>    H       -4.12589        -8.78114        -2.85995
|100>    H       -3.48855        -7.24896        -4.53519
|101>    H       -2.10376        -6.27243        -1.99012
|102>    H       -3.84340        -6.20824        -2.28406
|103>    H       -2.74135        -5.23532        -3.25983
|104>    H       -2.57314        -5.16655        -5.42111
|105>    H        0.21050        -4.15220        -6.16879
|106>    H       -0.01558        -1.61062        -5.67448
|107>    H       -2.36431        -5.33494        -7.62077
|108>    H       -3.83176        -5.68207        -8.51414
|109>    H       -1.86686        -5.64509       -10.01682
|110>    H       -1.46390        -4.01049        -9.48666
|111>    H       -2.92584        -4.29089       -10.42941
|112>    H       -5.17818        -4.75668        -9.79604
|113>    H       -6.45168        -3.55926        -9.74064
|114>    H       -5.92416        -5.73507        -7.64865
|115>    H       -7.27971        -5.66423        -8.77729
|116>    H       -7.14216        -4.48675        -7.46367
|117>    H       -7.31267         0.81657        -8.34250
|118>    H       -8.03794        -2.83370        -8.50897
|119>    H       -8.52250        -0.27087       -10.11545
|120>    H      -13.22300        -0.06130       -12.73391
|121>    H      -13.05799        -4.85359       -10.29525
|122>    H      -10.55522        -5.47013        -8.62316
|123>    H      -12.00347        -6.57081        -8.87481
|124> *
|125>
|126>                          ****END OF INPUT****

CARTESIAN COORDINATES (ANGSTROEM)
---------------------------------
  C      6.321170   -2.366100  -10.037050
  C      7.111690   -3.337820   -9.562730
  C      8.519140   -3.513330   -9.784530
  C      9.049160   -4.595840   -9.175490
  C      8.113700   -5.364760   -8.424820
  S      6.520520   -4.646150   -8.524110
  C      8.358240   -6.511470   -7.708660
  C      9.593080   -7.191560   -7.551400
  C      9.510660   -8.308420   -6.783710
  C      8.207230   -8.579220   -6.287770
  S      7.087260   -7.350310   -6.834830
  C      7.836130   -9.636710   -5.498660
  C      6.524430   -9.846370   -5.045920
  O      5.533920   -8.967110   -5.377820
  C      5.965420  -10.847410   -4.265180
  C      6.250940  -12.079600   -3.542880
  O      7.272740  -12.700200   -3.383350
  N      5.006310  -12.447250   -3.018640
  C      3.959190  -11.588920   -3.328070
  O      2.810530  -11.741270   -2.978210
  C      4.586390  -10.546650   -4.132690
  C      4.354350   -9.373450   -4.832680
  C      3.188130   -8.603850   -5.045850
  C      1.990290   -8.948520   -4.507710
  C      0.797380   -8.205130   -4.654890
  S      0.835250   -6.646870   -5.442660
  C     -0.836410   -6.366530   -5.068240
  C     -1.375420   -7.421410   -4.348590
  C     -0.475910   -8.493160   -4.176940
  C     -0.919480   -9.826950   -3.637340
  C     -0.368950  -11.015470   -4.438360
  C     -2.451420   -9.875940   -3.670010
  C     -3.045920   -8.666400   -2.969090
  C     -2.748250   -7.373130   -3.734470
  C     -2.866220   -6.192120   -2.762280
  C     -1.498030   -5.191900   -5.539990
  C     -0.870930   -4.151550   -6.117800
  C     -1.527150   -2.926340   -6.530070
  C     -0.964480   -1.739840   -6.158530
  S     -1.957400   -0.361480   -6.413710
  C     -3.191660   -1.382400   -7.083870
  C     -2.816190   -2.734260   -7.155400
  C     -3.638340   -3.624500   -7.892400
  C     -3.056570   -4.935790   -8.354890
  C     -2.282070   -4.706540   -9.657060
  C     -4.888550   -3.212980   -8.334920
  C     -5.775240   -4.146700   -9.119180
  C     -6.582240   -5.064250   -8.196420
  C     -5.337100   -1.893320   -8.084070
  C     -6.577120   -1.235950   -8.432260
  C     -6.519550    0.109520   -8.196730
  S     -5.046960    0.655260   -7.512040
  C     -4.432230   -0.969750   -7.538920
  C     -7.802200   -1.850220   -8.885750
  C     -8.698720   -1.247590   -9.690900
  C     -9.933460   -1.849590  -10.070090
  O    -10.272720   -3.095500   -9.639050
  C    -10.954460   -1.374550  -10.864730
  C    -11.405100   -0.237660  -11.665520
  O    -10.888470    0.822800  -11.906250
  N    -12.653800   -0.645830  -12.138430
  C    -13.062360   -1.916010  -11.737490
  O    -14.102960   -2.437310  -12.043400
  C    -11.950690   -2.387560  -10.906040
  C    -11.492710   -3.432350  -10.139260
  C    -12.089370   -4.703640   -9.840680
  C    -11.519780   -5.631490   -9.074260
  H      6.720810   -1.589570  -10.665060
  H      5.271970   -2.329370   -9.808090
  H      9.069010   -2.817410  -10.392990
  H     10.085040   -4.879050   -9.235010
  H     10.500140   -6.838200   -8.008140
  H     10.337620   -8.955800   -6.551510
  H      8.572970  -10.364550   -5.196700
  H      4.879250  -13.280410   -2.462690
  H      3.298230   -7.722410   -5.661990
  H      1.941870   -9.829730   -3.887320
  H     -0.587110   -9.921230   -2.596280
  H     -0.314150  -10.773360   -5.497450
  H     -1.034260  -11.867860   -4.317500
  H      0.613330  -11.323150   -4.097350
  H     -2.790940  -10.790900   -3.181740
  H     -2.786810   -9.902310   -4.709870
  H     -2.616400   -8.597620   -1.966870
  H     -4.125890   -8.781140   -2.859950
  H     -3.488550   -7.248960   -4.535190
  H     -2.103760   -6.272430   -1.990120
  H     -3.843400   -6.208240   -2.284060
  H     -2.741350   -5.235320   -3.259830
  H     -2.573140   -5.166550   -5.421110
  H      0.210500   -4.152200   -6.168790
  H     -0.015580   -1.610620   -5.674480
  H     -2.364310   -5.334940   -7.620770
  H     -3.831760   -5.682070   -8.514140
  H     -1.866860   -5.645090  -10.016820
  H     -1.463900   -4.010490   -9.486660
  H     -2.925840   -4.290890  -10.429410
  H     -5.178180   -4.756680   -9.796040
  H     -6.451680   -3.559260   -9.740640
  H     -5.924160   -5.735070   -7.648650
  H     -7.279710   -5.664230   -8.777290
  H     -7.142160   -4.486750   -7.463670
  H     -7.312670    0.816570   -8.342500
  H     -8.037940   -2.833700   -8.508970
  H     -8.522500   -0.270870  -10.115450
  H    -13.223000   -0.061300  -12.733910
  H    -13.057990   -4.853590  -10.295250
  H    -10.555220   -5.470130   -8.623160
  H    -12.003470   -6.570810   -8.874810

 Total Charge           Charge          ....    0
 Multiplicity           Mult            ....    1
 Number of Electrons    NEL             ....  508
 Basis Dimension        Dim             .... 1168

ORBITAL ENERGIES
----------------

  NO   OCC          E(Eh)            E(eV)
   0   2.0000     -88.955055     -2420.5901
   1   2.0000     -88.952395     -2420.5177
   2   2.0000     -88.942977     -2420.2614
   3   2.0000     -88.942565     -2420.2502
   4   2.0000     -88.941824     -2420.2301
   5   2.0000     -19.305839      -525.3386
   6   2.0000     -19.298234      -525.1316
   7   2.0000     -19.203227      -522.5464
   8   2.0000     -19.202808      -522.5350
   9   2.0000     -19.202078      -522.5151
  10   2.0000     -19.196341      -522.3590
  11   2.0000     -14.447440      -393.1348
  12   2.0000     -14.442695      -393.0057
  13   2.0000     -10.393025      -282.8086
  14   2.0000     -10.392501      -282.7943
  15   2.0000     -10.389318      -282.7077
  16   2.0000     -10.385655      -282.6080
  17   2.0000     -10.355784      -281.7952
  18   2.0000     -10.354132      -281.7502
  19   2.0000     -10.349655      -281.6284
  20   2.0000     -10.347924      -281.5813
  21   2.0000     -10.314897      -280.6826
  22   2.0000     -10.313238      -280.6375
  23   2.0000     -10.310147      -280.5534
  24   2.0000     -10.306501      -280.4541
  25   2.0000     -10.299200      -280.2555
  26   2.0000     -10.298823      -280.2452
  27   2.0000     -10.298727      -280.2426
  28   2.0000     -10.294269      -280.1213
  29   2.0000     -10.293405      -280.0978
  30   2.0000     -10.292831      -280.0822
  31   2.0000     -10.291449      -280.0446
  32   2.0000     -10.290642      -280.0226
  33   2.0000     -10.289579      -279.9937
  34   2.0000     -10.289575      -279.9936
  35   2.0000     -10.289285      -279.9857
  36   2.0000     -10.285810      -279.8911
  37   2.0000     -10.285277      -279.8766
  38   2.0000     -10.284713      -279.8613
  39   2.0000     -10.283039      -279.8157
  40   2.0000     -10.282641      -279.8049
  41   2.0000     -10.281821      -279.7826
  42   2.0000     -10.281534      -279.7748
  43   2.0000     -10.281186      -279.7653
  44   2.0000     -10.280059      -279.7346
  45   2.0000     -10.279965      -279.7321
  46   2.0000     -10.279469      -279.7186
  47   2.0000     -10.279124      -279.7092
  48   2.0000     -10.278379      -279.6889
  49   2.0000     -10.276002      -279.6242
  50   2.0000     -10.274927      -279.5950
  51   2.0000     -10.274444      -279.5818
  52   2.0000     -10.274227      -279.5759
  53   2.0000     -10.273952      -279.5684
  54   2.0000     -10.273390      -279.5532
  55   2.0000     -10.272393      -279.5260
  56   2.0000     -10.271439      -279.5001
  57   2.0000     -10.268359      -279.4163
  58   2.0000     -10.266666      -279.3702
  59   2.0000     -10.266066      -279.3539
  60   2.0000     -10.261188      -279.2211
  61   2.0000     -10.256804      -279.1018
  62   2.0000     -10.255366      -279.0627
  63   2.0000     -10.254214      -279.0314
  64   2.0000     -10.251846      -278.9669
  65   2.0000     -10.251495      -278.9574
  66   2.0000     -10.240300      -278.6527
  67   2.0000      -8.051231      -219.0851
  68   2.0000      -8.048586      -219.0132
  69   2.0000      -8.038860      -218.7485
  70   2.0000      -8.038624      -218.7421
  71   2.0000      -8.038206      -218.7307
  72   2.0000      -6.020707      -163.8318
  73   2.0000      -6.018087      -163.7605
  74   2.0000      -6.016444      -163.7158
  75   2.0000      -6.013888      -163.6462
  76   2.0000      -6.012989      -163.6217
  77   2.0000      -6.010233      -163.5468
  78   2.0000      -6.008747      -163.5063
  79   2.0000      -6.008432      -163.4978
  80   2.0000      -6.007324      -163.4676
  81   2.0000      -6.004522      -163.3914
  82   2.0000      -6.004477      -163.3901
  83   2.0000      -6.003565      -163.3653
  84   2.0000      -6.000292      -163.2762
  85   2.0000      -5.999607      -163.2576
  86   2.0000      -5.999147      -163.2451
  87   2.0000      -1.220960       -33.2240
  88   2.0000      -1.213877       -33.0313
  89   2.0000      -1.147728       -31.2313
  90   2.0000      -1.142571       -31.0909
  91   2.0000      -1.127126       -30.6707
  92   2.0000      -1.121247       -30.5107
  93   2.0000      -1.034887       -28.1607
  94   2.0000      -1.029915       -28.0254
  95   2.0000      -1.003279       -27.3006
  96   2.0000      -0.994563       -27.0634
  97   2.0000      -0.983515       -26.7628
  98   2.0000      -0.973350       -26.4862
  99   2.0000      -0.972446       -26.4616
 100   2.0000      -0.926492       -25.2111
 101   2.0000      -0.925075       -25.1726
 102   2.0000      -0.922420       -25.1003
 103   2.0000      -0.916181       -24.9306
 104   2.0000      -0.915488       -24.9117
 105   2.0000      -0.909532       -24.7496
 106   2.0000      -0.903157       -24.5761
 107   2.0000      -0.893897       -24.3242
 108   2.0000      -0.884361       -24.0647
 109   2.0000      -0.875751       -23.8304
 110   2.0000      -0.864781       -23.5319
 111   2.0000      -0.863704       -23.5026
 112   2.0000      -0.855578       -23.2815
 113   2.0000      -0.847438       -23.0600
 114   2.0000      -0.844959       -22.9925
 115   2.0000      -0.834204       -22.6998
 116   2.0000      -0.825460       -22.4619
 117   2.0000      -0.819594       -22.3023
 118   2.0000      -0.812289       -22.1035
 119   2.0000      -0.812001       -22.0957
 120   2.0000      -0.797217       -21.6934
 121   2.0000      -0.788913       -21.4674
 122   2.0000      -0.782578       -21.2950
 123   2.0000      -0.779441       -21.2097
 124   2.0000      -0.767485       -20.8843
 125   2.0000      -0.763100       -20.7650
 126   2.0000      -0.755393       -20.5553
 127   2.0000      -0.753257       -20.4972
 128   2.0000      -0.752223       -20.4690
 129   2.0000      -0.731731       -19.9114
 130   2.0000      -0.722005       -19.6468
 131   2.0000      -0.719167       -19.5695
 132   2.0000      -0.715500       -19.4697
 133   2.0000      -0.708322       -19.2744
 134   2.0000      -0.699553       -19.0358
 135   2.0000      -0.694432       -18.8965
 136   2.0000      -0.692134       -18.8339
 137   2.0000      -0.688918       -18.7464
 138   2.0000      -0.684062       -18.6143
 139   2.0000      -0.674828       -18.3630
 140   2.0000      -0.673648       -18.3309
 141   2.0000      -0.673355       -18.3229
 142   2.0000      -0.648517       -17.6470
 143   2.0000      -0.646928       -17.6038
 144   2.0000      -0.643213       -17.5027
 145   2.0000      -0.628138       -17.0925
 146   2.0000      -0.625545       -17.0219
 147   2.0000      -0.617504       -16.8031
 148   2.0000      -0.615945       -16.7607
 149   2.0000      -0.610452       -16.6112
 150   2.0000      -0.606593       -16.5062
 151   2.0000      -0.601184       -16.3591
 152   2.0000      -0.600141       -16.3307
 153   2.0000      -0.595470       -16.2036
 154   2.0000      -0.586084       -15.9482
 155   2.0000      -0.584691       -15.9103
 156   2.0000      -0.583870       -15.8879
 157   2.0000      -0.580412       -15.7938
 158   2.0000      -0.578255       -15.7351
 159   2.0000      -0.573029       -15.5929
 160   2.0000      -0.571936       -15.5632
 161   2.0000      -0.567370       -15.4389
 162   2.0000      -0.561918       -15.2906
 163   2.0000      -0.557710       -15.1761
 164   2.0000      -0.552631       -15.0379
 165   2.0000      -0.548922       -14.9369
 166   2.0000      -0.546670       -14.8756
 167   2.0000      -0.541736       -14.7414
 168   2.0000      -0.538691       -14.6585
 169   2.0000      -0.536513       -14.5993
 170   2.0000      -0.534308       -14.5393
 171   2.0000      -0.531845       -14.4723
 172   2.0000      -0.527900       -14.3649
 173   2.0000      -0.524716       -14.2783
 174   2.0000      -0.520259       -14.1570
 175   2.0000      -0.518179       -14.1004
 176   2.0000      -0.515242       -14.0205
 177   2.0000      -0.514070       -13.9886
 178   2.0000      -0.510686       -13.8965
 179   2.0000      -0.509206       -13.8562
 180   2.0000      -0.508261       -13.8305
 181   2.0000      -0.506186       -13.7740
 182   2.0000      -0.503528       -13.7017
 183   2.0000      -0.500842       -13.6286
 184   2.0000      -0.496326       -13.5057
 185   2.0000      -0.496056       -13.4984
 186   2.0000      -0.494803       -13.4643
 187   2.0000      -0.493391       -13.4259
 188   2.0000      -0.490465       -13.3462
 189   2.0000      -0.487741       -13.2721
 190   2.0000      -0.487130       -13.2555
 191   2.0000      -0.485212       -13.2033
 192   2.0000      -0.484088       -13.1727
 193   2.0000      -0.482644       -13.1334
 194   2.0000      -0.476786       -12.9740
 195   2.0000      -0.476142       -12.9565
 196   2.0000      -0.475400       -12.9363
 197   2.0000      -0.470692       -12.8082
 198   2.0000      -0.467403       -12.7187
 199   2.0000      -0.465478       -12.6663
 200   2.0000      -0.463788       -12.6203
 201   2.0000      -0.462889       -12.5958
 202   2.0000      -0.462480       -12.5847
 203   2.0000      -0.459592       -12.5061
 204   2.0000      -0.459128       -12.4935
 205   2.0000      -0.452337       -12.3087
 206   2.0000      -0.451999       -12.2995
 207   2.0000      -0.449364       -12.2278
 208   2.0000      -0.448214       -12.1965
 209   2.0000      -0.445190       -12.1142
 210   2.0000      -0.439778       -11.9670
 211   2.0000      -0.436875       -11.8880
 212   2.0000      -0.431890       -11.7523
 213   2.0000      -0.431450       -11.7404
 214   2.0000      -0.431136       -11.7318
 215   2.0000      -0.427855       -11.6425
 216   2.0000      -0.425340       -11.5741
 217   2.0000      -0.424629       -11.5547
 218   2.0000      -0.422572       -11.4988
 219   2.0000      -0.419830       -11.4242
 220   2.0000      -0.417563       -11.3625
 221   2.0000      -0.414464       -11.2781
 222   2.0000      -0.407841       -11.0979
 223   2.0000      -0.404275       -11.0009
 224   2.0000      -0.399944       -10.8830
 225   2.0000      -0.394423       -10.7328
 226   2.0000      -0.391495       -10.6531
 227   2.0000      -0.388047       -10.5593
 228   2.0000      -0.386038       -10.5046
 229   2.0000      -0.382141       -10.3986
 230   2.0000      -0.380197       -10.3457
 231   2.0000      -0.375425       -10.2158
 232   2.0000      -0.372407       -10.1337
 233   2.0000      -0.369038       -10.0420
 234   2.0000      -0.365493        -9.9456
 235   2.0000      -0.362021        -9.8511
 236   2.0000      -0.361937        -9.8488
 237   2.0000      -0.357281        -9.7221
 238   2.0000      -0.354107        -9.6357
 239   2.0000      -0.351585        -9.5671
 240   2.0000      -0.344574        -9.3763
 241   2.0000      -0.339478        -9.2377
 242   2.0000      -0.338154        -9.2016
 243   2.0000      -0.334420        -9.1000
 244   2.0000      -0.331443        -9.0190
 245   2.0000      -0.325803        -8.8655
 246   2.0000      -0.317113        -8.6291
 247   2.0000      -0.301659        -8.2085
 248   2.0000      -0.294255        -8.0071
 249   2.0000      -0.286241        -7.7890
 250   2.0000      -0.270691        -7.3659
 251   2.0000      -0.254729        -6.9315
 252   2.0000      -0.243425        -6.6239
 253   2.0000      -0.213471        -5.8088
 254   0.0000      -0.075522        -2.0551
 255   0.0000      -0.053227        -1.4484
 256   0.0000      -0.044722        -1.2170
 257   0.0000      -0.032032        -0.8716
 258   0.0000      -0.012319        -0.3352

MULLIKEN ATOMIC CHARGES
-----------------------
   0 C :   -0.025560
   1 C :   -0.066873
   2 C :    0.055417
   3 C :    0.028937
   4 C :   -0.063322
   5 S :    0.085247
   6 C :   -0.053495
   7 C :    0.036842
   8 C :    0.028679
   9 C :   -0.003569
  10 S :    0.103179
  11 C :   -0.058264
  12 C :    0.088710
  13 O :   -0.231982
  14 C :   -0.020706
  15 C :    0.149412
  16 O :   -0.152825
  17 N :   -0.161840
  18 C :    0.184548
  19 O :   -0.170697
  20 C :   -0.088864
  21 C :    0.142549
  22 C :   -0.018597
  23 C :   -0.012917
  24 C :   -0.101486
  25 S :    0.085571
  26 C :   -0.122198
  27 C :   -0.006658
  28 C :   -0.008484
  29 C :   -0.053503
  30 C :    0.066626
  31 C :    0.049669
  32 C :    0.075624
  33 C :   -0.055534
  34 C :    0.075073
  35 C :    0.021530
  36 C :   -0.059358
  37 C :    0.051075
  38 C :   -0.094264
  39 S :    0.126968
  40 C :   -0.142067
  41 C :    0.093940
  42 C :   -0.124373
  43 C :    0.053195
  44 C :    0.042342
  45 C :   -0.138284
  46 C :    0.016991
  47 C :    0.035667
  48 C :    0.122379
  49 C :    0.066384
  50 C :   -0.112111
  51 S :    0.136509
  52 C :   -0.145593
  53 C :   -0.003056
  54 C :   -0.033253
  55 C :    0.081397
  56 O :   -0.215063
  57 C :   -0.036421
  58 C :    0.162006
  59 O :   -0.146707
  60 N :   -0.168339
  61 C :    0.162745
  62 O :   -0.144882
  63 C :   -0.040302
  64 C :    0.062493
  65 C :   -0.019058
  66 C :    0.013508
  67 H :    0.023153
  68 H :    0.024309
  69 H :   -0.008223
  70 H :   -0.009309
  71 H :   -0.013560
  72 H :   -0.008273
  73 H :    0.004399
  74 H :    0.133361
  75 H :   -0.007905
  76 H :    0.017964
  77 H :    0.011194
  78 H :    0.011250
  79 H :   -0.001254
  80 H :    0.026771
  81 H :   -0.001364
  82 H :   -0.005075
  83 H :   -0.009579
  84 H :   -0.004254
  85 H :    0.000103
  86 H :    0.011359
  87 H :    0.005981
  88 H :    0.008321
  89 H :    0.013695
  90 H :    0.004223
  91 H :    0.018219
  92 H :    0.005833
  93 H :   -0.005973
  94 H :    0.014725
  95 H :    0.011190
  96 H :    0.005495
  97 H :    0.006240
  98 H :    0.012712
  99 H :    0.007549
 100 H :    0.019846
 101 H :    0.016026
 102 H :    0.027300
 103 H :    0.007688
 104 H :    0.009098
 105 H :    0.136297
 106 H :    0.015398
 107 H :    0.030012
 108 H :    0.030352
Sum of atomic charges:   -0.0000000

LOEWDIN ATOMIC CHARGES
----------------------
   0 C :   -0.069739
   1 C :   -0.139958
   2 C :   -0.026252
   3 C :   -0.026949
   4 C :   -0.168342
   5 S :    0.355881
   6 C :   -0.189351
   7 C :   -0.022881
   8 C :   -0.037380
   9 C :   -0.127825
  10 S :    0.387809
  11 C :   -0.086142
  12 C :    0.064361
  13 O :    0.001543
  14 C :   -0.105078
  15 C :    0.083493
  16 O :   -0.170229
  17 N :   -0.005973
  18 C :    0.089469
  19 O :   -0.178726
  20 C :   -0.112248
  21 C :    0.074844
  22 C :   -0.067708
  23 C :    0.004093
  24 C :   -0.177442
  25 S :    0.424318
  26 C :   -0.165463
  27 C :   -0.052406
  28 C :   -0.032608
  29 C :   -0.027459
  30 C :   -0.048108
  31 C :   -0.024736
  32 C :   -0.024770
  33 C :   -0.029849
  34 C :   -0.042006
  35 C :   -0.041249
  36 C :   -0.024683
  37 C :   -0.062067
  38 C :   -0.165676
  39 S :    0.413501
  40 C :   -0.177222
  41 C :   -0.043269
  42 C :   -0.019307
  43 C :   -0.034482
  44 C :   -0.045208
  45 C :   -0.022778
  46 C :   -0.031446
  47 C :   -0.050946
  48 C :   -0.041416
  49 C :   -0.067907
  50 C :   -0.158573
  51 S :    0.423324
  52 C :   -0.179331
  53 C :    0.009138
  54 C :   -0.047260
  55 C :    0.073085
  56 O :    0.012702
  57 C :   -0.107100
  58 C :    0.083867
  59 O :   -0.165267
  60 N :   -0.007602
  61 C :    0.083710
  62 O :   -0.162892
  63 C :   -0.098782
  64 C :    0.066104
  65 C :   -0.037166
  66 C :   -0.016680
  67 H :    0.030069
  68 H :    0.027479
  69 H :    0.034644
  70 H :    0.033164
  71 H :    0.031467
  72 H :    0.035045
  73 H :    0.048554
  74 H :    0.091973
  75 H :    0.029557
  76 H :    0.038637
  77 H :    0.033013
  78 H :    0.023962
  79 H :    0.022970
  80 H :    0.025134
  81 H :    0.022640
  82 H :    0.020626
  83 H :    0.020926
  84 H :    0.023377
  85 H :    0.025695
  86 H :    0.025339
  87 H :    0.022741
  88 H :    0.021133
  89 H :    0.033686
  90 H :    0.024423
  91 H :    0.023914
  92 H :    0.029511
  93 H :    0.021369
  94 H :    0.023973
  95 H :    0.025085
  96 H :    0.020381
  97 H :    0.028372
  98 H :    0.029137
  99 H :    0.023241
 100 H :    0.025000
 101 H :    0.020649
 102 H :    0.025721
 103 H :    0.033217
 104 H :    0.043160
 105 H :    0.093196
 106 H :    0.046942
 107 H :    0.026893
 108 H :    0.030681

  Mayer bond orders larger than 0.100000
B(  0-C ,  1-C ) :   1.8667 B(  0-C , 67-H ) :   0.9506 B(  0-C , 68-H ) :   0.9416
B(  1-C ,  2-C ) :   1.0775 B(  1-C ,  5-S ) :   1.0063 B(  2-C ,  3-C ) :   1.6637
B(  2-C , 69-H ) :   0.9934 B(  3-C ,  4-C ) :   1.1494 B(  3-C , 70-H ) :   0.9922
B(  4-C ,  5-S ) :   1.0521 B(  4-C ,  6-C ) :   1.5595 B(  6-C ,  7-C ) :   1.1717
B(  6-C , 10-S ) :   1.0159 B(  7-C ,  8-C ) :   1.6047 B(  7-C , 71-H ) :   0.9941
B(  8-C ,  9-C ) :   1.1317 B(  8-C , 72-H ) :   1.0014 B(  9-C , 10-S ) :   1.0597
B(  9-C , 11-C ) :   1.5399 B( 11-C , 12-C ) :   1.2180 B( 11-C , 73-H ) :   0.9644
B( 12-C , 13-O ) :   1.1131 B( 12-C , 14-C ) :   1.3690 B( 13-O , 21-C ) :   1.1231
B( 14-C , 15-C ) :   0.8981 B( 14-C , 20-C ) :   1.2717 B( 15-C , 16-O ) :   2.2593
B( 15-C , 17-N ) :   1.0633 B( 17-N , 18-C ) :   1.1109 B( 17-N , 74-H ) :   0.9159
B( 18-C , 19-O ) :   2.1235 B( 18-C , 20-C ) :   0.9009 B( 20-C , 21-C ) :   1.4071
B( 21-C , 22-C ) :   1.1860 B( 22-C , 23-C ) :   1.5874 B( 22-C , 75-H ) :   0.9623
B( 23-C , 24-C ) :   1.1791 B( 23-C , 76-H ) :   0.9613 B( 24-C , 25-S ) :   1.0869
B( 24-C , 26-C ) :   0.1004 B( 24-C , 28-C ) :   1.4777 B( 25-S , 26-C ) :   1.1248
B( 26-C , 27-C ) :   1.4844 B( 26-C , 35-C ) :   1.1574 B( 27-C , 28-C ) :   1.3357
B( 27-C , 33-C ) :   1.0127 B( 28-C , 29-C ) :   0.9926 B( 29-C , 30-C ) :   1.0859
B( 29-C , 31-C ) :   1.0764 B( 29-C , 77-H ) :   0.8835 B( 30-C , 78-H ) :   0.9610
B( 30-C , 79-H ) :   0.9552 B( 30-C , 80-H ) :   0.9538 B( 31-C , 32-C ) :   1.0937
B( 31-C , 81-H ) :   0.9299 B( 31-C , 82-H ) :   0.9354 B( 32-C , 33-C ) :   1.0638
B( 32-C , 83-H ) :   0.9272 B( 32-C , 84-H ) :   0.9273 B( 33-C , 34-C ) :   1.0868
B( 33-C , 85-H ) :   0.8804 B( 34-C , 86-H ) :   0.9577 B( 34-C , 87-H ) :   0.9625
B( 34-C , 88-H ) :   0.9631 B( 35-C , 36-C ) :   1.7274 B( 35-C , 89-H ) :   0.9566
B( 36-C , 37-C ) :   1.0449 B( 36-C , 90-H ) :   0.9600 B( 37-C , 38-C ) :   1.6058
B( 37-C , 41-C ) :   1.1319 B( 38-C , 39-S ) :   1.1170 B( 38-C , 91-H ) :   0.9661
B( 39-S , 40-C ) :   1.0791 B( 40-C , 41-C ) :   1.3784 B( 40-C , 52-C ) :   1.3724
B( 41-C , 42-C ) :   1.2667 B( 42-C , 43-C ) :   1.0859 B( 42-C , 45-C ) :   1.4969
B( 43-C , 44-C ) :   1.1123 B( 43-C , 92-H ) :   0.9083 B( 43-C , 93-H ) :   0.9089
B( 44-C , 94-H ) :   0.9676 B( 44-C , 95-H ) :   0.9651 B( 44-C , 96-H ) :   0.9638
B( 45-C , 46-C ) :   1.0609 B( 45-C , 48-C ) :   1.2778 B( 46-C , 47-C ) :   1.1106
B( 46-C , 97-H ) :   0.9106 B( 46-C , 98-H ) :   0.9214 B( 47-C , 99-H ) :   0.9581
B( 47-C ,100-H ) :   0.9675 B( 47-C ,101-H ) :   0.9567 B( 48-C , 49-C ) :   1.1381
B( 48-C , 52-C ) :   1.3738 B( 49-C , 50-C ) :   1.6013 B( 49-C , 53-C ) :   1.0114
B( 50-C , 51-S ) :   1.1306 B( 50-C ,102-H ) :   0.9617 B( 51-S , 52-C ) :   1.0735
B( 53-C , 54-C ) :   1.6952 B( 53-C ,103-H ) :   0.9667 B( 54-C , 55-C ) :   1.1552
B( 54-C ,104-H ) :   0.9629 B( 55-C , 56-O ) :   1.1488 B( 55-C , 57-C ) :   1.4228
B( 56-O , 64-C ) :   1.1425 B( 57-C , 58-C ) :   0.8850 B( 57-C , 63-C ) :   1.2459
B( 58-C , 59-O ) :   2.2673 B( 58-C , 60-N ) :   1.0726 B( 60-N , 61-C ) :   1.0797
B( 60-N ,105-H ) :   0.9148 B( 61-C , 62-O ) :   2.2682 B( 61-C , 63-C ) :   0.8766
B( 63-C , 64-C ) :   1.4549 B( 64-C , 65-C ) :   1.1453 B( 65-C , 66-C ) :   1.8997
B( 65-C ,106-H ) :   0.9516 B( 66-C ,107-H ) :   0.9586 B( 66-C ,108-H ) :   0.9449

-----------------------------------------------------------------------------
         ABSORPTION SPECTRUM VIA TRANSITION ELECTRIC DIPOLE MOMENTS
-----------------------------------------------------------------------------
State   Energy  Wavelength   fosc         T2         TX        TY        TZ
        (cm-1)    (nm)                  (au**2)     (au)      (au)      (au)
-----------------------------------------------------------------------------
   0   16031.4    623.8   0.758003905  15.56600   2.69916   1.93513  -2.12974
   1   20539.1    486.9   0.598575885   9.59429   1.44444  -2.47619   1.17320
   2   23429.9    426.8   1.130754979  15.88814   1.92451  -3.13625   1.53243
   3   26291.7    380.3   0.230988748   2.89233  -1.14367   1.16875  -0.46731
   4   28538.4    350.4   0.454239573   5.24000   2.06357   0.07767   0.98775
   5   28707.0    348.3   0.386048993   4.42721   1.55947   1.23050   0.69363
   6   29005.4    344.8   0.027458090   0.31165  -0.45292  -0.24256  -0.21836
   7   30451.2    328.4   0.195644297   2.11513  -1.06114   0.98731  -0.11976
   8   30913.1    323.5   0.014559208   0.15505   0.38237  -0.09083  -0.02441
   9   31724.4    315.2   0.114427265   1.18744  -1.05358  -0.27024   0.06623
  10   32356.8    309.1   0.009026853   0.09184  -0.10654  -0.21464   0.18553
  11   32505.6    307.6   0.195516954   1.98016  -0.41754   1.11099  -0.75600
  12   32715.3    305.7   0.037547113   0.37783  -0.60408  -0.10036   0.05338
  13   33334.5    300.0   0.002507941   0.02477  -0.07869   0.01502  -0.13546
  14   33456.0    298.9   0.001986575   0.01955   0.06753  -0.10094   0.06927
  15   33840.6    295.5   0.011754029   0.11435   0.05485   0.33364  -0.00504
  16   34437.0    290.4   0.120058911   1.14774  -0.97020  -0.44837   0.07358
  17   34555.7    289.4   0.023789361   0.22664  -0.30814   0.04983  -0.35946
  18   35637.9    280.6   0.051423331   0.47503   0.49447   0.18680   0.44231
  19   35857.6    278.9   0.195274489   1.79283   0.90915   0.86530  -0.46640
  20   36163.2    276.5   0.073143918   0.66587   0.38480   0.64666  -0.31563
  21   36355.5    275.1   0.000409572   0.00371  -0.05002   0.03381   0.00800
  22   36364.4    275.0   0.041984330   0.38009  -0.29599   0.53660   0.06738
  23   37365.0    267.6   0.068164876   0.60058   0.73684   0.07399  -0.22841
  24   37425.1    267.2   0.001486561   0.01308  -0.04292   0.04480   0.09606
  25   37662.7    265.5   0.044073364   0.38525  -0.12879   0.59711   0.11009
  26   37935.8    263.6   0.015802911   0.13714  -0.31945   0.15186  -0.10969
  27   38142.3    262.2   0.005278704   0.04556  -0.13777  -0.09968   0.12902
  28   38251.8    261.4   0.056961736   0.49024  -0.52582   0.37427  -0.27142
  29   38301.7    261.1   0.011926944   0.10251  -0.28809   0.09800  -0.09959
  30   38479.8    259.9   0.023118206   0.19779  -0.05056  -0.26453   0.35391
  31   38943.6    256.8   0.079746502   0.67414  -0.71130  -0.40086   0.08663
  32   39766.5    251.5   0.285480385   2.36339  -1.09392   0.90105  -0.59568

FINAL SINGLE POINT ENERGY     -4630.897148231576

DIPOLE MOMENT
-------------
                                X             Y             Z
Electronic contribution:     30.50448      29.51011      -9.56066
Nuclear contribution   :    -29.28644     -29.06958       9.38120
                        -----------------------------------------
Total Dipole Moment    :      1.21804       0.44053      -0.17946
                        -----------------------------------------
Magnitude (a.u.)       :      1.30763
Magnitude (Debye)      :      3.32373

Rotational constants in cm-1:     0.001461     0.000306     0.000270
Rotational constants in MHz :    43.805974     9.186070     8.102168

                             ****ORCA TERMINATED NORMALLY****
TOTAL RUN TIME: 0 days 0 hours 8 minutes 34 seconds 381 msec
