                         Program Version 4.2.0 -  RELEASE  -
|  1> # ORCA input file
|  2> # SCF done       -169.363136338592          0.000607930830
|  3> ! CAM-B3LYP def2-SVP def2/J RIJCOSX Grid4 TightSCF
|  4> %maxcore 5000
|  5> %tddft
|  6>     Mode sTDDFT
|  7>     Ethresh 5.0
|  8>     maxcore 5000
|  9> end
| 10>
| 11> %pal
| 12>   nprocs 6
| 13>   end
| 14> * xyz 0 1
| 15>    C        4.40407       -11.13554        -6.40880
| 16>    C        4.97308       -10.09240        -5.79295
| 17>    C        5.69435        -9.00393        -6.39055
| 18>    C        6.10574        -8.06051        -5.51762
| 19>    C        5.74214        -8.31046        -4.16238
| 20>    S        4.91055        -9.84933        -4.03995
| 21>    C        5.93420        -7.49638        -3.07892
| 22>    C        6.58361        -6.23297        -3.07090
| 23>    C        6.60867        -5.64591        -1.85434
| 24>    C        5.98712        -6.39721        -0.80381
| 25>    S        5.37216        -7.90784        -1.46143
| 26>    C        5.90470        -5.90729         0.46255
| 27>    C        5.35177        -6.39006         1.69986
| 28>    C        4.96914        -7.71340         1.97156
| 29>    O        5.08745        -8.66677         0.98502
| 30>    C        6.05981        -9.67872         1.19786
| 31>    C        7.48421        -9.13505         1.19806
| 32>    C        4.47292        -8.06147         3.24398
| 33>    C        4.37552        -7.07978         4.22510
| 34>    C        4.75288        -5.76405         3.97351
| 35>    C        5.23510        -5.43065         2.72275
| 36>    O        4.60329        -4.89477         5.01446
| 37>    C        4.94416        -3.54564         4.81491
| 38>    C        4.03479        -9.41592         3.53012
| 39>    C        4.12496        -9.97836         4.75843
| 40>    C        3.68682       -11.26260         5.17041
| 41>    C        2.96475       -12.19900         4.48236
| 42>    C        2.55409       -13.45821         5.00605
| 43>    C        1.82578       -14.22196         4.15045
| 44>    C        1.61485       -13.62325         2.88718
| 45>    S        2.37620       -12.04072         2.83650
| 46>    C        0.95868       -14.10721         1.78028
| 47>    C        0.36955       -15.37831         1.56161
| 48>    C       -0.12105       -15.53685         0.30721
| 49>    C        0.04812       -14.40884        -0.55527
| 50>    S        0.85247       -13.12955         0.33416
| 51>    C       -0.42386       -14.33573        -1.83150
| 52>    C       -0.39862       -13.24392        -2.76768
| 53>    C        0.56297       -12.20111        -2.72611
| 54>    O        1.63001       -12.47098        -1.94131
| 55>    C        2.80905       -11.69048        -1.90173
| 56>    C        3.95985       -12.60773        -1.51422
| 57>    C        0.39375       -11.06870        -3.53890
| 58>    C       -0.61049       -11.07608        -4.51531
| 59>    C       -1.47395       -12.15048        -4.65309
| 60>    C       -1.38068       -13.20867        -3.75694
| 61>    O       -2.46412       -12.24370        -5.58945
| 62>    C       -2.60439       -11.19551        -6.51622
| 63>    C        1.15921        -9.84824        -3.35629
| 64>    C        1.56695        -9.01877        -4.34182
| 65>    C        2.26520        -7.81569        -4.08187
| 66>    C        2.84515        -7.03565        -5.03689
| 67>    C        3.59583        -5.84610        -4.83012
| 68>    C        4.14174        -5.32422        -5.95597
| 69>    C        3.86041        -6.06572        -7.13404
| 70>    S        2.82446        -7.42862        -6.75553
| 71>    C        4.32110        -5.83406        -8.40452
| 72>    C        5.15621        -4.77083        -8.84722
| 73>    C        5.45889        -4.80698       -10.16332
| 74>    C        4.88387        -5.91214       -10.87610
| 75>    S        3.93632        -6.89759        -9.74971
| 76>    C        5.00809        -6.20111       -12.17830
| 77>    H        4.46012       -11.23568        -7.47811
| 78>    H        3.87159       -11.89401        -5.86450
| 79>    H        5.85363        -8.97247        -7.45392
| 80>    H        6.64554        -7.17263        -5.79675
| 81>    H        7.00476        -5.80342        -3.96251
| 82>    H        7.05219        -4.68572        -1.65300
| 83>    H        6.33287        -4.91394         0.55882
| 84>    H        5.91341       -10.37157         0.36603
| 85>    H        5.86372       -10.20277         2.14183
| 86>    H        7.69698        -8.62922         0.25967
| 87>    H        8.18705        -9.95380         1.32577
| 88>    H        7.61659        -8.42643         2.01369
| 89>    H        3.96810        -7.31523         5.19441
| 90>    H        5.52873        -4.41705         2.49885
| 91>    H        4.73605        -3.04596         5.75968
| 92>    H        4.33836        -3.08997         4.02463
| 93>    H        6.00567        -3.42936         4.57208
| 94>    H        3.62929        -9.96706         2.69435
| 95>    H        4.61125        -9.40345         5.53715
| 96>    H        3.94163       -11.53923         6.18654
| 97>    H        2.81573       -13.75073         6.00831
| 98>    H        1.43264       -15.19502         4.38700
| 99>    H        0.34360       -16.13434         2.32684
|100>    H       -0.59906       -16.43364        -0.04803
|101>    H       -0.98193       -15.20224        -2.16683
|102>    H        2.71311       -10.89813        -1.15074
|103>    H        2.99661       -11.23932        -2.88056
|104>    H        4.04002       -13.43036        -2.21973
|105>    H        3.79372       -13.01292        -0.52029
|106>    H        4.88508       -12.03952        -1.52292
|107>    H       -0.71419       -10.19576        -5.12815
|108>    H       -2.10616       -14.00365        -3.82562
|109>    H       -1.69119       -11.05050        -7.10250
|110>    H       -2.87190       -10.25477        -6.02346
|111>    H       -3.41416       -11.49539        -7.17956
|112>    H        1.37186        -9.56322        -2.33542
|113>    H        1.42041        -9.28552        -5.38096
|114>    H        2.38058        -7.51134        -3.04979
|115>    H        3.71294        -5.43090        -3.84430
|116>    H        4.74745        -4.43556        -5.98039
|117>    H        5.50000        -4.01108        -8.16714
|118>    H        6.07437        -4.08755       -10.67408
|119>    H        5.59375        -5.57281       -12.82592
|120>    H        4.53181        -7.05904       -12.61583
|121> *
|122>
|123>                          ****END OF INPUT****

CARTESIAN COORDINATES (ANGSTROEM)
---------------------------------
  C      4.404070  -11.135540   -6.408800
  C      4.973080  -10.092400   -5.792950
  C      5.694350   -9.003930   -6.390550
  C      6.105740   -8.060510   -5.517620
  C      5.742140   -8.310460   -4.162380
  S      4.910550   -9.849330   -4.039950
  C      5.934200   -7.496380   -3.078920
  C      6.583610   -6.232970   -3.070900
  C      6.608670   -5.645910   -1.854340
  C      5.987120   -6.397210   -0.803810
  S      5.372160   -7.907840   -1.461430
  C      5.904700   -5.907290    0.462550
  C      5.351770   -6.390060    1.699860
  C      4.969140   -7.713400    1.971560
  O      5.087450   -8.666770    0.985020
  C      6.059810   -9.678720    1.197860
  C      7.484210   -9.135050    1.198060
  C      4.472920   -8.061470    3.243980
  C      4.375520   -7.079780    4.225100
  C      4.752880   -5.764050    3.973510
  C      5.235100   -5.430650    2.722750
  O      4.603290   -4.894770    5.014460
  C      4.944160   -3.545640    4.814910
  C      4.034790   -9.415920    3.530120
  C      4.124960   -9.978360    4.758430
  C      3.686820  -11.262600    5.170410
  C      2.964750  -12.199000    4.482360
  C      2.554090  -13.458210    5.006050
  C      1.825780  -14.221960    4.150450
  C      1.614850  -13.623250    2.887180
  S      2.376200  -12.040720    2.836500
  C      0.958680  -14.107210    1.780280
  C      0.369550  -15.378310    1.561610
  C     -0.121050  -15.536850    0.307210
  C      0.048120  -14.408840   -0.555270
  S      0.852470  -13.129550    0.334160
  C     -0.423860  -14.335730   -1.831500
  C     -0.398620  -13.243920   -2.767680
  C      0.562970  -12.201110   -2.726110
  O      1.630010  -12.470980   -1.941310
  C      2.809050  -11.690480   -1.901730
  C      3.959850  -12.607730   -1.514220
  C      0.393750  -11.068700   -3.538900
  C     -0.610490  -11.076080   -4.515310
  C     -1.473950  -12.150480   -4.653090
  C     -1.380680  -13.208670   -3.756940
  O     -2.464120  -12.243700   -5.589450
  C     -2.604390  -11.195510   -6.516220
  C      1.159210   -9.848240   -3.356290
  C      1.566950   -9.018770   -4.341820
  C      2.265200   -7.815690   -4.081870
  C      2.845150   -7.035650   -5.036890
  C      3.595830   -5.846100   -4.830120
  C      4.141740   -5.324220   -5.955970
  C      3.860410   -6.065720   -7.134040
  S      2.824460   -7.428620   -6.755530
  C      4.321100   -5.834060   -8.404520
  C      5.156210   -4.770830   -8.847220
  C      5.458890   -4.806980  -10.163320
  C      4.883870   -5.912140  -10.876100
  S      3.936320   -6.897590   -9.749710
  C      5.008090   -6.201110  -12.178300
  H      4.460120  -11.235680   -7.478110
  H      3.871590  -11.894010   -5.864500
  H      5.853630   -8.972470   -7.453920
  H      6.645540   -7.172630   -5.796750
  H      7.004760   -5.803420   -3.962510
  H      7.052190   -4.685720   -1.653000
  H      6.332870   -4.913940    0.558820
  H      5.913410  -10.371570    0.366030
  H      5.863720  -10.202770    2.141830
  H      7.696980   -8.629220    0.259670
  H      8.187050   -9.953800    1.325770
  H      7.616590   -8.426430    2.013690
  H      3.968100   -7.315230    5.194410
  H      5.528730   -4.417050    2.498850
  H      4.736050   -3.045960    5.759680
  H      4.338360   -3.089970    4.024630
  H      6.005670   -3.429360    4.572080
  H      3.629290   -9.967060    2.694350
  H      4.611250   -9.403450    5.537150
  H      3.941630  -11.539230    6.186540
  H      2.815730  -13.750730    6.008310
  H      1.432640  -15.195020    4.387000
  H      0.343600  -16.134340    2.326840
  H     -0.599060  -16.433640   -0.048030
  H     -0.981930  -15.202240   -2.166830
  H      2.713110  -10.898130   -1.150740
  H      2.996610  -11.239320   -2.880560
  H      4.040020  -13.430360   -2.219730
  H      3.793720  -13.012920   -0.520290
  H      4.885080  -12.039520   -1.522920
  H     -0.714190  -10.195760   -5.128150
  H     -2.106160  -14.003650   -3.825620
  H     -1.691190  -11.050500   -7.102500
  H     -2.871900  -10.254770   -6.023460
  H     -3.414160  -11.495390   -7.179560
  H      1.371860   -9.563220   -2.335420
  H      1.420410   -9.285520   -5.380960
  H      2.380580   -7.511340   -3.049790
  H      3.712940   -5.430900   -3.844300
  H      4.747450   -4.435560   -5.980390
  H      5.500000   -4.011080   -8.167140
  H      6.074370   -4.087550  -10.674080
  H      5.593750   -5.572810  -12.825920
  H      4.531810   -7.059040  -12.615830

 Total Charge           Charge          ....    0
 Multiplicity           Mult            ....    1
 Number of Electrons    NEL             ....  484
 Basis Dimension        Dim             .... 1112

ORBITAL ENERGIES
----------------

  NO   OCC          E(Eh)            E(eV)
   0   2.0000     -88.931802     -2419.9574
   1   2.0000     -88.931474     -2419.9484
   2   2.0000     -88.930215     -2419.9142
   3   2.0000     -88.929186     -2419.8862
   4   2.0000     -88.927980     -2419.8534
   5   2.0000     -88.925832     -2419.7949
   6   2.0000     -19.233179      -523.3614
   7   2.0000     -19.232687      -523.3480
   8   2.0000     -19.227287      -523.2011
   9   2.0000     -19.224188      -523.1168
  10   2.0000     -10.321014      -280.8491
  11   2.0000     -10.317420      -280.7513
  12   2.0000     -10.315244      -280.6921
  13   2.0000     -10.312104      -280.6066
  14   2.0000     -10.311189      -280.5817
  15   2.0000     -10.309984      -280.5489
  16   2.0000     -10.305672      -280.4316
  17   2.0000     -10.303786      -280.3803
  18   2.0000     -10.299569      -280.2655
  19   2.0000     -10.297527      -280.2099
  20   2.0000     -10.296974      -280.1949
  21   2.0000     -10.296548      -280.1833
  22   2.0000     -10.295741      -280.1614
  23   2.0000     -10.294415      -280.1253
  24   2.0000     -10.293394      -280.0975
  25   2.0000     -10.293181      -280.0917
  26   2.0000     -10.292457      -280.0720
  27   2.0000     -10.290882      -280.0291
  28   2.0000     -10.290677      -280.0236
  29   2.0000     -10.289511      -279.9918
  30   2.0000     -10.281343      -279.7696
  31   2.0000     -10.275767      -279.6178
  32   2.0000     -10.275517      -279.6110
  33   2.0000     -10.274641      -279.5872
  34   2.0000     -10.274543      -279.5845
  35   2.0000     -10.274480      -279.5828
  36   2.0000     -10.274419      -279.5811
  37   2.0000     -10.273767      -279.5634
  38   2.0000     -10.273591      -279.5586
  39   2.0000     -10.273477      -279.5555
  40   2.0000     -10.272950      -279.5412
  41   2.0000     -10.270727      -279.4807
  42   2.0000     -10.270582      -279.4767
  43   2.0000     -10.269483      -279.4468
  44   2.0000     -10.269345      -279.4431
  45   2.0000     -10.269214      -279.4395
  46   2.0000     -10.268408      -279.4176
  47   2.0000     -10.268066      -279.4083
  48   2.0000     -10.266662      -279.3701
  49   2.0000     -10.265768      -279.3458
  50   2.0000     -10.261773      -279.2370
  51   2.0000     -10.261522      -279.2302
  52   2.0000     -10.261323      -279.2248
  53   2.0000     -10.259304      -279.1699
  54   2.0000     -10.259083      -279.1638
  55   2.0000     -10.259053      -279.1630
  56   2.0000     -10.258168      -279.1389
  57   2.0000     -10.257871      -279.1309
  58   2.0000     -10.255522      -279.0669
  59   2.0000     -10.254160      -279.0299
  60   2.0000     -10.243621      -278.7431
  61   2.0000     -10.241466      -278.6845
  62   2.0000      -8.027434      -218.4376
  63   2.0000      -8.025796      -218.3930
  64   2.0000      -8.025685      -218.3900
  65   2.0000      -8.025542      -218.3861
  66   2.0000      -8.023326      -218.3258
  67   2.0000      -8.020928      -218.2605
  68   2.0000      -5.997178      -163.1915
  69   2.0000      -5.995611      -163.1489
  70   2.0000      -5.995507      -163.1460
  71   2.0000      -5.995464      -163.1449
  72   2.0000      -5.993219      -163.0838
  73   2.0000      -5.993110      -163.0808
  74   2.0000      -5.991710      -163.0427
  75   2.0000      -5.991665      -163.0415
  76   2.0000      -5.991357      -163.0331
  77   2.0000      -5.990848      -163.0193
  78   2.0000      -5.989306      -162.9773
  79   2.0000      -5.988457      -162.9542
  80   2.0000      -5.986542      -162.9021
  81   2.0000      -5.986516      -162.9014
  82   2.0000      -5.986388      -162.8979
  83   2.0000      -5.986212      -162.8931
  84   2.0000      -5.983962      -162.8319
  85   2.0000      -5.981793      -162.7729
  86   2.0000      -1.140912       -31.0458
  87   2.0000      -1.136715       -30.9316
  88   2.0000      -1.130990       -30.7758
  89   2.0000      -1.127804       -30.6891
  90   2.0000      -0.981877       -26.7182
  91   2.0000      -0.979348       -26.6494
  92   2.0000      -0.977131       -26.5891
  93   2.0000      -0.958492       -26.0819
  94   2.0000      -0.957186       -26.0464
  95   2.0000      -0.955029       -25.9877
  96   2.0000      -0.941444       -25.6180
  97   2.0000      -0.940768       -25.5996
  98   2.0000      -0.899890       -24.4873
  99   2.0000      -0.895187       -24.3593
 100   2.0000      -0.879933       -23.9442
 101   2.0000      -0.874648       -23.8004
 102   2.0000      -0.863104       -23.4863
 103   2.0000      -0.856990       -23.3199
 104   2.0000      -0.851470       -23.1697
 105   2.0000      -0.848127       -23.0787
 106   2.0000      -0.840921       -22.8826
 107   2.0000      -0.834589       -22.7103
 108   2.0000      -0.832166       -22.6444
 109   2.0000      -0.831420       -22.6241
 110   2.0000      -0.828788       -22.5525
 111   2.0000      -0.818610       -22.2755
 112   2.0000      -0.813597       -22.1391
 113   2.0000      -0.810681       -22.0597
 114   2.0000      -0.807336       -21.9687
 115   2.0000      -0.805119       -21.9084
 116   2.0000      -0.802320       -21.8322
 117   2.0000      -0.792165       -21.5559
 118   2.0000      -0.773601       -21.0508
 119   2.0000      -0.770047       -20.9540
 120   2.0000      -0.762109       -20.7380
 121   2.0000      -0.756823       -20.5942
 122   2.0000      -0.754292       -20.5253
 123   2.0000      -0.727844       -19.8056
 124   2.0000      -0.725819       -19.7505
 125   2.0000      -0.717214       -19.5164
 126   2.0000      -0.702524       -19.1166
 127   2.0000      -0.698769       -19.0145
 128   2.0000      -0.688385       -18.7319
 129   2.0000      -0.678003       -18.4494
 130   2.0000      -0.675981       -18.3944
 131   2.0000      -0.662655       -18.0318
 132   2.0000      -0.658990       -17.9320
 133   2.0000      -0.656795       -17.8723
 134   2.0000      -0.652006       -17.7420
 135   2.0000      -0.642783       -17.4910
 136   2.0000      -0.635701       -17.2983
 137   2.0000      -0.625245       -17.0138
 138   2.0000      -0.623036       -16.9537
 139   2.0000      -0.616384       -16.7727
 140   2.0000      -0.612834       -16.6761
 141   2.0000      -0.611077       -16.6283
 142   2.0000      -0.609748       -16.5921
 143   2.0000      -0.606679       -16.5086
 144   2.0000      -0.604866       -16.4593
 145   2.0000      -0.595188       -16.1959
 146   2.0000      -0.591163       -16.0864
 147   2.0000      -0.588790       -16.0218
 148   2.0000      -0.588115       -16.0034
 149   2.0000      -0.584870       -15.9151
 150   2.0000      -0.582105       -15.8399
 151   2.0000      -0.578377       -15.7384
 152   2.0000      -0.573835       -15.6148
 153   2.0000      -0.563785       -15.3414
 154   2.0000      -0.559257       -15.2182
 155   2.0000      -0.556011       -15.1298
 156   2.0000      -0.549740       -14.9592
 157   2.0000      -0.545485       -14.8434
 158   2.0000      -0.543110       -14.7788
 159   2.0000      -0.540049       -14.6955
 160   2.0000      -0.538931       -14.6651
 161   2.0000      -0.536054       -14.5868
 162   2.0000      -0.534308       -14.5393
 163   2.0000      -0.523651       -14.2493
 164   2.0000      -0.516565       -14.0564
 165   2.0000      -0.514053       -13.9881
 166   2.0000      -0.510932       -13.9032
 167   2.0000      -0.507677       -13.8146
 168   2.0000      -0.504864       -13.7380
 169   2.0000      -0.500017       -13.6062
 170   2.0000      -0.498133       -13.5549
 171   2.0000      -0.498051       -13.5527
 172   2.0000      -0.496704       -13.5160
 173   2.0000      -0.494882       -13.4664
 174   2.0000      -0.489508       -13.3202
 175   2.0000      -0.487217       -13.2578
 176   2.0000      -0.485462       -13.2101
 177   2.0000      -0.485123       -13.2009
 178   2.0000      -0.480338       -13.0707
 179   2.0000      -0.478911       -13.0318
 180   2.0000      -0.476587       -12.9686
 181   2.0000      -0.475956       -12.9514
 182   2.0000      -0.474186       -12.9033
 183   2.0000      -0.472921       -12.8688
 184   2.0000      -0.469548       -12.7771
 185   2.0000      -0.468306       -12.7433
 186   2.0000      -0.466361       -12.6903
 187   2.0000      -0.463467       -12.6116
 188   2.0000      -0.458676       -12.4812
 189   2.0000      -0.457569       -12.4511
 190   2.0000      -0.454344       -12.3633
 191   2.0000      -0.453451       -12.3390
 192   2.0000      -0.452181       -12.3045
 193   2.0000      -0.446947       -12.1621
 194   2.0000      -0.446182       -12.1412
 195   2.0000      -0.444499       -12.0954
 196   2.0000      -0.442997       -12.0546
 197   2.0000      -0.440990       -11.9999
 198   2.0000      -0.440082       -11.9752
 199   2.0000      -0.437301       -11.8996
 200   2.0000      -0.434281       -11.8174
 201   2.0000      -0.432060       -11.7570
 202   2.0000      -0.427222       -11.6253
 203   2.0000      -0.424076       -11.5397
 204   2.0000      -0.419858       -11.4249
 205   2.0000      -0.415802       -11.3146
 206   2.0000      -0.413300       -11.2465
 207   2.0000      -0.410403       -11.1676
 208   2.0000      -0.409147       -11.1335
 209   2.0000      -0.408138       -11.1060
 210   2.0000      -0.405746       -11.0409
 211   2.0000      -0.404093       -10.9959
 212   2.0000      -0.400244       -10.8912
 213   2.0000      -0.397186       -10.8080
 214   2.0000      -0.393754       -10.7146
 215   2.0000      -0.391816       -10.6619
 216   2.0000      -0.390645       -10.6300
 217   2.0000      -0.385505       -10.4901
 218   2.0000      -0.383786       -10.4434
 219   2.0000      -0.380017       -10.3408
 220   2.0000      -0.371526       -10.1097
 221   2.0000      -0.368213       -10.0196
 222   2.0000      -0.360423        -9.8076
 223   2.0000      -0.358034        -9.7426
 224   2.0000      -0.348627        -9.4866
 225   2.0000      -0.339450        -9.2369
 226   2.0000      -0.338292        -9.2054
 227   2.0000      -0.327698        -8.9171
 228   2.0000      -0.325699        -8.8627
 229   2.0000      -0.320079        -8.7098
 230   2.0000      -0.316799        -8.6205
 231   2.0000      -0.315435        -8.5834
 232   2.0000      -0.305903        -8.3240
 233   2.0000      -0.300343        -8.1727
 234   2.0000      -0.296309        -8.0630
 235   2.0000      -0.285348        -7.7647
 236   2.0000      -0.270944        -7.3728
 237   2.0000      -0.263145        -7.1605
 238   2.0000      -0.250449        -6.8151
 239   2.0000      -0.210106        -5.7173
 240   2.0000      -0.206349        -5.6150
 241   2.0000      -0.202056        -5.4982
 242   0.0000      -0.060867        -1.6563
 243   0.0000      -0.053330        -1.4512
 244   0.0000      -0.048935        -1.3316
 245   0.0000      -0.002095        -0.0570
 246   0.0000       0.008196         0.2230

MULLIKEN ATOMIC CHARGES
-----------------------
   0 C :   -0.037591
   1 C :   -0.059707
   2 C :    0.075688
   3 C :    0.035646
   4 C :   -0.063765
   5 S :    0.044575
   6 C :   -0.044898
   7 C :    0.031851
   8 C :    0.020820
   9 C :    0.000002
  10 S :    0.093876
  11 C :   -0.090737
  12 C :    0.134873
  13 C :    0.089580
  14 O :   -0.360902
  15 C :    0.177688
  16 C :   -0.017210
  17 C :    0.078641
  18 C :   -0.103676
  19 C :    0.282924
  20 C :   -0.189070
  21 O :   -0.312680
  22 C :    0.180681
  23 C :   -0.061835
  24 C :    0.015440
  25 C :   -0.016149
  26 C :   -0.014184
  27 C :    0.031862
  28 C :    0.031695
  29 C :   -0.043927
  30 S :    0.044943
  31 C :   -0.042217
  32 C :    0.026237
  33 C :    0.038364
  34 C :   -0.002376
  35 S :    0.090367
  36 C :   -0.039486
  37 C :    0.067690
  38 C :    0.151432
  39 O :   -0.333678
  40 C :    0.124213
  41 C :    0.021341
  42 C :    0.011584
  43 C :   -0.149537
  44 C :    0.263964
  45 C :   -0.083589
  46 O :   -0.317229
  47 C :    0.181092
  48 C :   -0.033919
  49 C :    0.010410
  50 C :   -0.005962
  51 C :   -0.026638
  52 C :    0.065057
  53 C :    0.001208
  54 C :   -0.040687
  55 S :    0.058808
  56 C :   -0.077931
  57 C :    0.029232
  58 C :    0.045553
  59 C :   -0.060330
  60 S :    0.063751
  61 C :   -0.038288
  62 H :    0.020171
  63 H :    0.020012
  64 H :   -0.012439
  65 H :   -0.017160
  66 H :   -0.024695
  67 H :   -0.021539
  68 H :   -0.028145
  69 H :    0.016411
  70 H :    0.025534
  71 H :    0.028718
  72 H :    0.014752
  73 H :    0.025862
  74 H :   -0.029920
  75 H :   -0.045058
  76 H :    0.033560
  77 H :    0.020110
  78 H :    0.017805
  79 H :    0.027964
  80 H :   -0.013146
  81 H :   -0.023579
  82 H :   -0.018665
  83 H :   -0.018019
  84 H :   -0.018358
  85 H :   -0.016248
  86 H :   -0.019643
  87 H :    0.022743
  88 H :    0.055758
  89 H :    0.014500
  90 H :    0.022132
  91 H :    0.019706
  92 H :   -0.036997
  93 H :   -0.030235
  94 H :    0.018587
  95 H :    0.020366
  96 H :    0.032195
  97 H :    0.009834
  98 H :    0.000403
  99 H :   -0.012068
 100 H :   -0.008728
 101 H :   -0.023003
 102 H :   -0.017801
 103 H :   -0.016409
 104 H :    0.014994
 105 H :    0.016853
Sum of atomic charges:   -0.0000000

LOEWDIN ATOMIC CHARGES
----------------------
   0 C :   -0.081400
   1 C :   -0.138264
   2 C :   -0.028841
   3 C :   -0.028400
   4 C :   -0.175552
   5 S :    0.373740
   6 C :   -0.193034
   7 C :   -0.036493
   8 C :   -0.038264
   9 C :   -0.145856
  10 S :    0.391812
  11 C :   -0.059678
  12 C :   -0.037634
  13 C :    0.033305
  14 O :   -0.130819
  15 C :    0.076557
  16 C :   -0.073520
  17 C :   -0.032874
  18 C :   -0.034495
  19 C :    0.047755
  20 C :   -0.071655
  21 O :   -0.109315
  22 C :    0.074308
  23 C :   -0.032850
  24 C :   -0.033366
  25 C :   -0.077141
  26 C :   -0.138385
  27 C :   -0.038411
  28 C :   -0.035025
  29 C :   -0.188227
  30 S :    0.376604
  31 C :   -0.175664
  32 C :   -0.043435
  33 C :   -0.023261
  34 C :   -0.148046
  35 S :    0.405670
  36 C :   -0.043703
  37 C :   -0.045679
  38 C :    0.046406
  39 O :   -0.097685
  40 C :    0.077347
  41 C :   -0.063265
  42 C :   -0.061917
  43 C :   -0.058453
  44 C :    0.037574
  45 C :   -0.028765
  46 O :   -0.113235
  47 C :    0.074378
  48 C :   -0.006534
  49 C :   -0.040774
  50 C :   -0.043725
  51 C :   -0.152535
  52 C :   -0.018609
  53 C :   -0.048098
  54 C :   -0.173360
  55 S :    0.368028
  56 C :   -0.192364
  57 C :   -0.028278
  58 C :   -0.041198
  59 C :   -0.138711
  60 S :    0.337098
  61 C :   -0.089742
  62 H :    0.029022
  63 H :    0.024982
  64 H :    0.031955
  65 H :    0.029612
  66 H :    0.027199
  67 H :    0.028890
  68 H :    0.031112
  69 H :    0.017755
  70 H :    0.014981
  71 H :    0.024615
  72 H :    0.029739
  73 H :    0.027203
  74 H :    0.030877
  75 H :    0.023093
  76 H :    0.027637
  77 H :    0.013465
  78 H :    0.012424
  79 H :    0.013341
  80 H :    0.028486
  81 H :    0.030721
  82 H :    0.030629
  83 H :    0.030528
  84 H :    0.029090
  85 H :    0.031096
  86 H :    0.032857
  87 H :    0.014833
  88 H :    0.007029
  89 H :    0.026291
  90 H :    0.022731
  91 H :    0.025361
  92 H :    0.027239
  93 H :    0.031085
  94 H :    0.013168
  95 H :    0.013369
  96 H :    0.026979
  97 H :    0.031741
  98 H :    0.020330
  99 H :    0.031129
 100 H :    0.034832
 101 H :    0.026862
 102 H :    0.030128
 103 H :    0.031186
 104 H :    0.026392
 105 H :    0.023963

  Mayer bond orders larger than 0.100000
B(  0-C ,  1-C ) :   1.8760 B(  0-C , 62-H ) :   0.9487 B(  0-C , 63-H ) :   0.9389
B(  1-C ,  2-C ) :   1.0666 B(  1-C ,  5-S ) :   1.0083 B(  2-C ,  3-C ) :   1.6693
B(  2-C , 64-H ) :   0.9942 B(  3-C ,  4-C ) :   1.1396 B(  3-C , 65-H ) :   0.9860
B(  4-C ,  5-S ) :   1.0418 B(  4-C ,  6-C ) :   1.5847 B(  6-C ,  7-C ) :   1.1433
B(  6-C , 10-S ) :   0.9936 B(  7-C ,  8-C ) :   1.6226 B(  7-C , 66-H ) :   0.9962
B(  8-C ,  9-C ) :   1.0943 B(  8-C , 67-H ) :   0.9995 B(  9-C , 10-S ) :   1.0274
B(  9-C , 11-C ) :   1.6471 B( 11-C , 12-C ) :   1.0691 B( 11-C , 68-H ) :   0.9554
B( 12-C , 13-C ) :   1.3522 B( 12-C , 20-C ) :   1.2572 B( 13-C , 14-O ) :   1.0984
B( 13-C , 17-C ) :   1.3104 B( 14-O , 15-C ) :   0.9095 B( 15-C , 16-C ) :   1.1082
B( 15-C , 69-H ) :   0.9554 B( 15-C , 70-H ) :   0.9425 B( 16-C , 71-H ) :   0.9653
B( 16-C , 72-H ) :   0.9607 B( 16-C , 73-H ) :   0.9621 B( 17-C , 18-C ) :   1.3520
B( 17-C , 23-C ) :   1.0403 B( 18-C , 19-C ) :   1.3118 B( 18-C , 74-H ) :   1.0051
B( 19-C , 20-C ) :   1.2976 B( 19-C , 21-O ) :   1.1362 B( 20-C , 75-H ) :   1.0049
B( 21-O , 22-C ) :   0.9760 B( 22-C , 76-H ) :   0.9788 B( 22-C , 77-H ) :   0.9679
B( 22-C , 78-H ) :   0.9682 B( 23-C , 24-C ) :   1.6747 B( 23-C , 79-H ) :   0.9492
B( 24-C , 25-C ) :   1.1802 B( 24-C , 80-H ) :   0.9621 B( 25-C , 26-C ) :   1.5965
B( 25-C , 81-H ) :   0.9607 B( 26-C , 27-C ) :   1.1358 B( 26-C , 30-S ) :   1.0420
B( 27-C , 28-C ) :   1.6023 B( 27-C , 82-H ) :   0.9974 B( 28-C , 29-C ) :   1.1783
B( 28-C , 83-H ) :   0.9927 B( 29-C , 30-S ) :   1.0215 B( 29-C , 31-C ) :   1.5345
B( 31-C , 32-C ) :   1.1576 B( 31-C , 35-S ) :   1.0473 B( 32-C , 33-C ) :   1.6267
B( 32-C , 84-H ) :   0.9932 B( 33-C , 34-C ) :   1.1165 B( 33-C , 85-H ) :   0.9958
B( 34-C , 35-S ) :   1.0319 B( 34-C , 36-C ) :   1.6440 B( 36-C , 37-C ) :   1.0709
B( 36-C , 86-H ) :   0.9605 B( 37-C , 38-C ) :   1.2817 B( 37-C , 45-C ) :   1.3464
B( 38-C , 39-O ) :   1.1608 B( 38-C , 42-C ) :   1.3068 B( 39-O , 40-C ) :   0.8951
B( 40-C , 41-C ) :   1.1027 B( 40-C , 87-H ) :   0.9522 B( 40-C , 88-H ) :   0.9357
B( 41-C , 89-H ) :   0.9629 B( 41-C , 90-H ) :   0.9639 B( 41-C , 91-H ) :   0.9568
B( 42-C , 43-C ) :   1.3233 B( 42-C , 48-C ) :   1.0078 B( 43-C , 44-C ) :   1.2970
B( 43-C , 92-H ) :   0.9962 B( 44-C , 45-C ) :   1.3359 B( 44-C , 46-O ) :   1.1264
B( 45-C , 93-H ) :   1.0076 B( 46-O , 47-C ) :   0.9759 B( 47-C , 94-H ) :   0.9680
B( 47-C , 95-H ) :   0.9681 B( 47-C , 96-H ) :   0.9788 B( 48-C , 49-C ) :   1.7201
B( 48-C , 97-H ) :   0.9654 B( 49-C , 50-C ) :   1.1139 B( 49-C , 98-H ) :   0.9705
B( 50-C , 51-C ) :   1.6155 B( 50-C , 99-H ) :   0.9822 B( 51-C , 52-C ) :   1.1215
B( 51-C , 55-S ) :   1.0163 B( 52-C , 53-C ) :   1.6138 B( 52-C ,100-H ) :   0.9935
B( 53-C , 54-C ) :   1.1530 B( 53-C ,101-H ) :   0.9950 B( 54-C , 55-S ) :   1.0442
B( 54-C , 56-C ) :   1.5667 B( 56-C , 57-C ) :   1.1540 B( 56-C , 60-S ) :   1.0271
B( 57-C , 58-C ) :   1.6574 B( 57-C ,102-H ) :   0.9917 B( 58-C , 59-C ) :   1.0810
B( 58-C ,103-H ) :   0.9925 B( 59-C , 60-S ) :   1.0070 B( 59-C , 61-C ) :   1.8639
B( 61-C ,104-H ) :   0.9502 B( 61-C ,105-H ) :   0.9418

-----------------------------------------------------------------------------
         ABSORPTION SPECTRUM VIA TRANSITION ELECTRIC DIPOLE MOMENTS
-----------------------------------------------------------------------------
State   Energy  Wavelength   fosc         T2         TX        TY        TZ
        (cm-1)    (nm)                  (au**2)     (au)      (au)      (au)
-----------------------------------------------------------------------------
   0   16224.5    616.4   0.480778869   9.75553  -1.62908  -0.83713  -2.52999
   1   17659.2    566.3   0.075159729   1.40117   0.31505  -0.09348   1.13718
   2   17902.0    558.6   0.062455591   1.14854   0.24272  -0.14447   1.03380
   3   19541.7    511.7   1.188750564  20.02648   2.15413   2.28041  -3.19154
   4   19881.0    503.0   0.362937828   6.00994   0.75619   0.41457  -2.29483
   5   20559.0    486.4   0.091095662   1.45871   0.50939   0.64193  -0.88722
   6   20922.8    477.9   0.211872038   3.33373  -0.00567  -0.72949  -1.67378
   7   21312.3    469.2   1.266337228  19.56114   1.06069   2.05728   3.76878
   8   21501.3    465.1   0.166556093   2.55019   0.22863   0.92140   1.28411
   9   25705.7    389.0   0.080101976   1.02586   0.42854   0.90909   0.12557
  10   26947.1    371.1   0.075926738   0.92759   0.34111   0.90065  -0.00812
  11   28124.5    355.6   0.016127939   0.18879   0.02633  -0.24123  -0.36041
  12   29403.1    340.1   0.286201580   3.20446  -0.27698  -1.47783   0.97148
  13   29785.9    335.7   0.066817023   0.73850  -0.14598   0.17521   0.82855
  14   30231.6    330.8   0.125670191   1.36850   0.13941   1.04263  -0.51185
  15   30727.1    325.4   0.014890946   0.15954  -0.05125  -0.39606   0.00719
  16   30761.0    325.1   0.269326231   2.88240   0.09871   1.37280  -0.99402
  17   31597.9    316.5   0.112057897   1.16751  -0.30415  -0.62292   0.82884
  18   31995.1    312.5   0.007661946   0.07884  -0.13689  -0.22584   0.09535
  19   32168.4    310.9   0.072432303   0.74127   0.13709   0.78015   0.33742
  20   32919.5    303.8   0.132486914   1.32494  -0.13504  -0.77256   0.84253
  21   33167.7    301.5   0.012478463   0.12386  -0.18681  -0.04135  -0.29538
  22   33349.0    299.9   0.079090031   0.78075  -0.24526   0.49823   0.68729
  23   33652.0    297.2   0.241412292   2.36170   0.32072   1.23326  -0.85902
  24   33835.1    295.6   0.081725490   0.79518   0.21307   0.77286  -0.39046
  25   33875.8    295.2   0.127212209   1.23628  -0.66449  -0.79887  -0.39564
  26   34078.8    293.4   0.052891894   0.51095  -0.33164  -0.46590  -0.42885
  27   34244.1    292.0   0.022367897   0.21504  -0.00591  -0.23836  -0.39773
  28   34312.5    291.4   0.011866897   0.11386   0.15770   0.04862   0.29432
  29   34774.4    287.6   0.004155197   0.03934  -0.07286  -0.06402  -0.17301
  30   35128.3    284.7   0.001563333   0.01465   0.03021  -0.11338   0.02972
  31   35447.6    282.1   0.011622117   0.10794  -0.17416  -0.00854  -0.27845
  32   35644.5    280.5   0.000719035   0.00664   0.08005   0.00972  -0.01178
  33   35900.5    278.5   0.003558144   0.03263  -0.09791  -0.15168   0.00591
  34   36931.8    270.8   0.000987787   0.00881  -0.02572  -0.05619   0.07061
  35   37221.3    268.7   0.137491368   1.21607  -0.59549  -0.87851  -0.29948
  36   37371.3    267.6   0.030044202   0.26467   0.28939   0.31411  -0.28680
  37   38094.5    262.5   0.034786520   0.30062   0.02627   0.47227  -0.27730
  38   38322.4    260.9   0.079751375   0.68511   0.17817   0.08684   0.80363
  39   38658.6    258.7   0.043947038   0.37425  -0.37853  -0.28490   0.38703
  40   38718.3    258.3   0.003688906   0.03137  -0.07322   0.15715   0.03618
  41   38802.2    257.7   0.049692022   0.42161   0.01740   0.39508  -0.51499
  42   38959.8    256.7   0.008898448   0.07519  -0.06955   0.22826  -0.13511
  43   39428.7    253.6   0.108095765   0.90255   0.31456  -0.24136  -0.86334
  44   39849.1    250.9   0.049274077   0.40708   0.13487  -0.33211  -0.52782
  45   40288.5    248.2   0.006434817   0.05258  -0.01143  -0.16890   0.15467

FINAL SINGLE POINT ENERGY     -4694.185168670903

DIPOLE MOMENT
-------------
                                X             Y             Z
Electronic contribution:    -13.19301      -6.20367      -8.14104
Nuclear contribution   :     14.26636       7.18160       8.18063
                        -----------------------------------------
Total Dipole Moment    :      1.07335       0.97794       0.03959
                        -----------------------------------------
Magnitude (a.u.)       :      1.45258
Magnitude (Debye)      :      3.69218

Rotational constants in cm-1:     0.001314     0.000775     0.000540
Rotational constants in MHz :    39.388434    23.229448    16.181821

                             ****ORCA TERMINATED NORMALLY****
TOTAL RUN TIME: 0 days 0 hours 10 minutes 1 seconds 200 msec
