                         Program Version 4.2.0 -  RELEASE  -
|  1> # ORCA input file
|  2> # SCF done       -148.527555263731          0.000682436186
|  3> ! CAM-B3LYP def2-SVP def2/J RIJCOSX Grid4 TightSCF
|  4> %maxcore 5000
|  5> %tddft
|  6>     Mode sTDDFT
|  7>     Ethresh 5.0
|  8>     maxcore 5000
|  9> end
| 10>
| 11> %pal
| 12>   nprocs 6
| 13>   end
| 14> * xyz 0 1
| 15>    C        2.24253         3.19611         3.09706
| 16>    C        1.49510         2.38703         3.85921
| 17>    C        0.57850         2.75880         4.89985
| 18>    C       -0.03369         1.71794         5.50419
| 19>    C        0.34270         0.44034         4.99982
| 20>    S        1.51485         0.62274         3.70719
| 21>    C       -0.09718        -0.78726         5.42502
| 22>    C       -1.01653        -1.07399         6.46713
| 23>    C       -1.22704        -2.39828         6.66654
| 24>    C       -0.48976        -3.25898         5.80275
| 25>    S        0.46480        -2.28186         4.69552
| 26>    C       -0.48751        -4.62356         5.88426
| 27>    C        0.23420        -5.56637         5.11027
| 28>    C        0.88923        -5.33378         3.94803
| 29>    C        1.64893        -6.32039         3.23382
| 30>    C        2.10707        -6.12720         1.94907
| 31>    S        3.00524        -7.45003         1.34006
| 32>    C        2.80358        -8.30802         2.84605
| 33>    C        2.05815        -7.58292         3.73524
| 34>    C        3.41275        -9.57492         3.05369
| 35>    S        3.35045       -10.37312         4.60128
| 36>    C        4.32484       -11.73750         4.09413
| 37>    C        4.66950       -11.56000         2.76060
| 38>    C        4.16387       -10.35341         2.20277
| 39>    O        4.56093       -10.20730         0.92051
| 40>    C        5.32844       -11.29605         0.65255
| 41>    C        5.43931       -12.14314         1.70366
| 42>    C        4.65074       -12.84593         4.94908
| 43>    C        4.75422       -12.76226         6.35408
| 44>    C        4.50195       -11.49700         7.11166
| 45>    C        5.12700       -13.88898         7.05323
| 46>    C        5.39618       -15.12643         6.44872
| 47>    C        5.26214       -15.21455         5.04306
| 48>    C        4.90128       -14.08636         4.34079
| 49>    C        5.49573       -16.49774         4.30506
| 50>    C        5.79319       -16.26140         7.22647
| 51>    C        5.95263       -16.29221         8.57801
| 52>    C        6.35177       -17.46198         9.25356
| 53>    C        6.52350       -17.55495        10.61108
| 54>    C        6.92356       -18.72986        11.35664
| 55>    C        7.21185       -19.97440        10.85320
| 56>    C        7.59222       -21.07941        11.64164
| 57>    N        7.90556       -22.01917        12.22270
| 58>    C        7.17531       -20.34168         9.49279
| 59>    N        7.17313       -20.72930         8.41101
| 60>    C        6.97112       -18.36561        12.77015
| 61>    C        6.61415       -17.00202        12.90053
| 62>    C        6.31995       -16.44255        11.56558
| 63>    O        5.98072       -15.29909        11.33238
| 64>    C        6.56606       -16.35887        14.11276
| 65>    C        6.88435       -17.09832        15.25658
| 66>    C        7.23869       -18.46092        15.11838
| 67>    C        7.28882       -19.11040        13.89086
| 68>    S        7.59088       -19.18867        16.65725
| 69>    C        7.26206       -17.67229        17.45298
| 70>    C        6.90736       -16.67148        16.61275
| 71>   Br        7.41961       -17.55264        19.31847
| 72>    H        2.20118         4.26338         3.22466
| 73>    H        2.90213         2.81097         2.34133
| 74>    H        0.42254         3.79383         5.14767
| 75>    H       -0.74767         1.81472         6.30304
| 76>    H       -1.48340        -0.29332         7.04061
| 77>    H       -1.88450        -2.80231         7.41678
| 78>    H       -1.09385        -5.03538         6.68217
| 79>    H        0.22688        -6.57497         5.50271
| 80>    H        0.83840        -4.36177         3.48036
| 81>    H        1.94960        -5.26738         1.32835
| 82>    H        1.83816        -7.94402         4.72341
| 83>    H        5.74277       -11.34933        -0.33566
| 84>    H        6.00932       -13.04842         1.72716
| 85>    H        3.43890       -11.25770         7.11323
| 86>    H        5.03430       -10.65807         6.66722
| 87>    H        4.82655       -11.60692         8.14326
| 88>    H        5.21898       -13.80683         8.12455
| 89>    H        4.77211       -14.16057         3.27234
| 90>    H        4.83396       -17.28219         4.66960
| 91>    H        6.52416       -16.83463         4.43068
| 92>    H        5.30955       -16.36236         3.24266
| 93>    H        5.98888       -17.17792         6.68553
| 94>    H        5.77682       -15.41780         9.18296
| 95>    H        6.52875       -18.34053         8.64612
| 96>    H        6.29063       -15.31772        14.17672
| 97>    H        7.56481       -20.15037        13.84070
| 98>    H        6.67078       -15.67333        16.93375
| 99> *
|100>
|101>                          ****END OF INPUT****

CARTESIAN COORDINATES (ANGSTROEM)
---------------------------------
  C      2.242530    3.196110    3.097060
  C      1.495100    2.387030    3.859210
  C      0.578500    2.758800    4.899850
  C     -0.033690    1.717940    5.504190
  C      0.342700    0.440340    4.999820
  S      1.514850    0.622740    3.707190
  C     -0.097180   -0.787260    5.425020
  C     -1.016530   -1.073990    6.467130
  C     -1.227040   -2.398280    6.666540
  C     -0.489760   -3.258980    5.802750
  S      0.464800   -2.281860    4.695520
  C     -0.487510   -4.623560    5.884260
  C      0.234200   -5.566370    5.110270
  C      0.889230   -5.333780    3.948030
  C      1.648930   -6.320390    3.233820
  C      2.107070   -6.127200    1.949070
  S      3.005240   -7.450030    1.340060
  C      2.803580   -8.308020    2.846050
  C      2.058150   -7.582920    3.735240
  C      3.412750   -9.574920    3.053690
  S      3.350450  -10.373120    4.601280
  C      4.324840  -11.737500    4.094130
  C      4.669500  -11.560000    2.760600
  C      4.163870  -10.353410    2.202770
  O      4.560930  -10.207300    0.920510
  C      5.328440  -11.296050    0.652550
  C      5.439310  -12.143140    1.703660
  C      4.650740  -12.845930    4.949080
  C      4.754220  -12.762260    6.354080
  C      4.501950  -11.497000    7.111660
  C      5.127000  -13.888980    7.053230
  C      5.396180  -15.126430    6.448720
  C      5.262140  -15.214550    5.043060
  C      4.901280  -14.086360    4.340790
  C      5.495730  -16.497740    4.305060
  C      5.793190  -16.261400    7.226470
  C      5.952630  -16.292210    8.578010
  C      6.351770  -17.461980    9.253560
  C      6.523500  -17.554950   10.611080
  C      6.923560  -18.729860   11.356640
  C      7.211850  -19.974400   10.853200
  C      7.592220  -21.079410   11.641640
  N      7.905560  -22.019170   12.222700
  C      7.175310  -20.341680    9.492790
  N      7.173130  -20.729300    8.411010
  C      6.971120  -18.365610   12.770150
  C      6.614150  -17.002020   12.900530
  C      6.319950  -16.442550   11.565580
  O      5.980720  -15.299090   11.332380
  C      6.566060  -16.358870   14.112760
  C      6.884350  -17.098320   15.256580
  C      7.238690  -18.460920   15.118380
  C      7.288820  -19.110400   13.890860
  S      7.590880  -19.188670   16.657250
  C      7.262060  -17.672290   17.452980
  C      6.907360  -16.671480   16.612750
  Br     7.419610  -17.552640   19.318470
  H      2.201180    4.263380    3.224660
  H      2.902130    2.810970    2.341330
  H      0.422540    3.793830    5.147670
  H     -0.747670    1.814720    6.303040
  H     -1.483400   -0.293320    7.040610
  H     -1.884500   -2.802310    7.416780
  H     -1.093850   -5.035380    6.682170
  H      0.226880   -6.574970    5.502710
  H      0.838400   -4.361770    3.480360
  H      1.949600   -5.267380    1.328350
  H      1.838160   -7.944020    4.723410
  H      5.742770  -11.349330   -0.335660
  H      6.009320  -13.048420    1.727160
  H      3.438900  -11.257700    7.113230
  H      5.034300  -10.658070    6.667220
  H      4.826550  -11.606920    8.143260
  H      5.218980  -13.806830    8.124550
  H      4.772110  -14.160570    3.272340
  H      4.833960  -17.282190    4.669600
  H      6.524160  -16.834630    4.430680
  H      5.309550  -16.362360    3.242660
  H      5.988880  -17.177920    6.685530
  H      5.776820  -15.417800    9.182960
  H      6.528750  -18.340530    8.646120
  H      6.290630  -15.317720   14.176720
  H      7.564810  -20.150370   13.840700
  H      6.670780  -15.673330   16.933750

 Total Charge           Charge          ....    0
 Multiplicity           Mult            ....    1
 Number of Electrons    NEL             ....  454
 Basis Dimension        Dim             ....  971

ORBITAL ENERGIES
----------------

  NO   OCC          E(Eh)            E(eV)
   0   2.0000    -482.883019    -13139.9150
   1   2.0000     -88.972069     -2421.0531
   2   2.0000     -88.963297     -2420.8144
   3   2.0000     -88.952591     -2420.5230
   4   2.0000     -88.939210     -2420.1589
   5   2.0000     -88.934307     -2420.0255
   6   2.0000     -62.560716     -1702.3636
   7   2.0000     -56.394665     -1534.5769
   8   2.0000     -56.391954     -1534.5031
   9   2.0000     -56.391919     -1534.5021
  10   2.0000     -19.289790      -524.9019
  11   2.0000     -19.211279      -522.7655
  12   2.0000     -14.411112      -392.1463
  13   2.0000     -14.408894      -392.0859
  14   2.0000     -10.361785      -281.9585
  15   2.0000     -10.355776      -281.7950
  16   2.0000     -10.338805      -281.3332
  17   2.0000     -10.335562      -281.2449
  18   2.0000     -10.334658      -281.2203
  19   2.0000     -10.331736      -281.1408
  20   2.0000     -10.321550      -280.8637
  21   2.0000     -10.314367      -280.6682
  22   2.0000     -10.312377      -280.6141
  23   2.0000     -10.311591      -280.5926
  24   2.0000     -10.308223      -280.5010
  25   2.0000     -10.307442      -280.4797
  26   2.0000     -10.305676      -280.4317
  27   2.0000     -10.305262      -280.4204
  28   2.0000     -10.303697      -280.3778
  29   2.0000     -10.303186      -280.3639
  30   2.0000     -10.303031      -280.3597
  31   2.0000     -10.302990      -280.3586
  32   2.0000     -10.300981      -280.3039
  33   2.0000     -10.299699      -280.2691
  34   2.0000     -10.298769      -280.2438
  35   2.0000     -10.296589      -280.1844
  36   2.0000     -10.294496      -280.1275
  37   2.0000     -10.293679      -280.1053
  38   2.0000     -10.288716      -279.9702
  39   2.0000     -10.286977      -279.9229
  40   2.0000     -10.286724      -279.9160
  41   2.0000     -10.286376      -279.9065
  42   2.0000     -10.286319      -279.9050
  43   2.0000     -10.284915      -279.8668
  44   2.0000     -10.282013      -279.7878
  45   2.0000     -10.281445      -279.7723
  46   2.0000     -10.281152      -279.7644
  47   2.0000     -10.281061      -279.7619
  48   2.0000     -10.280188      -279.7381
  49   2.0000     -10.278930      -279.7039
  50   2.0000     -10.275035      -279.5979
  51   2.0000     -10.274390      -279.5804
  52   2.0000     -10.274327      -279.5787
  53   2.0000     -10.272012      -279.5157
  54   2.0000     -10.270975      -279.4874
  55   2.0000     -10.270595      -279.4771
  56   2.0000     -10.268929      -279.4318
  57   2.0000     -10.268870      -279.4302
  58   2.0000     -10.267138      -279.3830
  59   2.0000     -10.266347      -279.3615
  60   2.0000     -10.264544      -279.3125
  61   2.0000      -8.790133      -239.1917
  62   2.0000      -8.068032      -219.5423
  63   2.0000      -8.057537      -219.2567
  64   2.0000      -8.048306      -219.0055
  65   2.0000      -8.034886      -218.6404
  66   2.0000      -8.030985      -218.5342
  67   2.0000      -6.626416      -180.3139
  68   2.0000      -6.611874      -179.9182
  69   2.0000      -6.611685      -179.9131
  70   2.0000      -6.037727      -164.2949
  71   2.0000      -6.033457      -164.1787
  72   2.0000      -6.029252      -164.0643
  73   2.0000      -6.027101      -164.0058
  74   2.0000      -6.022759      -163.8876
  75   2.0000      -6.019461      -163.7979
  76   2.0000      -6.017672      -163.7492
  77   2.0000      -6.013260      -163.6291
  78   2.0000      -6.010495      -163.5539
  79   2.0000      -6.004699      -163.3962
  80   2.0000      -6.000825      -163.2907
  81   2.0000      -6.000595      -163.2845
  82   2.0000      -5.996912      -163.1843
  83   2.0000      -5.995818      -163.1545
  84   2.0000      -5.991493      -163.0368
  85   2.0000      -2.742283       -74.6213
  86   2.0000      -2.738208       -74.5104
  87   2.0000      -2.738070       -74.5067
  88   2.0000      -2.726513       -74.1922
  89   2.0000      -2.726487       -74.1915
  90   2.0000      -1.209196       -32.9039
  91   2.0000      -1.125075       -30.6149
  92   2.0000      -1.018201       -27.7067
  93   2.0000      -1.008657       -27.4470
  94   2.0000      -0.995304       -27.0836
  95   2.0000      -0.988763       -26.9056
  96   2.0000      -0.986939       -26.8560
  97   2.0000      -0.984198       -26.7814
  98   2.0000      -0.976990       -26.5853
  99   2.0000      -0.964139       -26.2356
 100   2.0000      -0.962803       -26.1992
 101   2.0000      -0.939383       -25.5619
 102   2.0000      -0.918451       -24.9923
 103   2.0000      -0.904704       -24.6183
 104   2.0000      -0.903833       -24.5945
 105   2.0000      -0.896000       -24.3814
 106   2.0000      -0.893418       -24.3111
 107   2.0000      -0.881629       -23.9903
 108   2.0000      -0.876881       -23.8611
 109   2.0000      -0.871874       -23.7249
 110   2.0000      -0.861869       -23.4527
 111   2.0000      -0.847860       -23.0714
 112   2.0000      -0.840465       -22.8702
 113   2.0000      -0.837558       -22.7911
 114   2.0000      -0.834790       -22.7158
 115   2.0000      -0.825285       -22.4572
 116   2.0000      -0.821754       -22.3611
 117   2.0000      -0.816289       -22.2123
 118   2.0000      -0.807469       -21.9724
 119   2.0000      -0.804367       -21.8879
 120   2.0000      -0.784002       -21.3338
 121   2.0000      -0.768441       -20.9103
 122   2.0000      -0.759858       -20.6768
 123   2.0000      -0.753184       -20.4952
 124   2.0000      -0.744109       -20.2482
 125   2.0000      -0.728587       -19.8259
 126   2.0000      -0.718998       -19.5649
 127   2.0000      -0.712300       -19.3827
 128   2.0000      -0.697268       -18.9736
 129   2.0000      -0.692615       -18.8470
 130   2.0000      -0.686668       -18.6852
 131   2.0000      -0.679312       -18.4850
 132   2.0000      -0.671864       -18.2823
 133   2.0000      -0.666912       -18.1476
 134   2.0000      -0.660324       -17.9683
 135   2.0000      -0.653294       -17.7770
 136   2.0000      -0.649603       -17.6766
 137   2.0000      -0.641087       -17.4449
 138   2.0000      -0.630226       -17.1493
 139   2.0000      -0.622043       -16.9266
 140   2.0000      -0.619700       -16.8629
 141   2.0000      -0.619569       -16.8593
 142   2.0000      -0.613528       -16.6950
 143   2.0000      -0.602409       -16.3924
 144   2.0000      -0.598936       -16.2979
 145   2.0000      -0.593880       -16.1603
 146   2.0000      -0.592525       -16.1234
 147   2.0000      -0.585555       -15.9338
 148   2.0000      -0.584358       -15.9012
 149   2.0000      -0.571329       -15.5467
 150   2.0000      -0.561245       -15.2722
 151   2.0000      -0.558843       -15.2069
 152   2.0000      -0.554043       -15.0763
 153   2.0000      -0.548441       -14.9239
 154   2.0000      -0.542848       -14.7716
 155   2.0000      -0.536062       -14.5870
 156   2.0000      -0.534828       -14.5534
 157   2.0000      -0.530149       -14.4261
 158   2.0000      -0.528076       -14.3697
 159   2.0000      -0.525490       -14.2993
 160   2.0000      -0.519703       -14.1418
 161   2.0000      -0.517746       -14.0886
 162   2.0000      -0.516983       -14.0678
 163   2.0000      -0.511247       -13.9117
 164   2.0000      -0.507880       -13.8201
 165   2.0000      -0.504972       -13.7410
 166   2.0000      -0.504618       -13.7314
 167   2.0000      -0.502017       -13.6606
 168   2.0000      -0.498533       -13.5658
 169   2.0000      -0.492327       -13.3969
 170   2.0000      -0.491483       -13.3739
 171   2.0000      -0.489897       -13.3308
 172   2.0000      -0.488766       -13.3000
 173   2.0000      -0.488439       -13.2911
 174   2.0000      -0.486616       -13.2415
 175   2.0000      -0.482393       -13.1266
 176   2.0000      -0.481598       -13.1049
 177   2.0000      -0.481287       -13.0965
 178   2.0000      -0.478367       -13.0170
 179   2.0000      -0.469214       -12.7680
 180   2.0000      -0.468224       -12.7410
 181   2.0000      -0.466763       -12.7013
 182   2.0000      -0.464415       -12.6374
 183   2.0000      -0.457831       -12.4582
 184   2.0000      -0.455470       -12.3940
 185   2.0000      -0.454210       -12.3597
 186   2.0000      -0.452961       -12.3257
 187   2.0000      -0.449901       -12.2424
 188   2.0000      -0.446268       -12.1436
 189   2.0000      -0.445030       -12.1099
 190   2.0000      -0.443931       -12.0800
 191   2.0000      -0.441557       -12.0154
 192   2.0000      -0.438647       -11.9362
 193   2.0000      -0.434882       -11.8337
 194   2.0000      -0.432061       -11.7570
 195   2.0000      -0.424571       -11.5532
 196   2.0000      -0.423272       -11.5178
 197   2.0000      -0.421915       -11.4809
 198   2.0000      -0.420632       -11.4460
 199   2.0000      -0.418572       -11.3899
 200   2.0000      -0.415245       -11.2994
 201   2.0000      -0.412321       -11.2198
 202   2.0000      -0.411080       -11.1861
 203   2.0000      -0.405728       -11.0404
 204   2.0000      -0.404799       -11.0151
 205   2.0000      -0.401973       -10.9382
 206   2.0000      -0.398197       -10.8355
 207   2.0000      -0.388539       -10.5727
 208   2.0000      -0.386764       -10.5244
 209   2.0000      -0.382019       -10.3953
 210   2.0000      -0.372486       -10.1359
 211   2.0000      -0.365701        -9.9512
 212   2.0000      -0.363431        -9.8894
 213   2.0000      -0.342351        -9.3158
 214   2.0000      -0.333575        -9.0770
 215   2.0000      -0.330668        -8.9979
 216   2.0000      -0.330325        -8.9886
 217   2.0000      -0.323823        -8.8117
 218   2.0000      -0.315914        -8.5965
 219   2.0000      -0.314655        -8.5622
 220   2.0000      -0.311548        -8.4777
 221   2.0000      -0.305591        -8.3156
 222   2.0000      -0.291667        -7.9367
 223   2.0000      -0.284420        -7.7395
 224   2.0000      -0.275337        -7.4923
 225   2.0000      -0.239319        -6.5122
 226   2.0000      -0.213303        -5.8043
 227   0.0000      -0.092547        -2.5183
 228   0.0000      -0.061770        -1.6809
 229   0.0000      -0.058637        -1.5956
 230   0.0000      -0.034711        -0.9445
 231   0.0000      -0.007340        -0.1997

MULLIKEN ATOMIC CHARGES
-----------------------
   0 C :   -0.034094
   1 C :   -0.063304
   2 C :    0.051799
   3 C :    0.028899
   4 C :   -0.064990
   5 S :    0.075985
   6 C :   -0.043653
   7 C :    0.027234
   8 C :    0.035829
   9 C :   -0.022411
  10 S :    0.060021
  11 C :   -0.007075
  12 C :    0.005456
  13 C :   -0.005394
  14 C :    0.128154
  15 C :   -0.130435
  16 S :    0.148190
  17 C :   -0.057138
  18 C :   -0.057655
  19 C :   -0.130318
  20 S :    0.112986
  21 C :   -0.205470
  22 C :    0.121967
  23 C :    0.146220
  24 O :   -0.213209
  25 C :    0.176565
  26 C :   -0.068957
  27 C :    0.155634
  28 C :   -0.107051
  29 C :    0.108259
  30 C :   -0.090008
  31 C :    0.121903
  32 C :   -0.068969
  33 C :   -0.114457
  34 C :    0.107190
  35 C :    0.004770
  36 C :   -0.002307
  37 C :   -0.029176
  38 C :   -0.080698
  39 C :    0.336335
  40 C :   -0.359968
  41 C :   -0.187309
  42 N :    0.147151
  43 C :   -0.187361
  44 N :    0.137526
  45 C :    0.010672
  46 C :   -0.010721
  47 C :    0.143792
  48 O :   -0.158565
  49 C :   -0.071387
  50 C :    0.118821
  51 C :   -0.094713
  52 C :   -0.019466
  53 S :    0.185076
  54 C :   -0.123736
  55 C :    0.039225
  56 Br:    0.020652
  57 H :    0.019875
  58 H :    0.021633
  59 H :   -0.012628
  60 H :   -0.011165
  61 H :   -0.016863
  62 H :   -0.014639
  63 H :   -0.019175
  64 H :   -0.020047
  65 H :   -0.009184
  66 H :    0.021530
  67 H :   -0.013715
  68 H :    0.015696
  69 H :   -0.004745
  70 H :    0.037862
  71 H :    0.034743
  72 H :    0.015925
  73 H :   -0.032239
  74 H :   -0.038376
  75 H :    0.036521
  76 H :    0.036246
  77 H :    0.010036
  78 H :   -0.009056
  79 H :    0.026566
  80 H :    0.004390
  81 H :   -0.012807
  82 H :   -0.008370
  83 H :   -0.004330
Sum of atomic charges:   -0.0000000

LOEWDIN ATOMIC CHARGES
----------------------
   0 C :   -0.079245
   1 C :   -0.139208
   2 C :   -0.031999
   3 C :   -0.026449
   4 C :   -0.176929
   5 S :    0.347508
   6 C :   -0.181312
   7 C :   -0.038738
   8 C :   -0.030893
   9 C :   -0.142474
  10 S :    0.375762
  11 C :   -0.064055
  12 C :   -0.041161
  13 C :   -0.023422
  14 C :   -0.061497
  15 C :   -0.185178
  16 S :    0.449431
  17 C :   -0.182778
  18 C :   -0.058683
  19 C :   -0.210646
  20 S :    0.473563
  21 C :   -0.179941
  22 C :   -0.064911
  23 C :    0.003952
  24 O :   -0.015448
  25 C :    0.075775
  26 C :   -0.079163
  27 C :   -0.017954
  28 C :   -0.026406
  29 C :   -0.058760
  30 C :    0.005731
  31 C :   -0.048048
  32 C :   -0.003797
  33 C :   -0.026431
  34 C :   -0.046565
  35 C :    0.046500
  36 C :   -0.038405
  37 C :    0.072859
  38 C :   -0.104823
  39 C :    0.076941
  40 C :   -0.146448
  41 C :   -0.018311
  42 N :   -0.058872
  43 C :   -0.019516
  44 N :   -0.059157
  45 C :   -0.020211
  46 C :   -0.049758
  47 C :    0.085139
  48 O :   -0.152602
  49 C :    0.020304
  50 C :   -0.033336
  51 C :   -0.144439
  52 C :   -0.010372
  53 S :    0.430816
  54 C :   -0.272175
  55 C :   -0.070632
  56 Br:    0.134520
  57 H :    0.028286
  58 H :    0.026068
  59 H :    0.032872
  60 H :    0.032227
  61 H :    0.030180
  62 H :    0.032405
  63 H :    0.032331
  64 H :    0.026712
  65 H :    0.014514
  66 H :    0.023452
  67 H :    0.022473
  68 H :    0.027933
  69 H :    0.031803
  70 H :    0.028470
  71 H :    0.029725
  72 H :    0.033621
  73 H :    0.031260
  74 H :    0.027184
  75 H :    0.038145
  76 H :    0.038173
  77 H :    0.031532
  78 H :    0.033460
  79 H :    0.029698
  80 H :    0.040774
  81 H :    0.039977
  82 H :    0.040679
  83 H :    0.038399

  Mayer bond orders larger than 0.100000
B(  0-C ,  1-C ) :   1.8642 B(  0-C , 57-H ) :   0.9509 B(  0-C , 58-H ) :   0.9420
B(  1-C ,  2-C ) :   1.0794 B(  1-C ,  5-S ) :   1.0077 B(  2-C ,  3-C ) :   1.6638
B(  2-C , 59-H ) :   0.9931 B(  3-C ,  4-C ) :   1.1487 B(  3-C , 60-H ) :   0.9922
B(  4-C ,  5-S ) :   1.0409 B(  4-C ,  6-C ) :   1.5692 B(  6-C ,  7-C ) :   1.1608
B(  6-C , 10-S ) :   1.0282 B(  7-C ,  8-C ) :   1.6203 B(  7-C , 61-H ) :   0.9922
B(  8-C ,  9-C ) :   1.1275 B(  8-C , 62-H ) :   0.9974 B(  9-C , 10-S ) :   1.0324
B(  9-C , 11-C ) :   1.6165 B( 11-C , 12-C ) :   1.1669 B( 11-C , 63-H ) :   0.9596
B( 12-C , 13-C ) :   1.6639 B( 12-C , 64-H ) :   0.9641 B( 13-C , 14-C ) :   1.1080
B( 13-C , 65-H ) :   0.9572 B( 14-C , 15-C ) :   1.4973 B( 14-C , 18-C ) :   1.2209
B( 15-C , 16-S ) :   1.1486 B( 15-C , 66-H ) :   0.9701 B( 16-S , 17-C ) :   1.1299
B( 17-C , 18-C ) :   1.5280 B( 17-C , 19-C ) :   1.1456 B( 18-C , 67-H ) :   0.9905
B( 19-C , 20-S ) :   1.1192 B( 19-C , 21-C ) :   0.1231 B( 19-C , 23-C ) :   1.4761
B( 20-S , 21-C ) :   1.1108 B( 21-C , 22-C ) :   1.4370 B( 21-C , 27-C ) :   1.0491
B( 22-C , 23-C ) :   1.2256 B( 22-C , 26-C ) :   1.1126 B( 23-C , 24-O ) :   1.1282
B( 24-O , 25-C ) :   1.0918 B( 25-C , 26-C ) :   1.6300 B( 25-C , 68-H ) :   1.0026
B( 26-C , 69-H ) :   1.0012 B( 27-C , 28-C ) :   1.3222 B( 27-C , 33-C ) :   1.3187
B( 28-C , 29-C ) :   1.0915 B( 28-C , 30-C ) :   1.4333 B( 29-C , 70-H ) :   0.9378
B( 29-C , 71-H ) :   0.9373 B( 29-C , 72-H ) :   0.9427 B( 30-C , 31-C ) :   1.2896
B( 30-C , 73-H ) :   0.9945 B( 31-C , 32-C ) :   1.3042 B( 31-C , 35-C ) :   1.0913
B( 32-C , 33-C ) :   1.4106 B( 32-C , 34-C ) :   1.0861 B( 33-C , 74-H ) :   0.9942
B( 34-C , 75-H ) :   0.9410 B( 34-C , 76-H ) :   0.9400 B( 34-C , 77-H ) :   0.9519
B( 35-C , 36-C ) :   1.5565 B( 35-C , 78-H ) :   0.9824 B( 36-C , 37-C ) :   1.1767
B( 36-C , 79-H ) :   0.9732 B( 37-C , 38-C ) :   1.5040 B( 37-C , 80-H ) :   0.9647
B( 38-C , 39-C ) :   1.0722 B( 38-C , 47-C ) :   0.9535 B( 39-C , 40-C ) :   1.6148
B( 39-C , 45-C ) :   0.9997 B( 40-C , 41-C ) :   1.1452 B( 40-C , 43-C ) :   1.1500
B( 41-C , 42-N ) :   2.9658 B( 43-C , 44-N ) :   2.9563 B( 45-C , 46-C ) :   1.2755
B( 45-C , 52-C ) :   1.4117 B( 46-C , 47-C ) :   0.9468 B( 46-C , 49-C ) :   1.4261
B( 47-C , 48-O ) :   2.1839 B( 49-C , 50-C ) :   1.2442 B( 49-C , 81-H ) :   1.0156
B( 50-C , 51-C ) :   1.3077 B( 50-C , 55-C ) :   1.1617 B( 51-C , 52-C ) :   1.3310
B( 51-C , 53-S ) :   1.0847 B( 52-C , 82-H ) :   0.9781 B( 53-S , 54-C ) :   1.0860
B( 54-C , 55-C ) :   1.6199 B( 54-C , 56-Br) :   1.0169 B( 55-C , 83-H ) :   0.9996

-----------------------------------------------------------------------------
         ABSORPTION SPECTRUM VIA TRANSITION ELECTRIC DIPOLE MOMENTS
-----------------------------------------------------------------------------
State   Energy  Wavelength   fosc         T2         TX        TY        TZ
        (cm-1)    (nm)                  (au**2)     (au)      (au)      (au)
-----------------------------------------------------------------------------
   0   17291.4    578.3   1.752290234  33.36195  -1.29612   4.77034  -2.98762
   1   19538.5    511.8   0.786773457  13.25666   0.09738   3.63938   0.04550
   2   19851.6    503.7   0.306455681   5.08215  -0.76978  -0.14987  -2.11356
   3   25398.8    393.7   0.017107607   0.22174   0.39536  -0.19131   0.16982
   4   26414.6    378.6   0.014340846   0.17873   0.35230   0.08816  -0.21644
   5   26855.3    372.4   0.082144001   1.00698   0.06188  -0.95499   0.30189
   6   27079.8    369.3   0.077725771   0.94492  -0.21644  -0.34584   0.88231
   7   28387.1    352.3   0.606777520   7.03694  -0.38181   0.14513  -2.62109
   8   28553.2    350.2   0.001461290   0.01685  -0.00898  -0.01393  -0.12874
   9   28918.0    345.8   0.170573458   1.94186   0.56897  -1.19655   0.43175
  10   29353.3    340.7   0.017915117   0.20093   0.16165   0.36182  -0.20949
  11   29966.6    333.7   0.003329580   0.03658   0.13328  -0.08131   0.11047
  12   30375.8    329.2   0.254949632   2.76314  -0.80983   1.21758   0.79045
  13   31014.8    322.4   0.024344776   0.25841  -0.17429   0.47744   0.00927
  14   31927.9    313.2   0.010715700   0.11049   0.31910  -0.08215  -0.04377
  15   32168.4    310.9   0.000046331   0.00047  -0.01503  -0.00103  -0.01572
  16   33258.8    300.7   0.708694834   7.01501   0.15771  -1.27160  -2.31801
  17   33567.8    297.9   0.397108348   3.89459  -1.25146  -0.15897   1.51762
  18   34051.1    293.7   0.031377801   0.30337  -0.09024   0.30992  -0.44629
  19   34316.5    291.4   0.066769026   0.64054  -0.37474   0.36602   0.60510
  20   34876.3    286.7   0.070620640   0.66662  -0.48373  -0.15766   0.63856
  21   35255.3    283.6   0.080162733   0.74856   0.51866  -0.15133  -0.67576
  22   36886.1    271.1   0.005091961   0.04545   0.03947   0.11489  -0.17519
  23   37544.3    266.4   0.041557616   0.36440  -0.16774   0.57471   0.07729
  24   38273.8    261.3   0.016875593   0.14516  -0.33784  -0.09971   0.14519
  25   38479.5    259.9   0.014786349   0.12650   0.09306   0.04065  -0.34087
  26   39095.6    255.8   0.030746918   0.25891   0.06817  -0.21041   0.45825
  27   39102.2    255.7   0.144929056   1.22020   0.24583  -0.99135   0.42070
  28   39672.4    252.1   0.035164142   0.29180  -0.06961   0.16185  -0.51065
  29   39806.1    251.2   0.055798361   0.46147   0.16458  -0.65053   0.10582
  30   40094.9    249.4   0.009232067   0.07580   0.14081   0.11869  -0.20467

FINAL SINGLE POINT ENERGY     -6628.763838263508

DIPOLE MOMENT
-------------
                                X             Y             Z
Electronic contribution:     48.25085    -100.82843     151.12737
Nuclear contribution   :    -49.22120     103.82517    -151.29254
                        -----------------------------------------
Total Dipole Moment    :     -0.97035       2.99673      -0.16517
                        -----------------------------------------
Magnitude (a.u.)       :      3.15425
Magnitude (Debye)      :      8.01745

Rotational constants in cm-1:     0.001339     0.000248     0.000213
Rotational constants in MHz :    40.140160     7.440938     6.383135

                             ****ORCA TERMINATED NORMALLY****
TOTAL RUN TIME: 0 days 0 hours 5 minutes 58 seconds 429 msec
