                         Program Version 4.2.0 -  RELEASE  -
|  1> # ORCA input file
|  2> # SCF done       -182.600844099141          0.000935775321
|  3> ! CAM-B3LYP def2-SVP def2/J RIJCOSX Grid4 TightSCF
|  4> %maxcore 5000
|  5> %tddft
|  6>     Mode sTDDFT
|  7>     Ethresh 5.0
|  8>     maxcore 5000
|  9> end
| 10>
| 11> %pal
| 12>   nprocs 6
| 13>   end
| 14> * xyz 0 1
| 15>    C       -2.77901        -0.28909         3.93347
| 16>    C       -2.04803        -1.36862         3.51541
| 17>    C       -1.32803        -2.21963         4.38101
| 18>    N       -0.71671        -2.94162         5.03071
| 19>    C       -1.88293        -1.74819         2.16702
| 20>    N       -1.71188        -2.10199         1.08843
| 21>    C       -2.95169         0.15556         5.30798
| 22>    C       -3.62166         1.40802         5.31370
| 23>    C       -3.94142         2.07432         6.47214
| 24>    C       -3.60403         1.46516         7.68331
| 25>    C       -2.93504         0.21558         7.67115
| 26>    C       -2.59744        -0.45050         6.50009
| 27>    S       -2.62266        -0.34472         9.28372
| 28>    C       -3.37894         1.06371         9.94621
| 29>    C       -3.84321         1.92003         9.01032
| 30>    C       -3.89278         1.82035         3.93047
| 31>    O       -4.20020         2.91521         3.52199
| 32>    C       -3.53378         0.62695         3.09090
| 33>    C       -3.88758         0.48308         1.79170
| 34>    C       -4.88566         1.29120         1.16950
| 35>    C       -4.94886         1.68810        -0.24581
| 36>    N       -6.00191         2.38088        -0.56060
| 37>    C       -6.73609         2.47949         0.58706
| 38>    C       -6.04273         1.80282         1.70108
| 39>    C       -6.87764         1.80035         2.87370
| 40>    S       -6.68052         0.88571         4.22439
| 41>    C       -8.01951         2.59225         2.49678
| 42>    C       -7.92373         2.95943         1.06734
| 43>    N       -9.03118         3.65215         0.67667
| 44>    C       -9.78725         3.73225         1.72896
| 45>    C       -9.22320         3.09768         2.92845
| 46>    C       -9.81664         3.10275         4.21886
| 47>    C       -9.26073         3.02752         5.49052
| 48>    C      -10.31819         3.12658         6.43900
| 49>    C      -11.50123         3.28058         5.72877
| 50>    O      -12.74640         3.49240         6.09808
| 51>    N      -11.17482         3.23690         4.40279
| 52>    C       -9.73522         3.10224         7.73115
| 53>    O       -8.38183         3.02535         7.58337
| 54>    C       -8.02128         2.99242         6.24125
| 55>    O       -6.86835         2.95899         5.91166
| 56>    C      -10.33091         3.19324         8.96260
| 57>    C       -9.67162         3.39125        10.25310
| 58>    N      -10.47483         3.61054        11.24792
| 59>    C      -11.74018         3.53714        10.75304
| 60>    C      -11.71053         3.22630         9.28862
| 61>    C      -12.99132         3.14419         8.79442
| 62>    S      -13.56307         2.52755         7.28870
| 63>    C      -13.85925         3.50007         9.91260
| 64>    C      -13.04338         3.65716        11.12376
| 65>    N      -13.84228         3.98103        12.19851
| 66>    C      -15.03257         4.09443        11.73463
| 67>    C      -15.13121         3.85763        10.26202
| 68>    C      -16.33630         3.98066         9.52156
| 69>    C      -16.50936         4.32727         8.22280
| 70>    C      -15.60244         4.82728         7.20615
| 71>    C      -14.51618         5.63810         7.39911
| 72>    C      -13.70217         6.12093         6.35338
| 73>    N      -12.98866         6.51130         5.54323
| 74>    C      -14.09022         6.10219         8.65910
| 75>    N      -13.71107         6.53059         9.65403
| 76>    C      -16.19036         4.49266         5.91590
| 77>    C      -17.52301         4.04743         6.11691
| 78>    C      -17.81597         4.02454         7.55981
| 79>    O      -18.85636         3.76210         8.11323
| 80>    C      -18.34319         3.68885         5.07337
| 81>    C      -17.82010         3.75613         3.77871
| 82>    C      -16.48134         4.18011         3.59249
| 83>    C      -15.65617         4.55728         4.64447
| 84>    S      -16.04541         4.16213         1.91283
| 85>    C      -17.62670         3.60968         1.48140
| 86>    C      -18.44758         3.44031         2.54022
| 87>    H       -4.46747         3.01415         6.43766
| 88>    H       -2.09311        -1.40188         6.54108
| 89>    H       -3.42862         1.16279        11.01331
| 90>    H       -4.34314         2.84522         9.23202
| 91>    H       -3.46079        -0.30340         1.18218
| 92>    H       -4.19433         1.46509        -0.98034
| 93>    H      -10.72047         4.26720         1.68557
| 94>    H      -11.84667         3.35388         3.65905
| 95>    H       -8.60477         3.37512        10.39104
| 96>    H      -15.86713         4.34512        12.36391
| 97>    H      -17.24831         3.73363        10.05919
| 98>    H      -19.35639         3.36385         5.25137
| 99>    H      -14.64257         4.87308         4.46341
|100>    H      -17.84478         3.44390         0.44439
|101>    H      -19.46543         3.10364         2.46379
|102> *
|103>
|104>                          ****END OF INPUT****

CARTESIAN COORDINATES (ANGSTROEM)
---------------------------------
  C     -2.779010   -0.289090    3.933470
  C     -2.048030   -1.368620    3.515410
  C     -1.328030   -2.219630    4.381010
  N     -0.716710   -2.941620    5.030710
  C     -1.882930   -1.748190    2.167020
  N     -1.711880   -2.101990    1.088430
  C     -2.951690    0.155560    5.307980
  C     -3.621660    1.408020    5.313700
  C     -3.941420    2.074320    6.472140
  C     -3.604030    1.465160    7.683310
  C     -2.935040    0.215580    7.671150
  C     -2.597440   -0.450500    6.500090
  S     -2.622660   -0.344720    9.283720
  C     -3.378940    1.063710    9.946210
  C     -3.843210    1.920030    9.010320
  C     -3.892780    1.820350    3.930470
  O     -4.200200    2.915210    3.521990
  C     -3.533780    0.626950    3.090900
  C     -3.887580    0.483080    1.791700
  C     -4.885660    1.291200    1.169500
  C     -4.948860    1.688100   -0.245810
  N     -6.001910    2.380880   -0.560600
  C     -6.736090    2.479490    0.587060
  C     -6.042730    1.802820    1.701080
  C     -6.877640    1.800350    2.873700
  S     -6.680520    0.885710    4.224390
  C     -8.019510    2.592250    2.496780
  C     -7.923730    2.959430    1.067340
  N     -9.031180    3.652150    0.676670
  C     -9.787250    3.732250    1.728960
  C     -9.223200    3.097680    2.928450
  C     -9.816640    3.102750    4.218860
  C     -9.260730    3.027520    5.490520
  C    -10.318190    3.126580    6.439000
  C    -11.501230    3.280580    5.728770
  O    -12.746400    3.492400    6.098080
  N    -11.174820    3.236900    4.402790
  C     -9.735220    3.102240    7.731150
  O     -8.381830    3.025350    7.583370
  C     -8.021280    2.992420    6.241250
  O     -6.868350    2.958990    5.911660
  C    -10.330910    3.193240    8.962600
  C     -9.671620    3.391250   10.253100
  N    -10.474830    3.610540   11.247920
  C    -11.740180    3.537140   10.753040
  C    -11.710530    3.226300    9.288620
  C    -12.991320    3.144190    8.794420
  S    -13.563070    2.527550    7.288700
  C    -13.859250    3.500070    9.912600
  C    -13.043380    3.657160   11.123760
  N    -13.842280    3.981030   12.198510
  C    -15.032570    4.094430   11.734630
  C    -15.131210    3.857630   10.262020
  C    -16.336300    3.980660    9.521560
  C    -16.509360    4.327270    8.222800
  C    -15.602440    4.827280    7.206150
  C    -14.516180    5.638100    7.399110
  C    -13.702170    6.120930    6.353380
  N    -12.988660    6.511300    5.543230
  C    -14.090220    6.102190    8.659100
  N    -13.711070    6.530590    9.654030
  C    -16.190360    4.492660    5.915900
  C    -17.523010    4.047430    6.116910
  C    -17.815970    4.024540    7.559810
  O    -18.856360    3.762100    8.113230
  C    -18.343190    3.688850    5.073370
  C    -17.820100    3.756130    3.778710
  C    -16.481340    4.180110    3.592490
  C    -15.656170    4.557280    4.644470
  S    -16.045410    4.162130    1.912830
  C    -17.626700    3.609680    1.481400
  C    -18.447580    3.440310    2.540220
  H     -4.467470    3.014150    6.437660
  H     -2.093110   -1.401880    6.541080
  H     -3.428620    1.162790   11.013310
  H     -4.343140    2.845220    9.232020
  H     -3.460790   -0.303400    1.182180
  H     -4.194330    1.465090   -0.980340
  H    -10.720470    4.267200    1.685570
  H    -11.846670    3.353880    3.659050
  H     -8.604770    3.375120   10.391040
  H    -15.867130    4.345120   12.363910
  H    -17.248310    3.733630   10.059190
  H    -19.356390    3.363850    5.251370
  H    -14.642570    4.873080    4.463410
  H    -17.844780    3.443900    0.444390
  H    -19.465430    3.103640    2.463790

 Total Charge           Charge          ....    0
 Multiplicity           Mult            ....    1
 Number of Electrons    NEL             ....  506
 Basis Dimension        Dim             .... 1099

ORBITAL ENERGIES
----------------

  NO   OCC          E(Eh)            E(eV)
   0   2.0000     -89.007449     -2422.0158
   1   2.0000     -88.979725     -2421.2614
   2   2.0000     -88.964777     -2420.8547
   3   2.0000     -88.922291     -2419.6986
   4   2.0000     -19.308692      -525.4162
   5   2.0000     -19.307621      -525.3871
   6   2.0000     -19.238315      -523.5012
   7   2.0000     -19.226487      -523.1793
   8   2.0000     -19.212762      -522.8058
   9   2.0000     -14.517317      -395.0363
  10   2.0000     -14.434171      -392.7738
  11   2.0000     -14.425440      -392.5362
  12   2.0000     -14.424184      -392.5020
  13   2.0000     -14.424119      -392.5002
  14   2.0000     -14.420948      -392.4140
  15   2.0000     -14.419197      -392.3663
  16   2.0000     -14.416680      -392.2978
  17   2.0000     -14.411252      -392.1501
  18   2.0000     -10.435058      -283.9524
  19   2.0000     -10.421088      -283.5722
  20   2.0000     -10.397487      -282.9300
  21   2.0000     -10.377088      -282.3749
  22   2.0000     -10.369088      -282.1572
  23   2.0000     -10.367013      -282.1008
  24   2.0000     -10.356489      -281.8144
  25   2.0000     -10.351925      -281.6902
  26   2.0000     -10.351081      -281.6672
  27   2.0000     -10.350746      -281.6581
  28   2.0000     -10.348367      -281.5934
  29   2.0000     -10.348046      -281.5847
  30   2.0000     -10.346317      -281.5376
  31   2.0000     -10.345445      -281.5139
  32   2.0000     -10.345361      -281.5116
  33   2.0000     -10.344203      -281.4801
  34   2.0000     -10.333634      -281.1925
  35   2.0000     -10.331916      -281.1457
  36   2.0000     -10.330351      -281.1031
  37   2.0000     -10.328604      -281.0556
  38   2.0000     -10.328243      -281.0458
  39   2.0000     -10.326268      -280.9920
  40   2.0000     -10.325911      -280.9823
  41   2.0000     -10.325848      -280.9806
  42   2.0000     -10.325099      -280.9602
  43   2.0000     -10.322792      -280.8975
  44   2.0000     -10.321640      -280.8661
  45   2.0000     -10.320158      -280.8258
  46   2.0000     -10.319206      -280.7999
  47   2.0000     -10.319115      -280.7974
  48   2.0000     -10.318620      -280.7839
  49   2.0000     -10.318442      -280.7791
  50   2.0000     -10.315329      -280.6944
  51   2.0000     -10.315177      -280.6902
  52   2.0000     -10.315027      -280.6862
  53   2.0000     -10.314606      -280.6747
  54   2.0000     -10.313532      -280.6455
  55   2.0000     -10.312958      -280.6299
  56   2.0000     -10.312628      -280.6209
  57   2.0000     -10.312526      -280.6181
  58   2.0000     -10.312424      -280.6153
  59   2.0000     -10.312093      -280.6063
  60   2.0000     -10.311970      -280.6030
  61   2.0000     -10.311566      -280.5920
  62   2.0000     -10.311001      -280.5766
  63   2.0000     -10.308317      -280.5036
  64   2.0000     -10.306113      -280.4436
  65   2.0000     -10.302789      -280.3531
  66   2.0000     -10.301790      -280.3260
  67   2.0000     -10.300566      -280.2926
  68   2.0000     -10.299001      -280.2501
  69   2.0000     -10.292383      -280.0700
  70   2.0000     -10.288673      -279.9690
  71   2.0000     -10.286546      -279.9111
  72   2.0000      -8.096913      -220.3282
  73   2.0000      -8.076014      -219.7595
  74   2.0000      -8.061003      -219.3510
  75   2.0000      -8.016770      -218.1474
  76   2.0000      -6.071422      -165.2118
  77   2.0000      -6.062561      -164.9707
  78   2.0000      -6.053896      -164.7349
  79   2.0000      -6.045549      -164.5078
  80   2.0000      -6.041249      -164.3907
  81   2.0000      -6.037681      -164.2936
  82   2.0000      -6.030511      -164.0986
  83   2.0000      -6.026242      -163.9824
  84   2.0000      -6.022666      -163.8851
  85   2.0000      -5.985974      -162.8866
  86   2.0000      -5.985051      -162.8615
  87   2.0000      -5.976007      -162.6154
  88   2.0000      -1.239005       -33.7151
  89   2.0000      -1.209840       -32.9214
  90   2.0000      -1.145839       -31.1799
  91   2.0000      -1.142314       -31.0839
  92   2.0000      -1.130701       -30.7679
  93   2.0000      -1.123026       -30.5591
  94   2.0000      -1.099388       -29.9159
  95   2.0000      -1.087296       -29.5868
  96   2.0000      -1.079460       -29.3736
  97   2.0000      -1.064670       -28.9711
  98   2.0000      -1.030330       -28.0367
  99   2.0000      -1.021100       -27.7856
 100   2.0000      -1.018248       -27.7079
 101   2.0000      -1.007728       -27.4217
 102   2.0000      -1.001656       -27.2565
 103   2.0000      -0.996387       -27.1131
 104   2.0000      -0.995773       -27.0964
 105   2.0000      -0.985505       -26.8170
 106   2.0000      -0.978989       -26.6396
 107   2.0000      -0.974560       -26.5191
 108   2.0000      -0.949233       -25.8299
 109   2.0000      -0.943133       -25.6639
 110   2.0000      -0.934460       -25.4279
 111   2.0000      -0.928358       -25.2619
 112   2.0000      -0.920373       -25.0446
 113   2.0000      -0.918294       -24.9880
 114   2.0000      -0.915566       -24.9138
 115   2.0000      -0.895604       -24.3706
 116   2.0000      -0.893345       -24.3092
 117   2.0000      -0.890282       -24.2258
 118   2.0000      -0.886934       -24.1347
 119   2.0000      -0.879037       -23.9198
 120   2.0000      -0.870041       -23.6750
 121   2.0000      -0.846212       -23.0266
 122   2.0000      -0.840877       -22.8814
 123   2.0000      -0.834894       -22.7186
 124   2.0000      -0.833833       -22.6898
 125   2.0000      -0.825580       -22.4652
 126   2.0000      -0.821447       -22.3527
 127   2.0000      -0.801346       -21.8057
 128   2.0000      -0.799328       -21.7508
 129   2.0000      -0.796599       -21.6766
 130   2.0000      -0.779992       -21.2247
 131   2.0000      -0.775228       -21.0950
 132   2.0000      -0.768390       -20.9090
 133   2.0000      -0.762031       -20.7359
 134   2.0000      -0.755896       -20.5690
 135   2.0000      -0.750709       -20.4278
 136   2.0000      -0.734768       -19.9940
 137   2.0000      -0.722417       -19.6580
 138   2.0000      -0.718506       -19.5516
 139   2.0000      -0.715721       -19.4758
 140   2.0000      -0.708333       -19.2747
 141   2.0000      -0.699325       -19.0296
 142   2.0000      -0.696416       -18.9504
 143   2.0000      -0.689038       -18.7497
 144   2.0000      -0.688364       -18.7313
 145   2.0000      -0.679976       -18.5031
 146   2.0000      -0.673240       -18.3198
 147   2.0000      -0.672061       -18.2877
 148   2.0000      -0.661511       -18.0006
 149   2.0000      -0.660710       -17.9788
 150   2.0000      -0.656034       -17.8516
 151   2.0000      -0.648680       -17.6515
 152   2.0000      -0.636536       -17.3210
 153   2.0000      -0.633365       -17.2347
 154   2.0000      -0.631900       -17.1949
 155   2.0000      -0.629099       -17.1186
 156   2.0000      -0.620481       -16.8841
 157   2.0000      -0.617717       -16.8089
 158   2.0000      -0.612015       -16.6538
 159   2.0000      -0.610350       -16.6085
 160   2.0000      -0.608490       -16.5578
 161   2.0000      -0.598252       -16.2793
 162   2.0000      -0.595036       -16.1917
 163   2.0000      -0.590928       -16.0800
 164   2.0000      -0.585915       -15.9436
 165   2.0000      -0.583945       -15.8899
 166   2.0000      -0.581141       -15.8136
 167   2.0000      -0.571970       -15.5641
 168   2.0000      -0.565935       -15.3999
 169   2.0000      -0.564425       -15.3588
 170   2.0000      -0.560685       -15.2570
 171   2.0000      -0.558831       -15.2066
 172   2.0000      -0.555891       -15.1266
 173   2.0000      -0.551658       -15.0114
 174   2.0000      -0.548332       -14.9209
 175   2.0000      -0.545853       -14.8534
 176   2.0000      -0.544056       -14.8045
 177   2.0000      -0.542061       -14.7502
 178   2.0000      -0.539184       -14.6719
 179   2.0000      -0.536761       -14.6060
 180   2.0000      -0.532660       -14.4944
 181   2.0000      -0.528611       -14.3842
 182   2.0000      -0.526242       -14.3198
 183   2.0000      -0.523852       -14.2547
 184   2.0000      -0.522928       -14.2296
 185   2.0000      -0.518549       -14.1104
 186   2.0000      -0.515326       -14.0227
 187   2.0000      -0.511314       -13.9136
 188   2.0000      -0.509465       -13.8632
 189   2.0000      -0.509103       -13.8534
 190   2.0000      -0.504932       -13.7399
 191   2.0000      -0.502692       -13.6790
 192   2.0000      -0.502557       -13.6753
 193   2.0000      -0.500443       -13.6177
 194   2.0000      -0.498077       -13.5534
 195   2.0000      -0.495505       -13.4834
 196   2.0000      -0.494577       -13.4581
 197   2.0000      -0.492458       -13.4005
 198   2.0000      -0.490570       -13.3491
 199   2.0000      -0.488789       -13.3006
 200   2.0000      -0.486519       -13.2388
 201   2.0000      -0.479905       -13.0589
 202   2.0000      -0.476925       -12.9778
 203   2.0000      -0.475229       -12.9316
 204   2.0000      -0.471089       -12.8190
 205   2.0000      -0.469186       -12.7672
 206   2.0000      -0.464169       -12.6307
 207   2.0000      -0.458307       -12.4712
 208   2.0000      -0.454654       -12.3718
 209   2.0000      -0.451547       -12.2872
 210   2.0000      -0.450788       -12.2666
 211   2.0000      -0.449772       -12.2389
 212   2.0000      -0.446042       -12.1374
 213   2.0000      -0.445397       -12.1199
 214   2.0000      -0.443569       -12.0701
 215   2.0000      -0.443124       -12.0580
 216   2.0000      -0.437266       -11.8986
 217   2.0000      -0.436392       -11.8748
 218   2.0000      -0.432276       -11.7628
 219   2.0000      -0.432117       -11.7585
 220   2.0000      -0.430683       -11.7195
 221   2.0000      -0.425697       -11.5838
 222   2.0000      -0.424372       -11.5478
 223   2.0000      -0.422574       -11.4988
 224   2.0000      -0.419274       -11.4090
 225   2.0000      -0.414553       -11.2806
 226   2.0000      -0.412200       -11.2165
 227   2.0000      -0.408646       -11.1198
 228   2.0000      -0.396963       -10.8019
 229   2.0000      -0.390524       -10.6267
 230   2.0000      -0.389907       -10.6099
 231   2.0000      -0.380838       -10.3631
 232   2.0000      -0.379624       -10.3301
 233   2.0000      -0.373286       -10.1576
 234   2.0000      -0.371339       -10.1047
 235   2.0000      -0.367629       -10.0037
 236   2.0000      -0.362599        -9.8668
 237   2.0000      -0.361125        -9.8267
 238   2.0000      -0.359619        -9.7857
 239   2.0000      -0.353279        -9.6132
 240   2.0000      -0.345620        -9.4048
 241   2.0000      -0.339185        -9.2297
 242   2.0000      -0.334695        -9.1075
 243   2.0000      -0.327444        -8.9102
 244   2.0000      -0.323329        -8.7982
 245   2.0000      -0.315383        -8.5820
 246   2.0000      -0.312576        -8.5056
 247   2.0000      -0.305040        -8.3006
 248   2.0000      -0.303632        -8.2623
 249   2.0000      -0.299707        -8.1554
 250   2.0000      -0.295751        -8.0478
 251   2.0000      -0.292331        -7.9547
 252   2.0000      -0.265882        -7.2350
 253   0.0000      -0.130923        -3.5626
 254   0.0000      -0.123464        -3.3596
 255   0.0000      -0.100329        -2.7301
 256   0.0000      -0.084000        -2.2857
 257   0.0000      -0.077176        -2.1001

MULLIKEN ATOMIC CHARGES
-----------------------
   0 C :    0.295962
   1 C :   -0.343707
   2 C :   -0.186213
   3 N :    0.156885
   4 C :   -0.182965
   5 N :    0.151509
   6 C :    0.028504
   7 C :   -0.001886
   8 C :   -0.040320
   9 C :    0.103152
  10 C :   -0.092472
  11 C :   -0.028462
  12 S :    0.138344
  13 C :   -0.051157
  14 C :    0.032148
  15 C :    0.109913
  16 O :   -0.139194
  17 C :   -0.037310
  18 C :   -0.042304
  19 C :   -0.003295
  20 C :    0.080189
  21 N :   -0.035428
  22 C :    0.021759
  23 C :    0.027170
  24 C :   -0.005560
  25 S :   -0.063287
  26 C :    0.003233
  27 C :    0.005507
  28 N :   -0.017188
  29 C :    0.031284
  30 C :   -0.004223
  31 C :    0.040637
  32 C :   -0.071156
  33 C :   -0.010196
  34 C :    0.185947
  35 O :   -0.366945
  36 N :   -0.048610
  37 C :    0.156957
  38 O :   -0.239929
  39 C :    0.235704
  40 O :   -0.121550
  41 C :   -0.033818
  42 C :    0.071976
  43 N :   -0.013108
  44 C :    0.002971
  45 C :    0.075743
  46 C :   -0.190675
  47 S :    0.281923
  48 C :   -0.003404
  49 C :    0.007897
  50 N :   -0.017926
  51 C :    0.065269
  52 C :   -0.034523
  53 C :    0.007698
  54 C :   -0.109584
  55 C :    0.274582
  56 C :   -0.339867
  57 C :   -0.165215
  58 N :    0.140519
  59 C :   -0.200898
  60 N :    0.189913
  61 C :    0.015264
  62 C :    0.000915
  63 C :    0.131405
  64 O :   -0.135299
  65 C :   -0.064459
  66 C :    0.103635
  67 C :   -0.081158
  68 C :   -0.029685
  69 S :    0.122720
  70 C :   -0.050539
  71 C :    0.034361
  72 H :   -0.003389
  73 H :   -0.007122
  74 H :    0.039982
  75 H :   -0.005747
  76 H :    0.025760
  77 H :    0.020079
  78 H :    0.004563
  79 H :    0.142564
  80 H :    0.017833
  81 H :    0.003432
  82 H :    0.027171
  83 H :   -0.007760
  84 H :   -0.025504
  85 H :    0.042817
  86 H :   -0.002760
Sum of atomic charges:   -0.0000000

LOEWDIN ATOMIC CHARGES
----------------------
   0 C :    0.077349
   1 C :   -0.135392
   2 C :   -0.019057
   3 N :   -0.048274
   4 C :   -0.017960
   5 N :   -0.051161
   6 C :   -0.020816
   7 C :   -0.052842
   8 C :    0.034651
   9 C :   -0.032344
  10 C :   -0.144040
  11 C :   -0.011217
  12 S :    0.427078
  13 C :   -0.149068
  14 C :   -0.054809
  15 C :    0.071256
  16 O :   -0.135608
  17 C :   -0.050177
  18 C :    0.041456
  19 C :   -0.045727
  20 C :    0.107830
  21 N :   -0.084867
  22 C :    0.055696
  23 C :    0.001274
  24 C :   -0.151535
  25 S :    0.158808
  26 C :   -0.003337
  27 C :    0.033477
  28 N :   -0.069955
  29 C :    0.073694
  30 C :   -0.065273
  31 C :    0.035187
  32 C :   -0.093926
  33 C :   -0.111936
  34 C :    0.068243
  35 O :   -0.218039
  36 N :    0.100148
  37 C :    0.114580
  38 O :   -0.045286
  39 C :    0.110521
  40 O :   -0.123052
  41 C :   -0.115181
  42 C :    0.098236
  43 N :   -0.066096
  44 C :    0.032953
  45 C :    0.033723
  46 C :   -0.255082
  47 S :    0.456269
  48 C :    0.004996
  49 C :   -0.002361
  50 N :   -0.061071
  51 C :    0.069806
  52 C :   -0.055386
  53 C :    0.054703
  54 C :   -0.067922
  55 C :    0.058591
  56 C :   -0.137837
  57 C :   -0.014873
  58 N :   -0.067957
  59 C :   -0.020228
  60 N :   -0.040508
  61 C :   -0.016844
  62 C :   -0.054950
  63 C :    0.084595
  64 O :   -0.134625
  65 C :    0.026922
  66 C :   -0.035493
  67 C :   -0.144880
  68 C :   -0.017020
  69 S :    0.417404
  70 C :   -0.147531
  71 C :   -0.054004
  72 H :    0.040256
  73 H :    0.040125
  74 H :    0.029585
  75 H :    0.036308
  76 H :    0.046282
  77 H :    0.031774
  78 H :    0.022728
  79 H :    0.101180
  80 H :    0.030630
  81 H :    0.023543
  82 H :    0.050297
  83 H :    0.042221
  84 H :    0.032913
  85 H :    0.031025
  86 H :    0.037234

  Mayer bond orders larger than 0.100000
B(  0-C ,  1-C ) :   1.6434 B(  0-C ,  6-C ) :   1.0238 B(  0-C , 17-C ) :   1.0515
B(  1-C ,  2-C ) :   1.1356 B(  1-C ,  4-C ) :   1.1460 B(  2-C ,  3-N ) :   2.9803
B(  4-C ,  5-N ) :   2.9718 B(  6-C ,  7-C ) :   1.2559 B(  6-C , 11-C ) :   1.4003
B(  7-C ,  8-C ) :   1.4262 B(  7-C , 15-C ) :   0.9309 B(  8-C ,  9-C ) :   1.2563
B(  8-C , 72-H ) :   1.0062 B(  9-C , 10-C ) :   1.2908 B(  9-C , 14-C ) :   1.1733
B( 10-C , 11-C ) :   1.3347 B( 10-C , 12-S ) :   1.0975 B( 11-C , 73-H ) :   0.9826
B( 12-S , 13-C ) :   1.1235 B( 13-C , 14-C ) :   1.6277 B( 13-C , 74-H ) :   0.9687
B( 14-C , 75-H ) :   0.9996 B( 15-C , 16-O ) :   2.2451 B( 15-C , 17-C ) :   0.8936
B( 17-C , 18-C ) :   1.7134 B( 18-C , 19-C ) :   1.0599 B( 18-C , 76-H ) :   0.9342
B( 19-C , 20-C ) :   1.0086 B( 19-C , 23-C ) :   1.5678 B( 20-C , 21-N ) :   1.7215
B( 20-C , 77-H ) :   0.9933 B( 21-N , 22-C ) :   1.2576 B( 22-C , 23-C ) :   1.0614
B( 22-C , 27-C ) :   1.5237 B( 23-C , 24-C ) :   1.0178 B( 23-C , 26-C ) :   0.1003
B( 24-C , 25-S ) :   1.6897 B( 24-C , 26-C ) :   1.0500 B( 26-C , 27-C ) :   1.0647
B( 26-C , 30-C ) :   1.5606 B( 27-C , 28-N ) :   1.2611 B( 28-N , 29-C ) :   1.7444
B( 29-C , 30-C ) :   1.0087 B( 29-C , 78-H ) :   0.9957 B( 30-C , 31-C ) :   1.0256
B( 31-C , 32-C ) :   1.4122 B( 31-C , 36-N ) :   1.2466 B( 32-C , 33-C ) :   1.2469
B( 32-C , 39-C ) :   0.9638 B( 33-C , 34-C ) :   1.2768 B( 33-C , 37-C ) :   1.0776
B( 34-C , 35-O ) :   1.2308 B( 34-C , 36-N ) :   1.2234 B( 35-O , 47-S ) :   0.7409
B( 36-N , 79-H ) :   0.9170 B( 37-C , 38-O ) :   1.1771 B( 37-C , 41-C ) :   1.4412
B( 38-O , 39-C ) :   1.0044 B( 39-C , 40-O ) :   2.1685 B( 41-C , 42-C ) :   0.9895
B( 41-C , 45-C ) :   1.1482 B( 42-C , 43-N ) :   1.7487 B( 42-C , 80-H ) :   0.9974
B( 43-N , 44-C ) :   1.2479 B( 44-C , 45-C ) :   1.0414 B( 44-C , 49-C ) :   1.6150
B( 45-C , 46-C ) :   1.4870 B( 45-C , 48-C ) :   0.1240 B( 46-C , 47-S ) :   1.0992
B( 46-C , 48-C ) :   0.9902 B( 48-C , 49-C ) :   1.0656 B( 48-C , 52-C ) :   1.5989
B( 49-C , 50-N ) :   1.1935 B( 50-N , 51-C ) :   1.8516 B( 51-C , 52-C ) :   0.9472
B( 51-C , 81-H ) :   0.9923 B( 52-C , 53-C ) :   1.0446 B( 53-C , 54-C ) :   1.7387
B( 53-C , 82-H ) :   0.9383 B( 54-C , 55-C ) :   1.0167 B( 54-C , 63-C ) :   0.9252
B( 55-C , 56-C ) :   1.6642 B( 55-C , 61-C ) :   1.0161 B( 56-C , 57-C ) :   1.1367
B( 56-C , 59-C ) :   1.1653 B( 57-C , 58-N ) :   2.9648 B( 59-C , 60-N ) :   3.0075
B( 61-C , 62-C ) :   1.2689 B( 61-C , 68-C ) :   1.4233 B( 62-C , 63-C ) :   0.9214
B( 62-C , 65-C ) :   1.4189 B( 63-C , 64-O ) :   2.2762 B( 65-C , 66-C ) :   1.2584
B( 65-C , 83-H ) :   1.0154 B( 66-C , 67-C ) :   1.3017 B( 66-C , 71-C ) :   1.1700
B( 67-C , 68-C ) :   1.3146 B( 67-C , 69-S ) :   1.0894 B( 68-C , 84-H ) :   0.9842
B( 69-S , 70-C ) :   1.1220 B( 70-C , 71-C ) :   1.6346 B( 70-C , 85-H ) :   0.9688
B( 71-C , 86-H ) :   0.9992

-----------------------------------------------------------------------------
         ABSORPTION SPECTRUM VIA TRANSITION ELECTRIC DIPOLE MOMENTS
-----------------------------------------------------------------------------
State   Energy  Wavelength   fosc         T2         TX        TY        TZ
        (cm-1)    (nm)                  (au**2)     (au)      (au)      (au)
-----------------------------------------------------------------------------
   0    9756.1   1025.0   0.016613603   0.56062  -0.71452   0.17392  -0.14084
   1   14599.8    684.9   0.027532239   0.62083  -0.62178   0.09957   0.47360
   2   15835.1    631.5   0.160056036   3.32757  -1.50890   0.56067   0.85816
   3   17618.4    567.6   0.024617774   0.46000  -0.35818  -0.07762   0.57069
   4   17784.5    562.3   0.006553222   0.12131   0.11659  -0.02924   0.32689
   5   19852.2    503.7   0.010367026   0.17192   0.37881  -0.11791  -0.12049
   6   20415.5    489.8   0.016583734   0.26742  -0.40130   0.27134  -0.18098
   7   20792.5    480.9   0.033248144   0.52643  -0.50388   0.23840   0.46443
   8   20879.4    478.9   0.237091013   3.73828   1.58616  -1.00579  -0.45910
   9   21134.0    473.2   0.194999137   3.03757  -1.49495   0.39878   0.80229
  10   22229.9    449.8   0.012665469   0.18757  -0.37851   0.19807   0.07119
  11   22585.4    442.8   0.071276307   1.03895  -0.62378  -0.05190   0.80445
  12   22826.9    438.1   0.093457964   1.34786   1.04109  -0.27859  -0.43171
  13   23160.9    431.8   0.136853600   1.94525   1.11711  -0.30008   0.77927
  14   23400.3    427.3   0.021332338   0.30012  -0.21924   0.41362   0.28456
  15   23668.6    422.5   0.026798981   0.37275   0.54382  -0.27705  -0.01603
  16   24408.3    409.7   0.120290456   1.62244  -0.69991  -0.15046   1.05353
  17   24603.7    406.4   0.015098570   0.20203   0.04973   0.12543   0.42874
  18   25372.9    394.1   0.026992957   0.35023  -0.50517   0.25489   0.17340
  19   25590.5    390.8   0.040477152   0.52072   0.68749  -0.05959   0.21101
  20   25786.6    387.8   0.060460244   0.77188   0.84765  -0.21391   0.08730
  21   25937.3    385.5   0.029543897   0.37499  -0.60410   0.09546  -0.03060
  22   26535.5    376.9   0.073867049   0.91643  -0.76635   0.35537  -0.45039
  23   26750.2    373.8   0.012052313   0.14833   0.29041   0.02809  -0.25139
  24   26908.4    371.6   0.102220601   1.25062  -0.66335   0.36007   0.82519
  25   27005.0    370.3   0.016256608   0.19818  -0.28040   0.14083   0.31579
  26   27202.8    367.6   0.000317546   0.00384  -0.02472   0.02736  -0.04983
  27   27642.6    361.8   0.013743101   0.16367  -0.33347   0.08992  -0.21068
  28   27754.6    360.3   0.008889541   0.10544   0.26875  -0.17121  -0.06249
  29   28123.7    355.6   0.011966130   0.14007   0.17998  -0.32535   0.04273
  30   28197.7    354.6   0.002833890   0.03309  -0.05114   0.17446  -0.00594
  31   28558.4    350.2   0.026687453   0.30764  -0.28849   0.13550  -0.45394
  32   28783.9    347.4   0.029683545   0.33950   0.47899  -0.30439  -0.13199
  33   28877.3    346.3   0.002387153   0.02721   0.04078  -0.13262   0.08923
  34   29231.3    342.1   0.005449836   0.06138  -0.24537  -0.01191   0.03209
  35   29470.1    339.3   0.097197656   1.08580   0.80117  -0.60458   0.28002
  36   29603.7    337.8   0.007965846   0.08859   0.18633  -0.21365   0.09068
  37   29977.3    333.6   0.137037211   1.50495   1.03483   0.25165  -0.60888
  38   30303.8    330.0   0.436743493   4.74466  -0.01886  -0.26571  -2.16187
  39   30721.4    325.5   0.025199108   0.27003   0.32858  -0.10917  -0.38749
  40   30787.2    324.8   0.013755646   0.14709  -0.04721   0.17346   0.33879
  41   31087.6    321.7   0.053336061   0.56482   0.64126  -0.14086   0.36573
  42   31250.8    320.0   0.022908987   0.24134  -0.07652  -0.25544  -0.41259
  43   31453.0    317.9   0.086240182   0.90266   0.20671  -0.84614  -0.37944
  44   31825.2    314.2   0.412026978   4.26217  -1.21905  -0.58113  -1.56152
  45   31910.8    313.4   0.010377062   0.10706   0.07624  -0.07343  -0.30960
  46   32085.3    311.7   0.066486056   0.68218   0.37596  -0.06538  -0.73250
  47   32361.0    309.0   0.124060571   1.26208  -0.02140   0.27401   1.08929
  48   32773.7    305.1   0.130415711   1.31003  -0.47729   0.62334   0.83287
  49   32902.5    303.9   0.017028760   0.17038  -0.13874   0.36528   0.13306
  50   33010.2    302.9   0.073307654   0.73110   0.54406  -0.05979   0.65691
  51   33374.6    299.6   0.073953494   0.72949  -0.65345   0.15427  -0.52791
  52   33573.0    297.9   0.420402805   4.12241  -1.31934   1.32324  -0.79422
  53   33614.0    297.5   0.087161576   0.85365  -0.87027   0.08491   0.29844
  54   33936.1    294.7   0.127183695   1.23380  -0.49898   0.16295  -0.97891
  55   33999.7    294.1   0.061565902   0.59613  -0.07207   0.24127   0.72988
  56   34227.4    292.2   0.052018334   0.50033  -0.23443   0.11143  -0.65800
  57   34330.2    291.3   0.079042349   0.75798  -0.80196   0.16306  -0.29709
  58   34433.0    290.4   0.028483670   0.27233  -0.23467   0.33925  -0.31964
  59   34613.1    288.9   0.051648532   0.49124  -0.15708  -0.13825  -0.66892
  60   34786.9    287.5   0.007853350   0.07432  -0.21120   0.14581  -0.09195
  61   35108.2    284.8   0.022281011   0.20893   0.36772   0.08252   0.25866
  62   35155.9    284.4   0.050300234   0.47103  -0.43493  -0.24634   0.47030
  63   35431.2    282.2   0.036532446   0.33944  -0.52294  -0.22767  -0.11892
  64   35499.7    281.7   0.022832359   0.21174   0.28212  -0.17274   0.31986
  65   35530.5    281.4   0.013559906   0.12564  -0.02577   0.18529  -0.30107
  66   36000.5    277.8   0.015005542   0.13722  -0.36368  -0.06491  -0.02727
  67   36025.7    277.6   0.003957804   0.03617  -0.09725   0.13676  -0.08948
  68   36132.7    276.8   0.052388155   0.47732  -0.58944  -0.22042   0.28512
  69   36191.3    276.3   0.005373631   0.04888  -0.02608  -0.15697  -0.15350
  70   36344.3    275.1   0.055055038   0.49870  -0.22699  -0.24638  -0.62167
  71   36394.4    274.8   0.069372764   0.62752  -0.59195  -0.13170   0.50968
  72   36415.9    274.6   0.014020510   0.12675  -0.30592  -0.11815   0.13858
  73   36657.0    272.8   0.147277400   1.32268  -1.05290  -0.10292  -0.45110
  74   36778.0    271.9   0.117948820   1.05580   0.26324  -0.36263  -0.92466
  75   36939.9    270.7   0.041237761   0.36751  -0.48043  -0.36970  -0.00487
  76   37075.0    269.7   0.189603799   1.68361   0.61448  -0.62028  -0.95983
  77   37318.5    268.0   0.298121682   2.62993   0.93261   0.58449   1.19103
  78   37333.8    267.9   0.020887989   0.18419   0.22031   0.16040   0.33156
  79   37524.8    266.5   0.191438215   1.67952   0.72987  -0.09519  -1.06666
  80   37716.4    265.1   0.053865259   0.47017  -0.05096   0.40656  -0.54980
  81   37960.7    263.4   0.018784717   0.16291  -0.16861   0.19976   0.30753
  82   38053.1    262.8   0.051890966   0.44893  -0.33018   0.03146   0.58217
  83   38225.5    261.6   0.089366017   0.76965   0.61238  -0.35621   0.51745
  84   38311.1    261.0   0.017863620   0.15350   0.35752  -0.07454  -0.14187
  85   38409.1    260.4   0.011625432   0.09964  -0.28901   0.12374  -0.02841
  86   38784.6    257.8   0.002115217   0.01795   0.05499  -0.07995  -0.09241
  87   38864.5    257.3   0.122544693   1.03805  -0.21893   0.15365   0.98311
  88   39083.2    255.9   0.021588929   0.18185   0.29440  -0.12773   0.28083
  89   39103.8    255.7   0.025426856   0.21407   0.36043   0.15599  -0.24459
  90   39257.1    254.7   0.009559899   0.08017  -0.27303   0.07478   0.00568
  91   39385.2    253.9   0.017513716   0.14639   0.05803   0.04945  -0.37494
  92   39812.6    251.2   0.130258194   1.07711   0.45022  -0.21602  -0.90980
  93   40071.4    249.6   0.045011554   0.36980  -0.19534  -0.00967  -0.57580
  94   40212.9    248.7   0.036821814   0.30145   0.05058   0.09351   0.53865
  95   40264.7    248.4   0.011930572   0.09755   0.14994  -0.02772  -0.27257
  96   40322.6    248.0   0.032074658   0.26187  -0.31294   0.21959  -0.34018

FINAL SINGLE POINT ENERGY     -4523.996184056507

DIPOLE MOMENT
-------------
                                X             Y             Z
Electronic contribution:      7.65910      -1.85358       0.69685
Nuclear contribution   :    -11.07663       1.54926      -1.71483
                        -----------------------------------------
Total Dipole Moment    :     -3.41753      -0.30432      -1.01798
                        -----------------------------------------
Magnitude (a.u.)       :      3.57888
Magnitude (Debye)      :      9.09680

Rotational constants in cm-1:     0.001601     0.000512     0.000410
Rotational constants in MHz :    47.992791    15.342833    12.298217

                             ****ORCA TERMINATED NORMALLY****
TOTAL RUN TIME: 0 days 0 hours 13 minutes 3 seconds 110 msec
