                         Program Version 4.2.0 -  RELEASE  -
|  1> # ORCA input file
|  2> # SCF done       -181.106690266330          0.000503097601
|  3> ! CAM-B3LYP def2-SVP def2/J RIJCOSX Grid4 TightSCF
|  4> %maxcore 5000
|  5> %tddft
|  6>     Mode sTDDFT
|  7>     Ethresh 5.0
|  8>     maxcore 5000
|  9> end
| 10>
| 11> %pal
| 12>   nprocs 6
| 13>   end
| 14> * xyz 0 1
| 15>    C       -4.38449        -3.16882        -2.41427
| 16>    C       -3.30910        -4.02221        -2.34904
| 17>    C       -1.97926        -3.58247        -2.45593
| 18>    N       -0.87742        -3.26873        -2.54874
| 19>    C       -3.36011        -5.42206        -2.20070
| 20>    N       -3.31398        -6.56539        -2.09072
| 21>    C       -4.30270        -1.72582        -2.59255
| 22>    C       -5.61470        -1.20083        -2.69885
| 23>    C       -5.86174         0.13891        -2.86942
| 24>    C       -4.76620         1.00778        -2.90596
| 25>    C       -3.46162         0.47548        -2.79178
| 26>    C       -3.21072        -0.88054        -2.64428
| 27>    S       -2.25864         1.72542        -2.85367
| 28>    C       -3.48960         2.92923        -3.01731
| 29>    C       -4.74327         2.42501        -3.03221
| 30>    C       -6.58560        -2.30075        -2.55925
| 31>    O       -7.79152        -2.25020        -2.73159
| 32>    C       -5.78659        -3.50666        -2.28273
| 33>    C       -6.30036        -4.74810        -2.00885
| 34>    C       -7.59775        -5.08058        -1.57818
| 35>    S       -8.02517        -6.77829        -1.80288
| 36>    C       -9.60150        -6.52223        -1.18632
| 37>    C       -9.79151        -5.24437        -0.78210
| 38>    C       -8.65956        -4.40626        -0.97088
| 39>    S       -8.89207        -2.77989        -0.39157
| 40>    C       -7.36151        -2.00893         0.02586
| 41>    C       -6.22618        -2.70328         0.32762
| 42>    C       -5.00692        -2.00109         0.51767
| 43>    C       -3.69723        -2.41119         0.71835
| 44>    C       -3.11123        -3.72060         1.14936
| 45>    C       -2.53727        -3.55123         2.57548
| 46>    N       -3.49108        -2.88063         3.44438
| 47>    C       -4.09373        -4.89890         1.09310
| 48>    N       -3.41636        -6.15442         1.38390
| 49>    C       -2.87607        -1.22082         0.64297
| 50>    C       -1.53704        -1.06435         0.60201
| 51>    C       -0.92837         0.29090         0.64156
| 52>    C       -1.89520         1.43035         0.51408
| 53>    C       -3.22324         1.24374         0.42846
| 54>    C       -3.75956        -0.06282         0.48922
| 55>    C       -5.04589        -0.54639         0.38398
| 56>    C       -6.27054         0.13085         0.18422
| 57>    C       -7.40806        -0.58460         0.00808
| 58>    C        0.21478         0.54266        -0.29970
| 59>    C        0.56737        -0.16914        -1.36915
| 60>    C        1.65777         0.24691        -2.21743
| 61>    S        2.14330         1.92324        -2.23510
| 62>    C        3.36835         1.61948        -3.40115
| 63>    C        3.42064         0.31431        -3.75336
| 64>    C        2.45376        -0.47254        -3.07698
| 65>    S        2.39446        -2.19937        -3.44767
| 66>    C        1.99824        -2.91628        -1.94452
| 67>    C        1.64448        -4.20799        -1.73057
| 68>    C        1.66136        -5.36146        -2.60044
| 69>    C        2.53722        -5.60013        -3.62871
| 70>    C        2.50143        -6.74440        -4.45054
| 71>    N        2.51687        -7.64416        -5.16382
| 72>    C        3.65728        -4.79520        -3.90839
| 73>    N        4.61893        -4.20525        -4.12368
| 74>    C        0.70454        -6.31811        -2.06464
| 75>    C        0.25998        -5.86178        -0.79508
| 76>    C        0.83592        -4.53458        -0.52744
| 77>    O        0.62662        -3.80650         0.42330
| 78>    C       -0.59260        -6.60143        -0.01017
| 79>    C       -1.03003        -7.83447        -0.50372
| 80>    C       -0.62251        -8.25239        -1.79174
| 81>    C        0.24649        -7.51226        -2.58341
| 82>    S       -1.32413        -9.77969        -2.21169
| 83>    C       -2.11928        -9.86318        -0.67885
| 84>    C       -1.88065        -8.79462         0.11165
| 85>    H       -6.87167         0.50819        -2.95628
| 86>    H       -2.19744        -1.23150        -2.56584
| 87>    H       -3.19351         3.95721        -3.09698
| 88>    H       -5.63104         3.02373        -3.12913
| 89>    H       -5.64760        -5.60374        -2.13593
| 90>    H      -10.29668        -7.33753        -1.14961
| 91>    H      -10.70372        -4.87659        -0.34762
| 92>    H       -6.27324        -3.77481         0.40876
| 93>    H       -2.26273        -3.97523         0.50188
| 94>    H       -1.64686        -2.92189         2.52849
| 95>    H       -2.22271        -4.54108         2.94195
| 96>    H       -3.10314        -2.77772         4.37528
| 97>    H       -4.34689        -3.41912         3.52371
| 98>    H       -4.48889        -4.96808         0.07805
| 99>    H       -4.93363        -4.70881         1.77823
|100>    H       -3.41639        -6.34736         2.37903
|101>    H       -3.88048        -6.92242         0.91533
|102>    H       -0.85529        -1.90486         0.59495
|103>    H       -0.49611         0.36199         1.65825
|104>    H       -1.46288         2.41876         0.48509
|105>    H       -3.89385         2.08428         0.31824
|106>    H       -6.28170         1.21008         0.15330
|107>    H       -8.35851        -0.10935        -0.17811
|108>    H        0.77029         1.44569        -0.07569
|109>    H        0.05766        -1.08473        -1.63871
|110>    H        3.98100         2.42887        -3.74364
|111>    H        4.11587        -0.10436        -4.45756
|112>    H        1.90540        -2.23585        -1.11013
|113>    H       -0.93265        -6.24251         0.94795
|114>    H        0.53389        -7.86793        -3.55909
|115>    H       -2.72536       -10.72174        -0.46268
|116>    H       -2.27810        -8.67385         1.10219
|117> *
|118>
|119>                          ****END OF INPUT****

CARTESIAN COORDINATES (ANGSTROEM)
---------------------------------
  C     -4.384490   -3.168820   -2.414270
  C     -3.309100   -4.022210   -2.349040
  C     -1.979260   -3.582470   -2.455930
  N     -0.877420   -3.268730   -2.548740
  C     -3.360110   -5.422060   -2.200700
  N     -3.313980   -6.565390   -2.090720
  C     -4.302700   -1.725820   -2.592550
  C     -5.614700   -1.200830   -2.698850
  C     -5.861740    0.138910   -2.869420
  C     -4.766200    1.007780   -2.905960
  C     -3.461620    0.475480   -2.791780
  C     -3.210720   -0.880540   -2.644280
  S     -2.258640    1.725420   -2.853670
  C     -3.489600    2.929230   -3.017310
  C     -4.743270    2.425010   -3.032210
  C     -6.585600   -2.300750   -2.559250
  O     -7.791520   -2.250200   -2.731590
  C     -5.786590   -3.506660   -2.282730
  C     -6.300360   -4.748100   -2.008850
  C     -7.597750   -5.080580   -1.578180
  S     -8.025170   -6.778290   -1.802880
  C     -9.601500   -6.522230   -1.186320
  C     -9.791510   -5.244370   -0.782100
  C     -8.659560   -4.406260   -0.970880
  S     -8.892070   -2.779890   -0.391570
  C     -7.361510   -2.008930    0.025860
  C     -6.226180   -2.703280    0.327620
  C     -5.006920   -2.001090    0.517670
  C     -3.697230   -2.411190    0.718350
  C     -3.111230   -3.720600    1.149360
  C     -2.537270   -3.551230    2.575480
  N     -3.491080   -2.880630    3.444380
  C     -4.093730   -4.898900    1.093100
  N     -3.416360   -6.154420    1.383900
  C     -2.876070   -1.220820    0.642970
  C     -1.537040   -1.064350    0.602010
  C     -0.928370    0.290900    0.641560
  C     -1.895200    1.430350    0.514080
  C     -3.223240    1.243740    0.428460
  C     -3.759560   -0.062820    0.489220
  C     -5.045890   -0.546390    0.383980
  C     -6.270540    0.130850    0.184220
  C     -7.408060   -0.584600    0.008080
  C      0.214780    0.542660   -0.299700
  C      0.567370   -0.169140   -1.369150
  C      1.657770    0.246910   -2.217430
  S      2.143300    1.923240   -2.235100
  C      3.368350    1.619480   -3.401150
  C      3.420640    0.314310   -3.753360
  C      2.453760   -0.472540   -3.076980
  S      2.394460   -2.199370   -3.447670
  C      1.998240   -2.916280   -1.944520
  C      1.644480   -4.207990   -1.730570
  C      1.661360   -5.361460   -2.600440
  C      2.537220   -5.600130   -3.628710
  C      2.501430   -6.744400   -4.450540
  N      2.516870   -7.644160   -5.163820
  C      3.657280   -4.795200   -3.908390
  N      4.618930   -4.205250   -4.123680
  C      0.704540   -6.318110   -2.064640
  C      0.259980   -5.861780   -0.795080
  C      0.835920   -4.534580   -0.527440
  O      0.626620   -3.806500    0.423300
  C     -0.592600   -6.601430   -0.010170
  C     -1.030030   -7.834470   -0.503720
  C     -0.622510   -8.252390   -1.791740
  C      0.246490   -7.512260   -2.583410
  S     -1.324130   -9.779690   -2.211690
  C     -2.119280   -9.863180   -0.678850
  C     -1.880650   -8.794620    0.111650
  H     -6.871670    0.508190   -2.956280
  H     -2.197440   -1.231500   -2.565840
  H     -3.193510    3.957210   -3.096980
  H     -5.631040    3.023730   -3.129130
  H     -5.647600   -5.603740   -2.135930
  H    -10.296680   -7.337530   -1.149610
  H    -10.703720   -4.876590   -0.347620
  H     -6.273240   -3.774810    0.408760
  H     -2.262730   -3.975230    0.501880
  H     -1.646860   -2.921890    2.528490
  H     -2.222710   -4.541080    2.941950
  H     -3.103140   -2.777720    4.375280
  H     -4.346890   -3.419120    3.523710
  H     -4.488890   -4.968080    0.078050
  H     -4.933630   -4.708810    1.778230
  H     -3.416390   -6.347360    2.379030
  H     -3.880480   -6.922420    0.915330
  H     -0.855290   -1.904860    0.594950
  H     -0.496110    0.361990    1.658250
  H     -1.462880    2.418760    0.485090
  H     -3.893850    2.084280    0.318240
  H     -6.281700    1.210080    0.153300
  H     -8.358510   -0.109350   -0.178110
  H      0.770290    1.445690   -0.075690
  H      0.057660   -1.084730   -1.638710
  H      3.981000    2.428870   -3.743640
  H      4.115870   -0.104360   -4.457560
  H      1.905400   -2.235850   -1.110130
  H     -0.932650   -6.242510    0.947950
  H      0.533890   -7.867930   -3.559090
  H     -2.725360  -10.721740   -0.462680
  H     -2.278100   -8.673850    1.102190

 Total Charge           Charge          ....    0
 Multiplicity           Mult            ....    1
 Number of Electrons    NEL             ....  522
 Basis Dimension        Dim             .... 1164

ORBITAL ENERGIES
----------------

  NO   OCC          E(Eh)            E(eV)
   0   2.0000     -88.963336     -2420.8154
   1   2.0000     -88.960539     -2420.7393
   2   2.0000     -88.959065     -2420.6992
   3   2.0000     -88.956789     -2420.6373
   4   2.0000     -88.951321     -2420.4885
   5   2.0000     -88.946992     -2420.3707
   6   2.0000     -19.202167      -522.5175
   7   2.0000     -19.200787      -522.4800
   8   2.0000     -14.416924      -392.3045
   9   2.0000     -14.415991      -392.2791
  10   2.0000     -14.398269      -391.7968
  11   2.0000     -14.396273      -391.7425
  12   2.0000     -14.389349      -391.5541
  13   2.0000     -14.376043      -391.1920
  14   2.0000     -10.352892      -281.7165
  15   2.0000     -10.349688      -281.6293
  16   2.0000     -10.337872      -281.3078
  17   2.0000     -10.334809      -281.2244
  18   2.0000     -10.324298      -280.9384
  19   2.0000     -10.323786      -280.9245
  20   2.0000     -10.323557      -280.9183
  21   2.0000     -10.321432      -280.8604
  22   2.0000     -10.320112      -280.8245
  23   2.0000     -10.319526      -280.8086
  24   2.0000     -10.318349      -280.7766
  25   2.0000     -10.312284      -280.6115
  26   2.0000     -10.311266      -280.5838
  27   2.0000     -10.310838      -280.5722
  28   2.0000     -10.309281      -280.5298
  29   2.0000     -10.308694      -280.5138
  30   2.0000     -10.304093      -280.3886
  31   2.0000     -10.303309      -280.3673
  32   2.0000     -10.301395      -280.3152
  33   2.0000     -10.299147      -280.2540
  34   2.0000     -10.298101      -280.2256
  35   2.0000     -10.297750      -280.2160
  36   2.0000     -10.295939      -280.1667
  37   2.0000     -10.295520      -280.1554
  38   2.0000     -10.295334      -280.1503
  39   2.0000     -10.294056      -280.1155
  40   2.0000     -10.293850      -280.1099
  41   2.0000     -10.293142      -280.0906
  42   2.0000     -10.291349      -280.0418
  43   2.0000     -10.289382      -279.9883
  44   2.0000     -10.288388      -279.9613
  45   2.0000     -10.287916      -279.9484
  46   2.0000     -10.287613      -279.9402
  47   2.0000     -10.285735      -279.8891
  48   2.0000     -10.284751      -279.8623
  49   2.0000     -10.283837      -279.8374
  50   2.0000     -10.281677      -279.7787
  51   2.0000     -10.278971      -279.7050
  52   2.0000     -10.278854      -279.7018
  53   2.0000     -10.278185      -279.6836
  54   2.0000     -10.278126      -279.6820
  55   2.0000     -10.276969      -279.6505
  56   2.0000     -10.276427      -279.6358
  57   2.0000     -10.274504      -279.5835
  58   2.0000     -10.273892      -279.5668
  59   2.0000     -10.273736      -279.5626
  60   2.0000     -10.271411      -279.4993
  61   2.0000     -10.270724      -279.4806
  62   2.0000     -10.270023      -279.4615
  63   2.0000     -10.269948      -279.4595
  64   2.0000     -10.268587      -279.4225
  65   2.0000     -10.267373      -279.3894
  66   2.0000     -10.263753      -279.2909
  67   2.0000     -10.262695      -279.2621
  68   2.0000     -10.260906      -279.2134
  69   2.0000     -10.260116      -279.1920
  70   2.0000      -8.059547      -219.3114
  71   2.0000      -8.055721      -219.2073
  72   2.0000      -8.054948      -219.1863
  73   2.0000      -8.051628      -219.0959
  74   2.0000      -8.045122      -218.9189
  75   2.0000      -8.043305      -218.8695
  76   2.0000      -6.028968      -164.0565
  77   2.0000      -6.025272      -163.9560
  78   2.0000      -6.024725      -163.9411
  79   2.0000      -6.024267      -163.9286
  80   2.0000      -6.021472      -163.8526
  81   2.0000      -6.021365      -163.8497
  82   2.0000      -6.020957      -163.8386
  83   2.0000      -6.019988      -163.8122
  84   2.0000      -6.017525      -163.7452
  85   2.0000      -6.017114      -163.7340
  86   2.0000      -6.016914      -163.7286
  87   2.0000      -6.015111      -163.6795
  88   2.0000      -6.012866      -163.6184
  89   2.0000      -6.012791      -163.6164
  90   2.0000      -6.010823      -163.5628
  91   2.0000      -6.008557      -163.5011
  92   2.0000      -6.006092      -163.4341
  93   2.0000      -6.004972      -163.4036
  94   2.0000      -1.115208       -30.3463
  95   2.0000      -1.114631       -30.3307
  96   2.0000      -1.018958       -27.7272
  97   2.0000      -1.003723       -27.3127
  98   2.0000      -1.001544       -27.2534
  99   2.0000      -0.999965       -27.2104
 100   2.0000      -0.996792       -27.1241
 101   2.0000      -0.993310       -27.0293
 102   2.0000      -0.988276       -26.8924
 103   2.0000      -0.985036       -26.8042
 104   2.0000      -0.978136       -26.6164
 105   2.0000      -0.976038       -26.5593
 106   2.0000      -0.971238       -26.4287
 107   2.0000      -0.966288       -26.2940
 108   2.0000      -0.951971       -25.9045
 109   2.0000      -0.949769       -25.8445
 110   2.0000      -0.926572       -25.2133
 111   2.0000      -0.924536       -25.1579
 112   2.0000      -0.923410       -25.1273
 113   2.0000      -0.904038       -24.6001
 114   2.0000      -0.901467       -24.5302
 115   2.0000      -0.892209       -24.2782
 116   2.0000      -0.883268       -24.0350
 117   2.0000      -0.874362       -23.7926
 118   2.0000      -0.873396       -23.7663
 119   2.0000      -0.871864       -23.7246
 120   2.0000      -0.862273       -23.4636
 121   2.0000      -0.860034       -23.4027
 122   2.0000      -0.838154       -22.8073
 123   2.0000      -0.837318       -22.7846
 124   2.0000      -0.831725       -22.6324
 125   2.0000      -0.829305       -22.5665
 126   2.0000      -0.817974       -22.2582
 127   2.0000      -0.815264       -22.1845
 128   2.0000      -0.803420       -21.8622
 129   2.0000      -0.800629       -21.7862
 130   2.0000      -0.791296       -21.5323
 131   2.0000      -0.774164       -21.0661
 132   2.0000      -0.764633       -20.8067
 133   2.0000      -0.759340       -20.6627
 134   2.0000      -0.750122       -20.4118
 135   2.0000      -0.749779       -20.4025
 136   2.0000      -0.734857       -19.9965
 137   2.0000      -0.732446       -19.9309
 138   2.0000      -0.724348       -19.7105
 139   2.0000      -0.707240       -19.2450
 140   2.0000      -0.693105       -18.8603
 141   2.0000      -0.686623       -18.6840
 142   2.0000      -0.682610       -18.5748
 143   2.0000      -0.676060       -18.3965
 144   2.0000      -0.672261       -18.2932
 145   2.0000      -0.670772       -18.2526
 146   2.0000      -0.667813       -18.1721
 147   2.0000      -0.662537       -18.0286
 148   2.0000      -0.659225       -17.9384
 149   2.0000      -0.656743       -17.8709
 150   2.0000      -0.649626       -17.6772
 151   2.0000      -0.642477       -17.4827
 152   2.0000      -0.636989       -17.3333
 153   2.0000      -0.636249       -17.3132
 154   2.0000      -0.625824       -17.0295
 155   2.0000      -0.619063       -16.8456
 156   2.0000      -0.612836       -16.6761
 157   2.0000      -0.603894       -16.4328
 158   2.0000      -0.601591       -16.3701
 159   2.0000      -0.597457       -16.2576
 160   2.0000      -0.593555       -16.1514
 161   2.0000      -0.592357       -16.1188
 162   2.0000      -0.590463       -16.0673
 163   2.0000      -0.589588       -16.0435
 164   2.0000      -0.581334       -15.8189
 165   2.0000      -0.576641       -15.6912
 166   2.0000      -0.571636       -15.5550
 167   2.0000      -0.560926       -15.2636
 168   2.0000      -0.555138       -15.1061
 169   2.0000      -0.551391       -15.0041
 170   2.0000      -0.548214       -14.9177
 171   2.0000      -0.546869       -14.8811
 172   2.0000      -0.541301       -14.7295
 173   2.0000      -0.539534       -14.6815
 174   2.0000      -0.535354       -14.5677
 175   2.0000      -0.532473       -14.4893
 176   2.0000      -0.529580       -14.4106
 177   2.0000      -0.528772       -14.3886
 178   2.0000      -0.525709       -14.3053
 179   2.0000      -0.520818       -14.1722
 180   2.0000      -0.520011       -14.1502
 181   2.0000      -0.517898       -14.0927
 182   2.0000      -0.515198       -14.0193
 183   2.0000      -0.511613       -13.9217
 184   2.0000      -0.509239       -13.8571
 185   2.0000      -0.508704       -13.8425
 186   2.0000      -0.505321       -13.7505
 187   2.0000      -0.503533       -13.7018
 188   2.0000      -0.501771       -13.6539
 189   2.0000      -0.500691       -13.6245
 190   2.0000      -0.497499       -13.5376
 191   2.0000      -0.496738       -13.5169
 192   2.0000      -0.489678       -13.3248
 193   2.0000      -0.487631       -13.2691
 194   2.0000      -0.486639       -13.2421
 195   2.0000      -0.484006       -13.1705
 196   2.0000      -0.481817       -13.1109
 197   2.0000      -0.480990       -13.0884
 198   2.0000      -0.480068       -13.0633
 199   2.0000      -0.477986       -13.0067
 200   2.0000      -0.476037       -12.9536
 201   2.0000      -0.472390       -12.8544
 202   2.0000      -0.470108       -12.7923
 203   2.0000      -0.467275       -12.7152
 204   2.0000      -0.463236       -12.6053
 205   2.0000      -0.461652       -12.5622
 206   2.0000      -0.461391       -12.5551
 207   2.0000      -0.455626       -12.3982
 208   2.0000      -0.455464       -12.3938
 209   2.0000      -0.452382       -12.3100
 210   2.0000      -0.449710       -12.2372
 211   2.0000      -0.446311       -12.1447
 212   2.0000      -0.442516       -12.0415
 213   2.0000      -0.441562       -12.0155
 214   2.0000      -0.436994       -11.8912
 215   2.0000      -0.436336       -11.8733
 216   2.0000      -0.434780       -11.8310
 217   2.0000      -0.432385       -11.7658
 218   2.0000      -0.431205       -11.7337
 219   2.0000      -0.430354       -11.7105
 220   2.0000      -0.429242       -11.6803
 221   2.0000      -0.424796       -11.5593
 222   2.0000      -0.420836       -11.4515
 223   2.0000      -0.419995       -11.4287
 224   2.0000      -0.417427       -11.3588
 225   2.0000      -0.414437       -11.2774
 226   2.0000      -0.412443       -11.2231
 227   2.0000      -0.410215       -11.1625
 228   2.0000      -0.409511       -11.1434
 229   2.0000      -0.408141       -11.1061
 230   2.0000      -0.406774       -11.0689
 231   2.0000      -0.403212       -10.9719
 232   2.0000      -0.400068       -10.8864
 233   2.0000      -0.398363       -10.8400
 234   2.0000      -0.396992       -10.8027
 235   2.0000      -0.393783       -10.7154
 236   2.0000      -0.387878       -10.5547
 237   2.0000      -0.383781       -10.4432
 238   2.0000      -0.380953       -10.3663
 239   2.0000      -0.374632       -10.1942
 240   2.0000      -0.362906        -9.8752
 241   2.0000      -0.362133        -9.8541
 242   2.0000      -0.357967        -9.7408
 243   2.0000      -0.355071        -9.6620
 244   2.0000      -0.349320        -9.5055
 245   2.0000      -0.331383        -9.0174
 246   2.0000      -0.329092        -8.9551
 247   2.0000      -0.325698        -8.8627
 248   2.0000      -0.321147        -8.7389
 249   2.0000      -0.319444        -8.6925
 250   2.0000      -0.310411        -8.4467
 251   2.0000      -0.302730        -8.2377
 252   2.0000      -0.297259        -8.0888
 253   2.0000      -0.293434        -7.9847
 254   2.0000      -0.291947        -7.9443
 255   2.0000      -0.289702        -7.8832
 256   2.0000      -0.284314        -7.7366
 257   2.0000      -0.274631        -7.4731
 258   2.0000      -0.269669        -7.3381
 259   2.0000      -0.267367        -7.2754
 260   2.0000      -0.221994        -6.0408
 261   0.0000      -0.087045        -2.3686
 262   0.0000      -0.063057        -1.7159
 263   0.0000      -0.061239        -1.6664
 264   0.0000      -0.042339        -1.1521
 265   0.0000      -0.035435        -0.9642

MULLIKEN ATOMIC CHARGES
-----------------------
   0 C :    0.358691
   1 C :   -0.378024
   2 C :   -0.161281
   3 N :    0.129075
   4 C :   -0.205044
   5 N :    0.160561
   6 C :    0.033259
   7 C :   -0.010401
   8 C :   -0.045223
   9 C :    0.109801
  10 C :   -0.095972
  11 C :    0.006242
  12 S :    0.144363
  13 C :   -0.050945
  14 C :    0.012604
  15 C :    0.102236
  16 O :   -0.153188
  17 C :   -0.070891
  18 C :   -0.009065
  19 C :   -0.164051
  20 S :    0.119612
  21 C :   -0.034717
  22 C :    0.028576
  23 C :    0.014166
  24 S :    0.144685
  25 C :   -0.102381
  26 C :    0.011835
  27 C :   -0.024202
  28 C :    0.029865
  29 C :   -0.035789
  30 C :    0.129215
  31 N :   -0.217176
  32 C :    0.061700
  33 N :   -0.197832
  34 C :    0.073446
  35 C :   -0.159643
  36 C :    0.188879
  37 C :   -0.037214
  38 C :    0.016668
  39 C :    0.024473
  40 C :    0.031657
  41 C :    0.017278
  42 C :    0.032784
  43 C :   -0.102626
  44 C :   -0.002000
  45 C :   -0.126694
  46 S :    0.109252
  47 C :   -0.062308
  48 C :    0.057312
  49 C :   -0.048221
  50 S :    0.166865
  51 C :   -0.061213
  52 C :   -0.063951
  53 C :    0.278334
  54 C :   -0.319499
  55 C :   -0.182359
  56 N :    0.143652
  57 C :   -0.235861
  58 N :    0.163649
  59 C :    0.005642
  60 C :   -0.012343
  61 C :    0.153086
  62 O :   -0.177786
  63 C :   -0.048117
  64 C :    0.128782
  65 C :   -0.079071
  66 C :   -0.029678
  67 S :    0.133228
  68 C :   -0.048068
  69 C :    0.025351
  70 H :   -0.022648
  71 H :   -0.044812
  72 H :    0.033035
  73 H :   -0.012995
  74 H :    0.009677
  75 H :    0.041755
  76 H :    0.000078
  77 H :   -0.039097
  78 H :    0.007436
  79 H :    0.000385
  80 H :   -0.020509
  81 H :    0.092308
  82 H :    0.079167
  83 H :    0.003886
  84 H :    0.003529
  85 H :    0.096993
  86 H :    0.107944
  87 H :    0.022548
  88 H :    0.054913
  89 H :   -0.018977
  90 H :   -0.038633
  91 H :   -0.035764
  92 H :   -0.024600
  93 H :    0.008557
  94 H :    0.037887
  95 H :    0.034721
  96 H :    0.006287
  97 H :    0.063891
  98 H :   -0.027924
  99 H :   -0.010528
 100 H :    0.026638
 101 H :   -0.029140
Sum of atomic charges:   -0.0000000

LOEWDIN ATOMIC CHARGES
----------------------
   0 C :    0.092648
   1 C :   -0.156222
   2 C :    0.009150
   3 N :   -0.072569
   4 C :   -0.017325
   5 N :   -0.058759
   6 C :   -0.020878
   7 C :   -0.043050
   8 C :    0.023497
   9 C :   -0.035017
  10 C :   -0.144385
  11 C :   -0.002895
  12 S :    0.445216
  13 C :   -0.155151
  14 C :   -0.062908
  15 C :    0.062154
  16 O :   -0.162872
  17 C :   -0.082780
  18 C :    0.013994
  19 C :   -0.194351
  20 S :    0.436376
  21 C :   -0.158596
  22 C :   -0.075903
  23 C :   -0.168465
  24 S :    0.447382
  25 C :   -0.167389
  26 C :   -0.031948
  27 C :   -0.025338
  28 C :   -0.027615
  29 C :   -0.040291
  30 C :    0.027042
  31 N :   -0.115386
  32 C :    0.019847
  33 N :   -0.094280
  34 C :   -0.011317
  35 C :    0.064479
  36 C :   -0.032236
  37 C :   -0.024825
  38 C :   -0.022734
  39 C :   -0.020432
  40 C :   -0.037617
  41 C :    0.002771
  42 C :   -0.055317
  43 C :   -0.008044
  44 C :   -0.060688
  45 C :   -0.180894
  46 S :    0.439508
  47 C :   -0.176186
  48 C :   -0.068840
  49 C :   -0.207790
  50 S :    0.476961
  51 C :   -0.080072
  52 C :   -0.125047
  53 C :    0.073637
  54 C :   -0.147211
  55 C :   -0.017772
  56 N :   -0.059687
  57 C :   -0.040807
  58 N :   -0.058583
  59 C :   -0.018848
  60 C :   -0.065004
  61 C :    0.096143
  62 O :   -0.173616
  63 C :    0.030602
  64 C :   -0.029824
  65 C :   -0.138668
  66 C :   -0.014647
  67 S :    0.427623
  68 C :   -0.154932
  69 C :   -0.056055
  70 H :    0.035834
  71 H :    0.033154
  72 H :    0.026957
  73 H :    0.032920
  74 H :    0.037295
  75 H :    0.030771
  76 H :    0.032625
  77 H :    0.024028
  78 H :    0.032060
  79 H :    0.018630
  80 H :   -0.003869
  81 H :    0.055174
  82 H :    0.045818
  83 H :    0.017030
  84 H :    0.001795
  85 H :    0.050620
  86 H :    0.057540
  87 H :    0.035163
  88 H :    0.074039
  89 H :    0.021349
  90 H :    0.028094
  91 H :    0.027621
  92 H :    0.024717
  93 H :    0.017642
  94 H :    0.033469
  95 H :    0.027095
  96 H :    0.036391
  97 H :    0.038760
  98 H :    0.030347
  99 H :    0.038752
 100 H :    0.024640
 101 H :    0.026577

  Mayer bond orders larger than 0.100000
B(  0-C ,  1-C ) :   1.5766 B(  0-C ,  6-C ) :   1.0025 B(  0-C , 17-C ) :   1.1089
B(  1-C ,  2-C ) :   1.1722 B(  1-C ,  4-C ) :   1.1703 B(  2-C ,  3-N ) :   2.8872
B(  4-C ,  5-N ) :   2.8939 B(  6-C ,  7-C ) :   1.2693 B(  6-C , 11-C ) :   1.4040
B(  7-C ,  8-C ) :   1.4214 B(  7-C , 15-C ) :   0.9359 B(  8-C ,  9-C ) :   1.2368
B(  8-C , 70-H ) :   1.0165 B(  9-C , 10-C ) :   1.3092 B(  9-C , 14-C ) :   1.1698
B( 10-C , 11-C ) :   1.3228 B( 10-C , 12-S ) :   1.1009 B( 11-C , 71-H ) :   0.9832
B( 12-S , 13-C ) :   1.1338 B( 13-C , 14-C ) :   1.6155 B( 13-C , 72-H ) :   0.9690
B( 14-C , 73-H ) :   1.0012 B( 15-C , 16-O ) :   2.2008 B( 15-C , 17-C ) :   0.9597
B( 17-C , 18-C ) :   1.5626 B( 18-C , 19-C ) :   1.2513 B( 18-C , 74-H ) :   0.9092
B( 19-C , 20-S ) :   1.1095 B( 19-C , 23-C ) :   1.4087 B( 20-S , 21-C ) :   1.1629
B( 21-C , 22-C ) :   1.5843 B( 21-C , 75-H ) :   0.9718 B( 22-C , 23-C ) :   1.2351
B( 22-C , 76-H ) :   0.9907 B( 23-C , 24-S ) :   1.0743 B( 24-S , 25-C ) :   1.0146
B( 25-C , 26-C ) :   1.5411 B( 25-C , 42-C ) :   1.1314 B( 26-C , 27-C ) :   1.1496
B( 26-C , 77-H ) :   0.9600 B( 27-C , 28-C ) :   1.4849 B( 27-C , 40-C ) :   1.1463
B( 28-C , 29-C ) :   1.0161 B( 28-C , 34-C ) :   1.0928 B( 29-C , 30-C ) :   1.0552
B( 29-C , 32-C ) :   1.0529 B( 29-C , 78-H ) :   0.8689 B( 30-C , 31-N ) :   1.0797
B( 30-C , 79-H ) :   0.9312 B( 30-C , 80-H ) :   0.9391 B( 31-N , 81-H ) :   0.9682
B( 31-N , 82-H ) :   0.9708 B( 32-C , 33-N ) :   1.1186 B( 32-C , 83-H ) :   0.9328
B( 32-C , 84-H ) :   0.9286 B( 33-N , 85-H ) :   0.9631 B( 33-N , 86-H ) :   0.9485
B( 34-C , 35-C ) :   1.6375 B( 34-C , 39-C ) :   1.0653 B( 35-C , 36-C ) :   0.9808
B( 35-C , 87-H ) :   0.9585 B( 36-C , 37-C ) :   0.9856 B( 36-C , 43-C ) :   0.9592
B( 36-C , 88-H ) :   0.8311 B( 37-C , 38-C ) :   1.7195 B( 37-C , 89-H ) :   0.9671
B( 38-C , 39-C ) :   1.1281 B( 38-C , 90-H ) :   0.9910 B( 39-C , 40-C ) :   1.4449
B( 40-C , 41-C ) :   1.1502 B( 41-C , 42-C ) :   1.5867 B( 41-C , 91-H ) :   0.9892
B( 42-C , 92-H ) :   0.9879 B( 43-C , 44-C ) :   1.8578 B( 43-C , 93-H ) :   0.9601
B( 44-C , 45-C ) :   1.0885 B( 44-C , 94-H ) :   0.9395 B( 45-C , 46-S ) :   1.1446
B( 45-C , 49-C ) :   1.5394 B( 46-S , 47-C ) :   1.1549 B( 47-C , 48-C ) :   1.5995
B( 47-C , 95-H ) :   0.9723 B( 48-C , 49-C ) :   1.2386 B( 48-C , 96-H ) :   0.9955
B( 49-C , 50-S ) :   1.0180 B( 50-S , 51-C ) :   1.1887 B( 51-C , 52-C ) :   1.6919
B( 51-C , 97-H ) :   0.8958 B( 52-C , 53-C ) :   1.0479 B( 52-C , 61-C ) :   0.9692
B( 53-C , 54-C ) :   1.6275 B( 53-C , 59-C ) :   1.0274 B( 54-C , 55-C ) :   1.1312
B( 54-C , 57-C ) :   1.1669 B( 55-C , 56-N ) :   2.9827 B( 57-C , 58-N ) :   3.0053
B( 59-C , 60-C ) :   1.2531 B( 59-C , 66-C ) :   1.4245 B( 60-C , 61-C ) :   0.9514
B( 60-C , 63-C ) :   1.4069 B( 61-C , 62-O ) :   2.1414 B( 63-C , 64-C ) :   1.2648
B( 63-C , 98-H ) :   1.0095 B( 64-C , 65-C ) :   1.3105 B( 64-C , 69-C ) :   1.1748
B( 65-C , 66-C ) :   1.3099 B( 65-C , 67-S ) :   1.0970 B( 66-C , 99-H ) :   0.9838
B( 67-S , 68-C ) :   1.1243 B( 68-C , 69-C ) :   1.6231 B( 68-C ,100-H ) :   0.9688
B( 69-C ,101-H ) :   0.9930

-----------------------------------------------------------------------------
         ABSORPTION SPECTRUM VIA TRANSITION ELECTRIC DIPOLE MOMENTS
-----------------------------------------------------------------------------
State   Energy  Wavelength   fosc         T2         TX        TY        TZ
        (cm-1)    (nm)                  (au**2)     (au)      (au)      (au)
-----------------------------------------------------------------------------
   0   10477.2    954.5   0.003359415   0.10556  -0.27189  -0.02766   0.17570
   1   15415.0    648.7   0.037558449   0.80212  -0.15905  -0.85676   0.20683
   2   19879.1    503.0   0.073701960   1.22056   0.46367   0.57085   0.82443
   3   21251.7    470.6   0.065825555   1.01971   0.40160  -0.50411  -0.77737
   4   22248.9    449.5   0.002138575   0.03164  -0.12542   0.09804   0.07938
   5   24610.8    406.3   0.230483654   3.08312  -1.63806  -0.54579   0.31938
   6   25199.7    396.8   0.080059255   1.04591   0.52119   0.86054  -0.18366
   7   25830.4    387.1   0.003469548   0.04422  -0.14830   0.13371   0.06595
   8   26132.7    382.7   0.006934250   0.08736   0.05943   0.28948  -0.00498
   9   26202.4    381.6   0.004163992   0.05232  -0.08641   0.00497   0.21172
  10   26463.0    377.9   0.146448026   1.82188  -0.87103   0.95491  -0.38900
  11   26634.5    375.5   0.308182133   3.80925   0.45586   1.87151   0.31446
  12   27730.9    360.6   0.039280083   0.46632  -0.04655  -0.67716  -0.07491
  13   27928.0    358.1   0.049942589   0.58872   0.47996  -0.56976   0.18365
  14   28648.6    349.1   0.014703506   0.16896  -0.22379  -0.34478  -0.00311
  15   28716.1    348.2   0.013149310   0.15075   0.34968  -0.13944  -0.09504
  16   28800.2    347.2   0.115719092   1.32277  -0.98121  -0.32609   0.50365
  17   29073.0    344.0   0.135468462   1.53400  -1.12828  -0.50421   0.08215
  18   29527.3    338.7   0.003811718   0.04250  -0.10876   0.17311  -0.02651
  19   29647.7    337.3   0.014317112   0.15898   0.23642   0.21860   0.23515
  20   29844.6    335.1   0.006702881   0.07394   0.26893  -0.03852   0.01149
  21   30119.0    332.0   0.006166224   0.06740  -0.17332  -0.15495  -0.11554
  22   30437.4    328.5   0.035403357   0.38292   0.49129  -0.26300  -0.26905
  23   30530.2    327.5   0.058774349   0.63377  -0.73864   0.17025   0.24330
  24   30561.9    327.2   0.041551814   0.44760   0.59838   0.24328  -0.17424
  25   30650.2    326.3   0.081639730   0.87689  -0.29546   0.77724   0.43069
  26   30954.0    323.1   0.140584397   1.49519   0.77814   0.60304  -0.72528
  27   31615.9    316.3   0.073279503   0.76305  -0.37621  -0.59397   0.51837
  28   31887.9    313.6   0.244231563   2.52146   1.07676   1.06496  -0.47740
  29   32533.9    307.4   0.044489275   0.45019  -0.37143   0.03053  -0.55794
  30   32789.5    305.0   0.049132965   0.49330   0.38064  -0.59024  -0.00518
  31   32960.5    303.4   0.179292505   1.79079  -0.32184  -1.28871   0.16255
  32   33248.4    300.8   0.008914947   0.08827  -0.24748   0.00865   0.16417
  33   33451.9    298.9   0.087276393   0.85892   0.60657  -0.14698  -0.68512
  34   33705.7    296.7   0.068561268   0.66965  -0.55578   0.20832   0.56335
  35   33949.3    294.6   0.088302542   0.85628  -0.62870   0.20865   0.64613
  36   34020.1    293.9   0.049408010   0.47812   0.37916  -0.44026  -0.37486
  37   34315.4    291.4   0.280589597   2.69190  -0.39274  -1.36329   0.82407
  38   34388.7    290.8   0.682563977   6.53436   1.17212   2.17892  -0.64250
  39   34699.0    288.2   0.193184747   1.83287  -0.07518  -1.34434  -0.14126
  40   34831.4    287.1   0.165630666   1.56547   1.23530  -0.18134  -0.08132
  41   35070.0    285.1   0.201143244   1.88819  -1.07394  -0.83637   0.18793
  42   35300.6    283.3   0.035834770   0.33419   0.08259   0.57170  -0.02296
  43   35383.5    282.6   0.069900694   0.65036   0.64756   0.42789  -0.21894
  44   35734.5    279.8   0.001762359   0.01624   0.01144   0.12260   0.03278
  45   35752.2    279.7   0.030602025   0.28179   0.47830   0.22711  -0.03788
  46   36449.6    274.4   0.009556351   0.08631   0.08062   0.27460  -0.06640
  47   36838.7    271.5   0.001991738   0.01780  -0.01823  -0.11924  -0.05700
  48   37125.5    269.4   0.054338439   0.48185  -0.57730  -0.36474   0.12466
  49   37179.6    269.0   0.144671751   1.28102   0.78115   0.08443  -0.81468
  50   37533.4    266.4   0.075344197   0.66086  -0.41014  -0.69369   0.10697
  51   37741.0    265.0   0.004469450   0.03899  -0.05283   0.18919   0.02005
  52   37788.7    264.6   0.114729543   0.99951  -0.35321  -0.92954  -0.10352
  53   38107.2    262.4   0.068756881   0.59400   0.03228   0.64504   0.42056
  54   38158.2    262.1   0.082664102   0.71319   0.76166   0.36472   0.00645
  55   38210.2    261.7   0.039833846   0.34320  -0.35796  -0.45956  -0.06218
  56   38370.3    260.6   0.008454263   0.07254  -0.16649  -0.19626  -0.07937
  57   38495.9    259.8   0.000626313   0.00536   0.00845   0.05476   0.04781
  58   38829.0    257.5   0.021312764   0.18070  -0.32025  -0.04807   0.27538
  59   38973.2    256.6   0.206016235   1.74025   0.98129  -0.02003  -0.88143
  60   39185.0    255.2   0.001901088   0.01597  -0.00981  -0.11501   0.05145
  61   39313.3    254.4   0.057537609   0.48182  -0.64046   0.25427   0.08353
  62   39500.0    253.2   0.033208237   0.27677  -0.47652  -0.15768  -0.15761
  63   39598.2    252.5   0.007083367   0.05889   0.07364  -0.22401   0.05731
  64   39608.3    252.5   0.073471304   0.61067   0.53227   0.35498  -0.44871
  65   39662.1    252.1   0.031456789   0.26110  -0.26588   0.36330   0.24172
  66   39878.3    250.8   0.008371877   0.06911  -0.19388   0.02546   0.17572
  67   40008.8    249.9   0.163782088   1.34768  -0.22008   1.13864   0.05237
  68   40229.3    248.6   0.252612352   2.06723   1.32298   0.54912   0.12418

FINAL SINGLE POINT ENERGY     -5017.053996156202

DIPOLE MOMENT
-------------
                                X             Y             Z
Electronic contribution:     12.74757     -10.16628     -35.75689
Nuclear contribution   :    -15.81688      12.21082      38.34654
                        -----------------------------------------
Total Dipole Moment    :     -3.06931       2.04455       2.58965
                        -----------------------------------------
Magnitude (a.u.)       :      4.50634
Magnitude (Debye)      :     11.45421

Rotational constants in cm-1:     0.001257     0.000992     0.000666
Rotational constants in MHz :    37.691763    29.736179    19.979382

                             ****ORCA TERMINATED NORMALLY****
TOTAL RUN TIME: 0 days 0 hours 20 minutes 59 seconds 139 msec
