                         Program Version 4.2.0 -  RELEASE  -
|  1> # ORCA input file
|  2> # SCF done       -188.454903360938          0.000327133434
|  3> ! CAM-B3LYP def2-SVP def2/J RIJCOSX Grid4 TightSCF
|  4> %maxcore 5000
|  5> %tddft
|  6>     Mode sTDDFT
|  7>     Ethresh 5.0
|  8>     maxcore 5000
|  9> end
| 10>
| 11> %pal
| 12>   nprocs 6
| 13>   end
| 14> * xyz 0 1
| 15>    C        7.42903        -9.67068        -0.36207
| 16>    C        7.47607       -10.15542        -1.66343
| 17>    C        7.12057        -9.35275        -2.73807
| 18>    C        6.71669        -8.05450        -2.47794
| 19>    C        6.66803        -7.56529        -1.16431
| 20>    C        7.02138        -8.37046        -0.09663
| 21>    C        6.17961        -6.16281        -1.15510
| 22>    O        5.81034        -5.52963        -0.19911
| 23>    C        6.11927        -5.77582        -2.59229
| 24>    C        6.29612        -6.99962        -3.42286
| 25>    O        6.14375        -7.08438        -4.61927
| 26>    C        5.96562        -4.55692        -3.14314
| 27>    C        5.98663        -3.30382        -2.44758
| 28>    N        6.77698        -3.08144        -1.41905
| 29>    C        6.58591        -1.78529        -1.08042
| 30>    C        5.61693        -1.13788        -1.97269
| 31>    C        5.42889         0.26746        -1.59010
| 32>    O        4.73048         1.11286        -2.11209
| 33>    C        6.31448         0.40636        -0.41713
| 34>    C        7.01017        -0.86896        -0.14821
| 35>    N        7.82715        -0.74971         0.92773
| 36>    C        7.67719         0.48537         1.33663
| 37>    C        6.74339         1.26316         0.54362
| 38>    C        5.21246        -2.10848        -2.86043
| 39>    C        4.27169        -2.07755        -3.92592
| 40>    C        3.67376        -0.93102        -4.32754
| 41>    C        2.72113        -0.78068        -5.39036
| 42>    C        2.41785         0.50209        -5.81350
| 43>    C        1.51117         0.70648        -6.86339
| 44>    C        1.06928         1.88002        -7.47448
| 45>    C        1.55744         3.25173        -7.17124
| 46>    C        2.12138         3.94481        -8.42943
| 47>    N        3.19381         4.83582        -8.03414
| 48>    C        0.46319         4.09823        -6.49664
| 49>    N        1.02869         5.34889        -5.99996
| 50>    C        0.12047         1.48865        -8.48923
| 51>    C       -0.60813         2.21290        -9.36259
| 52>    C       -1.46375         1.55181       -10.39297
| 53>    C       -1.56596         0.06608       -10.26231
| 54>    C       -0.85402        -0.63982        -9.36323
| 55>    C        0.02103         0.02119        -8.47174
| 56>    C        0.86487        -0.44110        -7.47663
| 57>    C        1.17461        -1.73993        -7.01652
| 58>    C        2.08005        -1.89853        -6.01521
| 59>    C       -2.81966         2.20919       -10.44831
| 60>    C       -3.82361         1.84712        -9.64096
| 61>    C       -5.17227         2.32976        -9.69229
| 62>    N       -6.11946         1.55095        -9.19024
| 63>    C       -7.29594         2.12505        -9.50461
| 64>    C       -7.08586         3.35966       -10.26564
| 65>    C       -8.37233         3.99509       -10.60836
| 66>    O       -8.56243         5.01982       -11.22433
| 67>    C       -9.34795         3.06527       -10.01273
| 68>    C       -8.65193         1.93954        -9.35128
| 69>    N       -9.54229         1.09299        -8.78650
| 70>    C      -10.72097         1.61375        -9.04194
| 71>    C      -10.67184         2.84687        -9.79638
| 72>    C       -5.72696         3.53660       -10.35377
| 73>    C       -5.09071         4.69964       -10.88125
| 74>    C       -3.90287         5.20369       -10.47000
| 75>    C       -3.36671         6.40780       -10.99527
| 76>    C       -2.18717         6.96036       -10.60589
| 77>    C       -1.67644         8.25002       -11.12682
| 78>    O       -2.16051         8.91963       -12.01065
| 79>    C       -0.45800         8.54475       -10.33352
| 80>    C        0.37909         9.64342       -10.37926
| 81>    C        1.45261         9.68634        -9.49794
| 82>    C        1.67169         8.66270        -8.58571
| 83>    C        0.83348         7.55613        -8.53320
| 84>    C       -0.22437         7.50363        -9.42352
| 85>    C       -1.24129         6.44623        -9.60289
| 86>    O       -1.25313         5.35558        -9.05948
| 87>    H        7.71305       -10.31770         0.45462
| 88>    H        7.79300       -11.17264        -1.83963
| 89>    H        7.15340        -9.72034        -3.75221
| 90>    H        6.98209        -7.98529         0.91056
| 91>    H        5.84725        -4.51446        -4.22228
| 92>    H        8.22647         0.84680         2.18867
| 93>    H        6.48280         2.28889         0.71567
| 94>    H        4.06440        -3.01861        -4.41631
| 95>    H        3.94801        -0.01480        -3.81997
| 96>    H        2.89685         1.34365        -5.33514
| 97>    H        2.39487         3.16843        -6.47059
| 98>    H        1.30249         4.45058        -8.96216
| 99>    H        2.54648         3.18952        -9.09926
|100>    H        2.83139         5.52857        -7.38715
|101>    H        3.58439         5.31244        -8.83869
|102>    H        0.00022         3.49386        -5.69934
|103>    H       -0.31156         4.35092        -7.22266
|104>    H        1.71187         5.15082        -5.27338
|105>    H        0.29434         5.90929        -5.57789
|106>    H       -0.60470         3.29207        -9.36329
|107>    H       -0.97150         1.75865       -11.35830
|108>    H       -2.24624        -0.42022       -10.94440
|109>    H       -0.94386        -1.71486        -9.31102
|110>    H        0.69129        -2.59490        -7.46577
|111>    H        2.31233        -2.89047        -5.66055
|112>    H       -2.95559         2.97739       -11.19444
|113>    H       -3.68186         1.03784        -8.93608
|114>    H      -11.61548         1.12441        -8.69761
|115>    H      -11.52026         3.42760       -10.09996
|116>    H       -5.68138         5.25385       -11.60214
|117>    H       -3.33948         4.70762        -9.69299
|118>    H       -3.93887         6.93744       -11.74985
|119>    H        0.19496        10.44093       -11.08249
|120>    H        2.12331        10.53261        -9.51755
|121>    H        2.50693         8.72911        -7.90407
|122>    H        0.98475         6.76749        -7.80979
|123> *
|124>
|125>                          ****END OF INPUT****

CARTESIAN COORDINATES (ANGSTROEM)
---------------------------------
  C      7.429030   -9.670680   -0.362070
  C      7.476070  -10.155420   -1.663430
  C      7.120570   -9.352750   -2.738070
  C      6.716690   -8.054500   -2.477940
  C      6.668030   -7.565290   -1.164310
  C      7.021380   -8.370460   -0.096630
  C      6.179610   -6.162810   -1.155100
  O      5.810340   -5.529630   -0.199110
  C      6.119270   -5.775820   -2.592290
  C      6.296120   -6.999620   -3.422860
  O      6.143750   -7.084380   -4.619270
  C      5.965620   -4.556920   -3.143140
  C      5.986630   -3.303820   -2.447580
  N      6.776980   -3.081440   -1.419050
  C      6.585910   -1.785290   -1.080420
  C      5.616930   -1.137880   -1.972690
  C      5.428890    0.267460   -1.590100
  O      4.730480    1.112860   -2.112090
  C      6.314480    0.406360   -0.417130
  C      7.010170   -0.868960   -0.148210
  N      7.827150   -0.749710    0.927730
  C      7.677190    0.485370    1.336630
  C      6.743390    1.263160    0.543620
  C      5.212460   -2.108480   -2.860430
  C      4.271690   -2.077550   -3.925920
  C      3.673760   -0.931020   -4.327540
  C      2.721130   -0.780680   -5.390360
  C      2.417850    0.502090   -5.813500
  C      1.511170    0.706480   -6.863390
  C      1.069280    1.880020   -7.474480
  C      1.557440    3.251730   -7.171240
  C      2.121380    3.944810   -8.429430
  N      3.193810    4.835820   -8.034140
  C      0.463190    4.098230   -6.496640
  N      1.028690    5.348890   -5.999960
  C      0.120470    1.488650   -8.489230
  C     -0.608130    2.212900   -9.362590
  C     -1.463750    1.551810  -10.392970
  C     -1.565960    0.066080  -10.262310
  C     -0.854020   -0.639820   -9.363230
  C      0.021030    0.021190   -8.471740
  C      0.864870   -0.441100   -7.476630
  C      1.174610   -1.739930   -7.016520
  C      2.080050   -1.898530   -6.015210
  C     -2.819660    2.209190  -10.448310
  C     -3.823610    1.847120   -9.640960
  C     -5.172270    2.329760   -9.692290
  N     -6.119460    1.550950   -9.190240
  C     -7.295940    2.125050   -9.504610
  C     -7.085860    3.359660  -10.265640
  C     -8.372330    3.995090  -10.608360
  O     -8.562430    5.019820  -11.224330
  C     -9.347950    3.065270  -10.012730
  C     -8.651930    1.939540   -9.351280
  N     -9.542290    1.092990   -8.786500
  C    -10.720970    1.613750   -9.041940
  C    -10.671840    2.846870   -9.796380
  C     -5.726960    3.536600  -10.353770
  C     -5.090710    4.699640  -10.881250
  C     -3.902870    5.203690  -10.470000
  C     -3.366710    6.407800  -10.995270
  C     -2.187170    6.960360  -10.605890
  C     -1.676440    8.250020  -11.126820
  O     -2.160510    8.919630  -12.010650
  C     -0.458000    8.544750  -10.333520
  C      0.379090    9.643420  -10.379260
  C      1.452610    9.686340   -9.497940
  C      1.671690    8.662700   -8.585710
  C      0.833480    7.556130   -8.533200
  C     -0.224370    7.503630   -9.423520
  C     -1.241290    6.446230   -9.602890
  O     -1.253130    5.355580   -9.059480
  H      7.713050  -10.317700    0.454620
  H      7.793000  -11.172640   -1.839630
  H      7.153400   -9.720340   -3.752210
  H      6.982090   -7.985290    0.910560
  H      5.847250   -4.514460   -4.222280
  H      8.226470    0.846800    2.188670
  H      6.482800    2.288890    0.715670
  H      4.064400   -3.018610   -4.416310
  H      3.948010   -0.014800   -3.819970
  H      2.896850    1.343650   -5.335140
  H      2.394870    3.168430   -6.470590
  H      1.302490    4.450580   -8.962160
  H      2.546480    3.189520   -9.099260
  H      2.831390    5.528570   -7.387150
  H      3.584390    5.312440   -8.838690
  H      0.000220    3.493860   -5.699340
  H     -0.311560    4.350920   -7.222660
  H      1.711870    5.150820   -5.273380
  H      0.294340    5.909290   -5.577890
  H     -0.604700    3.292070   -9.363290
  H     -0.971500    1.758650  -11.358300
  H     -2.246240   -0.420220  -10.944400
  H     -0.943860   -1.714860   -9.311020
  H      0.691290   -2.594900   -7.465770
  H      2.312330   -2.890470   -5.660550
  H     -2.955590    2.977390  -11.194440
  H     -3.681860    1.037840   -8.936080
  H    -11.615480    1.124410   -8.697610
  H    -11.520260    3.427600  -10.099960
  H     -5.681380    5.253850  -11.602140
  H     -3.339480    4.707620   -9.692990
  H     -3.938870    6.937440  -11.749850
  H      0.194960   10.440930  -11.082490
  H      2.123310   10.532610   -9.517550
  H      2.506930    8.729110   -7.904070
  H      0.984750    6.767490   -7.809790

 Total Charge           Charge          ....    0
 Multiplicity           Mult            ....    1
 Number of Electrons    NEL             ....  486
 Basis Dimension        Dim             .... 1188

ORBITAL ENERGIES
----------------

  NO   OCC          E(Eh)            E(eV)
   0   2.0000     -19.226285      -523.1738
   1   2.0000     -19.216313      -522.9025
   2   2.0000     -19.215820      -522.8890
   3   2.0000     -19.213880      -522.8362
   4   2.0000     -19.209583      -522.7193
   5   2.0000     -19.202422      -522.5245
   6   2.0000     -14.413722      -392.2173
   7   2.0000     -14.409581      -392.1046
   8   2.0000     -14.406290      -392.0151
   9   2.0000     -14.398208      -391.7952
  10   2.0000     -14.392957      -391.6523
  11   2.0000     -14.360816      -390.7777
  12   2.0000     -10.377114      -282.3756
  13   2.0000     -10.375323      -282.3269
  14   2.0000     -10.365493      -282.0594
  15   2.0000     -10.364436      -282.0306
  16   2.0000     -10.362010      -281.9646
  17   2.0000     -10.361935      -281.9626
  18   2.0000     -10.351051      -281.6664
  19   2.0000     -10.338045      -281.3125
  20   2.0000     -10.336178      -281.2617
  21   2.0000     -10.330018      -281.0941
  22   2.0000     -10.329784      -281.0877
  23   2.0000     -10.323683      -280.9217
  24   2.0000     -10.317847      -280.7629
  25   2.0000     -10.315861      -280.7088
  26   2.0000     -10.315433      -280.6972
  27   2.0000     -10.314131      -280.6618
  28   2.0000     -10.311673      -280.5949
  29   2.0000     -10.309200      -280.5276
  30   2.0000     -10.308852      -280.5181
  31   2.0000     -10.301405      -280.3155
  32   2.0000     -10.300388      -280.2878
  33   2.0000     -10.298923      -280.2479
  34   2.0000     -10.295644      -280.1587
  35   2.0000     -10.294377      -280.1242
  36   2.0000     -10.293999      -280.1139
  37   2.0000     -10.293904      -280.1114
  38   2.0000     -10.293852      -280.1100
  39   2.0000     -10.293651      -280.1045
  40   2.0000     -10.292552      -280.0746
  41   2.0000     -10.292142      -280.0634
  42   2.0000     -10.291938      -280.0579
  43   2.0000     -10.291745      -280.0526
  44   2.0000     -10.291513      -280.0463
  45   2.0000     -10.290650      -280.0228
  46   2.0000     -10.290595      -280.0213
  47   2.0000     -10.290149      -280.0092
  48   2.0000     -10.290081      -280.0073
  49   2.0000     -10.289201      -279.9834
  50   2.0000     -10.288479      -279.9637
  51   2.0000     -10.286968      -279.9226
  52   2.0000     -10.286457      -279.9087
  53   2.0000     -10.283877      -279.8385
  54   2.0000     -10.280374      -279.7432
  55   2.0000     -10.276147      -279.6282
  56   2.0000     -10.272897      -279.5397
  57   2.0000     -10.272287      -279.5231
  58   2.0000     -10.270987      -279.4878
  59   2.0000     -10.270749      -279.4813
  60   2.0000     -10.270680      -279.4794
  61   2.0000     -10.270216      -279.4668
  62   2.0000     -10.269831      -279.4563
  63   2.0000     -10.268169      -279.4111
  64   2.0000     -10.267514      -279.3933
  65   2.0000     -10.264697      -279.3166
  66   2.0000     -10.262481      -279.2563
  67   2.0000     -10.260410      -279.2000
  68   2.0000     -10.258341      -279.1436
  69   2.0000     -10.258103      -279.1372
  70   2.0000     -10.258050      -279.1357
  71   2.0000     -10.257492      -279.1205
  72   2.0000      -1.139288       -31.0016
  73   2.0000      -1.131069       -30.7779
  74   2.0000      -1.130730       -30.7687
  75   2.0000      -1.127105       -30.6701
  76   2.0000      -1.123787       -30.5798
  77   2.0000      -1.115970       -30.3671
  78   2.0000      -1.083951       -29.4958
  79   2.0000      -1.070934       -29.1416
  80   2.0000      -1.064315       -28.9615
  81   2.0000      -1.052267       -28.6336
  82   2.0000      -0.982799       -26.7433
  83   2.0000      -0.980984       -26.6939
  84   2.0000      -0.980512       -26.6811
  85   2.0000      -0.970023       -26.3957
  86   2.0000      -0.949677       -25.8420
  87   2.0000      -0.943878       -25.6842
  88   2.0000      -0.939885       -25.5756
  89   2.0000      -0.939705       -25.5707
  90   2.0000      -0.933745       -25.4085
  91   2.0000      -0.922677       -25.1073
  92   2.0000      -0.919699       -25.0263
  93   2.0000      -0.916679       -24.9441
  94   2.0000      -0.897730       -24.4285
  95   2.0000      -0.886312       -24.1178
  96   2.0000      -0.880313       -23.9545
  97   2.0000      -0.875531       -23.8244
  98   2.0000      -0.867459       -23.6048
  99   2.0000      -0.858655       -23.3652
 100   2.0000      -0.855571       -23.2813
 101   2.0000      -0.855007       -23.2659
 102   2.0000      -0.848870       -23.0989
 103   2.0000      -0.837472       -22.7888
 104   2.0000      -0.835193       -22.7268
 105   2.0000      -0.830590       -22.6015
 106   2.0000      -0.823872       -22.4187
 107   2.0000      -0.801335       -21.8054
 108   2.0000      -0.797182       -21.6924
 109   2.0000      -0.783558       -21.3217
 110   2.0000      -0.768391       -20.9090
 111   2.0000      -0.755961       -20.5708
 112   2.0000      -0.752582       -20.4788
 113   2.0000      -0.750850       -20.4317
 114   2.0000      -0.743169       -20.2227
 115   2.0000      -0.739166       -20.1137
 116   2.0000      -0.736178       -20.0324
 117   2.0000      -0.728855       -19.8331
 118   2.0000      -0.717391       -19.5212
 119   2.0000      -0.710019       -19.3206
 120   2.0000      -0.705524       -19.1983
 121   2.0000      -0.705161       -19.1884
 122   2.0000      -0.687770       -18.7152
 123   2.0000      -0.684789       -18.6340
 124   2.0000      -0.677055       -18.4236
 125   2.0000      -0.669915       -18.2293
 126   2.0000      -0.669495       -18.2179
 127   2.0000      -0.661129       -17.9902
 128   2.0000      -0.658072       -17.9071
 129   2.0000      -0.656339       -17.8599
 130   2.0000      -0.644617       -17.5409
 131   2.0000      -0.643024       -17.4976
 132   2.0000      -0.641044       -17.4437
 133   2.0000      -0.635257       -17.2862
 134   2.0000      -0.633261       -17.2319
 135   2.0000      -0.629662       -17.1340
 136   2.0000      -0.620584       -16.8869
 137   2.0000      -0.612381       -16.6637
 138   2.0000      -0.610214       -16.6048
 139   2.0000      -0.596695       -16.2369
 140   2.0000      -0.594329       -16.1725
 141   2.0000      -0.592956       -16.1352
 142   2.0000      -0.586043       -15.9470
 143   2.0000      -0.585357       -15.9284
 144   2.0000      -0.579161       -15.7598
 145   2.0000      -0.577643       -15.7185
 146   2.0000      -0.572631       -15.5821
 147   2.0000      -0.570312       -15.5190
 148   2.0000      -0.567072       -15.4308
 149   2.0000      -0.563696       -15.3390
 150   2.0000      -0.560238       -15.2449
 151   2.0000      -0.558635       -15.2012
 152   2.0000      -0.555000       -15.1023
 153   2.0000      -0.551686       -15.0121
 154   2.0000      -0.544791       -14.8245
 155   2.0000      -0.543718       -14.7953
 156   2.0000      -0.541531       -14.7358
 157   2.0000      -0.539630       -14.6841
 158   2.0000      -0.537314       -14.6211
 159   2.0000      -0.534133       -14.5345
 160   2.0000      -0.532900       -14.5009
 161   2.0000      -0.531248       -14.4560
 162   2.0000      -0.528962       -14.3938
 163   2.0000      -0.528752       -14.3881
 164   2.0000      -0.524786       -14.2801
 165   2.0000      -0.523654       -14.2493
 166   2.0000      -0.522033       -14.2053
 167   2.0000      -0.520846       -14.1729
 168   2.0000      -0.517833       -14.0910
 169   2.0000      -0.515828       -14.0364
 170   2.0000      -0.514683       -14.0052
 171   2.0000      -0.512332       -13.9412
 172   2.0000      -0.511228       -13.9112
 173   2.0000      -0.510276       -13.8853
 174   2.0000      -0.508832       -13.8460
 175   2.0000      -0.505804       -13.7636
 176   2.0000      -0.504408       -13.7256
 177   2.0000      -0.501359       -13.6427
 178   2.0000      -0.495163       -13.4741
 179   2.0000      -0.494210       -13.4481
 180   2.0000      -0.492193       -13.3932
 181   2.0000      -0.489933       -13.3317
 182   2.0000      -0.487733       -13.2719
 183   2.0000      -0.484544       -13.1851
 184   2.0000      -0.480509       -13.0753
 185   2.0000      -0.478151       -13.0111
 186   2.0000      -0.477300       -12.9880
 187   2.0000      -0.476130       -12.9561
 188   2.0000      -0.473839       -12.8938
 189   2.0000      -0.470283       -12.7971
 190   2.0000      -0.469038       -12.7632
 191   2.0000      -0.465577       -12.6690
 192   2.0000      -0.464405       -12.6371
 193   2.0000      -0.463656       -12.6167
 194   2.0000      -0.462567       -12.5871
 195   2.0000      -0.460267       -12.5245
 196   2.0000      -0.459298       -12.4981
 197   2.0000      -0.458102       -12.4656
 198   2.0000      -0.456747       -12.4287
 199   2.0000      -0.452544       -12.3143
 200   2.0000      -0.452409       -12.3107
 201   2.0000      -0.450703       -12.2643
 202   2.0000      -0.441958       -12.0263
 203   2.0000      -0.440504       -11.9867
 204   2.0000      -0.436689       -11.8829
 205   2.0000      -0.430641       -11.7183
 206   2.0000      -0.430218       -11.7068
 207   2.0000      -0.422788       -11.5047
 208   2.0000      -0.421102       -11.4588
 209   2.0000      -0.406443       -11.0599
 210   2.0000      -0.402152       -10.9431
 211   2.0000      -0.395362       -10.7583
 212   2.0000      -0.389201       -10.5907
 213   2.0000      -0.381871       -10.3912
 214   2.0000      -0.381030       -10.3684
 215   2.0000      -0.375274       -10.2117
 216   2.0000      -0.370930       -10.0935
 217   2.0000      -0.361666        -9.8414
 218   2.0000      -0.359650        -9.7866
 219   2.0000      -0.357350        -9.7240
 220   2.0000      -0.354010        -9.6331
 221   2.0000      -0.352403        -9.5894
 222   2.0000      -0.349548        -9.5117
 223   2.0000      -0.345803        -9.4098
 224   2.0000      -0.343131        -9.3371
 225   2.0000      -0.340027        -9.2526
 226   2.0000      -0.339510        -9.2385
 227   2.0000      -0.337919        -9.1952
 228   2.0000      -0.337353        -9.1798
 229   2.0000      -0.334435        -9.1004
 230   2.0000      -0.332303        -9.0424
 231   2.0000      -0.328847        -8.9484
 232   2.0000      -0.327247        -8.9049
 233   2.0000      -0.322279        -8.7697
 234   2.0000      -0.320283        -8.7154
 235   2.0000      -0.317800        -8.6478
 236   2.0000      -0.314369        -8.5544
 237   2.0000      -0.310415        -8.4468
 238   2.0000      -0.308069        -8.3830
 239   2.0000      -0.292485        -7.9589
 240   2.0000      -0.286254        -7.7894
 241   2.0000      -0.266032        -7.2391
 242   2.0000      -0.216417        -5.8890
 243   0.0000      -0.119001        -3.2382
 244   0.0000      -0.111842        -3.0434
 245   0.0000      -0.084372        -2.2959
 246   0.0000      -0.069159        -1.8819
 247   0.0000      -0.048008        -1.3064

MULLIKEN ATOMIC CHARGES
-----------------------
   0 C :    0.042393
   1 C :    0.042249
   2 C :   -0.022873
   3 C :    0.012157
   4 C :   -0.019863
   5 C :   -0.019921
   6 C :    0.179203
   7 O :   -0.112499
   8 C :   -0.104623
   9 C :    0.144137
  10 O :   -0.139571
  11 C :   -0.052272
  12 C :    0.037172
  13 N :   -0.010687
  14 C :    0.068520
  15 C :   -0.174149
  16 C :    0.218812
  17 O :   -0.150989
  18 C :   -0.008570
  19 C :   -0.026294
  20 N :   -0.050991
  21 C :    0.087853
  22 C :   -0.098990
  23 C :    0.064941
  24 C :   -0.036481
  25 C :    0.010258
  26 C :    0.109681
  27 C :   -0.095476
  28 C :    0.057399
  29 C :   -0.023425
  30 C :   -0.060580
  31 C :    0.143875
  32 N :   -0.218742
  33 C :    0.135452
  34 N :   -0.215529
  35 C :    0.094092
  36 C :   -0.102736
  37 C :    0.158265
  38 C :   -0.063977
  39 C :    0.016329
  40 C :    0.003658
  41 C :    0.041542
  42 C :   -0.000535
  43 C :   -0.008748
  44 C :   -0.067201
  45 C :    0.049251
  46 C :    0.028519
  47 N :   -0.035723
  48 C :    0.069435
  49 C :   -0.120279
  50 C :    0.207089
  51 O :   -0.126497
  52 C :   -0.044394
  53 C :   -0.020460
  54 N :   -0.052763
  55 C :    0.094365
  56 C :   -0.085242
  57 C :    0.021231
  58 C :   -0.017034
  59 C :   -0.007357
  60 C :   -0.024066
  61 C :   -0.118841
  62 C :    0.160451
  63 O :   -0.139436
  64 C :   -0.007991
  65 C :   -0.024860
  66 C :    0.040521
  67 C :    0.038577
  68 C :   -0.023253
  69 C :    0.013009
  70 C :    0.189617
  71 O :   -0.177042
  72 H :    0.001679
  73 H :    0.000101
  74 H :   -0.003380
  75 H :    0.000590
  76 H :    0.038946
  77 H :    0.006897
  78 H :   -0.007965
  79 H :   -0.028733
  80 H :    0.001457
  81 H :   -0.022203
  82 H :   -0.022379
  83 H :   -0.020001
  84 H :   -0.001645
  85 H :    0.082670
  86 H :    0.082666
  87 H :   -0.005235
  88 H :    0.006194
  89 H :    0.103641
  90 H :    0.102917
  91 H :   -0.010341
  92 H :    0.044201
  93 H :   -0.011027
  94 H :   -0.032509
  95 H :   -0.038698
  96 H :   -0.029718
  97 H :    0.021402
  98 H :    0.023872
  99 H :    0.011974
 100 H :   -0.003106
 101 H :    0.025231
 102 H :    0.042865
 103 H :    0.017264
 104 H :   -0.003405
 105 H :    0.001061
 106 H :   -0.003163
 107 H :   -0.041210
Sum of atomic charges:   -0.0000000

LOEWDIN ATOMIC CHARGES
----------------------
   0 C :    0.001212
   1 C :   -0.002477
   2 C :    0.012026
   3 C :   -0.048589
   4 C :   -0.039671
   5 C :    0.011963
   6 C :    0.076768
   7 O :   -0.108396
   8 C :   -0.062798
   9 C :    0.079261
  10 O :   -0.134870
  11 C :    0.042690
  12 C :    0.061195
  13 N :   -0.068320
  14 C :    0.052280
  15 C :   -0.072242
  16 C :    0.070253
  17 O :   -0.149075
  18 C :   -0.037613
  19 C :    0.025452
  20 N :   -0.094168
  21 C :    0.071625
  22 C :   -0.034981
  23 C :   -0.012178
  24 C :   -0.061070
  25 C :    0.037659
  26 C :   -0.036316
  27 C :    0.012790
  28 C :   -0.026431
  29 C :   -0.014245
  30 C :   -0.038743
  31 C :    0.028493
  32 N :   -0.119492
  33 C :    0.022071
  34 N :   -0.101267
  35 C :   -0.020029
  36 C :    0.075090
  37 C :   -0.032234
  38 C :   -0.041220
  39 C :   -0.013827
  40 C :   -0.041215
  41 C :   -0.027536
  42 C :   -0.008742
  43 C :   -0.023221
  44 C :    0.047225
  45 C :   -0.032472
  46 C :    0.080485
  47 N :   -0.094873
  48 C :    0.043482
  49 C :   -0.024795
  50 C :    0.063880
  51 O :   -0.137272
  52 C :   -0.041071
  53 C :    0.026935
  54 N :   -0.094720
  55 C :    0.079070
  56 C :   -0.034255
  57 C :   -0.039900
  58 C :    0.025048
  59 C :   -0.028991
  60 C :    0.076783
  61 C :   -0.120223
  62 C :    0.077312
  63 O :   -0.139660
  64 C :   -0.043432
  65 C :    0.007536
  66 C :    0.000495
  67 C :   -0.004882
  68 C :    0.009994
  69 C :   -0.050718
  70 C :    0.095842
  71 O :   -0.155334
  72 H :    0.034780
  73 H :    0.034216
  74 H :    0.038948
  75 H :    0.040406
  76 H :    0.048971
  77 H :    0.022414
  78 H :    0.032972
  79 H :    0.022897
  80 H :    0.033877
  81 H :    0.030996
  82 H :    0.024277
  83 H :   -0.004311
  84 H :    0.017301
  85 H :    0.035607
  86 H :    0.049404
  87 H :    0.003954
  88 H :    0.014384
  89 H :    0.058743
  90 H :    0.059332
  91 H :    0.028213
  92 H :    0.066117
  93 H :    0.024654
  94 H :    0.031334
  95 H :    0.026844
  96 H :    0.024922
  97 H :    0.030774
  98 H :    0.048076
  99 H :    0.025021
 100 H :    0.035501
 101 H :    0.044885
 102 H :    0.032801
 103 H :    0.044473
 104 H :    0.038864
 105 H :    0.034237
 106 H :    0.033248
 107 H :    0.029517

  Mayer bond orders larger than 0.100000
B(  0-C ,  1-C ) :   1.3708 B(  0-C ,  5-C ) :   1.3678 B(  0-C , 72-H ) :   0.9891
B(  1-C ,  2-C ) :   1.3731 B(  1-C , 73-H ) :   0.9883 B(  2-C ,  3-C ) :   1.3733
B(  2-C , 74-H ) :   1.0048 B(  3-C ,  4-C ) :   1.3487 B(  3-C ,  9-C ) :   0.9184
B(  4-C ,  5-C ) :   1.3863 B(  4-C ,  6-C ) :   0.9179 B(  5-C , 75-H ) :   1.0039
B(  6-C ,  7-O ) :   2.2852 B(  6-C ,  8-C ) :   0.9116 B(  8-C ,  9-C ) :   0.9330
B(  8-C , 11-C ) :   1.8081 B(  9-C , 10-O ) :   2.2676 B( 11-C , 12-C ) :   1.0071
B( 11-C , 76-H ) :   0.9400 B( 12-C , 13-N ) :   1.6370 B( 12-C , 14-C ) :   0.1131
B( 12-C , 23-C ) :   1.0060 B( 13-N , 14-C ) :   1.3117 B( 14-C , 15-C ) :   1.0586
B( 14-C , 19-C ) :   1.4452 B( 15-C , 16-C ) :   0.9093 B( 15-C , 23-C ) :   1.5327
B( 16-C , 17-O ) :   2.1756 B( 16-C , 18-C ) :   0.9288 B( 17-O , 80-H ) :   0.1049
B( 18-C , 19-C ) :   1.0672 B( 18-C , 22-C ) :   1.6187 B( 19-C , 20-N ) :   1.2992
B( 20-N , 21-C ) :   1.6730 B( 21-C , 22-C ) :   1.0564 B( 21-C , 77-H ) :   0.9892
B( 22-C , 78-H ) :   1.0103 B( 23-C , 24-C ) :   1.1416 B( 24-C , 25-C ) :   1.6164
B( 24-C , 79-H ) :   0.9559 B( 25-C , 26-C ) :   1.0887 B( 25-C , 80-H ) :   0.9681
B( 26-C , 27-C ) :   1.4794 B( 26-C , 43-C ) :   1.1199 B( 27-C , 28-C ) :   1.1270
B( 27-C , 81-H ) :   1.0075 B( 28-C , 29-C ) :   1.4851 B( 28-C , 41-C ) :   1.1129
B( 29-C , 30-C ) :   1.0418 B( 29-C , 35-C ) :   1.0896 B( 30-C , 31-C ) :   1.0208
B( 30-C , 33-C ) :   1.0466 B( 30-C , 82-H ) :   0.8809 B( 31-C , 32-N ) :   1.1106
B( 31-C , 83-H ) :   0.9196 B( 31-C , 84-H ) :   0.9464 B( 32-N , 85-H ) :   0.9666
B( 32-N , 86-H ) :   0.9682 B( 33-C , 34-N ) :   1.0540 B( 33-C , 87-H ) :   0.9428
B( 33-C , 88-H ) :   0.9243 B( 34-N , 89-H ) :   0.9587 B( 34-N , 90-H ) :   0.9570
B( 34-N ,107-H ) :   0.1256 B( 35-C , 36-C ) :   1.6482 B( 35-C , 40-C ) :   1.0450
B( 36-C , 37-C ) :   0.9739 B( 36-C , 91-H ) :   0.9646 B( 37-C , 38-C ) :   0.9858
B( 37-C , 44-C ) :   0.9972 B( 37-C , 92-H ) :   0.8463 B( 38-C , 39-C ) :   1.7038
B( 38-C , 93-H ) :   0.9815 B( 39-C , 40-C ) :   1.1300 B( 39-C , 94-H ) :   0.9909
B( 40-C , 41-C ) :   1.4434 B( 41-C , 42-C ) :   1.1396 B( 42-C , 43-C ) :   1.6205
B( 42-C , 95-H ) :   0.9901 B( 43-C , 96-H ) :   0.9836 B( 44-C , 45-C ) :   1.7556
B( 44-C , 97-H ) :   0.9666 B( 45-C , 46-C ) :   1.1253 B( 45-C , 98-H ) :   0.9484
B( 46-C , 47-N ) :   1.5978 B( 46-C , 48-C ) :   0.1018 B( 46-C , 57-C ) :   0.9904
B( 47-N , 48-C ) :   1.3401 B( 48-C , 49-C ) :   1.0503 B( 48-C , 53-C ) :   1.4160
B( 49-C , 50-C ) :   0.8871 B( 49-C , 57-C ) :   1.5848 B( 50-C , 51-O ) :   2.2829
B( 50-C , 52-C ) :   0.9038 B( 52-C , 53-C ) :   1.0552 B( 52-C , 56-C ) :   1.6096
B( 53-C , 54-N ) :   1.3207 B( 54-N , 55-C ) :   1.6457 B( 55-C , 56-C ) :   1.0771
B( 55-C , 99-H ) :   0.9896 B( 56-C ,100-H ) :   1.0100 B( 57-C , 58-C ) :   1.0777
B( 58-C , 59-C ) :   1.6205 B( 58-C ,101-H ) :   0.9702 B( 59-C , 60-C ) :   1.1170
B( 59-C ,102-H ) :   0.9697 B( 60-C , 61-C ) :   1.6250 B( 60-C ,103-H ) :   0.9823
B( 61-C , 62-C ) :   0.9415 B( 61-C , 70-C ) :   0.9887 B( 62-C , 63-O ) :   2.2787
B( 62-C , 64-C ) :   0.9141 B( 64-C , 65-C ) :   1.3910 B( 64-C , 69-C ) :   1.3298
B( 65-C , 66-C ) :   1.3556 B( 65-C ,104-H ) :   1.0046 B( 66-C , 67-C ) :   1.3723
B( 66-C ,105-H ) :   0.9889 B( 67-C , 68-C ) :   1.3613 B( 67-C ,106-H ) :   0.9917
B( 68-C , 69-C ) :   1.3858 B( 68-C ,107-H ) :   0.9739 B( 69-C , 70-C ) :   0.9432
B( 70-C , 71-O ) :   2.0330

-----------------------------------------------------------------------------
         ABSORPTION SPECTRUM VIA TRANSITION ELECTRIC DIPOLE MOMENTS
-----------------------------------------------------------------------------
State   Energy  Wavelength   fosc         T2         TX        TY        TZ
        (cm-1)    (nm)                  (au**2)     (au)      (au)      (au)
-----------------------------------------------------------------------------
   0    8594.4   1163.5   0.044791050   1.71574   1.12010  -0.46552   0.49437
   1    9926.3   1007.4   0.076120097   2.52458  -0.91154   0.22691  -1.28147
   2   14081.6    710.1   0.045436149   1.06225   0.37534   0.88780   0.36494
   3   15560.0    642.7   0.012696263   0.26862  -0.44782  -0.16145  -0.20497
   4   17011.4    587.8   0.004557936   0.08821   0.05686   0.11535   0.26771
   5   20112.4    497.2   0.165468135   2.70848  -1.52409  -0.62076  -0.01730
   6   20636.7    484.6   0.004308365   0.06873   0.03208   0.12931   0.22579
   7   21817.5    458.3   0.001122897   0.01694  -0.12940   0.01274  -0.00611
   8   21954.1    455.5   0.019094386   0.28633  -0.49296  -0.04174  -0.20390
   9   21997.0    454.6   0.191219227   2.86182   1.17004  -0.81635   0.90907
  10   22273.4    449.0   0.361455334   5.34249  -1.60007   0.11161  -1.66427
  11   23656.5    422.7   0.000616728   0.00858   0.04956  -0.06353   0.04573
  12   24696.3    404.9   0.407006692   5.42556   2.30782  -0.01456   0.31518
  13   24764.6    403.8   0.018671167   0.24821   0.44519  -0.13510   0.17821
  14   24855.6    402.3   0.028815082   0.38166   0.20369   0.56101   0.15949
  15   25125.7    398.0   0.021142586   0.27702  -0.24963  -0.10091  -0.45225
  16   25409.0    393.6   0.188400216   2.44101  -1.07274   0.04175  -1.13512
  17   25596.3    390.7   0.432046321   5.55684  -1.90358   0.90274  -1.05748
  18   25674.3    389.5   0.076706495   0.98358   0.48081  -0.62292   0.60363
  19   26133.6    382.6   0.364911908   4.59689   1.47012   1.28043  -0.89226
  20   26361.0    379.3   0.015887152   0.19841  -0.03949  -0.39498   0.20208
  21   26607.9    375.8   0.189307362   2.34225  -0.22512  -1.30467  -0.76772
  22   26763.7    373.6   0.011808824   0.14526  -0.21748   0.22264  -0.21998
  23   26962.7    370.9   0.220632086   2.69389  -0.29837  -0.84467  -1.37528
  24   27226.1    367.3   0.026306532   0.31809  -0.11556   0.33020   0.44238
  25   27419.1    364.7   0.114811594   1.37851   0.64365   0.93895   0.28738
  26   27657.4    361.6   0.636439679   7.57567  -1.88610  -1.96590  -0.39187
  27   28250.9    354.0   0.003424509   0.03991  -0.13118   0.03904  -0.14552
  28   28906.9    345.9   0.009528448   0.10852  -0.17091  -0.25172   0.12627
  29   29188.8    342.6   0.013178929   0.14864  -0.33662  -0.16486   0.09028
  30   29427.6    339.8   0.046931894   0.52504  -0.24014  -0.56867  -0.37945
  31   29776.3    335.8   0.002069782   0.02288   0.13622   0.06565  -0.00410
  32   29818.8    335.4   0.044952551   0.49629  -0.13018   0.66211   0.20238
  33   30199.6    331.1   0.035454673   0.38650   0.08403   0.60489   0.11641
  34   30295.6    330.1   0.001783944   0.01939   0.05232   0.12837   0.01298
  35   30459.0    328.3   0.005460178   0.05902   0.06348   0.23397   0.01559
  36   31037.6    322.2   0.002197711   0.02331   0.02322   0.14976  -0.01856
  37   31109.9    321.4   0.012061561   0.12764  -0.06661  -0.16497  -0.30982
  38   31740.5    315.1   0.162607580   1.68657   1.02496   0.41643   0.68015
  39   31958.6    312.9   0.066911867   0.68927  -0.58845  -0.32916  -0.48441
  40   32021.1    312.3   0.179509359   1.84555   1.33119   0.24443  -0.11726
  41   32285.0    309.7   0.523377832   5.33691   2.29997   0.15555   0.15116
  42   32749.0    305.4   0.011064694   0.11123   0.15392  -0.26671   0.12807
  43   32783.5    305.0   0.120552082   1.21058  -0.11675  -1.09391   0.01793
  44   33114.9    302.0   0.124769705   1.24040  -0.57100  -0.49904  -0.81567
  45   33216.3    301.1   0.033249879   0.32955   0.41489   0.06286   0.39174
  46   33280.8    300.5   0.004829836   0.04778   0.13673   0.06593  -0.15727
  47   33594.0    297.7   0.025628106   0.25115   0.24827   0.10725   0.42191
  48   33864.4    295.3   0.040777668   0.39642   0.50289  -0.22580   0.30421
  49   33870.3    295.2   0.046270682   0.44974   0.16525  -0.49956   0.41578
  50   34081.3    293.4   0.024321164   0.23493  -0.16976   0.43616  -0.12601
  51   34425.8    290.5   0.061712920   0.59016   0.25102  -0.72501  -0.03891
  52   34528.0    289.6   0.062354183   0.59452  -0.59103   0.14216  -0.47434
  53   34586.2    289.1   0.043760932   0.41654   0.44443  -0.32522   0.33653
  54   34593.7    289.1   0.037730520   0.35906  -0.30277   0.32626  -0.40119
  55   34797.9    287.4   0.094923409   0.89804  -0.91605  -0.23628   0.05532
  56   34909.4    286.5   0.001172525   0.01106  -0.04720  -0.02763   0.08981
  57   34981.1    285.9   0.034352346   0.32329  -0.16647   0.46524  -0.28131
  58   35351.9    282.9   0.208609045   1.94266  -0.86123   0.85459  -0.68601
  59   35528.0    281.5   0.024058890   0.22294   0.27703   0.09480  -0.37041
  60   35927.8    278.3   0.022967795   0.21046   0.35128   0.17228   0.23954
  61   36150.2    276.6   0.060977055   0.55531   0.16975  -0.64605   0.33032
  62   36240.7    275.9   0.002081188   0.01891  -0.03933  -0.03968  -0.12564
  63   36477.2    274.1   0.003030844   0.02735  -0.07875  -0.13026  -0.06468
  64   36549.9    273.6   0.048131895   0.43353   0.32865  -0.52474   0.22398
  65   36651.9    272.8   0.008061482   0.07241  -0.25086   0.08172  -0.05293
  66   36847.7    271.4   0.215358728   1.92410   0.00752  -1.37655  -0.17070
  67   36927.5    270.8   0.015594724   0.13903  -0.35427  -0.01212   0.11566
  68   37143.2    269.2   0.025440529   0.22549   0.45375  -0.01024  -0.13961
  69   37835.6    264.3   0.001708417   0.01487   0.00499   0.11891   0.02649
  70   38120.8    262.3   0.101198736   0.87395  -0.61919   0.69955   0.03457
  71   38179.4    261.9   0.081267896   0.70075  -0.80038  -0.20561  -0.13366
  72   38393.3    260.5   0.070735410   0.60654  -0.66934   0.38213  -0.11179
  73   38473.7    259.9   0.071926128   0.61546   0.00317   0.71679  -0.31885
  74   38626.5    258.9   0.006727667   0.05734   0.16455   0.15467  -0.07962
  75   38782.0    257.9   0.002927166   0.02485   0.08170   0.05615  -0.12256
  76   38992.3    256.5   0.006028022   0.05089  -0.01028   0.16116  -0.15754
  77   39008.8    256.4   0.012256204   0.10344  -0.16172   0.14110  -0.23953
  78   39190.7    255.2   0.043781645   0.36778   0.09085   0.43152  -0.41631
  79   39270.4    254.6   0.010448763   0.08759  -0.01332  -0.20672  -0.21138
  80   39369.5    254.0   0.002264238   0.01893   0.05890  -0.10144   0.07194
  81   39759.0    251.5   0.005378530   0.04454  -0.15940   0.11072   0.08286
  82   39892.0    250.7   0.005482969   0.04525   0.19318  -0.05578   0.06940
  83   39998.2    250.0   0.094854314   0.78071   0.75261  -0.20999   0.41254
  84   40024.0    249.9   0.014727341   0.12114   0.19889  -0.08206   0.27358
  85   40120.3    249.3   0.087954879   0.72172   0.84604   0.05148   0.05744
  86   40144.1    249.1   0.005850760   0.04798  -0.16551   0.13854   0.03732
  87   40224.7    248.6   0.001544311   0.01264   0.05061   0.03939   0.09233

FINAL SINGLE POINT ENERGY     -3083.798066305746

DIPOLE MOMENT
-------------
                                X             Y             Z
Electronic contribution:     -7.51635     -22.54937      13.85915
Nuclear contribution   :      7.34879      23.00930     -14.26810
                        -----------------------------------------
Total Dipole Moment    :     -0.16756       0.45993      -0.40895
                        -----------------------------------------
Magnitude (a.u.)       :      0.63785
Magnitude (Debye)      :      1.62128

Rotational constants in cm-1:     0.001348     0.000323     0.000280
Rotational constants in MHz :    40.411192     9.680181     8.380198

                             ****ORCA TERMINATED NORMALLY****
TOTAL RUN TIME: 0 days 0 hours 14 minutes 23 seconds 12 msec
