                         Program Version 4.2.0 -  RELEASE  -
|  1> # ORCA input file
|  2> # SCF done       -194.342151157229          0.000826839903
|  3> ! CAM-B3LYP def2-SVP def2/J RIJCOSX Grid4 TightSCF
|  4> %maxcore 5000
|  5> %tddft
|  6>     Mode sTDDFT
|  7>     Ethresh 5.0
|  8>     maxcore 5000
|  9> end
| 10>
| 11> %pal
| 12>   nprocs 6
| 13>   end
| 14> * xyz 0 1
| 15>    C        4.34707        12.29589         3.73456
| 16>    C        3.55233        13.37102         3.44651
| 17>    C        3.82456        14.69046         3.86685
| 18>    N        3.99828        15.78112         4.17841
| 19>    C        2.34254        13.29003         2.72286
| 20>    N        1.34132        13.28028         2.16267
| 21>    C        5.55869        12.30438         4.54379
| 22>    C        6.01761        10.96274         4.70332
| 23>    C        7.14148        10.66454         5.42086
| 24>    C        7.87374        11.71311         6.01971
| 25>    C        7.42504        13.05714         5.86132
| 26>    C        6.25678        13.33540         5.11560
| 27>    C        8.16844        14.09559         6.45819
| 28>    C        9.30067        13.82194         7.17665
| 29>    C        9.74109        12.49888         7.33223
| 30>    C        9.04251        11.46656         6.76694
| 31>    C        5.12200        10.05014         3.98321
| 32>    O        5.21076         8.84314         3.88816
| 33>    C        4.10425        10.92073         3.33230
| 34>    C        3.26089        10.44392         2.38465
| 35>    C        3.15818         9.05128         2.09059
| 36>    C        3.07878         7.93259         3.05657
| 37>    N        3.08076         6.75880         2.50000
| 38>    C        3.18767         6.97766         1.16034
| 39>    C        3.19607         8.42810         0.87533
| 40>    C        3.30879         8.66114        -0.54379
| 41>    S        3.13727        10.10092        -1.30970
| 42>    C        3.46382         7.34348        -1.10042
| 43>    C        3.31898         6.32499        -0.03488
| 44>    N        3.40106         5.06989        -0.55726
| 45>    C        3.59265         5.22961        -1.83180
| 46>    C        3.68437         6.63089        -2.25674
| 47>    C        4.01560         7.05048        -3.57216
| 48>    S        3.59588         6.07037        -4.95872
| 49>    C        4.70324         8.16718        -3.99604
| 50>    C        5.43567         9.27996        -3.37464
| 51>    O        5.63927         9.53899        -2.21364
| 52>    N        5.92673        10.01992        -4.44396
| 53>    C        6.69094        11.22977        -4.26826
| 54>    C        5.64228         9.47398        -5.68582
| 55>    O        5.99222         9.95264        -6.73874
| 56>    C        4.87128         8.25208        -5.39696
| 57>    C        4.32802         7.18838        -6.09346
| 58>    C        4.29821         6.86426        -7.47267
| 59>    C        4.82208         7.64446        -8.45212
| 60>    C        4.83848         7.29075        -9.82467
| 61>    C        5.36141         8.18797       -10.86515
| 62>    N        5.33243         7.69962       -12.06807
| 63>    C        4.80243         6.45014       -11.94100
| 64>    C        4.46095         6.16257       -10.52900
| 65>    C        3.92608         4.82905       -10.42829
| 66>    S        3.38952         3.98902        -9.11816
| 67>    C        3.98140         4.32084       -11.77653
| 68>    C        4.50931         5.34401       -12.69252
| 69>    N        4.58052         4.85187       -13.96160
| 70>    C        4.12968         3.63515       -13.90074
| 71>    C        3.72307         3.21484       -12.54552
| 72>    C        3.22581         1.94842       -12.12525
| 73>    C        2.35014         1.19103       -12.83155
| 74>    C        1.84600        -0.13336       -12.50785
| 75>    C        2.34605        -0.97581       -11.55214
| 76>    C        1.83385        -2.26429       -11.28880
| 77>    N        1.45683        -3.31731       -11.03249
| 78>    C        3.45521        -0.68761       -10.72752
| 79>    N        4.36378        -0.53234       -10.04371
| 80>    C        0.75877        -0.42667       -13.43256
| 81>    C        0.61571         0.66613       -14.33739
| 82>    C        1.59844         1.70822       -14.01036
| 83>    O        1.73691         2.78761       -14.54424
| 84>    C       -0.32609         0.66625       -15.32674
| 85>    C       -1.18330        -0.44796       -15.46109
| 86>    C       -1.05010        -1.54317       -14.55832
| 87>    C       -0.06778        -1.51423       -13.54244
| 88>    C       -1.91307        -2.64888       -14.70085
| 89>    C       -2.86130        -2.67375       -15.68719
| 90>    C       -2.99126        -1.59528       -16.57532
| 91>    C       -2.17007        -0.50601       -16.46499
| 92>    H        7.46826         9.64075         5.52716
| 93>    H        5.94540        14.36255         5.00869
| 94>    H        7.82544        15.11243         6.33630
| 95>    H        9.86375        14.62428         7.62906
| 96>    H       10.63685        12.30179         7.90170
| 97>    H        9.37679        10.44608         6.88286
| 98>    H        2.69859        11.11663         1.74848
| 99>    H        2.92790         8.03836         4.11525
|100>    H        3.69724         4.38478        -2.49051
|101>    H        6.08446        11.98209        -3.76246
|102>    H        6.98271        11.58621        -5.25431
|103>    H        7.57626        11.02660        -3.66464
|104>    H        3.83194         5.92098        -7.72608
|105>    H        5.27218         8.59538        -8.20008
|106>    H        5.73861         9.17857       -10.67784
|107>    H        4.13199         3.00741       -14.77214
|108>    H        3.54995         1.62662       -11.14193
|109>    H       -0.41385         1.50682       -15.99905
|110>    H        0.00435        -2.35553       -12.87148
|111>    H       -1.80902        -3.47709       -14.01547
|112>    H       -3.51709        -3.52532       -15.78858
|113>    H       -3.74531        -1.63192       -17.34711
|114>    H       -2.26519         0.32737       -17.14547
|115> *
|116>
|117>                          ****END OF INPUT****

CARTESIAN COORDINATES (ANGSTROEM)
---------------------------------
  C      4.347070   12.295890    3.734560
  C      3.552330   13.371020    3.446510
  C      3.824560   14.690460    3.866850
  N      3.998280   15.781120    4.178410
  C      2.342540   13.290030    2.722860
  N      1.341320   13.280280    2.162670
  C      5.558690   12.304380    4.543790
  C      6.017610   10.962740    4.703320
  C      7.141480   10.664540    5.420860
  C      7.873740   11.713110    6.019710
  C      7.425040   13.057140    5.861320
  C      6.256780   13.335400    5.115600
  C      8.168440   14.095590    6.458190
  C      9.300670   13.821940    7.176650
  C      9.741090   12.498880    7.332230
  C      9.042510   11.466560    6.766940
  C      5.122000   10.050140    3.983210
  O      5.210760    8.843140    3.888160
  C      4.104250   10.920730    3.332300
  C      3.260890   10.443920    2.384650
  C      3.158180    9.051280    2.090590
  C      3.078780    7.932590    3.056570
  N      3.080760    6.758800    2.500000
  C      3.187670    6.977660    1.160340
  C      3.196070    8.428100    0.875330
  C      3.308790    8.661140   -0.543790
  S      3.137270   10.100920   -1.309700
  C      3.463820    7.343480   -1.100420
  C      3.318980    6.324990   -0.034880
  N      3.401060    5.069890   -0.557260
  C      3.592650    5.229610   -1.831800
  C      3.684370    6.630890   -2.256740
  C      4.015600    7.050480   -3.572160
  S      3.595880    6.070370   -4.958720
  C      4.703240    8.167180   -3.996040
  C      5.435670    9.279960   -3.374640
  O      5.639270    9.538990   -2.213640
  N      5.926730   10.019920   -4.443960
  C      6.690940   11.229770   -4.268260
  C      5.642280    9.473980   -5.685820
  O      5.992220    9.952640   -6.738740
  C      4.871280    8.252080   -5.396960
  C      4.328020    7.188380   -6.093460
  C      4.298210    6.864260   -7.472670
  C      4.822080    7.644460   -8.452120
  C      4.838480    7.290750   -9.824670
  C      5.361410    8.187970  -10.865150
  N      5.332430    7.699620  -12.068070
  C      4.802430    6.450140  -11.941000
  C      4.460950    6.162570  -10.529000
  C      3.926080    4.829050  -10.428290
  S      3.389520    3.989020   -9.118160
  C      3.981400    4.320840  -11.776530
  C      4.509310    5.344010  -12.692520
  N      4.580520    4.851870  -13.961600
  C      4.129680    3.635150  -13.900740
  C      3.723070    3.214840  -12.545520
  C      3.225810    1.948420  -12.125250
  C      2.350140    1.191030  -12.831550
  C      1.846000   -0.133360  -12.507850
  C      2.346050   -0.975810  -11.552140
  C      1.833850   -2.264290  -11.288800
  N      1.456830   -3.317310  -11.032490
  C      3.455210   -0.687610  -10.727520
  N      4.363780   -0.532340  -10.043710
  C      0.758770   -0.426670  -13.432560
  C      0.615710    0.666130  -14.337390
  C      1.598440    1.708220  -14.010360
  O      1.736910    2.787610  -14.544240
  C     -0.326090    0.666250  -15.326740
  C     -1.183300   -0.447960  -15.461090
  C     -1.050100   -1.543170  -14.558320
  C     -0.067780   -1.514230  -13.542440
  C     -1.913070   -2.648880  -14.700850
  C     -2.861300   -2.673750  -15.687190
  C     -2.991260   -1.595280  -16.575320
  C     -2.170070   -0.506010  -16.464990
  H      7.468260    9.640750    5.527160
  H      5.945400   14.362550    5.008690
  H      7.825440   15.112430    6.336300
  H      9.863750   14.624280    7.629060
  H     10.636850   12.301790    7.901700
  H      9.376790   10.446080    6.882860
  H      2.698590   11.116630    1.748480
  H      2.927900    8.038360    4.115250
  H      3.697240    4.384780   -2.490510
  H      6.084460   11.982090   -3.762460
  H      6.982710   11.586210   -5.254310
  H      7.576260   11.026600   -3.664640
  H      3.831940    5.920980   -7.726080
  H      5.272180    8.595380   -8.200080
  H      5.738610    9.178570  -10.677840
  H      4.131990    3.007410  -14.772140
  H      3.549950    1.626620  -11.141930
  H     -0.413850    1.506820  -15.999050
  H      0.004350   -2.355530  -12.871480
  H     -1.809020   -3.477090  -14.015470
  H     -3.517090   -3.525320  -15.788580
  H     -3.745310   -1.631920  -17.347110
  H     -2.265190    0.327370  -17.145470

 Total Charge           Charge          ....    0
 Multiplicity           Mult            ....    1
 Number of Electrons    NEL             ....  532
 Basis Dimension        Dim             .... 1205

ORBITAL ENERGIES
----------------

  NO   OCC          E(Eh)            E(eV)
   0   2.0000     -88.983992     -2421.3775
   1   2.0000     -88.913925     -2419.4709
   2   2.0000     -88.909719     -2419.3565
   3   2.0000     -19.232607      -523.3458
   4   2.0000     -19.230159      -523.2792
   5   2.0000     -19.219179      -522.9805
   6   2.0000     -19.215766      -522.8876
   7   2.0000     -14.461282      -393.5115
   8   2.0000     -14.422798      -392.4643
   9   2.0000     -14.422676      -392.4610
  10   2.0000     -14.421922      -392.4404
  11   2.0000     -14.421347      -392.4248
  12   2.0000     -14.420738      -392.4082
  13   2.0000     -14.417763      -392.3273
  14   2.0000     -14.415294      -392.2601
  15   2.0000     -14.410390      -392.1266
  16   2.0000     -10.402076      -283.0549
  17   2.0000     -10.396049      -282.8909
  18   2.0000     -10.380140      -282.4580
  19   2.0000     -10.379171      -282.4316
  20   2.0000     -10.353468      -281.7322
  21   2.0000     -10.352299      -281.7004
  22   2.0000     -10.352214      -281.6981
  23   2.0000     -10.348540      -281.5981
  24   2.0000     -10.348437      -281.5953
  25   2.0000     -10.342483      -281.4333
  26   2.0000     -10.341562      -281.4082
  27   2.0000     -10.340901      -281.3902
  28   2.0000     -10.340030      -281.3665
  29   2.0000     -10.338356      -281.3210
  30   2.0000     -10.337591      -281.3001
  31   2.0000     -10.337221      -281.2901
  32   2.0000     -10.337198      -281.2895
  33   2.0000     -10.336822      -281.2792
  34   2.0000     -10.336123      -281.2602
  35   2.0000     -10.330850      -281.1167
  36   2.0000     -10.327893      -281.0362
  37   2.0000     -10.327661      -281.0299
  38   2.0000     -10.324703      -280.9495
  39   2.0000     -10.324692      -280.9492
  40   2.0000     -10.323599      -280.9194
  41   2.0000     -10.322864      -280.8994
  42   2.0000     -10.314632      -280.6754
  43   2.0000     -10.314524      -280.6725
  44   2.0000     -10.312081      -280.6060
  45   2.0000     -10.311787      -280.5980
  46   2.0000     -10.311463      -280.5892
  47   2.0000     -10.311425      -280.5881
  48   2.0000     -10.311040      -280.5777
  49   2.0000     -10.310837      -280.5722
  50   2.0000     -10.309898      -280.5466
  51   2.0000     -10.307390      -280.4783
  52   2.0000     -10.306909      -280.4652
  53   2.0000     -10.306405      -280.4515
  54   2.0000     -10.306160      -280.4449
  55   2.0000     -10.305629      -280.4304
  56   2.0000     -10.305549      -280.4282
  57   2.0000     -10.305277      -280.4208
  58   2.0000     -10.305247      -280.4200
  59   2.0000     -10.304953      -280.4120
  60   2.0000     -10.304786      -280.4075
  61   2.0000     -10.304488      -280.3994
  62   2.0000     -10.303932      -280.3843
  63   2.0000     -10.302041      -280.3328
  64   2.0000     -10.301348      -280.3139
  65   2.0000     -10.298353      -280.2324
  66   2.0000     -10.297698      -280.2146
  67   2.0000     -10.297594      -280.2118
  68   2.0000     -10.293350      -280.0963
  69   2.0000     -10.293154      -280.0910
  70   2.0000     -10.293150      -280.0908
  71   2.0000     -10.292919      -280.0846
  72   2.0000     -10.292665      -280.0776
  73   2.0000     -10.292662      -280.0776
  74   2.0000     -10.292349      -280.0691
  75   2.0000     -10.292127      -280.0630
  76   2.0000     -10.291826      -280.0548
  77   2.0000      -8.079371      -219.8509
  78   2.0000      -8.009309      -217.9444
  79   2.0000      -8.004802      -217.8217
  80   2.0000      -6.048676      -164.5928
  81   2.0000      -6.044384      -164.4760
  82   2.0000      -6.041524      -164.3982
  83   2.0000      -5.978027      -162.6704
  84   2.0000      -5.977680      -162.6609
  85   2.0000      -5.974048      -162.5621
  86   2.0000      -5.973201      -162.5391
  87   2.0000      -5.968860      -162.4209
  88   2.0000      -5.963823      -162.2839
  89   2.0000      -1.163951       -31.6727
  90   2.0000      -1.147541       -31.2262
  91   2.0000      -1.145404       -31.1680
  92   2.0000      -1.139895       -31.0181
  93   2.0000      -1.088788       -29.6274
  94   2.0000      -1.086433       -29.5633
  95   2.0000      -1.068999       -29.0889
  96   2.0000      -1.066949       -29.0332
  97   2.0000      -1.055119       -28.7113
  98   2.0000      -1.025537       -27.9063
  99   2.0000      -1.025405       -27.9027
 100   2.0000      -1.008695       -27.4480
 101   2.0000      -1.006113       -27.3777
 102   2.0000      -1.006014       -27.3750
 103   2.0000      -1.000534       -27.2259
 104   2.0000      -1.000299       -27.2195
 105   2.0000      -0.979598       -26.6562
 106   2.0000      -0.979415       -26.6512
 107   2.0000      -0.971778       -26.4434
 108   2.0000      -0.967349       -26.3229
 109   2.0000      -0.935555       -25.4577
 110   2.0000      -0.935507       -25.4564
 111   2.0000      -0.929076       -25.2814
 112   2.0000      -0.921069       -25.0636
 113   2.0000      -0.921012       -25.0620
 114   2.0000      -0.906170       -24.6582
 115   2.0000      -0.894776       -24.3481
 116   2.0000      -0.893970       -24.3262
 117   2.0000      -0.893591       -24.3158
 118   2.0000      -0.888100       -24.1664
 119   2.0000      -0.888096       -24.1663
 120   2.0000      -0.866990       -23.5920
 121   2.0000      -0.862698       -23.4752
 122   2.0000      -0.856611       -23.3096
 123   2.0000      -0.847855       -23.0713
 124   2.0000      -0.843943       -22.9649
 125   2.0000      -0.836103       -22.7515
 126   2.0000      -0.835842       -22.7444
 127   2.0000      -0.815299       -22.1854
 128   2.0000      -0.805075       -21.9072
 129   2.0000      -0.801580       -21.8121
 130   2.0000      -0.799369       -21.7519
 131   2.0000      -0.780616       -21.2417
 132   2.0000      -0.777932       -21.1686
 133   2.0000      -0.770119       -20.9560
 134   2.0000      -0.770076       -20.9548
 135   2.0000      -0.757409       -20.6102
 136   2.0000      -0.751360       -20.4456
 137   2.0000      -0.741391       -20.1743
 138   2.0000      -0.723867       -19.6974
 139   2.0000      -0.718955       -19.5637
 140   2.0000      -0.718154       -19.5420
 141   2.0000      -0.713150       -19.4058
 142   2.0000      -0.711736       -19.3673
 143   2.0000      -0.708300       -19.2738
 144   2.0000      -0.705938       -19.2096
 145   2.0000      -0.701748       -19.0955
 146   2.0000      -0.701198       -19.0806
 147   2.0000      -0.695984       -18.9387
 148   2.0000      -0.684117       -18.6158
 149   2.0000      -0.683929       -18.6106
 150   2.0000      -0.681533       -18.5455
 151   2.0000      -0.659693       -17.9512
 152   2.0000      -0.651440       -17.7266
 153   2.0000      -0.651345       -17.7240
 154   2.0000      -0.649781       -17.6814
 155   2.0000      -0.638669       -17.3791
 156   2.0000      -0.636196       -17.3118
 157   2.0000      -0.632689       -17.2163
 158   2.0000      -0.618294       -16.8246
 159   2.0000      -0.615292       -16.7429
 160   2.0000      -0.614360       -16.7176
 161   2.0000      -0.613987       -16.7074
 162   2.0000      -0.612072       -16.6553
 163   2.0000      -0.596143       -16.2219
 164   2.0000      -0.586761       -15.9666
 165   2.0000      -0.585009       -15.9189
 166   2.0000      -0.583507       -15.8780
 167   2.0000      -0.580106       -15.7855
 168   2.0000      -0.577864       -15.7245
 169   2.0000      -0.575053       -15.6480
 170   2.0000      -0.570861       -15.5339
 171   2.0000      -0.563118       -15.3232
 172   2.0000      -0.561241       -15.2721
 173   2.0000      -0.558842       -15.2069
 174   2.0000      -0.554927       -15.1003
 175   2.0000      -0.554313       -15.0836
 176   2.0000      -0.553247       -15.0546
 177   2.0000      -0.548572       -14.9274
 178   2.0000      -0.547810       -14.9067
 179   2.0000      -0.545703       -14.8493
 180   2.0000      -0.545272       -14.8376
 181   2.0000      -0.543786       -14.7972
 182   2.0000      -0.543322       -14.7845
 183   2.0000      -0.538882       -14.6637
 184   2.0000      -0.537580       -14.6283
 185   2.0000      -0.531601       -14.4656
 186   2.0000      -0.529314       -14.4034
 187   2.0000      -0.527725       -14.3601
 188   2.0000      -0.524656       -14.2766
 189   2.0000      -0.524491       -14.2721
 190   2.0000      -0.521835       -14.1999
 191   2.0000      -0.516008       -14.0413
 192   2.0000      -0.515381       -14.0242
 193   2.0000      -0.514601       -14.0030
 194   2.0000      -0.513034       -13.9604
 195   2.0000      -0.507269       -13.8035
 196   2.0000      -0.506623       -13.7859
 197   2.0000      -0.503911       -13.7121
 198   2.0000      -0.503503       -13.7010
 199   2.0000      -0.500530       -13.6201
 200   2.0000      -0.498177       -13.5561
 201   2.0000      -0.495655       -13.4874
 202   2.0000      -0.494675       -13.4608
 203   2.0000      -0.492705       -13.4072
 204   2.0000      -0.491304       -13.3691
 205   2.0000      -0.490301       -13.3418
 206   2.0000      -0.489138       -13.3101
 207   2.0000      -0.487292       -13.2599
 208   2.0000      -0.481427       -13.1003
 209   2.0000      -0.480136       -13.0652
 210   2.0000      -0.476079       -12.9548
 211   2.0000      -0.472772       -12.8648
 212   2.0000      -0.471844       -12.8395
 213   2.0000      -0.471509       -12.8304
 214   2.0000      -0.462235       -12.5781
 215   2.0000      -0.455178       -12.3860
 216   2.0000      -0.454946       -12.3797
 217   2.0000      -0.451008       -12.2726
 218   2.0000      -0.450175       -12.2499
 219   2.0000      -0.450016       -12.2456
 220   2.0000      -0.448836       -12.2134
 221   2.0000      -0.447094       -12.1660
 222   2.0000      -0.446070       -12.1382
 223   2.0000      -0.443680       -12.0731
 224   2.0000      -0.440693       -11.9919
 225   2.0000      -0.440431       -11.9847
 226   2.0000      -0.440398       -11.9838
 227   2.0000      -0.440280       -11.9806
 228   2.0000      -0.436201       -11.8696
 229   2.0000      -0.433346       -11.7919
 230   2.0000      -0.433289       -11.7904
 231   2.0000      -0.428824       -11.6689
 232   2.0000      -0.426518       -11.6061
 233   2.0000      -0.426343       -11.6014
 234   2.0000      -0.417185       -11.3522
 235   2.0000      -0.416556       -11.3351
 236   2.0000      -0.415465       -11.3054
 237   2.0000      -0.412539       -11.2258
 238   2.0000      -0.412246       -11.2178
 239   2.0000      -0.386981       -10.5303
 240   2.0000      -0.386639       -10.5210
 241   2.0000      -0.376201       -10.2369
 242   2.0000      -0.370285       -10.0760
 243   2.0000      -0.369830       -10.0636
 244   2.0000      -0.367158        -9.9909
 245   2.0000      -0.363571        -9.8933
 246   2.0000      -0.361220        -9.8293
 247   2.0000      -0.359777        -9.7900
 248   2.0000      -0.359219        -9.7748
 249   2.0000      -0.355853        -9.6832
 250   2.0000      -0.350567        -9.5394
 251   2.0000      -0.347367        -9.4523
 252   2.0000      -0.344678        -9.3792
 253   2.0000      -0.339173        -9.2294
 254   2.0000      -0.326162        -8.8753
 255   2.0000      -0.325971        -8.8701
 256   2.0000      -0.323996        -8.8164
 257   2.0000      -0.320649        -8.7253
 258   2.0000      -0.313927        -8.5424
 259   2.0000      -0.311390        -8.4733
 260   2.0000      -0.306467        -8.3394
 261   2.0000      -0.299914        -8.1611
 262   2.0000      -0.298661        -8.1270
 263   2.0000      -0.297977        -8.1084
 264   2.0000      -0.288605        -7.8534
 265   2.0000      -0.271926        -7.3995
 266   0.0000      -0.123604        -3.3634
 267   0.0000      -0.116601        -3.1729
 268   0.0000      -0.106825        -2.9068
 269   0.0000      -0.093545        -2.5455
 270   0.0000      -0.076489        -2.0814

MULLIKEN ATOMIC CHARGES
-----------------------
   0 C :    0.309466
   1 C :   -0.328578
   2 C :   -0.181177
   3 N :    0.154946
   4 C :   -0.197879
   5 N :    0.171373
   6 C :    0.053895
   7 C :   -0.009539
   8 C :   -0.072272
   9 C :    0.096918
  10 C :    0.099509
  11 C :   -0.085201
  12 C :   -0.019976
  13 C :    0.040167
  14 C :    0.037104
  15 C :   -0.015439
  16 C :    0.164215
  17 O :   -0.146705
  18 C :   -0.107919
  19 C :   -0.010727
  20 C :   -0.064703
  21 C :    0.138255
  22 N :   -0.038582
  23 C :    0.035548
  24 C :    0.032182
  25 C :   -0.003383
  26 S :   -0.079105
  27 C :    0.012749
  28 C :   -0.014111
  29 N :   -0.022843
  30 C :    0.051158
  31 C :    0.004364
  32 C :   -0.188531
  33 S :    0.183111
  34 C :    0.072273
  35 C :    0.171555
  36 O :   -0.159024
  37 N :   -0.301652
  38 C :    0.140042
  39 C :    0.212107
  40 O :   -0.174659
  41 C :   -0.029154
  42 C :   -0.143107
  43 C :    0.100342
  44 C :   -0.014054
  45 C :    0.000418
  46 C :    0.067133
  47 N :   -0.021365
  48 C :   -0.007012
  49 C :   -0.004992
  50 C :   -0.004258
  51 S :   -0.097017
  52 C :    0.015445
  53 C :    0.031866
  54 N :   -0.033103
  55 C :    0.120293
  56 C :   -0.023279
  57 C :   -0.034184
  58 C :   -0.097136
  59 C :    0.312378
  60 C :   -0.328520
  61 C :   -0.183541
  62 N :    0.158923
  63 C :   -0.200387
  64 N :    0.167928
  65 C :    0.052166
  66 C :   -0.013589
  67 C :    0.149032
  68 O :   -0.142512
  69 C :   -0.072185
  70 C :    0.097006
  71 C :    0.096453
  72 C :   -0.082614
  73 C :   -0.018245
  74 C :    0.037449
  75 C :    0.035491
  76 C :   -0.015968
  77 H :   -0.008692
  78 H :   -0.006218
  79 H :   -0.007081
  80 H :   -0.001544
  81 H :   -0.001925
  82 H :   -0.014468
  83 H :    0.046384
  84 H :    0.012509
  85 H :    0.012022
  86 H :    0.041196
  87 H :    0.052281
  88 H :    0.040029
  89 H :   -0.037921
  90 H :   -0.002448
  91 H :    0.019125
  92 H :    0.012746
  93 H :    0.044420
  94 H :   -0.008665
  95 H :   -0.005479
  96 H :   -0.005708
  97 H :   -0.001072
  98 H :   -0.000822
  99 H :   -0.013701
Sum of atomic charges:   -0.0000000

LOEWDIN ATOMIC CHARGES
----------------------
   0 C :    0.072460
   1 C :   -0.125099
   2 C :   -0.016967
   3 N :   -0.045399
   4 C :   -0.022724
   5 N :   -0.037998
   6 C :   -0.024298
   7 C :   -0.058119
   8 C :    0.038408
   9 C :   -0.008090
  10 C :   -0.003978
  11 C :    0.021455
  12 C :   -0.004774
  13 C :   -0.009380
  14 C :   -0.009820
  15 C :   -0.007247
  16 C :    0.093144
  17 O :   -0.120176
  18 C :   -0.078062
  19 C :    0.080326
  20 C :   -0.053178
  21 C :    0.123749
  22 N :   -0.095295
  23 C :    0.054345
  24 C :    0.001428
  25 C :   -0.152796
  26 S :    0.116959
  27 C :   -0.007667
  28 C :    0.023745
  29 N :   -0.074029
  30 C :    0.074704
  31 C :   -0.071309
  32 C :   -0.134630
  33 S :    0.472262
  34 C :   -0.078088
  35 C :    0.085109
  36 O :   -0.157890
  37 N :   -0.033031
  38 C :    0.037370
  39 C :    0.094227
  40 O :   -0.165481
  41 C :   -0.089431
  42 C :   -0.127580
  43 C :   -0.019438
  44 C :   -0.006679
  45 C :   -0.032832
  46 C :    0.093879
  47 N :   -0.073583
  48 C :    0.039481
  49 C :   -0.036894
  50 C :   -0.138508
  51 S :    0.082584
  52 C :   -0.005242
  53 C :    0.039555
  54 N :   -0.085594
  55 C :    0.112934
  56 C :   -0.046621
  57 C :    0.074964
  58 C :   -0.076802
  59 C :    0.072093
  60 C :   -0.125494
  61 C :   -0.016847
  62 N :   -0.045216
  63 C :   -0.023052
  64 N :   -0.038763
  65 C :   -0.025265
  66 C :   -0.058705
  67 C :    0.087568
  68 O :   -0.127001
  69 C :    0.037006
  70 C :   -0.007877
  71 C :   -0.004371
  72 C :    0.021436
  73 C :   -0.004618
  74 C :   -0.010086
  75 C :   -0.009752
  76 C :   -0.007978
  77 H :    0.041105
  78 H :    0.039885
  79 H :    0.035586
  80 H :    0.034587
  81 H :    0.034180
  82 H :    0.033130
  83 H :    0.050558
  84 H :    0.027079
  85 H :    0.023532
  86 H :    0.033810
  87 H :    0.037451
  88 H :    0.033494
  89 H :    0.005473
  90 H :    0.033159
  91 H :    0.030807
  92 H :    0.027022
  93 H :    0.048998
  94 H :    0.040791
  95 H :    0.039913
  96 H :    0.035857
  97 H :    0.034668
  98 H :    0.034307
  99 H :    0.033172

  Mayer bond orders larger than 0.100000
B(  0-C ,  1-C ) :   1.6743 B(  0-C ,  6-C ) :   1.0008 B(  0-C , 18-C ) :   1.0214
B(  1-C ,  2-C ) :   1.1378 B(  1-C ,  4-C ) :   1.1402 B(  2-C ,  3-N ) :   2.9693
B(  4-C ,  5-N ) :   2.9917 B(  6-C ,  7-C ) :   1.2103 B(  6-C , 11-C ) :   1.4475
B(  7-C ,  8-C ) :   1.4659 B(  7-C , 16-C ) :   0.9555 B(  8-C ,  9-C ) :   1.1808
B(  8-C , 77-H ) :   1.0179 B(  9-C , 10-C ) :   1.2537 B(  9-C , 15-C ) :   1.2431
B( 10-C , 11-C ) :   1.2076 B( 10-C , 12-C ) :   1.2381 B( 11-C , 78-H ) :   0.9913
B( 12-C , 13-C ) :   1.4884 B( 12-C , 79-H ) :   0.9983 B( 13-C , 14-C ) :   1.2594
B( 13-C , 80-H ) :   0.9890 B( 14-C , 15-C ) :   1.4882 B( 14-C , 81-H ) :   0.9890
B( 15-C , 82-H ) :   0.9985 B( 16-C , 17-O ) :   2.1697 B( 16-C , 18-C ) :   0.9450
B( 18-C , 19-C ) :   1.6869 B( 19-C , 20-C ) :   1.0574 B( 19-C , 83-H ) :   0.9421
B( 20-C , 21-C ) :   0.9830 B( 20-C , 24-C ) :   1.5958 B( 21-C , 22-N ) :   1.7182
B( 21-C , 84-H ) :   0.9864 B( 22-N , 23-C ) :   1.2765 B( 23-C , 24-C ) :   1.0509
B( 23-C , 28-C ) :   1.5069 B( 24-C , 25-C ) :   1.0010 B( 25-C , 26-S ) :   1.7023
B( 25-C , 27-C ) :   1.0422 B( 27-C , 28-C ) :   1.0679 B( 27-C , 31-C ) :   1.5404
B( 28-C , 29-N ) :   1.2736 B( 29-N , 30-C ) :   1.7229 B( 30-C , 31-C ) :   1.0442
B( 30-C , 85-H ) :   0.9897 B( 31-C , 32-C ) :   1.0786 B( 32-C , 33-S ) :   1.1417
B( 32-C , 34-C ) :   1.5353 B( 33-S , 42-C ) :   1.1295 B( 34-C , 35-C ) :   0.8940
B( 34-C , 41-C ) :   1.2667 B( 35-C , 36-O ) :   2.1724 B( 35-C , 37-N ) :   1.0648
B( 37-N , 38-C ) :   0.9402 B( 37-N , 39-C ) :   1.0988 B( 38-C , 86-H ) :   0.9768
B( 38-C , 87-H ) :   0.9607 B( 38-C , 88-H ) :   0.9734 B( 39-C , 40-O ) :   2.0908
B( 39-C , 41-C ) :   0.9060 B( 40-O , 90-H ) :   0.1045 B( 41-C , 42-C ) :   1.4794
B( 42-C , 43-C ) :   1.1624 B( 43-C , 44-C ) :   1.6299 B( 43-C , 89-H ) :   0.9197
B( 44-C , 45-C ) :   1.1410 B( 44-C , 90-H ) :   0.9446 B( 45-C , 46-C ) :   1.0267
B( 45-C , 49-C ) :   1.4575 B( 46-C , 47-N ) :   1.7135 B( 46-C , 91-H ) :   0.9898
B( 47-N , 48-C ) :   1.2718 B( 48-C , 49-C ) :   1.0742 B( 48-C , 53-C ) :   1.5060
B( 49-C , 50-C ) :   1.0575 B( 50-C , 51-S ) :   1.6783 B( 50-C , 52-C ) :   1.0170
B( 51-S , 89-H ) :   0.1195 B( 52-C , 53-C ) :   1.0623 B( 52-C , 56-C ) :   1.5595
B( 53-C , 54-N ) :   1.2759 B( 54-N , 55-C ) :   1.7198 B( 55-C , 56-C ) :   1.0022
B( 55-C , 92-H ) :   0.9880 B( 56-C , 57-C ) :   1.0719 B( 57-C , 58-C ) :   1.6741
B( 57-C , 93-H ) :   0.9374 B( 58-C , 59-C ) :   1.0234 B( 58-C , 67-C ) :   0.9356
B( 59-C , 60-C ) :   1.6658 B( 59-C , 65-C ) :   0.9996 B( 60-C , 61-C ) :   1.1413
B( 60-C , 63-C ) :   1.1405 B( 61-C , 62-N ) :   2.9683 B( 63-C , 64-N ) :   2.9842
B( 65-C , 66-C ) :   1.2088 B( 65-C , 72-C ) :   1.4491 B( 66-C , 67-C ) :   0.9513
B( 66-C , 69-C ) :   1.4673 B( 67-C , 68-O ) :   2.2063 B( 69-C , 70-C ) :   1.1848
B( 69-C , 94-H ) :   1.0163 B( 70-C , 71-C ) :   1.2523 B( 70-C , 76-C ) :   1.2422
B( 71-C , 72-C ) :   1.2085 B( 71-C , 73-C ) :   1.2409 B( 72-C , 95-H ) :   0.9897
B( 73-C , 74-C ) :   1.4897 B( 73-C , 96-H ) :   0.9971 B( 74-C , 75-C ) :   1.2595
B( 74-C , 97-H ) :   0.9882 B( 75-C , 76-C ) :   1.4904 B( 75-C , 98-H ) :   0.9889
B( 76-C , 99-H ) :   0.9977

-----------------------------------------------------------------------------
         ABSORPTION SPECTRUM VIA TRANSITION ELECTRIC DIPOLE MOMENTS
-----------------------------------------------------------------------------
State   Energy  Wavelength   fosc         T2         TX        TY        TZ
        (cm-1)    (nm)                  (au**2)     (au)      (au)      (au)
-----------------------------------------------------------------------------
   0   15985.6    625.6   0.308640711   6.35622  -0.30522  -1.32467  -2.12328
   1   16185.4    617.8   0.036513385   0.74268   0.18062   0.55983   0.62981
   2   16844.3    593.7   0.000430331   0.00841   0.01236  -0.05890  -0.06920
   3   17818.0    561.2   0.012011846   0.22194  -0.05612   0.21509   0.41536
   4   18016.7    555.0   0.008329120   0.15219   0.01065  -0.12672  -0.36881
   5   18405.1    543.3   0.310589743   5.55552   0.04629   0.92124   2.16903
   6   20165.4    495.9   0.724407710  11.82638  -0.29788  -1.55055  -3.05507
   7   20687.2    483.4   0.039832657   0.63389   0.20118   0.54889   0.54049
   8   21447.5    466.3   0.069076872   1.06030   0.19269   0.15440  -0.99967
   9   23457.4    426.3   0.268457601   3.76765  -0.28384  -1.46628  -1.23980
  10   23993.5    416.8   0.199285629   2.73437   0.33749   1.53897   0.50205
  11   24226.1    412.8   0.175626862   2.38662   0.09934  -0.54052  -1.44381
  12   24491.0    408.3   0.013471297   0.18108   0.13708  -0.39706   0.06809
  13   24804.6    403.2   0.190477530   2.52806  -0.58090  -1.15117  -0.93028
  14   25066.4    398.9   0.039904877   0.52410   0.31256  -0.34800  -0.55254
  15   25348.4    394.5   0.261348773   3.39426   0.98964   1.48358   0.46246
  16   25430.5    393.2   0.037850914   0.49000   0.30634   0.53486  -0.33180
  17   25839.0    387.0   0.247612078   3.15480  -0.55162  -0.87555  -1.44358
  18   25960.2    385.2   0.002512423   0.03186  -0.16309  -0.03409  -0.06405
  19   26158.8    382.3   0.002266290   0.02852   0.02451   0.03301  -0.16380
  20   26813.2    373.0   0.024672674   0.30293  -0.28900  -0.04256   0.46647
  21   27573.9    362.7   0.003057565   0.03651  -0.13028   0.07745   0.11634
  22   27856.8    359.0   0.006035322   0.07133   0.18250  -0.14624  -0.12897
  23   27917.3    358.2   0.091089579   1.07416   0.36728   0.43888   0.86409
  24   28127.6    355.5   0.002544081   0.02978   0.06380   0.14956  -0.05777
  25   28612.2    349.5   0.006941562   0.07987   0.24431  -0.14087   0.01834
  26   29002.4    344.8   0.139662619   1.58534  -0.28114  -0.64944  -1.04141
  27   29144.6    343.1   0.028019416   0.31650   0.06920   0.51306  -0.22019
  28   29526.9    338.7   0.034119827   0.38042  -0.20619  -0.48874  -0.31471
  29   29612.9    337.7   0.005058399   0.05624   0.08377   0.20373  -0.08782
  30   29664.4    337.1   0.045987224   0.51036  -0.29031  -0.64826  -0.07637
  31   29860.4    334.9   0.023783258   0.26221  -0.40328  -0.25203  -0.18989
  32   30150.7    331.7   0.042202468   0.46080  -0.52250  -0.42049  -0.10478
  33   30557.8    327.2   0.026921235   0.29003   0.21938   0.38610  -0.30469
  34   30612.2    326.7   0.130320221   1.40150  -0.45302   1.08827   0.10931
  35   30855.6    324.1   0.025041209   0.26718  -0.32906  -0.32968  -0.22406
  36   30937.1    323.2   0.044380403   0.47227  -0.03248   0.66668   0.16355
  37   31329.7    319.2   0.062001414   0.65151   0.58840   0.42227   0.35635
  38   31516.9    317.3   0.073180116   0.76441   0.18979  -0.66678   0.53272
  39   31626.5    316.2   0.615160438   6.40343   1.60312   0.63435   1.85230
  40   31744.8    315.0   0.048022591   0.49802   0.34237  -0.18242   0.58952
  41   31916.3    313.3   0.015053821   0.15528   0.38212  -0.00161   0.09623
  42   31990.4    312.6   0.013911161   0.14316  -0.37219  -0.06473   0.02115
  43   32062.9    311.9   0.555836548   5.70716   1.55831   0.44707   1.75469
  44   32215.8    310.4   0.020960046   0.21419  -0.22754  -0.25207  -0.31444
  45   32325.7    309.4   0.007756181   0.07899  -0.18680  -0.20878  -0.02256
  46   32557.5    307.1   0.035369924   0.35765  -0.22948   0.03256   0.55130
  47   32694.8    305.9   0.033997341   0.34233  -0.53844   0.04116  -0.22521
  48   32753.6    305.3   0.022093276   0.22206  -0.07747   0.05771   0.46123
  49   32883.3    304.1   0.012208644   0.12223  -0.22271  -0.18783  -0.19325
  50   33098.8    302.1   0.357387604   3.55470   0.76086   0.73528   1.56050
  51   33197.6    301.2   0.012291311   0.12189   0.17547  -0.21665  -0.21015
  52   33315.1    300.2   0.004627877   0.04573   0.00622   0.17983   0.11555
  53   33466.7    298.8   0.048310238   0.47523   0.38959   0.13424   0.55265
  54   33692.1    296.8   0.127652467   1.24732   0.53193  -0.17517   0.96627
  55   33763.5    296.2   0.025734594   0.25093   0.19579   0.07189   0.45544
  56   33883.1    295.1   0.038790181   0.37689  -0.22740  -0.06726  -0.56626
  57   33997.5    294.1   0.081763146   0.79175  -0.06369  -0.31918  -0.82814
  58   34217.2    292.3   0.091446371   0.87983   0.46303   0.44610   0.68295
  59   34333.1    291.3   0.062706943   0.60128  -0.50314   0.40541   0.42870
  60   34567.9    289.3   0.279614221   2.66294  -1.33371  -0.11958  -0.93267
  61   34670.1    288.4   0.021193918   0.20125  -0.06973  -0.20726  -0.39170
  62   34864.9    286.8   0.010605023   0.10014   0.21296   0.02125   0.23309
  63   34900.8    286.5   0.022928026   0.21628  -0.13803  -0.28070  -0.34414
  64   35027.5    285.5   0.012963363   0.12184   0.32222   0.12847  -0.03885
  65   35138.2    284.6   0.111182339   1.04167   0.85550   0.50176   0.24092
  66   35234.1    283.8   0.043173930   0.40340   0.32993  -0.46531  -0.27935
  67   35367.7    282.7   0.161073771   1.49932  -1.17737   0.21637  -0.25749
  68   35507.4    281.6   0.005171046   0.04794   0.19857   0.05772   0.07198
  69   35543.7    281.3   0.012084634   0.11193  -0.03632  -0.27622  -0.18524
  70   35559.8    281.2   0.025914642   0.23992   0.30828  -0.31460   0.21426
  71   35626.4    280.7   0.036888409   0.34087   0.54624  -0.05370  -0.19902
  72   35855.5    278.9   0.114917578   1.05513   0.05407   0.86289  -0.55464
  73   36026.0    277.6   0.019344464   0.17677  -0.16121   0.07899  -0.38019
  74   36123.0    276.8   0.018622007   0.16971  -0.17338  -0.32369   0.18676
  75   36297.5    275.5   0.021216982   0.19243  -0.09789   0.21958   0.36693
  76   36594.3    273.3   0.052344727   0.47091  -0.27895   0.61759   0.10804
  77   36740.5    272.2   0.019976555   0.17900   0.35567   0.17556  -0.14722
  78   36948.6    270.6   0.024376277   0.21719   0.14299   0.43306   0.09592
  79   37110.1    269.5   0.062664336   0.55591   0.50524   0.28223  -0.47009
  80   37205.3    268.8   0.079723006   0.70543  -0.53076  -0.62984   0.16441
  81   37370.0    267.6   0.004691875   0.04133   0.09590   0.07085   0.16467
  82   37552.5    266.3   0.048260060   0.42308   0.35638  -0.43827   0.32248
  83   37836.6    264.3   0.001283444   0.01117  -0.05245   0.08336   0.03832
  84   37904.1    263.8   0.019734098   0.17140   0.07016  -0.36220   0.18784
  85   38063.5    262.7   0.154492174   1.33621   0.67379  -0.78668   0.51316
  86   38075.6    262.6   0.061137915   0.52862   0.40439   0.15492   0.58402
  87   38248.2    261.5   0.079629598   0.68539  -0.76182   0.20081  -0.25436
  88   38343.1    260.8   0.002583664   0.02218  -0.09285   0.11633   0.00554
  89   38416.5    260.3   0.277715817   2.37990  -0.13482  -0.98882   1.17642
  90   38694.6    258.4   0.092231614   0.78470  -0.33522  -0.81399   0.09870
  91   38838.3    257.5   0.025888570   0.21944   0.30307   0.32241  -0.15378
  92   38978.6    256.6   0.040288235   0.34027  -0.55202  -0.01501  -0.18795
  93   39013.0    256.3   0.094413852   0.79671   0.79693  -0.39620  -0.06815
  94   39297.5    254.5   0.001575279   0.01320  -0.10635  -0.02193   0.03750
  95   39485.3    253.3   0.046110465   0.38445  -0.07406  -0.61137   0.07210
  96   39518.9    253.0   0.153890689   1.28199   0.08333   1.12693   0.07122
  97   39823.8    251.1   0.043340452   0.35828   0.44569   0.32074   0.23826
  98   39876.8    250.8   0.010275462   0.08483   0.02503  -0.18141  -0.22649
  99   39981.5    250.1   0.055201126   0.45453   0.20304   0.62373   0.15580
 100   40023.4    249.9   0.016422543   0.13508  -0.02617  -0.35902  -0.07419
 101   40103.6    249.4   0.116199372   0.95389   0.44567   0.65982  -0.56560
 102   40191.6    248.8   0.028530887   0.23370  -0.24425   0.02953  -0.41613

FINAL SINGLE POINT ENERGY     -4322.063786275382

DIPOLE MOMENT
-------------
                                X             Y             Z
Electronic contribution:     -5.85966      -3.09122       1.04546
Nuclear contribution   :      6.28474       2.93439      -1.33228
                        -----------------------------------------
Total Dipole Moment    :      0.42508      -0.15682      -0.28682
                        -----------------------------------------
Magnitude (a.u.)       :      0.53624
Magnitude (Debye)      :      1.36301

Rotational constants in cm-1:     0.001962     0.000204     0.000196
Rotational constants in MHz :    58.807426     6.130744     5.886684

                             ****ORCA TERMINATED NORMALLY****
TOTAL RUN TIME: 0 days 0 hours 10 minutes 35 seconds 613 msec
