                         Program Version 4.2.0 -  RELEASE  -
|  1> # ORCA input file
|  2> # SCF done       -180.130265068119          0.000992398080
|  3> ! CAM-B3LYP def2-SVP def2/J RIJCOSX Grid4 TightSCF
|  4> %maxcore 5000
|  5> %tddft
|  6>     Mode sTDDFT
|  7>     Ethresh 5.0
|  8>     maxcore 5000
|  9> end
| 10>
| 11> %pal
| 12>   nprocs 6
| 13>   end
| 14> * xyz 0 1
| 15>    C        0.82386        -0.75657        -1.06022
| 16>    N        1.01784         0.29380        -1.90109
| 17>    C        1.81569         0.27764        -3.10147
| 18>    C        3.30816         0.30681        -2.78249
| 19>    C        0.39344         1.46349        -1.41659
| 20>    O        0.42730         2.53083        -2.00209
| 21>    C       -0.22402         1.04582        -0.18318
| 22>    C        0.06729        -0.34403         0.00048
| 23>    C       -0.55482        -0.77126         1.23685
| 24>    O       -0.59852        -1.83816         1.80591
| 25>    N       -1.18363         0.39450         1.72185
| 26>    C       -1.88959         0.38478         2.97942
| 27>    C       -1.04579         0.96333         4.11334
| 28>    C       -0.99126         1.47662         0.89081
| 29>    C       -1.52130         2.76770         1.15059
| 30>    C       -1.35363         3.80726         0.29397
| 31>    C       -1.85234         5.11743         0.51281
| 32>    S       -1.68457         6.32453        -0.73341
| 33>    C       -2.46350         7.53699         0.23405
| 34>    C       -2.82587         7.00120         1.47829
| 35>    C       -2.48352         5.64893         1.61989
| 36>    C       -3.46907         7.69695         2.51404
| 37>    N       -3.99145         8.21752         3.39457
| 38>    C       -2.64706         8.83847        -0.28768
| 39>    C       -3.18986         9.87980         0.39775
| 40>    C       -3.39607        11.17584        -0.11870
| 41>    S       -3.03623        11.60194        -1.76453
| 42>    C       -3.59158        13.23740        -1.51237
| 43>    C       -4.00283        13.43040        -0.18984
| 44>    C       -3.90632        12.27035         0.58227
| 45>    C       -4.28723        12.21804         2.02797
| 46>    C       -5.07551        13.46099         2.43802
| 47>    C       -4.41231        14.74202         1.90428
| 48>    N       -3.03995        14.94718         2.33172
| 49>    C       -4.45705        14.73615         0.37241
| 50>    C       -3.60109        14.14131        -2.59756
| 51>    C       -4.21275        15.37587        -2.69586
| 52>    C       -3.98385        15.91402        -3.98657
| 53>    C       -3.15093        14.92622        -4.70392
| 54>    C       -2.94434        13.87411        -3.87371
| 55>    C       -2.64608        15.03888        -6.00396
| 56>    N       -2.20941        15.10290        -7.06467
| 57>    C       -4.46682        17.10674        -4.48201
| 58>    C       -4.25574        17.66754        -5.77502
| 59>    C       -4.88249        18.89629        -5.84494
| 60>    C       -5.57134        19.11703        -4.58359
| 61>    C       -5.32836        18.05759        -3.76498
| 62>    C       -5.85790        17.90651        -2.47937
| 63>    N       -6.31224        17.79746        -1.42885
| 64>    C       -4.88780        19.74271        -6.98478
| 65>    C       -5.03207        21.09884        -6.99491
| 66>    C       -5.19783        21.94072        -8.16587
| 67>    C       -5.50869        21.51730        -9.43211
| 68>    C       -5.68458        22.38187       -10.53258
| 69>    N       -5.83616        23.03268       -11.46612
| 70>    C       -5.73202        20.17553        -9.80683
| 71>    N       -5.95313        19.11321       -10.18220
| 72>    C       -5.07064        23.32947        -7.74103
| 73>    C       -4.87429        23.35651        -6.33095
| 74>    C       -4.84201        21.97983        -5.80953
| 75>    O       -4.62187        21.64522        -4.66554
| 76>    C       -4.73199        24.52692        -5.64296
| 77>    C       -4.78493        25.75013        -6.34760
| 78>    C       -4.97603        25.73259        -7.75955
| 79>    C       -5.11587        24.50398        -8.44500
| 80>    C       -5.02400        26.95918        -8.45287
| 81>    C       -4.89132        28.14630        -7.78542
| 82>    C       -4.70343        28.16217        -6.39520
| 83>    C       -4.65165        26.98957        -5.69153
| 84>    H        1.23199        -1.72544        -1.28075
| 85>    H        1.53808         1.16904        -3.67030
| 86>    H        1.56762        -0.61373        -3.68509
| 87>    H        3.55236         1.20456        -2.21983
| 88>    H        3.88299         0.30624        -3.70419
| 89>    H        3.59217        -0.56194        -2.19251
| 90>    H       -2.11135        -0.66529         3.19089
| 91>    H       -2.83303         0.92882         2.87626
| 92>    H       -0.13767         0.37777         4.23311
| 93>    H       -1.60600         0.92962         5.04367
| 94>    H       -0.76640         1.99468         3.90824
| 95>    H       -2.08211         2.90394         2.06334
| 96>    H       -0.80766         3.64844        -0.62683
| 97>    H       -2.68948         5.09280         2.51688
| 98>    H       -2.31927         8.99198        -1.30805
| 99>    H       -3.49450         9.73219         1.42301
|100>    H       -3.37735        12.13347         2.63295
|101>    H       -4.88079        11.32343         2.22927
|102>    H       -5.14761        13.50067         3.52664
|103>    H       -6.08843        13.40327         2.03640
|104>    H       -4.98087        15.60885         2.26045
|105>    H       -2.44139        14.20298         1.99148
|106>    H       -2.97720        14.96924         3.34286
|107>    H       -3.81525        15.54031         0.00788
|108>    H       -5.47796        14.94362         0.04136
|109>    H       -4.80886        15.85831        -1.95232
|110>    H       -2.37869        12.98638        -4.09101
|111>    H       -3.66224        17.22110        -6.54959
|112>    H       -6.20347        19.95304        -4.35825
|113>    H       -4.73200        19.23415        -7.92913
|114>    H       -4.58356        24.51899        -4.57325
|115>    H       -5.25216        24.52443        -9.51457
|116>    H       -5.16967        26.94210        -9.52303
|117>    H       -4.93042        29.08044        -8.32542
|118>    H       -4.60002        29.10801        -5.88471
|119>    H       -4.50725        26.99509        -4.62098
|120> *
|121>
|122>                          ****END OF INPUT****

CARTESIAN COORDINATES (ANGSTROEM)
---------------------------------
  C      0.823860   -0.756570   -1.060220
  N      1.017840    0.293800   -1.901090
  C      1.815690    0.277640   -3.101470
  C      3.308160    0.306810   -2.782490
  C      0.393440    1.463490   -1.416590
  O      0.427300    2.530830   -2.002090
  C     -0.224020    1.045820   -0.183180
  C      0.067290   -0.344030    0.000480
  C     -0.554820   -0.771260    1.236850
  O     -0.598520   -1.838160    1.805910
  N     -1.183630    0.394500    1.721850
  C     -1.889590    0.384780    2.979420
  C     -1.045790    0.963330    4.113340
  C     -0.991260    1.476620    0.890810
  C     -1.521300    2.767700    1.150590
  C     -1.353630    3.807260    0.293970
  C     -1.852340    5.117430    0.512810
  S     -1.684570    6.324530   -0.733410
  C     -2.463500    7.536990    0.234050
  C     -2.825870    7.001200    1.478290
  C     -2.483520    5.648930    1.619890
  C     -3.469070    7.696950    2.514040
  N     -3.991450    8.217520    3.394570
  C     -2.647060    8.838470   -0.287680
  C     -3.189860    9.879800    0.397750
  C     -3.396070   11.175840   -0.118700
  S     -3.036230   11.601940   -1.764530
  C     -3.591580   13.237400   -1.512370
  C     -4.002830   13.430400   -0.189840
  C     -3.906320   12.270350    0.582270
  C     -4.287230   12.218040    2.027970
  C     -5.075510   13.460990    2.438020
  C     -4.412310   14.742020    1.904280
  N     -3.039950   14.947180    2.331720
  C     -4.457050   14.736150    0.372410
  C     -3.601090   14.141310   -2.597560
  C     -4.212750   15.375870   -2.695860
  C     -3.983850   15.914020   -3.986570
  C     -3.150930   14.926220   -4.703920
  C     -2.944340   13.874110   -3.873710
  C     -2.646080   15.038880   -6.003960
  N     -2.209410   15.102900   -7.064670
  C     -4.466820   17.106740   -4.482010
  C     -4.255740   17.667540   -5.775020
  C     -4.882490   18.896290   -5.844940
  C     -5.571340   19.117030   -4.583590
  C     -5.328360   18.057590   -3.764980
  C     -5.857900   17.906510   -2.479370
  N     -6.312240   17.797460   -1.428850
  C     -4.887800   19.742710   -6.984780
  C     -5.032070   21.098840   -6.994910
  C     -5.197830   21.940720   -8.165870
  C     -5.508690   21.517300   -9.432110
  C     -5.684580   22.381870  -10.532580
  N     -5.836160   23.032680  -11.466120
  C     -5.732020   20.175530   -9.806830
  N     -5.953130   19.113210  -10.182200
  C     -5.070640   23.329470   -7.741030
  C     -4.874290   23.356510   -6.330950
  C     -4.842010   21.979830   -5.809530
  O     -4.621870   21.645220   -4.665540
  C     -4.731990   24.526920   -5.642960
  C     -4.784930   25.750130   -6.347600
  C     -4.976030   25.732590   -7.759550
  C     -5.115870   24.503980   -8.445000
  C     -5.024000   26.959180   -8.452870
  C     -4.891320   28.146300   -7.785420
  C     -4.703430   28.162170   -6.395200
  C     -4.651650   26.989570   -5.691530
  H      1.231990   -1.725440   -1.280750
  H      1.538080    1.169040   -3.670300
  H      1.567620   -0.613730   -3.685090
  H      3.552360    1.204560   -2.219830
  H      3.882990    0.306240   -3.704190
  H      3.592170   -0.561940   -2.192510
  H     -2.111350   -0.665290    3.190890
  H     -2.833030    0.928820    2.876260
  H     -0.137670    0.377770    4.233110
  H     -1.606000    0.929620    5.043670
  H     -0.766400    1.994680    3.908240
  H     -2.082110    2.903940    2.063340
  H     -0.807660    3.648440   -0.626830
  H     -2.689480    5.092800    2.516880
  H     -2.319270    8.991980   -1.308050
  H     -3.494500    9.732190    1.423010
  H     -3.377350   12.133470    2.632950
  H     -4.880790   11.323430    2.229270
  H     -5.147610   13.500670    3.526640
  H     -6.088430   13.403270    2.036400
  H     -4.980870   15.608850    2.260450
  H     -2.441390   14.202980    1.991480
  H     -2.977200   14.969240    3.342860
  H     -3.815250   15.540310    0.007880
  H     -5.477960   14.943620    0.041360
  H     -4.808860   15.858310   -1.952320
  H     -2.378690   12.986380   -4.091010
  H     -3.662240   17.221100   -6.549590
  H     -6.203470   19.953040   -4.358250
  H     -4.732000   19.234150   -7.929130
  H     -4.583560   24.518990   -4.573250
  H     -5.252160   24.524430   -9.514570
  H     -5.169670   26.942100   -9.523030
  H     -4.930420   29.080440   -8.325420
  H     -4.600020   29.108010   -5.884710
  H     -4.507250   26.995090   -4.620980

 Total Charge           Charge          ....    0
 Multiplicity           Mult            ....    1
 Number of Electrons    NEL             ....  484
 Basis Dimension        Dim             .... 1154

ORBITAL ENERGIES
----------------

  NO   OCC          E(Eh)            E(eV)
   0   2.0000     -88.982258     -2421.3303
   1   2.0000     -88.971248     -2421.0308
   2   2.0000     -19.221339      -523.0392
   3   2.0000     -19.190139      -522.1902
   4   2.0000     -19.186083      -522.0799
   5   2.0000     -14.453398      -393.2969
   6   2.0000     -14.451495      -393.2452
   7   2.0000     -14.419041      -392.3621
   8   2.0000     -14.416680      -392.2978
   9   2.0000     -14.416550      -392.2943
  10   2.0000     -14.413121      -392.2010
  11   2.0000     -14.404145      -391.9567
  12   2.0000     -14.383640      -391.3988
  13   2.0000     -10.372321      -282.2452
  14   2.0000     -10.371994      -282.2363
  15   2.0000     -10.371879      -282.2332
  16   2.0000     -10.345078      -281.5039
  17   2.0000     -10.342960      -281.4463
  18   2.0000     -10.342389      -281.4307
  19   2.0000     -10.339702      -281.3576
  20   2.0000     -10.328195      -281.0445
  21   2.0000     -10.327294      -281.0200
  22   2.0000     -10.324350      -280.9398
  23   2.0000     -10.324175      -280.9351
  24   2.0000     -10.322865      -280.8995
  25   2.0000     -10.322400      -280.8868
  26   2.0000     -10.320481      -280.8346
  27   2.0000     -10.320167      -280.8260
  28   2.0000     -10.319838      -280.8171
  29   2.0000     -10.319096      -280.7969
  30   2.0000     -10.318881      -280.7910
  31   2.0000     -10.318716      -280.7865
  32   2.0000     -10.315827      -280.7079
  33   2.0000     -10.314759      -280.6789
  34   2.0000     -10.314528      -280.6726
  35   2.0000     -10.309397      -280.5330
  36   2.0000     -10.309305      -280.5305
  37   2.0000     -10.307360      -280.4775
  38   2.0000     -10.306925      -280.4657
  39   2.0000     -10.306471      -280.4533
  40   2.0000     -10.306155      -280.4447
  41   2.0000     -10.305084      -280.4156
  42   2.0000     -10.305010      -280.4136
  43   2.0000     -10.304700      -280.4052
  44   2.0000     -10.303772      -280.3799
  45   2.0000     -10.303532      -280.3734
  46   2.0000     -10.303160      -280.3632
  47   2.0000     -10.299718      -280.2696
  48   2.0000     -10.299485      -280.2632
  49   2.0000     -10.299019      -280.2506
  50   2.0000     -10.298643      -280.2403
  51   2.0000     -10.298200      -280.2283
  52   2.0000     -10.296895      -280.1928
  53   2.0000     -10.296493      -280.1818
  54   2.0000     -10.294550      -280.1289
  55   2.0000     -10.294174      -280.1187
  56   2.0000     -10.290955      -280.0311
  57   2.0000     -10.288238      -279.9572
  58   2.0000     -10.287740      -279.9436
  59   2.0000     -10.287484      -279.9367
  60   2.0000     -10.286976      -279.9228
  61   2.0000     -10.280987      -279.7599
  62   2.0000     -10.280084      -279.7353
  63   2.0000     -10.271448      -279.5003
  64   2.0000     -10.266016      -279.3525
  65   2.0000     -10.265748      -279.3452
  66   2.0000     -10.265558      -279.3400
  67   2.0000     -10.258849      -279.1575
  68   2.0000     -10.258035      -279.1353
  69   2.0000      -8.077804      -219.8082
  70   2.0000      -8.066528      -219.5014
  71   2.0000      -6.046918      -164.5450
  72   2.0000      -6.042832      -164.4338
  73   2.0000      -6.040166      -164.3613
  74   2.0000      -6.035639      -164.2381
  75   2.0000      -6.031854      -164.1351
  76   2.0000      -6.028698      -164.0492
  77   2.0000      -1.136645       -30.9297
  78   2.0000      -1.131198       -30.7815
  79   2.0000      -1.124553       -30.6006
  80   2.0000      -1.062038       -28.8995
  81   2.0000      -1.053663       -28.6716
  82   2.0000      -1.021478       -27.7958
  83   2.0000      -1.020436       -27.7675
  84   2.0000      -1.019481       -27.7415
  85   2.0000      -1.007635       -27.4191
  86   2.0000      -1.000623       -27.2283
  87   2.0000      -0.999594       -27.2003
  88   2.0000      -0.997033       -27.1306
  89   2.0000      -0.994851       -27.0713
  90   2.0000      -0.986371       -26.8405
  91   2.0000      -0.981397       -26.7052
  92   2.0000      -0.975292       -26.5391
  93   2.0000      -0.972432       -26.4612
  94   2.0000      -0.933418       -25.3996
  95   2.0000      -0.927224       -25.2310
  96   2.0000      -0.925799       -25.1923
  97   2.0000      -0.912099       -24.8195
  98   2.0000      -0.907647       -24.6983
  99   2.0000      -0.899685       -24.4817
 100   2.0000      -0.885155       -24.0863
 101   2.0000      -0.882172       -24.0051
 102   2.0000      -0.879620       -23.9357
 103   2.0000      -0.877442       -23.8764
 104   2.0000      -0.871024       -23.7018
 105   2.0000      -0.860149       -23.4059
 106   2.0000      -0.851056       -23.1584
 107   2.0000      -0.840453       -22.8699
 108   2.0000      -0.838941       -22.8288
 109   2.0000      -0.830128       -22.5889
 110   2.0000      -0.824263       -22.4293
 111   2.0000      -0.820803       -22.3352
 112   2.0000      -0.809232       -22.0203
 113   2.0000      -0.803432       -21.8625
 114   2.0000      -0.790585       -21.5129
 115   2.0000      -0.776996       -21.1431
 116   2.0000      -0.766112       -20.8470
 117   2.0000      -0.763798       -20.7840
 118   2.0000      -0.761564       -20.7232
 119   2.0000      -0.747497       -20.3404
 120   2.0000      -0.727573       -19.7983
 121   2.0000      -0.724878       -19.7249
 122   2.0000      -0.723048       -19.6751
 123   2.0000      -0.715897       -19.4806
 124   2.0000      -0.710356       -19.3298
 125   2.0000      -0.705294       -19.1920
 126   2.0000      -0.701614       -19.0919
 127   2.0000      -0.697962       -18.9925
 128   2.0000      -0.685620       -18.6567
 129   2.0000      -0.682840       -18.5810
 130   2.0000      -0.680360       -18.5135
 131   2.0000      -0.676285       -18.4026
 132   2.0000      -0.662038       -18.0150
 133   2.0000      -0.655013       -17.8238
 134   2.0000      -0.651327       -17.7235
 135   2.0000      -0.645743       -17.5716
 136   2.0000      -0.639930       -17.4134
 137   2.0000      -0.632976       -17.2242
 138   2.0000      -0.628539       -17.1034
 139   2.0000      -0.618427       -16.8283
 140   2.0000      -0.615020       -16.7355
 141   2.0000      -0.610666       -16.6171
 142   2.0000      -0.608216       -16.5504
 143   2.0000      -0.596239       -16.2245
 144   2.0000      -0.593377       -16.1466
 145   2.0000      -0.589263       -16.0347
 146   2.0000      -0.580429       -15.7943
 147   2.0000      -0.578699       -15.7472
 148   2.0000      -0.578423       -15.7397
 149   2.0000      -0.570914       -15.5354
 150   2.0000      -0.564786       -15.3686
 151   2.0000      -0.555431       -15.1140
 152   2.0000      -0.553878       -15.0718
 153   2.0000      -0.548782       -14.9331
 154   2.0000      -0.548201       -14.9173
 155   2.0000      -0.547163       -14.8891
 156   2.0000      -0.545796       -14.8519
 157   2.0000      -0.544584       -14.8189
 158   2.0000      -0.541039       -14.7224
 159   2.0000      -0.538047       -14.6410
 160   2.0000      -0.535025       -14.5588
 161   2.0000      -0.531146       -14.4532
 162   2.0000      -0.530727       -14.4418
 163   2.0000      -0.529325       -14.4037
 164   2.0000      -0.525219       -14.2919
 165   2.0000      -0.523808       -14.2535
 166   2.0000      -0.521214       -14.1830
 167   2.0000      -0.519834       -14.1454
 168   2.0000      -0.517241       -14.0748
 169   2.0000      -0.515619       -14.0307
 170   2.0000      -0.513158       -13.9637
 171   2.0000      -0.510976       -13.9044
 172   2.0000      -0.509744       -13.8708
 173   2.0000      -0.508693       -13.8422
 174   2.0000      -0.504328       -13.7235
 175   2.0000      -0.502237       -13.6666
 176   2.0000      -0.500115       -13.6088
 177   2.0000      -0.499451       -13.5907
 178   2.0000      -0.496971       -13.5233
 179   2.0000      -0.494100       -13.4451
 180   2.0000      -0.488690       -13.2979
 181   2.0000      -0.486325       -13.2336
 182   2.0000      -0.484151       -13.1744
 183   2.0000      -0.483319       -13.1518
 184   2.0000      -0.479708       -13.0535
 185   2.0000      -0.477709       -12.9991
 186   2.0000      -0.476517       -12.9667
 187   2.0000      -0.474848       -12.9213
 188   2.0000      -0.471085       -12.8189
 189   2.0000      -0.466254       -12.6874
 190   2.0000      -0.462876       -12.5955
 191   2.0000      -0.461652       -12.5622
 192   2.0000      -0.458078       -12.4649
 193   2.0000      -0.456103       -12.4112
 194   2.0000      -0.456019       -12.4089
 195   2.0000      -0.453705       -12.3459
 196   2.0000      -0.451771       -12.2933
 197   2.0000      -0.449511       -12.2318
 198   2.0000      -0.446563       -12.1516
 199   2.0000      -0.445098       -12.1117
 200   2.0000      -0.444016       -12.0823
 201   2.0000      -0.442750       -12.0478
 202   2.0000      -0.442422       -12.0389
 203   2.0000      -0.441566       -12.0156
 204   2.0000      -0.436823       -11.8866
 205   2.0000      -0.436470       -11.8770
 206   2.0000      -0.435035       -11.8379
 207   2.0000      -0.433937       -11.8080
 208   2.0000      -0.433071       -11.7845
 209   2.0000      -0.432289       -11.7632
 210   2.0000      -0.430696       -11.7198
 211   2.0000      -0.427389       -11.6298
 212   2.0000      -0.425954       -11.5908
 213   2.0000      -0.424680       -11.5561
 214   2.0000      -0.420737       -11.4488
 215   2.0000      -0.417474       -11.3601
 216   2.0000      -0.413036       -11.2393
 217   2.0000      -0.409886       -11.1536
 218   2.0000      -0.409408       -11.1406
 219   2.0000      -0.405175       -11.0254
 220   2.0000      -0.404447       -11.0056
 221   2.0000      -0.401608       -10.9283
 222   2.0000      -0.401433       -10.9236
 223   2.0000      -0.394185       -10.7263
 224   2.0000      -0.381522       -10.3818
 225   2.0000      -0.375529       -10.2187
 226   2.0000      -0.358154        -9.7459
 227   2.0000      -0.347706        -9.4616
 228   2.0000      -0.345876        -9.4118
 229   2.0000      -0.344243        -9.3673
 230   2.0000      -0.334700        -9.1077
 231   2.0000      -0.329421        -8.9640
 232   2.0000      -0.327621        -8.9150
 233   2.0000      -0.322820        -8.7844
 234   2.0000      -0.317042        -8.6271
 235   2.0000      -0.313158        -8.5215
 236   2.0000      -0.306912        -8.3515
 237   2.0000      -0.303639        -8.2624
 238   2.0000      -0.299500        -8.1498
 239   2.0000      -0.290021        -7.8919
 240   2.0000      -0.260758        -7.0956
 241   2.0000      -0.240732        -6.5507
 242   0.0000      -0.132421        -3.6034
 243   0.0000      -0.087074        -2.3694
 244   0.0000      -0.079032        -2.1506
 245   0.0000      -0.058370        -1.5883
 246   0.0000      -0.053017        -1.4427

MULLIKEN ATOMIC CHARGES
-----------------------
   0 C :    0.036742
   1 N :   -0.255384
   2 C :    0.113139
   3 C :    0.000381
   4 C :    0.173480
   5 O :   -0.221317
   6 C :   -0.108412
   7 C :    0.007704
   8 C :    0.160700
   9 O :   -0.185666
  10 N :   -0.270778
  11 C :    0.101057
  12 C :    0.003492
  13 C :    0.158346
  14 C :   -0.034289
  15 C :    0.088330
  16 C :   -0.081225
  17 S :    0.183812
  18 C :   -0.057224
  19 C :   -0.081926
  20 C :    0.014997
  21 C :   -0.165333
  22 N :    0.108095
  23 C :    0.043888
  24 C :   -0.027704
  25 C :   -0.065987
  26 S :    0.114164
  27 C :   -0.097464
  28 C :   -0.096559
  29 C :   -0.094420
  30 C :    0.090723
  31 C :    0.070979
  32 C :   -0.015475
  33 N :   -0.182749
  34 C :    0.142603
  35 C :    0.113201
  36 C :   -0.173011
  37 C :    0.142839
  38 C :   -0.085513
  39 C :   -0.018672
  40 C :   -0.181569
  41 N :    0.145586
  42 C :    0.103673
  43 C :   -0.076981
  44 C :    0.080482
  45 C :    0.069242
  46 C :   -0.135139
  47 C :   -0.163320
  48 N :    0.119078
  49 C :   -0.023896
  50 C :   -0.092720
  51 C :    0.311632
  52 C :   -0.337398
  53 C :   -0.182602
  54 N :    0.152522
  55 C :   -0.203748
  56 N :    0.168403
  57 C :    0.051191
  58 C :   -0.010445
  59 C :    0.141570
  60 O :   -0.142866
  61 C :   -0.077628
  62 C :    0.098168
  63 C :    0.097307
  64 C :   -0.083541
  65 C :   -0.020248
  66 C :    0.037366
  67 C :    0.037039
  68 C :   -0.017477
  69 H :    0.014433
  70 H :    0.041383
  71 H :    0.018405
  72 H :    0.029049
  73 H :    0.023619
  74 H :    0.014602
  75 H :    0.043367
  76 H :    0.021074
  77 H :    0.031683
  78 H :    0.023565
  79 H :    0.010577
  80 H :   -0.028885
  81 H :    0.009149
  82 H :   -0.002886
  83 H :   -0.010610
  84 H :    0.008299
  85 H :    0.015414
  86 H :    0.040711
  87 H :   -0.000260
  88 H :    0.005172
  89 H :    0.003445
  90 H :    0.090956
  91 H :    0.092727
  92 H :    0.035806
  93 H :    0.047403
  94 H :   -0.005484
  95 H :    0.009578
  96 H :    0.012486
  97 H :    0.002962
  98 H :    0.037234
  99 H :   -0.010614
 100 H :   -0.007155
 101 H :   -0.006890
 102 H :   -0.003969
 103 H :   -0.004538
 104 H :   -0.015053
Sum of atomic charges:   -0.0000000

LOEWDIN ATOMIC CHARGES
----------------------
   0 C :    0.087231
   1 N :    0.001718
   2 C :    0.038681
   3 C :   -0.060183
   4 C :    0.075963
   5 O :   -0.210896
   6 C :   -0.134023
   7 C :   -0.127471
   8 C :    0.082266
   9 O :   -0.189776
  10 N :   -0.009817
  11 C :    0.035341
  12 C :   -0.061562
  13 C :    0.085012
  14 C :   -0.047577
  15 C :    0.014001
  16 C :   -0.174315
  17 S :    0.484200
  18 C :   -0.134702
  19 C :   -0.111148
  20 C :   -0.012607
  21 C :   -0.026479
  22 N :   -0.063737
  23 C :   -0.051301
  24 C :   -0.014805
  25 C :   -0.163752
  26 S :    0.437316
  27 C :   -0.163985
  28 C :   -0.029452
  29 C :   -0.044717
  30 C :   -0.031785
  31 C :   -0.038189
  32 C :    0.016084
  33 N :   -0.100437
  34 C :   -0.027103
  35 C :   -0.015476
  36 C :   -0.045296
  37 C :    0.051111
  38 C :   -0.072297
  39 C :    0.048340
  40 C :   -0.032043
  41 N :   -0.054917
  42 C :    0.020965
  43 C :    0.022727
  44 C :   -0.034389
  45 C :    0.074795
  46 C :   -0.097468
  47 C :   -0.024168
  48 N :   -0.075240
  49 C :    0.076470
  50 C :   -0.084435
  51 C :    0.072961
  52 C :   -0.132170
  53 C :   -0.016747
  54 N :   -0.049744
  55 C :   -0.025121
  56 N :   -0.043626
  57 C :   -0.025892
  58 C :   -0.056955
  59 C :    0.083606
  60 O :   -0.132933
  61 C :    0.033980
  62 C :   -0.008088
  63 C :   -0.005321
  64 C :    0.019962
  65 C :   -0.005228
  66 C :   -0.011968
  67 C :   -0.011290
  68 C :   -0.009029
  69 H :    0.032426
  70 H :    0.036015
  71 H :    0.024776
  72 H :    0.031312
  73 H :    0.030284
  74 H :    0.022451
  75 H :    0.038214
  76 H :    0.021748
  77 H :    0.033147
  78 H :    0.030554
  79 H :    0.019924
  80 H :    0.027179
  81 H :    0.037806
  82 H :    0.038343
  83 H :    0.025778
  84 H :    0.042008
  85 H :    0.030564
  86 H :    0.041054
  87 H :    0.023628
  88 H :    0.025695
  89 H :    0.026846
  90 H :    0.048657
  91 H :    0.054834
  92 H :    0.042239
  93 H :    0.043625
  94 H :    0.032717
  95 H :    0.033253
  96 H :    0.039039
  97 H :    0.036901
  98 H :    0.052100
  99 H :    0.039794
 100 H :    0.039325
 101 H :    0.035336
 102 H :    0.033632
 103 H :    0.033186
 104 H :    0.032540

  Mayer bond orders larger than 0.100000
B(  0-C ,  1-N ) :   1.1878 B(  0-C ,  7-C ) :   1.4594 B(  0-C , 69-H ) :   0.9903
B(  1-N ,  2-C ) :   0.9417 B(  1-N ,  4-C ) :   1.0626 B(  2-C ,  3-C ) :   1.1188
B(  2-C , 70-H ) :   0.9346 B(  2-C , 71-H ) :   0.9538 B(  3-C , 72-H ) :   0.9674
B(  3-C , 73-H ) :   0.9687 B(  3-C , 74-H ) :   0.9691 B(  4-C ,  5-O ) :   2.0048
B(  4-C ,  6-C ) :   1.0086 B(  5-O , 81-H ) :   0.1191 B(  6-C ,  7-C ) :   1.2038
B(  6-C , 13-C ) :   1.3729 B(  7-C ,  8-C ) :   0.9490 B(  8-C ,  9-O ) :   2.1757
B(  8-C , 10-N ) :   1.0169 B( 10-N , 11-C ) :   0.9479 B( 10-N , 13-C ) :   1.1549
B( 11-C , 12-C ) :   1.1197 B( 11-C , 75-H ) :   0.9270 B( 11-C , 76-H ) :   0.9502
B( 12-C , 77-H ) :   0.9637 B( 12-C , 78-H ) :   0.9682 B( 12-C , 79-H ) :   0.9687
B( 13-C , 14-C ) :   1.1597 B( 14-C , 15-C ) :   1.6368 B( 14-C , 80-H ) :   0.9613
B( 15-C , 16-C ) :   1.1158 B( 15-C , 81-H ) :   0.9339 B( 16-C , 17-S ) :   1.1205
B( 16-C , 20-C ) :   1.4636 B( 17-S , 18-C ) :   1.1471 B( 18-C , 19-C ) :   1.4184
B( 18-C , 23-C ) :   1.1720 B( 19-C , 20-C ) :   1.3163 B( 19-C , 21-C ) :   1.1171
B( 20-C , 82-H ) :   0.9986 B( 21-C , 22-N ) :   2.9632 B( 23-C , 24-C ) :   1.6225
B( 23-C , 83-H ) :   0.9496 B( 24-C , 25-C ) :   1.1996 B( 24-C , 84-H ) :   0.9510
B( 25-C , 26-S ) :   1.1094 B( 25-C , 27-C ) :   0.1048 B( 25-C , 29-C ) :   1.4307
B( 26-S , 27-C ) :   1.1096 B( 27-C , 28-C ) :   1.4435 B( 27-C , 35-C ) :   1.1434
B( 28-C , 29-C ) :   1.3499 B( 28-C , 34-C ) :   1.0620 B( 29-C , 30-C ) :   1.0499
B( 30-C , 31-C ) :   1.0693 B( 30-C , 85-H ) :   0.9097 B( 30-C , 86-H ) :   0.9082
B( 31-C , 32-C ) :   1.0249 B( 31-C , 87-H ) :   0.9282 B( 31-C , 88-H ) :   0.9369
B( 32-C , 33-N ) :   1.1031 B( 32-C , 34-C ) :   1.0371 B( 32-C , 89-H ) :   0.9176
B( 33-N , 90-H ) :   0.9737 B( 33-N , 91-H ) :   0.9733 B( 34-C , 92-H ) :   0.9009
B( 34-C , 93-H ) :   0.8962 B( 35-C , 36-C ) :   1.5178 B( 35-C , 39-C ) :   1.0195
B( 36-C , 37-C ) :   1.1412 B( 36-C , 94-H ) :   0.9959 B( 37-C , 38-C ) :   1.0927
B( 37-C , 42-C ) :   1.3849 B( 38-C , 39-C ) :   1.7018 B( 38-C , 40-C ) :   1.0824
B( 39-C , 95-H ) :   1.0106 B( 40-C , 41-N ) :   2.9703 B( 42-C , 43-C ) :   1.1146
B( 42-C , 46-C ) :   1.1231 B( 43-C , 44-C ) :   1.4938 B( 43-C , 96-H ) :   1.0079
B( 44-C , 45-C ) :   1.0711 B( 44-C , 49-C ) :   1.1119 B( 45-C , 46-C ) :   1.6557
B( 45-C , 97-H ) :   1.0063 B( 46-C , 47-C ) :   1.0989 B( 47-C , 48-N ) :   2.9580
B( 49-C , 50-C ) :   1.6058 B( 49-C , 98-H ) :   0.9503 B( 50-C , 51-C ) :   1.0480
B( 50-C , 59-C ) :   0.9378 B( 51-C , 52-C ) :   1.6478 B( 51-C , 57-C ) :   0.9940
B( 52-C , 53-C ) :   1.1448 B( 52-C , 55-C ) :   1.1408 B( 53-C , 54-N ) :   2.9659
B( 55-C , 56-N ) :   2.9893 B( 57-C , 58-C ) :   1.2104 B( 57-C , 64-C ) :   1.4495
B( 58-C , 59-C ) :   0.9453 B( 58-C , 61-C ) :   1.4711 B( 59-C , 60-O ) :   2.2186
B( 61-C , 62-C ) :   1.1817 B( 61-C , 99-H ) :   1.0159 B( 62-C , 63-C ) :   1.2527
B( 62-C , 68-C ) :   1.2438 B( 63-C , 64-C ) :   1.2081 B( 63-C , 65-C ) :   1.2399
B( 64-C ,100-H ) :   0.9896 B( 65-C , 66-C ) :   1.4896 B( 65-C ,101-H ) :   0.9972
B( 66-C , 67-C ) :   1.2579 B( 66-C ,102-H ) :   0.9893 B( 67-C , 68-C ) :   1.4890
B( 67-C ,103-H ) :   0.9896 B( 68-C ,104-H ) :   0.9977

-----------------------------------------------------------------------------
         ABSORPTION SPECTRUM VIA TRANSITION ELECTRIC DIPOLE MOMENTS
-----------------------------------------------------------------------------
State   Energy  Wavelength   fosc         T2         TX        TY        TZ
        (cm-1)    (nm)                  (au**2)     (au)      (au)      (au)
-----------------------------------------------------------------------------
   0   11461.3    872.5   1.248884917  35.87261   1.29683  -5.35853   2.34030
   1   16847.3    593.6   0.053403063   1.04355  -0.34522   0.62335   0.73199
   2   17807.5    561.6   0.057923976   1.07085  -0.40495   0.95093   0.05099
   3   19837.9    504.1   0.624533208  10.36421  -1.27435   2.91393   0.49926
   4   21798.7    458.7   0.565216169   8.53609   0.27842  -2.35367   1.70845
   5   22392.8    446.6   0.037426412   0.55023  -0.07681  -0.69966  -0.23412
   6   22739.2    439.8   0.061738900   0.89384   0.01765   0.74554  -0.58112
   7   23848.8    419.3   0.062904639   0.86834   0.24550  -0.71631   0.54312
   8   24292.1    411.7   0.263262397   3.56779  -0.03766   1.70528  -0.81141
   9   25051.5    399.2   0.119153092   1.56584   0.01724  -1.04694   0.68518
  10   26175.4    382.0   0.046758414   0.58809  -0.17304   0.74662  -0.02653
  11   26386.9    379.0   0.013113360   0.16361  -0.18224  -0.33696  -0.12983
  12   26682.9    374.8   0.210281592   2.59444  -0.34517  -0.62822   1.44244
  13   27772.0    360.1   0.100247407   1.18834   0.36312  -0.94312   0.40867
  14   28413.8    351.9   0.004209681   0.04877  -0.18463   0.09952   0.06916
  15   28681.5    348.7   0.061126508   0.70162   0.16257  -0.40900   0.71268
  16   29486.6    339.1   0.049091377   0.54810  -0.19420  -0.52085  -0.48898
  17   30434.9    328.6   0.003605374   0.03900   0.12384  -0.15092  -0.02974
  18   30528.1    327.6   0.005832939   0.06290  -0.11481  -0.18308  -0.12728
  19   30821.4    324.4   0.191010644   2.04024  -0.05520  -1.39663  -0.29432
  20   30974.0    322.9   0.249561669   2.65250   0.02246  -1.62306   0.13289
  21   31842.3    314.0   0.157433084   1.62767  -0.13609   1.26399   0.10718
  22   32159.5    311.0   0.055547607   0.56863  -0.22995   0.70344   0.14466
  23   32983.5    303.2   0.006409552   0.06397  -0.15207   0.14755   0.13812
  24   33328.1    300.0   0.014794360   0.14614   0.18428  -0.24036  -0.23325
  25   33425.2    299.2   0.078992077   0.77801  -0.04331  -0.85462   0.21392
  26   33746.9    296.3   0.011000887   0.10732  -0.23070   0.18262   0.14403
  27   33816.4    295.7   0.014567804   0.14182   0.29106  -0.12363   0.20450
  28   34321.2    291.4   0.195156143   1.87196   0.02616   1.33274   0.30836
  29   34971.9    285.9   0.059311191   0.55833  -0.11929   0.28720   0.67943
  30   35582.8    281.0   0.145015220   1.34168  -0.55670  -0.88622  -0.49637
  31   36093.1    277.1   0.166684629   1.52036  -0.18582  -0.74071  -0.96808
  32   36296.8    275.5   0.264286268   2.39708  -0.01424   1.27643   0.87612
  33   36437.3    274.4   0.006078215   0.05492   0.01804   0.20451   0.11299
  34   36478.2    274.1   0.008668875   0.07824  -0.06760   0.26032   0.07682
  35   36696.9    272.5   0.071427461   0.64078  -0.04599  -0.79806   0.04213
  36   36825.2    271.6   0.022208035   0.19854   0.02507   0.44476   0.00980
  37   37164.3    269.1   0.008497643   0.07527  -0.06437  -0.23322   0.12938
  38   37485.1    266.8   0.079256024   0.69606   0.24028  -0.73044  -0.32371
  39   37707.5    265.2   0.274036910   2.39253   0.08463   1.07478  -1.10915
  40   38117.6    262.3   0.052366879   0.45228  -0.09064   0.64100   0.18217
  41   38917.4    257.0   0.030952315   0.26183  -0.15258  -0.42609  -0.23875
  42   39166.0    255.3   0.158278136   1.33042  -0.11697   0.92858  -0.67414
  43   39376.4    254.0   0.005361375   0.04482  -0.11304  -0.17059   0.05427
  44   39607.3    252.5   0.017642756   0.14664   0.12983  -0.16638   0.31954
  45   39910.3    250.6   0.113133092   0.93321   0.07736  -0.55902   0.78404
  46   40162.3    249.0   0.033844632   0.27743   0.17876  -0.17767   0.46250

FINAL SINGLE POINT ENERGY     -3611.773289586603

DIPOLE MOMENT
-------------
                                X             Y             Z
Electronic contribution:    -19.32657      53.78967     -49.33055
Nuclear contribution   :     20.44316     -53.65006      51.38491
                        -----------------------------------------
Total Dipole Moment    :      1.11659       0.13961       2.05436
                        -----------------------------------------
Magnitude (a.u.)       :      2.34236
Magnitude (Debye)      :      5.95382

Rotational constants in cm-1:     0.002441     0.000202     0.000190
Rotational constants in MHz :    73.171552     6.058697     5.689912

                             ****ORCA TERMINATED NORMALLY****
TOTAL RUN TIME: 0 days 0 hours 9 minutes 28 seconds 544 msec
