                         Program Version 4.2.0 -  RELEASE  -
|  1> # ORCA input file
|  2> # SCF done       -193.657853112207          0.000482930010
|  3> ! CAM-B3LYP def2-SVP def2/J RIJCOSX Grid4 TightSCF
|  4> %maxcore 5000
|  5> %tddft
|  6>     Mode sTDDFT
|  7>     Ethresh 5.0
|  8>     maxcore 5000
|  9> end
| 10>
| 11> %pal
| 12>   nprocs 6
| 13>   end
| 14> * xyz 0 1
| 15>    C       -0.00371         2.51996        -4.90825
| 16>    C       -0.36051         2.51937        -6.22952
| 17>    C        0.62010         2.41593        -7.22687
| 18>    C        1.94256         2.31541        -6.88959
| 19>    C        2.34538         2.31464        -5.53897
| 20>    C        3.71200         2.22115        -5.18524
| 21>    C        4.06647         2.22295        -3.86378
| 22>    C        3.06176         2.30719        -2.85565
| 23>    C        1.73750         2.40836        -3.16775
| 24>    C        1.34824         2.41673        -4.52684
| 25>    C        3.70326         2.25215        -1.52947
| 26>    O        3.17859         2.34717        -0.44145
| 27>    C        5.14555         2.00244        -1.80066
| 28>    C        5.37200         2.17545        -3.21362
| 29>    C        6.57228         2.45737        -3.81683
| 30>    C        7.76295         2.68548        -3.10139
| 31>    N        8.74576         2.91505        -2.55314
| 32>    C        6.74130         2.61436        -5.20474
| 33>    N        6.94872         2.71798        -6.32998
| 34>    C        5.94492         1.60572        -0.76812
| 35>    C        7.21125         0.96832        -0.77445
| 36>    C        7.68715         0.18313        -1.83973
| 37>    C        8.96827        -0.49128        -1.79054
| 38>    N        9.17695        -1.23506        -2.88589
| 39>    S        7.92963        -1.08309        -3.86603
| 40>    N        7.03264        -0.09706        -2.97374
| 41>    C        9.81719        -0.41377        -0.67931
| 42>    C        9.34556         0.35073         0.41147
| 43>    C       10.02382         0.62584         1.58499
| 44>    S        9.14034         1.63992         2.61523
| 45>    C        7.84408         1.75690         1.51660
| 46>    C        8.06185         1.02570         0.36966
| 47>    C       11.09476        -1.08931        -0.69282
| 48>    C       11.95294        -0.98001        -1.80870
| 49>    C       13.19126        -1.70085        -1.88812
| 50>    N       13.99599        -1.52697        -2.96087
| 51>    C       13.61779        -0.71766        -3.90364
| 52>    C       12.40689         0.00984        -3.81294
| 53>    N       11.61715        -0.11527        -2.79067
| 54>    C       13.62254        -2.55125        -0.84582
| 55>    C       12.77080        -2.65558         0.26593
| 56>    C       11.52662        -1.92277         0.34922
| 57>    N       10.85310        -2.22180         1.46782
| 58>    S       11.68903        -3.30463         2.30161
| 59>    N       12.93427        -3.46782         1.31559
| 60>    C       14.90048        -3.22323        -0.87244
| 61>    C       15.74403        -3.17676         0.24914
| 62>    C       17.08397        -3.72519         0.21965
| 63>    N       17.72839        -3.51618         1.37209
| 64>    S       16.75969        -2.72397         2.37265
| 65>    N       15.48801        -2.57458         1.41814
| 66>    C       17.64278        -4.29919        -0.93934
| 67>    C       16.74704        -4.46133        -2.03170
| 68>    C       16.97000        -5.17953        -3.18455
| 69>    S       15.61251        -5.19383        -4.20892
| 70>    C       14.69204        -4.25946        -3.13555
| 71>    C       15.39963        -3.92135        -1.99611
| 72>    C       19.00565        -4.68910        -0.90854
| 73>    C       19.91960        -4.64611        -1.92629
| 74>    C       21.27614        -5.14699        -1.84394
| 75>    C       21.73598        -6.07643        -0.94588
| 76>    C       23.06110        -6.55482        -0.91684
| 77>    N       24.12733        -6.97452        -0.83942
| 78>    C       20.93503        -6.71435         0.02402
| 79>    N       20.34087        -7.30311         0.81105
| 80>    C       22.03674        -4.57131        -2.94579
| 81>    C       21.14859        -3.79887        -3.74703
| 82>    C       21.57676        -3.13293        -4.85821
| 83>    C       22.94033        -3.20707        -5.22364
| 84>    C       23.44111        -2.53636        -6.35630
| 85>    C       24.76792        -2.61062        -6.68409
| 86>    C       25.65118        -3.36137        -5.89468
| 87>    C       25.19579        -4.02740        -4.78928
| 88>    C       23.83620        -3.97146        -4.42240
| 89>    C       23.36197        -4.65498        -3.27839
| 90>    C       19.79427        -3.83475        -3.16188
| 91>    O       18.81545        -3.24753        -3.57629
| 92>    H       -0.75443         2.59918        -4.13541
| 93>    H       -1.39953         2.59832        -6.51284
| 94>    H        0.32241         2.41723        -8.26486
| 95>    H        2.70141         2.23893        -7.65458
| 96>    H        4.44651         2.14075        -5.97139
| 97>    H        0.99326         2.48179        -2.38858
| 98>    H        5.49517         1.74593         0.21031
| 99>    H       10.99532         0.28517         1.87543
|100>    H        7.00109         2.36857         1.76484
|101>    H       14.28775        -0.60628        -4.74521
|102>    H       12.11099         0.71803        -4.57464
|103>    H       17.84819        -5.72541        -3.46107
|104>    H       13.67352        -4.02650        -3.36743
|105>    H       19.36251        -4.95515         0.08039
|106>    H       20.88449        -2.55320        -5.45075
|107>    H       22.75634        -1.95869        -6.96009
|108>    H       25.14382        -2.09025        -7.55242
|109>    H       26.69509        -3.40933        -6.16638
|110>    H       25.87178        -4.60805        -4.17875
|111>    H       24.06450        -5.22019        -2.68639
|112> *
|113>
|114>                          ****END OF INPUT****

CARTESIAN COORDINATES (ANGSTROEM)
---------------------------------
  C     -0.003710    2.519960   -4.908250
  C     -0.360510    2.519370   -6.229520
  C      0.620100    2.415930   -7.226870
  C      1.942560    2.315410   -6.889590
  C      2.345380    2.314640   -5.538970
  C      3.712000    2.221150   -5.185240
  C      4.066470    2.222950   -3.863780
  C      3.061760    2.307190   -2.855650
  C      1.737500    2.408360   -3.167750
  C      1.348240    2.416730   -4.526840
  C      3.703260    2.252150   -1.529470
  O      3.178590    2.347170   -0.441450
  C      5.145550    2.002440   -1.800660
  C      5.372000    2.175450   -3.213620
  C      6.572280    2.457370   -3.816830
  C      7.762950    2.685480   -3.101390
  N      8.745760    2.915050   -2.553140
  C      6.741300    2.614360   -5.204740
  N      6.948720    2.717980   -6.329980
  C      5.944920    1.605720   -0.768120
  C      7.211250    0.968320   -0.774450
  C      7.687150    0.183130   -1.839730
  C      8.968270   -0.491280   -1.790540
  N      9.176950   -1.235060   -2.885890
  S      7.929630   -1.083090   -3.866030
  N      7.032640   -0.097060   -2.973740
  C      9.817190   -0.413770   -0.679310
  C      9.345560    0.350730    0.411470
  C     10.023820    0.625840    1.584990
  S      9.140340    1.639920    2.615230
  C      7.844080    1.756900    1.516600
  C      8.061850    1.025700    0.369660
  C     11.094760   -1.089310   -0.692820
  C     11.952940   -0.980010   -1.808700
  C     13.191260   -1.700850   -1.888120
  N     13.995990   -1.526970   -2.960870
  C     13.617790   -0.717660   -3.903640
  C     12.406890    0.009840   -3.812940
  N     11.617150   -0.115270   -2.790670
  C     13.622540   -2.551250   -0.845820
  C     12.770800   -2.655580    0.265930
  C     11.526620   -1.922770    0.349220
  N     10.853100   -2.221800    1.467820
  S     11.689030   -3.304630    2.301610
  N     12.934270   -3.467820    1.315590
  C     14.900480   -3.223230   -0.872440
  C     15.744030   -3.176760    0.249140
  C     17.083970   -3.725190    0.219650
  N     17.728390   -3.516180    1.372090
  S     16.759690   -2.723970    2.372650
  N     15.488010   -2.574580    1.418140
  C     17.642780   -4.299190   -0.939340
  C     16.747040   -4.461330   -2.031700
  C     16.970000   -5.179530   -3.184550
  S     15.612510   -5.193830   -4.208920
  C     14.692040   -4.259460   -3.135550
  C     15.399630   -3.921350   -1.996110
  C     19.005650   -4.689100   -0.908540
  C     19.919600   -4.646110   -1.926290
  C     21.276140   -5.146990   -1.843940
  C     21.735980   -6.076430   -0.945880
  C     23.061100   -6.554820   -0.916840
  N     24.127330   -6.974520   -0.839420
  C     20.935030   -6.714350    0.024020
  N     20.340870   -7.303110    0.811050
  C     22.036740   -4.571310   -2.945790
  C     21.148590   -3.798870   -3.747030
  C     21.576760   -3.132930   -4.858210
  C     22.940330   -3.207070   -5.223640
  C     23.441110   -2.536360   -6.356300
  C     24.767920   -2.610620   -6.684090
  C     25.651180   -3.361370   -5.894680
  C     25.195790   -4.027400   -4.789280
  C     23.836200   -3.971460   -4.422400
  C     23.361970   -4.654980   -3.278390
  C     19.794270   -3.834750   -3.161880
  O     18.815450   -3.247530   -3.576290
  H     -0.754430    2.599180   -4.135410
  H     -1.399530    2.598320   -6.512840
  H      0.322410    2.417230   -8.264860
  H      2.701410    2.238930   -7.654580
  H      4.446510    2.140750   -5.971390
  H      0.993260    2.481790   -2.388580
  H      5.495170    1.745930    0.210310
  H     10.995320    0.285170    1.875430
  H      7.001090    2.368570    1.764840
  H     14.287750   -0.606280   -4.745210
  H     12.110990    0.718030   -4.574640
  H     17.848190   -5.725410   -3.461070
  H     13.673520   -4.026500   -3.367430
  H     19.362510   -4.955150    0.080390
  H     20.884490   -2.553200   -5.450750
  H     22.756340   -1.958690   -6.960090
  H     25.143820   -2.090250   -7.552420
  H     26.695090   -3.409330   -6.166380
  H     25.871780   -4.608050   -4.178750
  H     24.064500   -5.220190   -2.686390

 Total Charge           Charge          ....    0
 Multiplicity           Mult            ....    1
 Number of Electrons    NEL             ....  548
 Basis Dimension        Dim             .... 1198

ORBITAL ENERGIES
----------------

  NO   OCC          E(Eh)            E(eV)
   0   2.0000     -89.043318     -2422.9919
   1   2.0000     -89.036352     -2422.8023
   2   2.0000     -89.034048     -2422.7396
   3   2.0000     -88.986819     -2421.4545
   4   2.0000     -88.983168     -2421.3551
   5   2.0000     -19.204470      -522.5802
   6   2.0000     -19.203280      -522.5478
   7   2.0000     -14.447628      -393.1400
   8   2.0000     -14.446979      -393.1223
   9   2.0000     -14.443014      -393.0144
  10   2.0000     -14.440144      -392.9363
  11   2.0000     -14.435226      -392.8025
  12   2.0000     -14.433285      -392.7496
  13   2.0000     -14.432780      -392.7359
  14   2.0000     -14.431207      -392.6931
  15   2.0000     -14.406189      -392.0123
  16   2.0000     -14.404830      -391.9754
  17   2.0000     -14.403841      -391.9484
  18   2.0000     -14.402342      -391.9077
  19   2.0000     -10.355563      -281.7892
  20   2.0000     -10.353262      -281.7266
  21   2.0000     -10.339307      -281.3469
  22   2.0000     -10.337520      -281.2982
  23   2.0000     -10.336472      -281.2697
  24   2.0000     -10.335306      -281.2380
  25   2.0000     -10.331611      -281.1374
  26   2.0000     -10.331555      -281.1359
  27   2.0000     -10.329525      -281.0807
  28   2.0000     -10.328636      -281.0565
  29   2.0000     -10.327514      -281.0259
  30   2.0000     -10.327039      -281.0130
  31   2.0000     -10.326157      -280.9890
  32   2.0000     -10.325580      -280.9733
  33   2.0000     -10.325372      -280.9677
  34   2.0000     -10.323143      -280.9070
  35   2.0000     -10.318702      -280.7862
  36   2.0000     -10.317796      -280.7615
  37   2.0000     -10.315254      -280.6923
  38   2.0000     -10.313917      -280.6559
  39   2.0000     -10.309310      -280.5306
  40   2.0000     -10.308423      -280.5065
  41   2.0000     -10.307059      -280.4693
  42   2.0000     -10.306963      -280.4667
  43   2.0000     -10.305967      -280.4396
  44   2.0000     -10.304524      -280.4003
  45   2.0000     -10.301949      -280.3303
  46   2.0000     -10.301747      -280.3248
  47   2.0000     -10.300631      -280.2944
  48   2.0000     -10.299341      -280.2593
  49   2.0000     -10.298022      -280.2234
  50   2.0000     -10.297502      -280.2093
  51   2.0000     -10.295189      -280.1463
  52   2.0000     -10.294750      -280.1344
  53   2.0000     -10.294478      -280.1270
  54   2.0000     -10.293441      -280.0988
  55   2.0000     -10.292844      -280.0825
  56   2.0000     -10.291835      -280.0551
  57   2.0000     -10.291137      -280.0361
  58   2.0000     -10.290722      -280.0248
  59   2.0000     -10.289373      -279.9881
  60   2.0000     -10.288825      -279.9732
  61   2.0000     -10.288689      -279.9694
  62   2.0000     -10.288426      -279.9623
  63   2.0000     -10.288155      -279.9549
  64   2.0000     -10.287323      -279.9323
  65   2.0000     -10.285288      -279.8769
  66   2.0000     -10.283438      -279.8266
  67   2.0000     -10.281132      -279.7638
  68   2.0000     -10.280773      -279.7541
  69   2.0000     -10.280554      -279.7481
  70   2.0000     -10.280162      -279.7374
  71   2.0000     -10.279674      -279.7241
  72   2.0000     -10.278726      -279.6983
  73   2.0000     -10.278356      -279.6883
  74   2.0000     -10.278342      -279.6879
  75   2.0000     -10.278042      -279.6797
  76   2.0000     -10.277519      -279.6655
  77   2.0000      -8.134463      -221.3500
  78   2.0000      -8.127052      -221.1483
  79   2.0000      -8.125107      -221.0954
  80   2.0000      -8.081918      -219.9202
  81   2.0000      -8.078184      -219.8186
  82   2.0000      -6.105346      -166.1349
  83   2.0000      -6.097895      -165.9322
  84   2.0000      -6.097710      -165.9271
  85   2.0000      -6.097592      -165.9239
  86   2.0000      -6.096013      -165.8810
  87   2.0000      -6.090388      -165.7279
  88   2.0000      -6.090244      -165.7240
  89   2.0000      -6.088361      -165.6727
  90   2.0000      -6.088242      -165.6695
  91   2.0000      -6.050429      -164.6405
  92   2.0000      -6.046654      -164.5378
  93   2.0000      -6.046087      -164.5224
  94   2.0000      -6.046036      -164.5210
  95   2.0000      -6.042389      -164.4218
  96   2.0000      -6.042338      -164.4204
  97   2.0000      -1.138398       -30.9774
  98   2.0000      -1.128476       -30.7074
  99   2.0000      -1.127687       -30.6859
 100   2.0000      -1.119164       -30.4540
 101   2.0000      -1.117434       -30.4069
 102   2.0000      -1.092687       -29.7335
 103   2.0000      -1.019929       -27.7537
 104   2.0000      -1.009642       -27.4738
 105   2.0000      -1.008426       -27.4407
 106   2.0000      -1.006045       -27.3759
 107   2.0000      -1.003602       -27.3094
 108   2.0000      -0.993062       -27.0226
 109   2.0000      -0.989622       -26.9290
 110   2.0000      -0.987210       -26.8634
 111   2.0000      -0.986199       -26.8358
 112   2.0000      -0.983585       -26.7647
 113   2.0000      -0.982342       -26.7309
 114   2.0000      -0.978738       -26.6328
 115   2.0000      -0.968873       -26.3644
 116   2.0000      -0.963730       -26.2244
 117   2.0000      -0.960167       -26.1275
 118   2.0000      -0.946219       -25.7479
 119   2.0000      -0.939628       -25.5686
 120   2.0000      -0.918021       -24.9806
 121   2.0000      -0.913745       -24.8643
 122   2.0000      -0.907134       -24.6844
 123   2.0000      -0.897779       -24.4298
 124   2.0000      -0.883710       -24.0470
 125   2.0000      -0.878607       -23.9081
 126   2.0000      -0.877991       -23.8914
 127   2.0000      -0.873635       -23.7728
 128   2.0000      -0.871231       -23.7074
 129   2.0000      -0.861408       -23.4401
 130   2.0000      -0.855232       -23.2720
 131   2.0000      -0.851062       -23.1586
 132   2.0000      -0.842996       -22.9391
 133   2.0000      -0.834239       -22.7008
 134   2.0000      -0.821202       -22.3460
 135   2.0000      -0.818732       -22.2788
 136   2.0000      -0.807055       -21.9611
 137   2.0000      -0.802419       -21.8349
 138   2.0000      -0.798022       -21.7153
 139   2.0000      -0.784736       -21.3538
 140   2.0000      -0.775118       -21.0920
 141   2.0000      -0.757430       -20.6107
 142   2.0000      -0.755758       -20.5652
 143   2.0000      -0.752114       -20.4661
 144   2.0000      -0.751283       -20.4435
 145   2.0000      -0.747350       -20.3364
 146   2.0000      -0.733029       -19.9467
 147   2.0000      -0.712033       -19.3754
 148   2.0000      -0.710419       -19.3315
 149   2.0000      -0.700967       -19.0743
 150   2.0000      -0.696954       -18.9651
 151   2.0000      -0.694369       -18.8948
 152   2.0000      -0.692304       -18.8385
 153   2.0000      -0.689668       -18.7668
 154   2.0000      -0.685245       -18.6465
 155   2.0000      -0.681444       -18.5430
 156   2.0000      -0.670242       -18.2382
 157   2.0000      -0.665412       -18.1068
 158   2.0000      -0.663181       -18.0461
 159   2.0000      -0.657555       -17.8930
 160   2.0000      -0.654410       -17.8074
 161   2.0000      -0.650948       -17.7132
 162   2.0000      -0.644992       -17.5511
 163   2.0000      -0.639309       -17.3965
 164   2.0000      -0.628482       -17.1019
 165   2.0000      -0.622477       -16.9385
 166   2.0000      -0.619306       -16.8522
 167   2.0000      -0.617151       -16.7935
 168   2.0000      -0.615735       -16.7550
 169   2.0000      -0.606559       -16.5053
 170   2.0000      -0.602351       -16.3908
 171   2.0000      -0.599723       -16.3193
 172   2.0000      -0.597360       -16.2550
 173   2.0000      -0.596397       -16.2288
 174   2.0000      -0.591158       -16.0862
 175   2.0000      -0.583195       -15.8695
 176   2.0000      -0.579010       -15.7557
 177   2.0000      -0.571689       -15.5564
 178   2.0000      -0.569937       -15.5088
 179   2.0000      -0.565653       -15.3922
 180   2.0000      -0.562226       -15.2989
 181   2.0000      -0.554590       -15.0912
 182   2.0000      -0.552027       -15.0214
 183   2.0000      -0.550296       -14.9743
 184   2.0000      -0.546716       -14.8769
 185   2.0000      -0.540452       -14.7065
 186   2.0000      -0.539185       -14.6720
 187   2.0000      -0.538183       -14.6447
 188   2.0000      -0.537417       -14.6238
 189   2.0000      -0.536438       -14.5972
 190   2.0000      -0.532579       -14.4922
 191   2.0000      -0.527235       -14.3468
 192   2.0000      -0.526052       -14.3146
 193   2.0000      -0.525084       -14.2883
 194   2.0000      -0.519634       -14.1400
 195   2.0000      -0.511499       -13.9186
 196   2.0000      -0.509481       -13.8637
 197   2.0000      -0.508374       -13.8336
 198   2.0000      -0.506349       -13.7784
 199   2.0000      -0.503939       -13.7129
 200   2.0000      -0.502619       -13.6770
 201   2.0000      -0.499318       -13.5871
 202   2.0000      -0.498675       -13.5696
 203   2.0000      -0.498268       -13.5586
 204   2.0000      -0.494020       -13.4430
 205   2.0000      -0.490907       -13.3583
 206   2.0000      -0.487426       -13.2635
 207   2.0000      -0.486673       -13.2431
 208   2.0000      -0.485941       -13.2231
 209   2.0000      -0.484936       -13.1958
 210   2.0000      -0.481065       -13.0904
 211   2.0000      -0.479537       -13.0489
 212   2.0000      -0.477494       -12.9933
 213   2.0000      -0.475585       -12.9413
 214   2.0000      -0.475313       -12.9339
 215   2.0000      -0.473443       -12.8830
 216   2.0000      -0.471024       -12.8172
 217   2.0000      -0.469677       -12.7806
 218   2.0000      -0.468590       -12.7510
 219   2.0000      -0.457096       -12.4382
 220   2.0000      -0.454943       -12.3796
 221   2.0000      -0.447084       -12.1658
 222   2.0000      -0.443341       -12.0639
 223   2.0000      -0.439964       -11.9720
 224   2.0000      -0.438864       -11.9421
 225   2.0000      -0.437695       -11.9103
 226   2.0000      -0.436538       -11.8788
 227   2.0000      -0.435800       -11.8587
 228   2.0000      -0.434552       -11.8248
 229   2.0000      -0.433892       -11.8068
 230   2.0000      -0.432461       -11.7679
 231   2.0000      -0.430721       -11.7205
 232   2.0000      -0.426772       -11.6131
 233   2.0000      -0.426260       -11.5991
 234   2.0000      -0.424116       -11.5408
 235   2.0000      -0.423441       -11.5224
 236   2.0000      -0.421037       -11.4570
 237   2.0000      -0.419467       -11.4143
 238   2.0000      -0.417362       -11.3570
 239   2.0000      -0.416427       -11.3316
 240   2.0000      -0.414222       -11.2715
 241   2.0000      -0.412006       -11.2112
 242   2.0000      -0.410451       -11.1689
 243   2.0000      -0.405821       -11.0430
 244   2.0000      -0.405330       -11.0296
 245   2.0000      -0.402405       -10.9500
 246   2.0000      -0.401414       -10.9230
 247   2.0000      -0.400069       -10.8864
 248   2.0000      -0.396024       -10.7764
 249   2.0000      -0.393018       -10.6946
 250   2.0000      -0.387734       -10.5508
 251   2.0000      -0.382797       -10.4164
 252   2.0000      -0.379149       -10.3172
 253   2.0000      -0.370498       -10.0818
 254   2.0000      -0.369296       -10.0491
 255   2.0000      -0.364843        -9.9279
 256   2.0000      -0.362466        -9.8632
 257   2.0000      -0.354235        -9.6392
 258   2.0000      -0.347341        -9.4516
 259   2.0000      -0.341976        -9.3056
 260   2.0000      -0.336386        -9.1535
 261   2.0000      -0.334116        -9.0918
 262   2.0000      -0.329653        -8.9703
 263   2.0000      -0.325527        -8.8580
 264   2.0000      -0.320104        -8.7105
 265   2.0000      -0.319295        -8.6885
 266   2.0000      -0.314605        -8.5608
 267   2.0000      -0.304430        -8.2840
 268   2.0000      -0.301808        -8.2126
 269   2.0000      -0.295739        -8.0475
 270   2.0000      -0.287219        -7.8156
 271   2.0000      -0.282515        -7.6876
 272   2.0000      -0.250258        -6.8099
 273   2.0000      -0.238606        -6.4928
 274   0.0000      -0.124754        -3.3947
 275   0.0000      -0.104685        -2.8486
 276   0.0000      -0.089829        -2.4444
 277   0.0000      -0.064169        -1.7461
 278   0.0000      -0.057302        -1.5593

MULLIKEN ATOMIC CHARGES
-----------------------
   0 C :   -0.017618
   1 C :    0.032845
   2 C :    0.034261
   3 C :   -0.021996
   4 C :    0.097552
   5 C :   -0.091383
   6 C :    0.038996
   7 C :    0.016249
   8 C :   -0.085017
   9 C :    0.093202
  10 C :    0.130099
  11 O :   -0.153222
  12 C :   -0.120316
  13 C :    0.332439
  14 C :   -0.332384
  15 C :   -0.217986
  16 N :    0.165280
  17 C :   -0.196055
  18 N :    0.140126
  19 C :   -0.071490
  20 C :    0.147561
  21 C :   -0.032905
  22 C :    0.044774
  23 N :   -0.270986
  24 S :    0.544508
  25 N :   -0.302022
  26 C :    0.040719
  27 C :    0.080186
  28 C :   -0.133422
  29 S :    0.203497
  30 C :   -0.173678
  31 C :    0.066324
  32 C :    0.026414
  33 C :   -0.061279
  34 C :   -0.087472
  35 N :    0.006127
  36 C :    0.029747
  37 C :    0.027228
  38 N :    0.012559
  39 C :    0.053146
  40 C :   -0.007556
  41 C :   -0.016202
  42 N :   -0.266875
  43 S :    0.538929
  44 N :   -0.252630
  45 C :    0.039322
  46 C :   -0.001627
  47 C :    0.011264
  48 N :   -0.285964
  49 S :    0.535495
  50 N :   -0.277595
  51 C :    0.066394
  52 C :    0.088139
  53 C :   -0.142549
  54 S :    0.196533
  55 C :   -0.144182
  56 C :    0.098698
  57 C :   -0.077668
  58 C :   -0.105674
  59 C :    0.298588
  60 C :   -0.339588
  61 C :   -0.186483
  62 N :    0.144046
  63 C :   -0.209589
  64 N :    0.162546
  65 C :    0.050793
  66 C :   -0.003502
  67 C :   -0.088935
  68 C :    0.101511
  69 C :   -0.019424
  70 C :    0.035522
  71 C :    0.033645
  72 C :   -0.020180
  73 C :    0.097240
  74 C :   -0.087483
  75 C :    0.130634
  76 O :   -0.143807
  77 H :   -0.019109
  78 H :   -0.008853
  79 H :   -0.008569
  80 H :   -0.012832
  81 H :   -0.011879
  82 H :   -0.015071
  83 H :    0.010008
  84 H :    0.023766
  85 H :    0.030411
  86 H :    0.022452
  87 H :    0.024959
  88 H :    0.023888
  89 H :    0.021033
  90 H :    0.046776
  91 H :   -0.018198
  92 H :   -0.020041
  93 H :   -0.008145
  94 H :   -0.006911
  95 H :   -0.010628
  96 H :   -0.009452
Sum of atomic charges:    0.0000000

LOEWDIN ATOMIC CHARGES
----------------------
   0 C :   -0.010538
   1 C :   -0.017677
   2 C :   -0.016304
   3 C :   -0.009093
   4 C :   -0.005743
   5 C :    0.009033
   6 C :   -0.016482
   7 C :   -0.055969
   8 C :    0.029239
   9 C :   -0.011486
  10 C :    0.083710
  11 O :   -0.151502
  12 C :   -0.083623
  13 C :    0.074388
  14 C :   -0.143341
  15 C :   -0.019804
  16 N :   -0.060791
  17 C :   -0.019926
  18 N :   -0.069193
  19 C :    0.062288
  20 C :   -0.046544
  21 C :   -0.035914
  22 C :   -0.040472
  23 N :   -0.275464
  24 S :    0.683097
  25 N :   -0.297130
  26 C :    0.034916
  27 C :   -0.037559
  28 C :   -0.181746
  29 S :    0.549386
  30 C :   -0.218502
  31 C :   -0.019997
  32 C :   -0.016681
  33 C :    0.003748
  34 C :   -0.008253
  35 N :   -0.029086
  36 C :    0.017139
  37 C :    0.015653
  38 N :   -0.016654
  39 C :   -0.014002
  40 C :   -0.039325
  41 C :   -0.046150
  42 N :   -0.294670
  43 S :    0.682361
  44 N :   -0.270357
  45 C :    0.025771
  46 C :   -0.049955
  47 C :   -0.029508
  48 N :   -0.300430
  49 S :    0.677267
  50 N :   -0.283252
  51 C :   -0.043183
  52 C :   -0.024241
  53 C :   -0.198298
  54 S :    0.552115
  55 C :   -0.190908
  56 C :   -0.032707
  57 C :    0.078388
  58 C :   -0.101238
  59 C :    0.073982
  60 C :   -0.141776
  61 C :   -0.017422
  62 N :   -0.059150
  63 C :   -0.026215
  64 N :   -0.053176
  65 C :   -0.026050
  66 C :   -0.052954
  67 C :    0.025355
  68 C :   -0.009093
  69 C :   -0.011767
  70 C :   -0.014892
  71 C :   -0.016492
  72 C :   -0.006201
  73 C :   -0.007960
  74 C :    0.016926
  75 C :    0.071874
  76 O :   -0.142219
  77 H :    0.030752
  78 H :    0.031100
  79 H :    0.031481
  80 H :    0.032923
  81 H :    0.036756
  82 H :    0.037680
  83 H :    0.041678
  84 H :    0.023179
  85 H :    0.026095
  86 H :    0.030414
  87 H :    0.031726
  88 H :    0.023346
  89 H :    0.022165
  90 H :    0.049885
  91 H :    0.036580
  92 H :    0.030569
  93 H :    0.031548
  94 H :    0.032191
  95 H :    0.034050
  96 H :    0.038312

  Mayer bond orders larger than 0.100000
B(  0-C ,  1-C ) :   1.4895 B(  0-C ,  9-C ) :   1.2470 B(  0-C , 77-H ) :   0.9966
B(  1-C ,  2-C ) :   1.2591 B(  1-C , 78-H ) :   0.9892 B(  2-C ,  3-C ) :   1.4894
B(  2-C , 79-H ) :   0.9891 B(  3-C ,  4-C ) :   1.2435 B(  3-C , 80-H ) :   0.9967
B(  4-C ,  5-C ) :   1.1994 B(  4-C ,  9-C ) :   1.2565 B(  5-C ,  6-C ) :   1.4653
B(  5-C , 81-H ) :   0.9923 B(  6-C ,  7-C ) :   1.2072 B(  6-C , 13-C ) :   1.0058
B(  7-C ,  8-C ) :   1.4806 B(  7-C , 10-C ) :   0.9205 B(  8-C ,  9-C ) :   1.1821
B(  8-C , 82-H ) :   1.0145 B( 10-C , 11-O ) :   2.2509 B( 10-C , 12-C ) :   0.9448
B( 12-C , 13-C ) :   1.0596 B( 12-C , 19-C ) :   1.6227 B( 13-C , 14-C ) :   1.6127
B( 14-C , 15-C ) :   1.1732 B( 14-C , 17-C ) :   1.1501 B( 15-C , 16-N ) :   3.0034
B( 17-C , 18-N ) :   2.9768 B( 19-C , 20-C ) :   1.1396 B( 19-C , 83-H ) :   0.9339
B( 20-C , 21-C ) :   1.2539 B( 20-C , 26-C ) :   0.1144 B( 20-C , 31-C ) :   1.1770
B( 21-C , 22-C ) :   1.1091 B( 21-C , 25-N ) :   1.4716 B( 22-C , 23-N ) :   1.4455
B( 22-C , 26-C ) :   1.3446 B( 23-N , 24-S ) :   1.3298 B( 23-N , 25-N ) :   0.1587
B( 24-S , 25-N ) :   1.2702 B( 26-C , 27-C ) :   1.3092 B( 26-C , 32-C ) :   0.9714
B( 27-C , 28-C ) :   1.3811 B( 27-C , 31-C ) :   1.1181 B( 28-C , 29-S ) :   1.2819
B( 28-C , 30-C ) :   0.1162 B( 28-C , 84-H ) :   0.9458 B( 29-S , 30-C ) :   1.2183
B( 30-C , 31-C ) :   1.4461 B( 30-C , 85-H ) :   0.9467 B( 32-C , 33-C ) :   1.3479
B( 32-C , 39-C ) :   0.1569 B( 32-C , 41-C ) :   1.2757 B( 33-C , 34-C ) :   1.1059
B( 33-C , 38-N ) :   1.4346 B( 34-C , 35-N ) :   1.4550 B( 34-C , 39-C ) :   1.3519
B( 35-N , 36-C ) :   1.7147 B( 36-C , 37-C ) :   1.1510 B( 36-C , 86-H ) :   0.9741
B( 37-C , 38-N ) :   1.7168 B( 37-C , 87-H ) :   0.9749 B( 39-C , 40-C ) :   1.2608
B( 39-C , 45-C ) :   0.9706 B( 40-C , 41-C ) :   1.0871 B( 40-C , 44-N ) :   1.4914
B( 41-C , 42-N ) :   1.5036 B( 42-N , 43-S ) :   1.2891 B( 42-N , 44-N ) :   0.1619
B( 43-S , 44-N ) :   1.3131 B( 45-C , 46-C ) :   1.3334 B( 45-C , 51-C ) :   0.1125
B( 45-C , 56-C ) :   1.3121 B( 46-C , 47-C ) :   1.1135 B( 46-C , 50-N ) :   1.4492
B( 47-C , 48-N ) :   1.5067 B( 47-C , 51-C ) :   1.2367 B( 48-N , 49-S ) :   1.2805
B( 48-N , 50-N ) :   0.1662 B( 49-S , 50-N ) :   1.3163 B( 51-C , 52-C ) :   1.1871
B( 51-C , 57-C ) :   1.2257 B( 52-C , 53-C ) :   1.4288 B( 52-C , 56-C ) :   1.1423
B( 53-C , 54-S ) :   1.2261 B( 53-C , 55-C ) :   0.1159 B( 53-C , 88-H ) :   0.9523
B( 54-S , 55-C ) :   1.2789 B( 55-C , 56-C ) :   1.3636 B( 55-C , 89-H ) :   0.9506
B( 57-C , 58-C ) :   1.5292 B( 57-C , 90-H ) :   0.9395 B( 58-C , 59-C ) :   1.0614
B( 58-C , 75-C ) :   0.9531 B( 59-C , 60-C ) :   1.6383 B( 59-C , 65-C ) :   0.9905
B( 60-C , 61-C ) :   1.1444 B( 60-C , 63-C ) :   1.1430 B( 61-C , 62-N ) :   2.9676
B( 63-C , 64-N ) :   3.0006 B( 65-C , 66-C ) :   1.2117 B( 65-C , 74-C ) :   1.4538
B( 66-C , 67-C ) :   1.4772 B( 66-C , 75-C ) :   0.9392 B( 67-C , 68-C ) :   1.1735
B( 67-C , 91-H ) :   1.0169 B( 68-C , 69-C ) :   1.2448 B( 68-C , 73-C ) :   1.2593
B( 69-C , 70-C ) :   1.4869 B( 69-C , 92-H ) :   0.9978 B( 70-C , 71-C ) :   1.2607
B( 70-C , 93-H ) :   0.9889 B( 71-C , 72-C ) :   1.4869 B( 71-C , 94-H ) :   0.9888
B( 72-C , 73-C ) :   1.2425 B( 72-C , 95-H ) :   0.9975 B( 73-C , 74-C ) :   1.1983
B( 74-C , 96-H ) :   0.9918 B( 75-C , 76-O ) :   2.2186

-----------------------------------------------------------------------------
         ABSORPTION SPECTRUM VIA TRANSITION ELECTRIC DIPOLE MOMENTS
-----------------------------------------------------------------------------
State   Energy  Wavelength   fosc         T2         TX        TY        TZ
        (cm-1)    (nm)                  (au**2)     (au)      (au)      (au)
-----------------------------------------------------------------------------
   0    9254.8   1080.5   0.725852499  25.82001  -4.69912   1.92205  -0.20968
   1   11631.1    859.8   0.048861619   1.38300   0.51980  -0.64160   0.83735
   2   14244.5    702.0   0.023494715   0.54300   0.41249   0.12974  -0.59667
   3   15153.6    659.9   0.103197047   2.24195  -1.41234   0.39541  -0.30152
   4   17939.4    557.4   0.034303780   0.62952  -0.58190   0.39460   0.36771
   5   19226.7    520.1   0.033236674   0.56910  -0.61260   0.43919  -0.03059
   6   19817.8    504.6   0.040962283   0.68046   0.80730  -0.16878   0.01548
   7   20400.9    490.2   0.119970535   1.93598   1.22649  -0.63201  -0.17961
   8   21655.4    461.8   0.088869667   1.35102   1.03795  -0.38767  -0.35128
   9   22040.4    453.7   0.025406774   0.37949   0.50033   0.10056   0.34504
  10   22352.9    447.4   0.021368199   0.31471  -0.45975  -0.02874  -0.32018
  11   23412.4    427.1   0.098856868   1.39007   0.41782  -0.50659   0.97921
  12   23567.2    424.3   0.021075097   0.29440   0.22655  -0.39147   0.29971
  13   24663.2    405.5   0.004778473   0.06378   0.07568   0.13112   0.20215
  14   24813.6    403.0   0.015682444   0.20807   0.10174   0.12345  -0.42717
  15   25124.7    398.0   0.096270119   1.26144   0.87948   0.34724  -0.60612
  16   26070.9    383.6   0.039877736   0.50356  -0.56934   0.17241   0.38690
  17   26593.4    376.0   0.008797083   0.10890  -0.18218   0.21765   0.16834
  18   26888.6    371.9   0.104848321   1.28372  -0.99364   0.22938  -0.49374
  19   26979.3    370.7   0.004718554   0.05758  -0.23627  -0.03940   0.01413
  20   27145.3    368.4   0.010121194   0.12275  -0.12375   0.25685  -0.20362
  21   27261.1    366.8   0.046871819   0.56604   0.61285  -0.38792   0.19993
  22   27993.2    357.2   0.116024746   1.36450   0.96879  -0.46155  -0.46143
  23   28239.0    354.1   0.203649003   2.37415  -0.26937  -0.18585  -1.50567
  24   28581.0    349.9   0.142508883   1.64150  -0.53563  -0.67447  -0.94852
  25   28829.1    346.9   0.032042616   0.36591  -0.59203   0.11299   0.05139
  26   28966.1    345.2   0.040390282   0.45905   0.21316   0.31245  -0.56213
  27   29338.9    340.8   0.019333263   0.21694   0.00739   0.17329   0.43227
  28   30040.2    332.9   0.083735842   0.91767   0.20141   0.41774  -0.83821
  29   30188.1    331.3   0.004220303   0.04602  -0.00995   0.03315  -0.21172
  30   30746.0    325.2   0.073706601   0.78921  -0.88603  -0.06450  -0.00026
  31   30774.7    324.9   0.039635689   0.42400   0.63629  -0.11031  -0.08345
  32   30879.3    323.8   0.034206426   0.36468   0.11824  -0.26436   0.52992
  33   31021.2    322.4   0.088878019   0.94322   0.07475   0.61131  -0.75095
  34   31123.9    321.3   0.072494338   0.76681   0.16754   0.50802  -0.69329
  35   31261.9    319.9   0.028472335   0.29984  -0.51764  -0.08930   0.15465
  36   31388.2    318.6   0.267502833   2.80567  -1.49741  -0.59923   0.45206
  37   31452.6    317.9   0.089039172   0.93197  -0.38899   0.11992  -0.87537
  38   31598.6    316.5   0.046454430   0.48399  -0.59150   0.35614  -0.08535
  39   31820.5    314.3   0.082834242   0.85700   0.47688  -0.09060   0.78827
  40   32404.3    308.6   0.091890062   0.93356  -0.64595   0.14969   0.70278
  41   32462.5    308.0   0.112488884   1.14078  -0.56244  -0.62488  -0.65876
  42   32569.3    307.0   0.122456326   1.23779  -0.21106  -0.24790  -1.06386
  43   32861.4    304.3   0.181086876   1.81417   1.28974   0.05591   0.38421
  44   33110.8    302.0   0.064743821   0.64373  -0.14496  -0.63686  -0.46598
  45   33224.9    301.0   0.029953470   0.29680   0.11020  -0.50914  -0.15947
  46   33341.9    299.9   0.069855516   0.68974  -0.79134  -0.07023   0.24204
  47   33618.0    297.5   0.117242447   1.14812  -0.33791  -0.11787   1.00998
  48   33717.9    296.6   0.021780866   0.21266  -0.34999  -0.02066   0.29958
  49   33899.9    295.0   0.026801042   0.26027   0.46402   0.15485   0.14483
  50   34242.6    292.0   0.006101376   0.05866   0.21256  -0.07542  -0.08825
  51   34337.8    291.2   0.038279846   0.36701  -0.60130  -0.00792  -0.07340
  52   34418.6    290.5   0.041351829   0.39553  -0.39942   0.03536   0.48451
  53   34871.3    286.8   0.035263056   0.33291   0.04886  -0.22343   0.52972
  54   34994.9    285.8   0.034803392   0.32741   0.01826  -0.16648   0.54714
  55   35105.7    284.9   0.006599197   0.06189  -0.11280   0.22100  -0.01796
  56   35319.3    283.1   0.097263145   0.90659   0.05539  -0.73073   0.60791
  57   35570.3    281.1   0.003723128   0.03446  -0.12758  -0.02924   0.13163
  58   35734.9    279.8   0.033644472   0.30995  -0.23791  -0.15114   0.48011
  59   35968.8    278.0   0.027780797   0.25427   0.38928  -0.26258  -0.18380
  60   36024.0    277.6   0.018594660   0.16993  -0.05079   0.13414  -0.38647
  61   36181.0    276.4   0.086938816   0.79106   0.83938   0.17548   0.23601
  62   36262.2    275.8   0.024446708   0.22194   0.08330  -0.09600  -0.45364
  63   36607.5    273.2   0.308530187   2.77461   1.65376  -0.02750  -0.19732
  64   36794.2    271.8   0.037264011   0.33342   0.24174   0.33784  -0.40105
  65   36925.8    270.8   0.172413952   1.53716   0.47412  -0.84608   0.77235
  66   37058.9    269.8   0.345537582   3.06957  -0.04390   1.02820  -1.41790
  67   37399.9    267.4   0.054124997   0.47643  -0.28494   0.10649  -0.61960
  68   37551.2    266.3   0.004865151   0.04265   0.19487   0.06437   0.02316
  69   37663.7    265.5   0.160102508   1.39943  -0.78371  -0.38986   0.79576
  70   37905.7    263.8   0.004119191   0.03578   0.13258  -0.13281  -0.02362
  71   38006.4    263.1   0.021601805   0.18712  -0.18960   0.10516  -0.37431
  72   38070.0    262.7   0.097953772   0.84706  -0.91086  -0.12390   0.04515
  73   38205.0    261.7   0.028280585   0.24369   0.27660  -0.00911   0.40878
  74   38426.5    260.2   0.103900913   0.89015   0.04122   0.53327  -0.77723
  75   38570.9    259.3   0.001753430   0.01497   0.02092   0.07234  -0.09641
  76   38712.9    258.3   0.002017743   0.01716   0.02221  -0.12306  -0.03900
  77   38854.6    257.4   0.015768137   0.13360   0.23013   0.03624  -0.28166
  78   39074.0    255.9   0.008933977   0.07527   0.03852  -0.17453  -0.20815
  79   39136.5    255.5   0.021337227   0.17949   0.19832  -0.01890   0.37390
  80   39224.5    254.9   0.021176953   0.17774  -0.31765  -0.10788  -0.25534
  81   39280.5    254.6   0.015908044   0.13333   0.12715  -0.33529   0.06884
  82   39516.1    253.1   0.037765054   0.31462   0.11976   0.32049  -0.44449
  83   39660.8    252.1   0.003348270   0.02779  -0.02828  -0.07573  -0.14580
  84   39862.4    250.9   0.019822841   0.16371  -0.21021  -0.00235   0.34571
  85   39997.6    250.0   0.040482868   0.33321   0.56791  -0.07954  -0.06605
  86   40258.3    248.4   0.002065969   0.01689   0.09507   0.07108   0.05296
  87   40293.1    248.2   0.020196541   0.16501  -0.23194  -0.21722   0.25305

FINAL SINGLE POINT ENERGY     -5016.036299322000

DIPOLE MOMENT
-------------
                                X             Y             Z
Electronic contribution:     -0.55731     -12.52171      35.58944
Nuclear contribution   :     -0.89723      13.15396     -36.79508
                        -----------------------------------------
Total Dipole Moment    :     -1.45453       0.63225      -1.20563
                        -----------------------------------------
Magnitude (a.u.)       :      1.99223
Magnitude (Debye)      :      5.06384

Rotational constants in cm-1:     0.001843     0.000279     0.000255
Rotational constants in MHz :    55.253348     8.365520     7.648048

                             ****ORCA TERMINATED NORMALLY****
TOTAL RUN TIME: 0 days 0 hours 12 minutes 28 seconds 21 msec
