                         Program Version 4.2.0 -  RELEASE  -
|  1> # ORCA input file
|  2> # SCF done       -208.777750052961          0.000806255499
|  3> ! CAM-B3LYP def2-SVP def2/J RIJCOSX Grid4 TightSCF
|  4> %maxcore 5000
|  5> %tddft
|  6>     Mode sTDDFT
|  7>     Ethresh 5.0
|  8>     maxcore 5000
|  9> end
| 10>
| 11> %pal
| 12>   nprocs 6
| 13>   end
| 14> * xyz 0 1
| 15>    C        2.67478         3.05828         4.33942
| 16>    C        2.60276         4.36492         4.74626
| 17>    C        3.60155         4.99621         5.52235
| 18>    N        4.36167         5.54497         6.18249
| 19>    C        1.50589         5.22087         4.53572
| 20>    N        0.64620         5.96851         4.39110
| 21>    C        3.75524         2.14337         4.69353
| 22>    C        3.29633         0.80342         4.53272
| 23>    C        4.08890        -0.26759         4.83221
| 24>    C        5.40177        -0.04201         5.30290
| 25>    C        5.87551         1.29552         5.43950
| 26>    C        5.03161         2.38528         5.12535
| 27>    C        7.19055         1.50651         5.90114
| 28>    C        7.99836         0.44893         6.21969
| 29>    C        7.53054        -0.86713         6.08741
| 30>    C        6.26030        -1.10752         5.63817
| 31>    C        1.92259         0.82240         4.01163
| 32>    O        1.18279        -0.10962         3.79701
| 33>    C        1.61746         2.26344         3.74179
| 34>    C        0.49133         2.55734         3.04608
| 35>    C        0.07891         3.77162         2.42987
| 36>    S       -1.59531         4.22274         2.55396
| 37>    C       -1.31791         5.71526         1.70014
| 38>    C        0.00060         5.78889         1.26385
| 39>    C        0.78191         4.70296         1.68387
| 40>    C        2.20232         4.51217         1.24714
| 41>    C        2.82315         5.81269         0.74504
| 42>    N        3.22934         6.66490         1.90864
| 43>    O        3.75113         6.08998         2.82863
| 44>    O        3.03635         7.84890         1.82993
| 45>    C        1.89194         6.59346        -0.17445
| 46>    N        1.67189         5.81587        -1.43977
| 47>    O        0.73220         6.13527        -2.11625
| 48>    O        2.46691         4.94817        -1.70059
| 49>    C        0.55139         6.92992         0.47162
| 50>    C       -2.36142         6.65695         1.58325
| 51>    S       -2.16064         8.25712         0.91088
| 52>    C       -3.80828         8.74970         1.22843
| 53>    C       -4.49911         7.68565         1.82830
| 54>    C       -3.67925         6.53586         2.01964
| 55>    N       -4.42927         5.56577         2.59931
| 56>    C       -5.70322         6.05806         2.77898
| 57>    C       -6.72124         5.28167         3.35187
| 58>    N       -7.55572         4.64634         3.81586
| 59>    C       -5.78298         7.35627         2.31620
| 60>    C       -4.19909        10.05240         0.89118
| 61>    C       -5.41133        10.60704         1.19626
| 62>    C       -5.79637        11.92562         0.88953
| 63>    C       -6.97893        12.52742         1.28777
| 64>    C       -7.00728        13.86559         0.83017
| 65>    C       -5.75138        14.06331         0.07336
| 66>    C       -5.03993        12.90975         0.12270
| 67>    C       -5.34824        15.21990        -0.60462
| 68>    N       -4.98452        16.14288        -1.18323
| 69>    C       -7.97889        14.81695         1.06700
| 70>    C       -7.98570        16.17776         0.65166
| 71>    C       -9.13850        16.79248         1.10968
| 72>    C       -9.88847        15.80699         1.87424
| 73>    C       -9.20957        14.62878         1.84920
| 74>    C       -9.62381        13.45573         2.48930
| 75>    N       -9.98129        12.50475         3.02611
| 76>    C       -9.41847        18.16561         0.90217
| 77>    C      -10.59198        18.85026         1.04552
| 78>    C      -10.72701        20.29636         0.97383
| 79>    C       -9.70904        21.21499         0.94713
| 80>    C       -9.90761        22.61060         0.88381
| 81>    N       -9.99587        23.75392         0.82717
| 82>    C       -8.32904        20.92659         1.00909
| 83>    N       -7.19081        20.79130         1.08210
| 84>    C      -12.14818        20.61937         1.02013
| 85>    C      -12.88370        19.40742         1.14333
| 86>    C      -11.95664        18.26377         1.15022
| 87>    O      -12.26722        17.09231         1.16450
| 88>    C      -14.24597        19.39175         1.22976
| 89>    C      -14.95084        20.61546         1.20287
| 90>    C      -14.22368        21.83403         1.07388
| 91>    C      -12.81316        21.81683         0.98009
| 92>    C      -14.93678        23.04994         1.04704
| 93>    C      -16.30145        23.06342         1.14589
| 94>    C      -17.01610        21.86288         1.27392
| 95>    C      -16.35522        20.66484         1.30134
| 96>    H        3.71846        -1.27475         4.71230
| 97>    H        5.41853         3.38738         5.22320
| 98>    H        7.54422         2.52160         6.00547
| 99>    H        9.00258         0.62080         6.57676
|100>    H        8.18154        -1.68953         6.34320
|101>    H        5.89483        -2.11860         5.53426
|102>    H       -0.20517         1.72687         2.95330
|103>    H        2.23352         3.77341         0.43953
|104>    H        2.81532         4.12160         2.06052
|105>    H        3.75690         5.57507         0.21823
|106>    H        2.37418         7.52850        -0.48791
|107>    H       -0.14874         7.21529        -0.31896
|108>    H        0.67834         7.79871         1.12515
|109>    H       -4.12533         4.64341         2.86317
|110>    H       -6.66594         7.96158         2.33374
|111>    H       -3.45526        10.64858         0.38065
|112>    H       -6.13506        10.02009         1.74182
|113>    H       -7.74823        12.06181         1.87148
|114>    H       -4.08371        12.74225        -0.33658
|115>    H       -7.22075        16.64579         0.06223
|116>    H      -10.81493        15.98717         2.38163
|117>    H       -8.55364        18.73361         0.57803
|118>    H      -14.77807        18.45658         1.32312
|119>    H      -12.29478        22.75672         0.87792
|120>    H      -14.38223        23.97174         0.94942
|121>    H      -16.83828        24.00001         1.12652
|122>    H      -18.09273        21.89219         1.35078
|123>    H      -16.89971        19.73705         1.39957
|124> *
|125>
|126>                          ****END OF INPUT****

CARTESIAN COORDINATES (ANGSTROEM)
---------------------------------
  C      2.674780    3.058280    4.339420
  C      2.602760    4.364920    4.746260
  C      3.601550    4.996210    5.522350
  N      4.361670    5.544970    6.182490
  C      1.505890    5.220870    4.535720
  N      0.646200    5.968510    4.391100
  C      3.755240    2.143370    4.693530
  C      3.296330    0.803420    4.532720
  C      4.088900   -0.267590    4.832210
  C      5.401770   -0.042010    5.302900
  C      5.875510    1.295520    5.439500
  C      5.031610    2.385280    5.125350
  C      7.190550    1.506510    5.901140
  C      7.998360    0.448930    6.219690
  C      7.530540   -0.867130    6.087410
  C      6.260300   -1.107520    5.638170
  C      1.922590    0.822400    4.011630
  O      1.182790   -0.109620    3.797010
  C      1.617460    2.263440    3.741790
  C      0.491330    2.557340    3.046080
  C      0.078910    3.771620    2.429870
  S     -1.595310    4.222740    2.553960
  C     -1.317910    5.715260    1.700140
  C      0.000600    5.788890    1.263850
  C      0.781910    4.702960    1.683870
  C      2.202320    4.512170    1.247140
  C      2.823150    5.812690    0.745040
  N      3.229340    6.664900    1.908640
  O      3.751130    6.089980    2.828630
  O      3.036350    7.848900    1.829930
  C      1.891940    6.593460   -0.174450
  N      1.671890    5.815870   -1.439770
  O      0.732200    6.135270   -2.116250
  O      2.466910    4.948170   -1.700590
  C      0.551390    6.929920    0.471620
  C     -2.361420    6.656950    1.583250
  S     -2.160640    8.257120    0.910880
  C     -3.808280    8.749700    1.228430
  C     -4.499110    7.685650    1.828300
  C     -3.679250    6.535860    2.019640
  N     -4.429270    5.565770    2.599310
  C     -5.703220    6.058060    2.778980
  C     -6.721240    5.281670    3.351870
  N     -7.555720    4.646340    3.815860
  C     -5.782980    7.356270    2.316200
  C     -4.199090   10.052400    0.891180
  C     -5.411330   10.607040    1.196260
  C     -5.796370   11.925620    0.889530
  C     -6.978930   12.527420    1.287770
  C     -7.007280   13.865590    0.830170
  C     -5.751380   14.063310    0.073360
  C     -5.039930   12.909750    0.122700
  C     -5.348240   15.219900   -0.604620
  N     -4.984520   16.142880   -1.183230
  C     -7.978890   14.816950    1.067000
  C     -7.985700   16.177760    0.651660
  C     -9.138500   16.792480    1.109680
  C     -9.888470   15.806990    1.874240
  C     -9.209570   14.628780    1.849200
  C     -9.623810   13.455730    2.489300
  N     -9.981290   12.504750    3.026110
  C     -9.418470   18.165610    0.902170
  C    -10.591980   18.850260    1.045520
  C    -10.727010   20.296360    0.973830
  C     -9.709040   21.214990    0.947130
  C     -9.907610   22.610600    0.883810
  N     -9.995870   23.753920    0.827170
  C     -8.329040   20.926590    1.009090
  N     -7.190810   20.791300    1.082100
  C    -12.148180   20.619370    1.020130
  C    -12.883700   19.407420    1.143330
  C    -11.956640   18.263770    1.150220
  O    -12.267220   17.092310    1.164500
  C    -14.245970   19.391750    1.229760
  C    -14.950840   20.615460    1.202870
  C    -14.223680   21.834030    1.073880
  C    -12.813160   21.816830    0.980090
  C    -14.936780   23.049940    1.047040
  C    -16.301450   23.063420    1.145890
  C    -17.016100   21.862880    1.273920
  C    -16.355220   20.664840    1.301340
  H      3.718460   -1.274750    4.712300
  H      5.418530    3.387380    5.223200
  H      7.544220    2.521600    6.005470
  H      9.002580    0.620800    6.576760
  H      8.181540   -1.689530    6.343200
  H      5.894830   -2.118600    5.534260
  H     -0.205170    1.726870    2.953300
  H      2.233520    3.773410    0.439530
  H      2.815320    4.121600    2.060520
  H      3.756900    5.575070    0.218230
  H      2.374180    7.528500   -0.487910
  H     -0.148740    7.215290   -0.318960
  H      0.678340    7.798710    1.125150
  H     -4.125330    4.643410    2.863170
  H     -6.665940    7.961580    2.333740
  H     -3.455260   10.648580    0.380650
  H     -6.135060   10.020090    1.741820
  H     -7.748230   12.061810    1.871480
  H     -4.083710   12.742250   -0.336580
  H     -7.220750   16.645790    0.062230
  H    -10.814930   15.987170    2.381630
  H     -8.553640   18.733610    0.578030
  H    -14.778070   18.456580    1.323120
  H    -12.294780   22.756720    0.877920
  H    -14.382230   23.971740    0.949420
  H    -16.838280   24.000010    1.126520
  H    -18.092730   21.892190    1.350780
  H    -16.899710   19.737050    1.399570

 Total Charge           Charge          ....    0
 Multiplicity           Mult            ....    1
 Number of Electrons    NEL             ....  556
 Basis Dimension        Dim             .... 1282

ORBITAL ENERGIES
----------------

  NO   OCC          E(Eh)            E(eV)
   0   2.0000     -88.993322     -2421.6314
   1   2.0000     -88.987286     -2421.4671
   2   2.0000     -19.280253      -524.6424
   3   2.0000     -19.277505      -524.5676
   4   2.0000     -19.277461      -524.5664
   5   2.0000     -19.277223      -524.5599
   6   2.0000     -19.223308      -523.0928
   7   2.0000     -19.218253      -522.9553
   8   2.0000     -14.677735      -399.4015
   9   2.0000     -14.676733      -399.3742
  10   2.0000     -14.498776      -394.5317
  11   2.0000     -14.429543      -392.6478
  12   2.0000     -14.425443      -392.5363
  13   2.0000     -14.418388      -392.3443
  14   2.0000     -14.414544      -392.2397
  15   2.0000     -14.413967      -392.2240
  16   2.0000     -14.413918      -392.2227
  17   2.0000     -14.402165      -391.9028
  18   2.0000     -10.373866      -282.2873
  19   2.0000     -10.369785      -282.1762
  20   2.0000     -10.368865      -282.1512
  21   2.0000     -10.368597      -282.1439
  22   2.0000     -10.366935      -282.0987
  23   2.0000     -10.353349      -281.7289
  24   2.0000     -10.348754      -281.6039
  25   2.0000     -10.346011      -281.5293
  26   2.0000     -10.343885      -281.4714
  27   2.0000     -10.342968      -281.4465
  28   2.0000     -10.342288      -281.4280
  29   2.0000     -10.340149      -281.3698
  30   2.0000     -10.335520      -281.2438
  31   2.0000     -10.331709      -281.1401
  32   2.0000     -10.331410      -281.1320
  33   2.0000     -10.328710      -281.0585
  34   2.0000     -10.327860      -281.0354
  35   2.0000     -10.327217      -281.0179
  36   2.0000     -10.324724      -280.9500
  37   2.0000     -10.320588      -280.8375
  38   2.0000     -10.319889      -280.8184
  39   2.0000     -10.319708      -280.8135
  40   2.0000     -10.318546      -280.7819
  41   2.0000     -10.318128      -280.7705
  42   2.0000     -10.316903      -280.7372
  43   2.0000     -10.316684      -280.7312
  44   2.0000     -10.316666      -280.7307
  45   2.0000     -10.315646      -280.7030
  46   2.0000     -10.315066      -280.6872
  47   2.0000     -10.313220      -280.6370
  48   2.0000     -10.311793      -280.5981
  49   2.0000     -10.311534      -280.5911
  50   2.0000     -10.311398      -280.5874
  51   2.0000     -10.310235      -280.5558
  52   2.0000     -10.310105      -280.5522
  53   2.0000     -10.307715      -280.4872
  54   2.0000     -10.306198      -280.4459
  55   2.0000     -10.304918      -280.4111
  56   2.0000     -10.304260      -280.3932
  57   2.0000     -10.304135      -280.3898
  58   2.0000     -10.303931      -280.3842
  59   2.0000     -10.303511      -280.3728
  60   2.0000     -10.303104      -280.3617
  61   2.0000     -10.302748      -280.3520
  62   2.0000     -10.302442      -280.3437
  63   2.0000     -10.302272      -280.3391
  64   2.0000     -10.298972      -280.2493
  65   2.0000     -10.297742      -280.2158
  66   2.0000     -10.297374      -280.2058
  67   2.0000     -10.297139      -280.1994
  68   2.0000     -10.296445      -280.1805
  69   2.0000     -10.296167      -280.1730
  70   2.0000     -10.296026      -280.1691
  71   2.0000     -10.291930      -280.0577
  72   2.0000     -10.291510      -280.0462
  73   2.0000     -10.291240      -280.0389
  74   2.0000     -10.290737      -280.0252
  75   2.0000     -10.288075      -279.9528
  76   2.0000     -10.286236      -279.9027
  77   2.0000     -10.285703      -279.8882
  78   2.0000     -10.285444      -279.8812
  79   2.0000     -10.284889      -279.8661
  80   2.0000     -10.282685      -279.8061
  81   2.0000      -8.087327      -220.0674
  82   2.0000      -8.082893      -219.9467
  83   2.0000      -6.056772      -164.8131
  84   2.0000      -6.052430      -164.6950
  85   2.0000      -6.052346      -164.6927
  86   2.0000      -6.049535      -164.6162
  87   2.0000      -6.048273      -164.5819
  88   2.0000      -6.044597      -164.4819
  89   2.0000      -1.361690       -37.0535
  90   2.0000      -1.359925       -37.0054
  91   2.0000      -1.184027       -32.2190
  92   2.0000      -1.182066       -32.1656
  93   2.0000      -1.138754       -30.9871
  94   2.0000      -1.133859       -30.8539
  95   2.0000      -1.122437       -30.5431
  96   2.0000      -1.034608       -28.1531
  97   2.0000      -1.023904       -27.8618
  98   2.0000      -1.018870       -27.7249
  99   2.0000      -1.017251       -27.6808
 100   2.0000      -1.012380       -27.5483
 101   2.0000      -1.006225       -27.3808
 102   2.0000      -1.004016       -27.3207
 103   2.0000      -1.000412       -27.2226
 104   2.0000      -0.999152       -27.1883
 105   2.0000      -0.997783       -27.1511
 106   2.0000      -0.994039       -27.0492
 107   2.0000      -0.992443       -27.0057
 108   2.0000      -0.988123       -26.8882
 109   2.0000      -0.979914       -26.6648
 110   2.0000      -0.977828       -26.6081
 111   2.0000      -0.970327       -26.4039
 112   2.0000      -0.941483       -25.6190
 113   2.0000      -0.929941       -25.3050
 114   2.0000      -0.924977       -25.1699
 115   2.0000      -0.921576       -25.0774
 116   2.0000      -0.914055       -24.8727
 117   2.0000      -0.911320       -24.7983
 118   2.0000      -0.904165       -24.6036
 119   2.0000      -0.893252       -24.3066
 120   2.0000      -0.889470       -24.2037
 121   2.0000      -0.887151       -24.1406
 122   2.0000      -0.882801       -24.0222
 123   2.0000      -0.879537       -23.9334
 124   2.0000      -0.872376       -23.7386
 125   2.0000      -0.867139       -23.5960
 126   2.0000      -0.857109       -23.3231
 127   2.0000      -0.851986       -23.1837
 128   2.0000      -0.840633       -22.8748
 129   2.0000      -0.834695       -22.7132
 130   2.0000      -0.831837       -22.6354
 131   2.0000      -0.827827       -22.5263
 132   2.0000      -0.815855       -22.2005
 133   2.0000      -0.800349       -21.7786
 134   2.0000      -0.790177       -21.5018
 135   2.0000      -0.784189       -21.3389
 136   2.0000      -0.769972       -20.9520
 137   2.0000      -0.765546       -20.8316
 138   2.0000      -0.761770       -20.7288
 139   2.0000      -0.760901       -20.7052
 140   2.0000      -0.747143       -20.3308
 141   2.0000      -0.732093       -19.9213
 142   2.0000      -0.726787       -19.7769
 143   2.0000      -0.724574       -19.7167
 144   2.0000      -0.721432       -19.6312
 145   2.0000      -0.714383       -19.4393
 146   2.0000      -0.713252       -19.4086
 147   2.0000      -0.707235       -19.2449
 148   2.0000      -0.703151       -19.1337
 149   2.0000      -0.698222       -18.9996
 150   2.0000      -0.696836       -18.9619
 151   2.0000      -0.684704       -18.6318
 152   2.0000      -0.682325       -18.5670
 153   2.0000      -0.680562       -18.5190
 154   2.0000      -0.678722       -18.4690
 155   2.0000      -0.676888       -18.4191
 156   2.0000      -0.673844       -18.3362
 157   2.0000      -0.665661       -18.1136
 158   2.0000      -0.659533       -17.9468
 159   2.0000      -0.655906       -17.8481
 160   2.0000      -0.652997       -17.7690
 161   2.0000      -0.645820       -17.5736
 162   2.0000      -0.640498       -17.4288
 163   2.0000      -0.637921       -17.3587
 164   2.0000      -0.633148       -17.2288
 165   2.0000      -0.629848       -17.1390
 166   2.0000      -0.626177       -17.0391
 167   2.0000      -0.622211       -16.9312
 168   2.0000      -0.615988       -16.7619
 169   2.0000      -0.613654       -16.6984
 170   2.0000      -0.611380       -16.6365
 171   2.0000      -0.607172       -16.5220
 172   2.0000      -0.605752       -16.4834
 173   2.0000      -0.604134       -16.4393
 174   2.0000      -0.590538       -16.0694
 175   2.0000      -0.584313       -15.9000
 176   2.0000      -0.577419       -15.7124
 177   2.0000      -0.574436       -15.6312
 178   2.0000      -0.569916       -15.5082
 179   2.0000      -0.567207       -15.4345
 180   2.0000      -0.562897       -15.3172
 181   2.0000      -0.559098       -15.2138
 182   2.0000      -0.555460       -15.1148
 183   2.0000      -0.554050       -15.0765
 184   2.0000      -0.551956       -15.0195
 185   2.0000      -0.551154       -14.9977
 186   2.0000      -0.549211       -14.9448
 187   2.0000      -0.546340       -14.8667
 188   2.0000      -0.544832       -14.8256
 189   2.0000      -0.543827       -14.7983
 190   2.0000      -0.540757       -14.7147
 191   2.0000      -0.538187       -14.6448
 192   2.0000      -0.536868       -14.6089
 193   2.0000      -0.532918       -14.5014
 194   2.0000      -0.529325       -14.4037
 195   2.0000      -0.527587       -14.3564
 196   2.0000      -0.525203       -14.2915
 197   2.0000      -0.523239       -14.2381
 198   2.0000      -0.522291       -14.2123
 199   2.0000      -0.518665       -14.1136
 200   2.0000      -0.517925       -14.0935
 201   2.0000      -0.515678       -14.0323
 202   2.0000      -0.514070       -13.9886
 203   2.0000      -0.511091       -13.9075
 204   2.0000      -0.509097       -13.8532
 205   2.0000      -0.505038       -13.7428
 206   2.0000      -0.502287       -13.6679
 207   2.0000      -0.500393       -13.6164
 208   2.0000      -0.498482       -13.5644
 209   2.0000      -0.495982       -13.4964
 210   2.0000      -0.495396       -13.4804
 211   2.0000      -0.493903       -13.4398
 212   2.0000      -0.491464       -13.3734
 213   2.0000      -0.490291       -13.3415
 214   2.0000      -0.488034       -13.2801
 215   2.0000      -0.484546       -13.1852
 216   2.0000      -0.480605       -13.0779
 217   2.0000      -0.478818       -13.0293
 218   2.0000      -0.471498       -12.8301
 219   2.0000      -0.468591       -12.7510
 220   2.0000      -0.463911       -12.6237
 221   2.0000      -0.463084       -12.6011
 222   2.0000      -0.460469       -12.5300
 223   2.0000      -0.460030       -12.5181
 224   2.0000      -0.456554       -12.4235
 225   2.0000      -0.455923       -12.4063
 226   2.0000      -0.453597       -12.3430
 227   2.0000      -0.448811       -12.2128
 228   2.0000      -0.446948       -12.1621
 229   2.0000      -0.446196       -12.1416
 230   2.0000      -0.444151       -12.0860
 231   2.0000      -0.442810       -12.0495
 232   2.0000      -0.441933       -12.0256
 233   2.0000      -0.440427       -11.9846
 234   2.0000      -0.440054       -11.9745
 235   2.0000      -0.439927       -11.9710
 236   2.0000      -0.438790       -11.9401
 237   2.0000      -0.437754       -11.9119
 238   2.0000      -0.434756       -11.8303
 239   2.0000      -0.433687       -11.8012
 240   2.0000      -0.433343       -11.7919
 241   2.0000      -0.432219       -11.7613
 242   2.0000      -0.431844       -11.7511
 243   2.0000      -0.431344       -11.7375
 244   2.0000      -0.429499       -11.6873
 245   2.0000      -0.424763       -11.5584
 246   2.0000      -0.422508       -11.4970
 247   2.0000      -0.419645       -11.4191
 248   2.0000      -0.417985       -11.3739
 249   2.0000      -0.416950       -11.3458
 250   2.0000      -0.416014       -11.3203
 251   2.0000      -0.415319       -11.3014
 252   2.0000      -0.411439       -11.1958
 253   2.0000      -0.410015       -11.1571
 254   2.0000      -0.407489       -11.0883
 255   2.0000      -0.404412       -11.0046
 256   2.0000      -0.401288       -10.9196
 257   2.0000      -0.398456       -10.8425
 258   2.0000      -0.396792       -10.7973
 259   2.0000      -0.396236       -10.7821
 260   2.0000      -0.384772       -10.4702
 261   2.0000      -0.381152       -10.3717
 262   2.0000      -0.374955       -10.2030
 263   2.0000      -0.365953        -9.9581
 264   2.0000      -0.355182        -9.6650
 265   2.0000      -0.345907        -9.4126
 266   2.0000      -0.342406        -9.3173
 267   2.0000      -0.341115        -9.2822
 268   2.0000      -0.334589        -9.1046
 269   2.0000      -0.324151        -8.8206
 270   2.0000      -0.322262        -8.7692
 271   2.0000      -0.320486        -8.7209
 272   2.0000      -0.316159        -8.6031
 273   2.0000      -0.305069        -8.3013
 274   2.0000      -0.299602        -8.1526
 275   2.0000      -0.296932        -8.0799
 276   2.0000      -0.286852        -7.8056
 277   2.0000      -0.246327        -6.7029
 278   0.0000      -0.137480        -3.7410
 279   0.0000      -0.101973        -2.7748
 280   0.0000      -0.081617        -2.2209
 281   0.0000      -0.071930        -1.9573
 282   0.0000      -0.060343        -1.6420

MULLIKEN ATOMIC CHARGES
-----------------------
   0 C :    0.267139
   1 C :   -0.329523
   2 C :   -0.169810
   3 N :    0.165811
   4 C :   -0.193707
   5 N :    0.170075
   6 C :    0.028403
   7 C :    0.024182
   8 C :   -0.087375
   9 C :    0.097899
  10 C :    0.095145
  11 C :   -0.082766
  12 C :   -0.020690
  13 C :    0.041168
  14 C :    0.037116
  15 C :   -0.017281
  16 C :    0.132565
  17 O :   -0.140768
  18 C :   -0.126260
  19 C :    0.024471
  20 C :   -0.145313
  21 S :    0.117116
  22 C :   -0.044527
  23 C :   -0.126372
  24 C :   -0.051344
  25 C :    0.147980
  26 C :    0.015074
  27 N :    0.237575
  28 O :   -0.213469
  29 O :   -0.206152
  30 C :    0.037636
  31 N :    0.222006
  32 O :   -0.203078
  33 O :   -0.221390
  34 C :    0.127205
  35 C :   -0.149280
  36 S :    0.138866
  37 C :   -0.126968
  38 C :    0.125281
  39 C :    0.074506
  40 N :   -0.025853
  41 C :   -0.093754
  42 C :   -0.145861
  43 N :    0.180662
  44 C :   -0.037997
  45 C :    0.077902
  46 C :   -0.011995
  47 C :    0.126706
  48 C :   -0.123096
  49 C :    0.136910
  50 C :   -0.096171
  51 C :   -0.007160
  52 C :   -0.173631
  53 N :    0.144804
  54 C :    0.107510
  55 C :   -0.086412
  56 C :    0.089791
  57 C :    0.041918
  58 C :   -0.125748
  59 C :   -0.169969
  60 N :    0.125503
  61 C :   -0.037548
  62 C :   -0.075587
  63 C :    0.315188
  64 C :   -0.343253
  65 C :   -0.181425
  66 N :    0.147628
  67 C :   -0.199195
  68 N :    0.163278
  69 C :    0.054183
  70 C :   -0.014283
  71 C :    0.145607
  72 O :   -0.149189
  73 C :   -0.075424
  74 C :    0.096486
  75 C :    0.093416
  76 C :   -0.080604
  77 C :   -0.017558
  78 C :    0.037710
  79 C :    0.032726
  80 C :   -0.013245
  81 H :   -0.010768
  82 H :   -0.000990
  83 H :   -0.009045
  84 H :   -0.003133
  85 H :   -0.003067
  86 H :   -0.015800
  87 H :    0.035472
  88 H :    0.063154
  89 H :    0.051624
  90 H :    0.077990
  91 H :    0.076112
  92 H :    0.058155
  93 H :    0.067045
  94 H :    0.138895
  95 H :    0.006596
  96 H :   -0.018444
  97 H :   -0.021822
  98 H :    0.001675
  99 H :    0.000727
 100 H :    0.018620
 101 H :    0.009544
 102 H :    0.027056
 103 H :   -0.012017
 104 H :   -0.008474
 105 H :   -0.008578
 106 H :   -0.004777
 107 H :   -0.002754
 108 H :   -0.017114
Sum of atomic charges:   -0.0000000

LOEWDIN ATOMIC CHARGES
----------------------
   0 C :    0.054143
   1 C :   -0.123188
   2 C :   -0.017976
   3 N :   -0.042524
   4 C :   -0.017514
   5 N :   -0.051108
   6 C :   -0.024465
   7 C :   -0.060078
   8 C :    0.035056
   9 C :   -0.009090
  10 C :   -0.004569
  11 C :    0.018305
  12 C :   -0.005630
  13 C :   -0.010652
  14 C :   -0.011492
  15 C :   -0.008444
  16 C :    0.083428
  17 O :   -0.140139
  18 C :   -0.084343
  19 C :    0.035401
  20 C :   -0.182011
  21 S :    0.451639
  22 C :   -0.155353
  23 C :   -0.063559
  24 C :   -0.039658
  25 C :   -0.027010
  26 C :    0.006673
  27 N :    0.278234
  28 O :   -0.172721
  29 O :   -0.173082
  30 C :    0.009040
  31 N :    0.274082
  32 O :   -0.172754
  33 O :   -0.188821
  34 C :   -0.044141
  35 C :   -0.204477
  36 S :    0.489119
  37 C :   -0.169780
  38 C :   -0.054648
  39 C :   -0.006143
  40 N :    0.080094
  41 C :   -0.016840
  42 C :   -0.045148
  43 N :   -0.024256
  44 C :   -0.029578
  45 C :   -0.017279
  46 C :   -0.016865
  47 C :   -0.001051
  48 C :   -0.039946
  49 C :    0.050171
  50 C :   -0.068429
  51 C :    0.051880
  52 C :   -0.033268
  53 N :   -0.051652
  54 C :    0.018302
  55 C :    0.024137
  56 C :   -0.034900
  57 C :    0.068566
  58 C :   -0.095191
  59 C :   -0.026234
  60 N :   -0.071252
  61 C :    0.074169
  62 C :   -0.085226
  63 C :    0.073766
  64 C :   -0.133989
  65 C :   -0.016063
  66 N :   -0.051816
  67 C :   -0.025881
  68 N :   -0.044111
  69 C :   -0.025910
  70 C :   -0.056989
  71 C :    0.084349
  72 O :   -0.138067
  73 C :    0.033651
  74 C :   -0.008270
  75 C :   -0.005592
  76 C :    0.019661
  77 C :   -0.005166
  78 C :   -0.012502
  79 C :   -0.012184
  80 C :   -0.008916
  81 H :    0.040038
  82 H :    0.040230
  83 H :    0.035103
  84 H :    0.033965
  85 H :    0.033664
  86 H :    0.032448
  87 H :    0.047839
  88 H :    0.053068
  89 H :    0.042697
  90 H :    0.057460
  91 H :    0.058101
  92 H :    0.032953
  93 H :    0.045851
  94 H :    0.083054
  95 H :    0.038933
  96 H :    0.031106
  97 H :    0.036621
  98 H :    0.035404
  99 H :    0.035490
 100 H :    0.039777
 101 H :    0.036776
 102 H :    0.051351
 103 H :    0.039310
 104 H :    0.039060
 105 H :    0.034970
 106 H :    0.033335
 107 H :    0.033341
 108 H :    0.032127

  Mayer bond orders larger than 0.100000
B(  0-C ,  1-C ) :   1.6671 B(  0-C ,  6-C ) :   0.9941 B(  0-C , 18-C ) :   1.0228
B(  1-C ,  2-C ) :   1.1207 B(  1-C ,  4-C ) :   1.1781 B(  2-C ,  3-N ) :   3.0001
B(  4-C ,  5-N ) :   2.9942 B(  6-C ,  7-C ) :   1.2155 B(  6-C , 11-C ) :   1.4547
B(  7-C ,  8-C ) :   1.4624 B(  7-C , 16-C ) :   0.9239 B(  8-C ,  9-C ) :   1.1827
B(  8-C , 81-H ) :   1.0189 B(  9-C , 10-C ) :   1.2555 B(  9-C , 15-C ) :   1.2429
B( 10-C , 11-C ) :   1.2058 B( 10-C , 12-C ) :   1.2391 B( 11-C , 82-H ) :   0.9951
B( 12-C , 13-C ) :   1.4902 B( 12-C , 83-H ) :   0.9985 B( 13-C , 14-C ) :   1.2598
B( 13-C , 84-H ) :   0.9882 B( 14-C , 15-C ) :   1.4885 B( 14-C , 85-H ) :   0.9891
B( 15-C , 86-H ) :   0.9987 B( 16-C , 17-O ) :   2.2678 B( 16-C , 18-C ) :   0.9317
B( 18-C , 19-C ) :   1.7320 B( 19-C , 20-C ) :   1.0549 B( 19-C , 87-H ) :   0.9216
B( 20-C , 21-S ) :   1.1126 B( 20-C , 24-C ) :   1.5053 B( 21-S , 22-C ) :   1.1177
B( 22-C , 23-C ) :   1.4861 B( 22-C , 35-C ) :   1.2071 B( 23-C , 24-C ) :   1.3348
B( 23-C , 34-C ) :   1.0413 B( 24-C , 25-C ) :   1.0318 B( 25-C , 26-C ) :   1.0458
B( 25-C , 88-H ) :   0.9021 B( 25-C , 89-H ) :   0.8934 B( 26-C , 27-N ) :   0.8242
B( 26-C , 30-C ) :   1.0223 B( 26-C , 90-H ) :   0.8953 B( 27-N , 28-O ) :   1.5454
B( 27-N , 29-O ) :   1.5768 B( 28-O , 29-O ) :   0.2679 B( 30-C , 31-N ) :   0.8236
B( 30-C , 34-C ) :   1.0336 B( 30-C , 91-H ) :   0.8929 B( 31-N , 32-O ) :   1.5863
B( 31-N , 33-O ) :   1.5565 B( 32-O , 33-O ) :   0.2719 B( 34-C , 92-H ) :   0.8823
B( 34-C , 93-H ) :   0.8969 B( 35-C , 36-S ) :   1.1211 B( 35-C , 37-C ) :   0.1050
B( 35-C , 39-C ) :   1.3628 B( 36-S , 37-C ) :   1.1164 B( 37-C , 38-C ) :   1.2604
B( 37-C , 45-C ) :   1.2129 B( 38-C , 39-C ) :   1.2530 B( 38-C , 44-C ) :   1.1902
B( 39-C , 40-N ) :   1.1942 B( 40-N , 41-C ) :   1.2123 B( 40-N , 94-H ) :   0.9228
B( 41-C , 42-C ) :   1.0535 B( 41-C , 44-C ) :   1.5804 B( 42-C , 43-N ) :   3.0565
B( 44-C , 95-H ) :   1.0090 B( 45-C , 46-C ) :   1.5446 B( 45-C , 96-H ) :   0.9526
B( 46-C , 47-C ) :   1.1852 B( 46-C , 97-H ) :   0.9768 B( 47-C , 48-C ) :   1.4648
B( 47-C , 51-C ) :   1.0218 B( 48-C , 49-C ) :   1.1603 B( 48-C , 98-H ) :   1.0077
B( 49-C , 50-C ) :   1.0891 B( 49-C , 54-C ) :   1.3725 B( 50-C , 51-C ) :   1.7099
B( 50-C , 52-C ) :   1.0861 B( 51-C , 99-H ) :   1.0133 B( 52-C , 53-N ) :   2.9703
B( 54-C , 55-C ) :   1.1193 B( 54-C , 58-C ) :   1.1247 B( 55-C , 56-C ) :   1.4692
B( 55-C ,100-H ) :   1.0065 B( 56-C , 57-C ) :   1.0703 B( 56-C , 61-C ) :   1.1412
B( 57-C , 58-C ) :   1.6489 B( 57-C ,101-H ) :   1.0078 B( 58-C , 59-C ) :   1.0951
B( 59-C , 60-N ) :   2.9624 B( 61-C , 62-C ) :   1.5716 B( 61-C ,102-H ) :   0.9446
B( 62-C , 63-C ) :   1.0628 B( 62-C , 71-C ) :   0.9313 B( 63-C , 64-C ) :   1.6332
B( 63-C , 69-C ) :   0.9902 B( 64-C , 65-C ) :   1.1474 B( 64-C , 67-C ) :   1.1384
B( 65-C , 66-N ) :   2.9613 B( 67-C , 68-N ) :   2.9811 B( 69-C , 70-C ) :   1.2113
B( 69-C , 76-C ) :   1.4460 B( 70-C , 71-C ) :   0.9444 B( 70-C , 73-C ) :   1.4713
B( 71-C , 72-O ) :   2.2143 B( 73-C , 74-C ) :   1.1802 B( 73-C ,103-H ) :   1.0164
B( 74-C , 75-C ) :   1.2548 B( 74-C , 80-C ) :   1.2438 B( 75-C , 76-C ) :   1.2087
B( 75-C , 77-C ) :   1.2386 B( 76-C ,104-H ) :   0.9900 B( 77-C , 78-C ) :   1.4903
B( 77-C ,105-H ) :   0.9979 B( 78-C , 79-C ) :   1.2578 B( 78-C ,106-H ) :   0.9892
B( 79-C , 80-C ) :   1.4892 B( 79-C ,107-H ) :   0.9892 B( 80-C ,108-H ) :   0.9981

-----------------------------------------------------------------------------
         ABSORPTION SPECTRUM VIA TRANSITION ELECTRIC DIPOLE MOMENTS
-----------------------------------------------------------------------------
State   Energy  Wavelength   fosc         T2         TX        TY        TZ
        (cm-1)    (nm)                  (au**2)     (au)      (au)      (au)
-----------------------------------------------------------------------------
   0   10139.0    986.3   1.446040867  46.95278   4.13570  -5.43338   0.57197
   1   16801.5    595.2   0.013040422   0.25552  -0.09607  -0.09693  -0.48671
   2   17220.2    580.7   0.407886983   7.79789   2.06888  -1.46501   1.17104
   3   20456.2    488.8   0.200973273   3.23437  -0.80421   1.57979  -0.30310
   4   21507.6    465.0   0.042130276   0.64488   0.02602  -0.79186  -0.13100
   5   23097.6    432.9   0.501631153   7.14978   1.39269  -2.28189  -0.05634
   6   23645.0    422.9   0.030094598   0.41901  -0.13720   0.53719   0.33409
   7   24920.9    401.3   0.192972547   2.54922   0.53854  -1.48764   0.21478
   8   25188.3    397.0   0.048059588   0.62814   0.12724   0.77580   0.10038
   9   25759.2    388.2   0.075625561   0.96652   0.98113  -0.03607   0.05099
  10   25847.2    386.9   0.039990497   0.50935  -0.40920   0.57795  -0.08877
  11   26684.3    374.8   0.024016837   0.29630   0.02382  -0.50487  -0.20209
  12   27344.8    365.7   0.264878111   3.18895  -1.62828   0.55636   0.47762
  13   28006.9    357.1   0.009860822   0.11591   0.20485   0.26938   0.03717
  14   28115.7    355.7   0.012065241   0.14127   0.18413  -0.32374   0.05062
  15   28756.7    347.7   0.039678495   0.45425  -0.12149   0.66259   0.02142
  16   28854.0    346.6   0.009002818   0.10272  -0.13815   0.22700  -0.17918
  17   29064.4    344.1   0.070263696   0.79588   0.00241   0.79458   0.40561
  18   29194.3    342.5   0.020955258   0.23630   0.20784  -0.08632   0.43088
  19   29718.3    336.5   0.076888762   0.85175   0.87024   0.29780  -0.07585
  20   30009.6    333.2   0.240962581   2.64341   1.29660  -0.92659   0.32199
  21   30513.1    327.7   0.292136790   3.15192  -1.62868   0.70555  -0.03907
  22   30773.1    325.0   0.058198748   0.62261  -0.46905   0.63304  -0.04321
  23   31387.1    318.6   0.024417040   0.25610  -0.27868  -0.24729   0.34247
  24   31965.6    312.8   0.047672036   0.49097   0.42970  -0.53804   0.12980
  25   32593.3    306.8   0.085136749   0.85993   0.73705  -0.55164  -0.11128
  26   32879.1    304.1   0.066597032   0.66682  -0.56632   0.55742  -0.18812
  27   33100.3    302.1   0.059186401   0.58866   0.69334  -0.29070  -0.15308
  28   33200.9    301.2   0.099423116   0.98585  -0.71513   0.61858  -0.30299
  29   33397.3    299.4   0.009024601   0.08896   0.19684  -0.20070  -0.09966
  30   33651.6    297.2   0.182282217   1.78326  -1.07624   0.78711  -0.07366
  31   33965.7    294.4   0.308309734   2.98828   1.10424  -1.32237   0.14240
  32   34147.5    292.8   0.003791600   0.03655   0.17457   0.03437  -0.07000
  33   34487.4    290.0   0.209514956   2.00000   1.40914  -0.10473  -0.05800
  34   34577.2    289.2   0.067216046   0.63997  -0.74828  -0.07512   0.27277
  35   35308.7    283.2   0.095646796   0.89179  -0.14494   0.91805  -0.16722
  36   35577.9    281.1   0.217403572   2.01169  -0.86190   1.00142  -0.51574
  37   35832.7    279.1   0.520102245   4.77843   2.15716   0.33981  -0.09806
  38   35946.4    278.2   0.024155843   0.22123   0.46904   0.03366  -0.00991
  39   36376.7    274.9   0.120627549   1.09169   0.91139  -0.42821   0.27872
  40   36657.0    272.8   0.020971644   0.18834  -0.31873   0.17909   0.23384
  41   36712.1    272.4   0.132704104   1.19001   0.50390  -0.96001  -0.12031
  42   37324.2    267.9   0.051445619   0.45377  -0.22648   0.63020   0.07299
  43   37414.2    267.3   0.024408397   0.21477  -0.39998  -0.22256   0.07253
  44   37658.4    265.5   0.091396427   0.79899  -0.87319  -0.08482   0.17130
  45   37852.3    264.2   0.010892610   0.09474   0.29665   0.06245  -0.05324
  46   38010.7    263.1   0.013381701   0.11590   0.14968   0.24837  -0.17835
  47   38245.9    261.5   0.072916349   0.62765  -0.74658   0.26496   0.00761
  48   38284.2    261.2   0.029749456   0.25582   0.05418   0.34369  -0.36710
  49   38561.0    259.3   0.024461866   0.20884  -0.15892   0.39212  -0.17272
  50   39061.9    256.0   0.016924177   0.14264  -0.16424  -0.01577   0.33973
  51   39227.4    254.9   0.167057603   1.40201   0.04424  -1.18317   0.01333
  52   39570.0    252.7   0.065218289   0.54260  -0.48774  -0.52554   0.16886
  53   39708.4    251.8   0.038062292   0.31556   0.00826   0.37756   0.41586
  54   40101.4    249.4   0.025705988   0.21103   0.32874  -0.04210   0.31811
  55   40231.5    248.6   0.129997441   1.06376  -0.29842   0.87334   0.46043

FINAL SINGLE POINT ENERGY     -4207.922059347268

DIPOLE MOMENT
-------------
                                X             Y             Z
Electronic contribution:     -0.11300      -2.28161      -1.89950
Nuclear contribution   :      1.70865      -1.04674       1.19215
                        -----------------------------------------
Total Dipole Moment    :      1.59565      -3.32835      -0.70735
                        -----------------------------------------
Magnitude (a.u.)       :      3.75824
Magnitude (Debye)      :      9.55269

Rotational constants in cm-1:     0.002182     0.000164     0.000160
Rotational constants in MHz :    65.414176     4.912108     4.788552

                             ****ORCA TERMINATED NORMALLY****
TOTAL RUN TIME: 0 days 0 hours 13 minutes 17 seconds 494 msec
