                         Program Version 4.2.0 -  RELEASE  -
|  1> # ORCA input file
|  2> # SCF done       -211.602959762898          0.000846162414
|  3> ! CAM-B3LYP def2-SVP def2/J RIJCOSX Grid4 TightSCF
|  4> %maxcore 5000
|  5> %tddft
|  6>     Mode sTDDFT
|  7>     Ethresh 5.0
|  8>     maxcore 5000
|  9> end
| 10>
| 11> %pal
| 12>   nprocs 6
| 13>   end
| 14> * xyz 0 1
| 15>    C       -1.36977       -11.51728        16.48500
| 16>    C       -1.36349       -10.23339        16.95342
| 17>    F       -1.18786        -9.99394        18.25749
| 18>    C       -1.54061        -9.14628        16.07208
| 19>    F       -1.52901        -7.90060        16.55988
| 20>    C       -1.72282        -9.35900        14.73430
| 21>    C       -1.73467       -10.67073        14.22103
| 22>    C       -1.55287       -11.77055        15.11031
| 23>    C       -1.55104       -13.09483        14.61755
| 24>    C       -1.72112       -13.31455        13.27458
| 25>    C       -1.91056       -12.21114        12.39738
| 26>    C       -1.92168       -10.92036        12.84427
| 27>    C       -2.07167       -12.69371        11.01547
| 28>    O       -2.32001       -12.01879        10.04400
| 29>    C       -1.95220       -14.18190        11.09403
| 30>    C       -1.73888       -14.54379        12.48951
| 31>    C       -1.52555       -15.80222        12.98607
| 32>    C       -1.47855       -16.99435        12.23052
| 33>    N       -1.41538       -18.00535        11.69029
| 34>    C       -1.30441       -16.08538        14.35246
| 35>    N       -1.12527       -16.38515        15.44522
| 36>    C       -2.14708       -15.06341        10.07495
| 37>    C       -2.23089       -14.81203         8.67697
| 38>    C       -1.78142       -13.75632         7.92614
| 39>    C       -2.06107       -14.01090         6.53962
| 40>    C       -2.70515       -15.33785         6.49028
| 41>    C       -2.78768       -15.80840         7.75846
| 42>    C       -3.13169       -16.03126         5.35305
| 43>    N       -3.48172       -16.65270         4.45385
| 44>    C       -1.81685       -13.17015         5.49148
| 45>    C       -2.20043       -13.34594         4.11192
| 46>    C       -1.86874       -12.21708         3.42356
| 47>    C       -1.22032       -11.28399         4.33161
| 48>    C       -1.16901       -11.84673         5.56631
| 49>    C       -0.55424       -11.26181         6.68191
| 50>    N       -0.01323       -10.75274         7.55696
| 51>    C       -2.16784       -11.95451         2.02539
| 52>    C       -2.31720       -10.72410         1.50463
| 53>    N       -2.19742       -13.08849         1.24789
| 54>    N       -3.02389       -13.47700         0.48814
| 55>    C       -3.49258       -14.17472        -0.45270
| 56>    C       -4.61236       -15.04898        -0.25525
| 57>    N       -5.17587       -15.15222         0.99357
| 58>    O       -4.66031       -14.45411         1.87931
| 59>    O       -6.13421       -15.88811         1.16284
| 60>    C       -4.90693       -15.68063        -1.46930
| 61>    C       -4.01143       -15.24428        -2.42709
| 62>    C       -3.10014       -14.32161        -1.87885
| 63>    C       -2.02387       -13.67499        -2.47138
| 64>    C       -1.50948       -12.40020        -2.08057
| 65>    C       -0.65779       -11.95079        -3.04242
| 66>    C       -0.55892       -12.95296        -4.05815
| 67>    N        0.27475       -12.81361        -5.18192
| 68>    O        0.87617       -11.76011        -5.29940
| 69>    O        0.34380       -13.73459        -5.97866
| 70>    C       -1.35049       -14.04909        -3.71607
| 71>    C       -1.40422       -15.28946        -4.41828
| 72>    C       -1.54715       -16.52191        -3.85940
| 73>    C       -1.50953       -16.71280        -2.45331
| 74>    C       -2.11246       -17.62345        -1.64132
| 75>    C       -2.24585       -17.21991        -0.21124
| 76>    O       -1.67605       -16.28693         0.31940
| 77>    C       -3.31977       -18.05055         0.33967
| 78>    C       -3.89801       -17.99003         1.57600
| 79>    C       -5.01230       -18.81165         1.84825
| 80>    C       -5.50448       -19.68521         0.83651
| 81>    C       -6.63248       -20.48207         1.11453
| 82>    C       -7.23850       -20.40986         2.33787
| 83>    C       -6.74793       -19.54369         3.33599
| 84>    C       -5.65433       -18.76002         3.09936
| 85>    F       -7.36562       -19.50267         4.52512
| 86>    F       -8.31068       -21.16975         2.60009
| 87>    C       -4.86727       -19.74559        -0.42479
| 88>    C       -3.78428       -18.94388        -0.66966
| 89>    C       -2.94098       -18.79335        -1.85399
| 90>    C       -2.85798       -19.70018        -2.87552
| 91>    C       -1.89168       -19.66280        -3.90034
| 92>    N       -1.10890       -19.69651        -4.73891
| 93>    C       -3.67974       -20.84318        -2.98094
| 94>    N       -4.32654       -21.77949        -3.12798
| 95>    H       -1.23105       -12.33676        17.17286
| 96>    H       -1.85653        -8.51733        14.07298
| 97>    H       -1.41425       -13.90241        15.31801
| 98>    H       -2.06350       -10.10401        12.15260
| 99>    H       -2.26027       -16.10992        10.33320
|100>    H       -1.29910       -12.87141         8.28704
|101>    H       -3.19977       -16.75222         8.06640
|102>    H       -2.72050       -14.19781         3.71821
|103>    H       -0.82271       -10.32570         4.05458
|104>    H       -2.19114        -9.84752         2.11293
|105>    H       -2.54565       -10.56527         0.46521
|106>    H       -5.71017       -16.37963        -1.60856
|107>    H       -4.02730       -15.51610        -3.46507
|108>    H       -1.82368       -11.85473        -1.21320
|109>    H       -0.13091       -11.01661        -3.07358
|110>    H       -1.27638       -15.22222        -5.49153
|111>    H       -1.67576       -17.36930        -4.51443
|112>    H       -1.00968       -15.92423        -1.89596
|113>    H       -3.52432       -17.32449         2.33883
|114>    H       -7.02233       -21.15270         0.36463
|115>    H       -5.28260       -18.09238         3.86048
|116>    H       -5.26477       -20.41275        -1.17302
|117> *
|118>
|119>                          ****END OF INPUT****

CARTESIAN COORDINATES (ANGSTROEM)
---------------------------------
  C     -1.369770  -11.517280   16.485000
  C     -1.363490  -10.233390   16.953420
  F     -1.187860   -9.993940   18.257490
  C     -1.540610   -9.146280   16.072080
  F     -1.529010   -7.900600   16.559880
  C     -1.722820   -9.359000   14.734300
  C     -1.734670  -10.670730   14.221030
  C     -1.552870  -11.770550   15.110310
  C     -1.551040  -13.094830   14.617550
  C     -1.721120  -13.314550   13.274580
  C     -1.910560  -12.211140   12.397380
  C     -1.921680  -10.920360   12.844270
  C     -2.071670  -12.693710   11.015470
  O     -2.320010  -12.018790   10.044000
  C     -1.952200  -14.181900   11.094030
  C     -1.738880  -14.543790   12.489510
  C     -1.525550  -15.802220   12.986070
  C     -1.478550  -16.994350   12.230520
  N     -1.415380  -18.005350   11.690290
  C     -1.304410  -16.085380   14.352460
  N     -1.125270  -16.385150   15.445220
  C     -2.147080  -15.063410   10.074950
  C     -2.230890  -14.812030    8.676970
  C     -1.781420  -13.756320    7.926140
  C     -2.061070  -14.010900    6.539620
  C     -2.705150  -15.337850    6.490280
  C     -2.787680  -15.808400    7.758460
  C     -3.131690  -16.031260    5.353050
  N     -3.481720  -16.652700    4.453850
  C     -1.816850  -13.170150    5.491480
  C     -2.200430  -13.345940    4.111920
  C     -1.868740  -12.217080    3.423560
  C     -1.220320  -11.283990    4.331610
  C     -1.169010  -11.846730    5.566310
  C     -0.554240  -11.261810    6.681910
  N     -0.013230  -10.752740    7.556960
  C     -2.167840  -11.954510    2.025390
  C     -2.317200  -10.724100    1.504630
  N     -2.197420  -13.088490    1.247890
  N     -3.023890  -13.477000    0.488140
  C     -3.492580  -14.174720   -0.452700
  C     -4.612360  -15.048980   -0.255250
  N     -5.175870  -15.152220    0.993570
  O     -4.660310  -14.454110    1.879310
  O     -6.134210  -15.888110    1.162840
  C     -4.906930  -15.680630   -1.469300
  C     -4.011430  -15.244280   -2.427090
  C     -3.100140  -14.321610   -1.878850
  C     -2.023870  -13.674990   -2.471380
  C     -1.509480  -12.400200   -2.080570
  C     -0.657790  -11.950790   -3.042420
  C     -0.558920  -12.952960   -4.058150
  N      0.274750  -12.813610   -5.181920
  O      0.876170  -11.760110   -5.299400
  O      0.343800  -13.734590   -5.978660
  C     -1.350490  -14.049090   -3.716070
  C     -1.404220  -15.289460   -4.418280
  C     -1.547150  -16.521910   -3.859400
  C     -1.509530  -16.712800   -2.453310
  C     -2.112460  -17.623450   -1.641320
  C     -2.245850  -17.219910   -0.211240
  O     -1.676050  -16.286930    0.319400
  C     -3.319770  -18.050550    0.339670
  C     -3.898010  -17.990030    1.576000
  C     -5.012300  -18.811650    1.848250
  C     -5.504480  -19.685210    0.836510
  C     -6.632480  -20.482070    1.114530
  C     -7.238500  -20.409860    2.337870
  C     -6.747930  -19.543690    3.335990
  C     -5.654330  -18.760020    3.099360
  F     -7.365620  -19.502670    4.525120
  F     -8.310680  -21.169750    2.600090
  C     -4.867270  -19.745590   -0.424790
  C     -3.784280  -18.943880   -0.669660
  C     -2.940980  -18.793350   -1.853990
  C     -2.857980  -19.700180   -2.875520
  C     -1.891680  -19.662800   -3.900340
  N     -1.108900  -19.696510   -4.738910
  C     -3.679740  -20.843180   -2.980940
  N     -4.326540  -21.779490   -3.127980
  H     -1.231050  -12.336760   17.172860
  H     -1.856530   -8.517330   14.072980
  H     -1.414250  -13.902410   15.318010
  H     -2.063500  -10.104010   12.152600
  H     -2.260270  -16.109920   10.333200
  H     -1.299100  -12.871410    8.287040
  H     -3.199770  -16.752220    8.066400
  H     -2.720500  -14.197810    3.718210
  H     -0.822710  -10.325700    4.054580
  H     -2.191140   -9.847520    2.112930
  H     -2.545650  -10.565270    0.465210
  H     -5.710170  -16.379630   -1.608560
  H     -4.027300  -15.516100   -3.465070
  H     -1.823680  -11.854730   -1.213200
  H     -0.130910  -11.016610   -3.073580
  H     -1.276380  -15.222220   -5.491530
  H     -1.675760  -17.369300   -4.514430
  H     -1.009680  -15.924230   -1.895960
  H     -3.524320  -17.324490    2.338830
  H     -7.022330  -21.152700    0.364630
  H     -5.282600  -18.092380    3.860480
  H     -5.264770  -20.412750   -1.173020

 Total Charge           Charge          ....    0
 Multiplicity           Mult            ....    1
 Number of Electrons    NEL             ....  536
 Basis Dimension        Dim             .... 1230

ORBITAL ENERGIES
----------------

  NO   OCC          E(Eh)            E(eV)
   0   2.0000     -24.809305      -675.0955
   1   2.0000     -24.808353      -675.0696
   2   2.0000     -24.790095      -674.5728
   3   2.0000     -24.788216      -674.5216
   4   2.0000     -19.238584      -523.5085
   5   2.0000     -19.238470      -523.5054
   6   2.0000     -19.236449      -523.4504
   7   2.0000     -19.235950      -523.4368
   8   2.0000     -19.235521      -523.4251
   9   2.0000     -19.221315      -523.0386
  10   2.0000     -14.646633      -398.5552
  11   2.0000     -14.644834      -398.5062
  12   2.0000     -14.594967      -397.1492
  13   2.0000     -14.562085      -396.2545
  14   2.0000     -14.436828      -392.8461
  15   2.0000     -14.436127      -392.8270
  16   2.0000     -14.433176      -392.7467
  17   2.0000     -14.430420      -392.6717
  18   2.0000     -14.417614      -392.3232
  19   2.0000     -14.417486      -392.3197
  20   2.0000     -10.402034      -283.0537
  21   2.0000     -10.393576      -282.8236
  22   2.0000     -10.392913      -282.8055
  23   2.0000     -10.389960      -282.7252
  24   2.0000     -10.383595      -282.5520
  25   2.0000     -10.372637      -282.2538
  26   2.0000     -10.369745      -282.1751
  27   2.0000     -10.369573      -282.1704
  28   2.0000     -10.364717      -282.0383
  29   2.0000     -10.361216      -281.9430
  30   2.0000     -10.356322      -281.8098
  31   2.0000     -10.354063      -281.7484
  32   2.0000     -10.352853      -281.7155
  33   2.0000     -10.346446      -281.5411
  34   2.0000     -10.344733      -281.4945
  35   2.0000     -10.344030      -281.4754
  36   2.0000     -10.341372      -281.4030
  37   2.0000     -10.341296      -281.4010
  38   2.0000     -10.341290      -281.4008
  39   2.0000     -10.340861      -281.3891
  40   2.0000     -10.340189      -281.3709
  41   2.0000     -10.338081      -281.3135
  42   2.0000     -10.338054      -281.3128
  43   2.0000     -10.337907      -281.3088
  44   2.0000     -10.335123      -281.2330
  45   2.0000     -10.331530      -281.1352
  46   2.0000     -10.329706      -281.0856
  47   2.0000     -10.329425      -281.0779
  48   2.0000     -10.327987      -281.0388
  49   2.0000     -10.327337      -281.0211
  50   2.0000     -10.326713      -281.0042
  51   2.0000     -10.324261      -280.9374
  52   2.0000     -10.324048      -280.9316
  53   2.0000     -10.323764      -280.9239
  54   2.0000     -10.323123      -280.9065
  55   2.0000     -10.320808      -280.8435
  56   2.0000     -10.320065      -280.8233
  57   2.0000     -10.319836      -280.8170
  58   2.0000     -10.319354      -280.8039
  59   2.0000     -10.317127      -280.7433
  60   2.0000     -10.316899      -280.7371
  61   2.0000     -10.316827      -280.7351
  62   2.0000     -10.315368      -280.6954
  63   2.0000     -10.312850      -280.6269
  64   2.0000     -10.312205      -280.6094
  65   2.0000     -10.308348      -280.5044
  66   2.0000     -10.307342      -280.4770
  67   2.0000     -10.304164      -280.3906
  68   2.0000     -10.302458      -280.3441
  69   2.0000     -10.301154      -280.3086
  70   2.0000     -10.298399      -280.2337
  71   2.0000     -10.297678      -280.2141
  72   2.0000     -10.296750      -280.1888
  73   2.0000     -10.295238      -280.1477
  74   2.0000     -10.294724      -280.1337
  75   2.0000     -10.294123      -280.1173
  76   2.0000     -10.291375      -280.0425
  77   2.0000     -10.290137      -280.0089
  78   2.0000     -10.287303      -279.9317
  79   2.0000     -10.285511      -279.8830
  80   2.0000      -1.332472       -36.2584
  81   2.0000      -1.317506       -35.8512
  82   2.0000      -1.315275       -35.7904
  83   2.0000      -1.312388       -35.7119
  84   2.0000      -1.311940       -35.6997
  85   2.0000      -1.296907       -35.2906
  86   2.0000      -1.247506       -33.9464
  87   2.0000      -1.155174       -31.4339
  88   2.0000      -1.135390       -30.8955
  89   2.0000      -1.132626       -30.8203
  90   2.0000      -1.131662       -30.7941
  91   2.0000      -1.062496       -28.9120
  92   2.0000      -1.044881       -28.4327
  93   2.0000      -1.038276       -28.2529
  94   2.0000      -1.028719       -27.9929
  95   2.0000      -1.020427       -27.7672
  96   2.0000      -1.020103       -27.7584
  97   2.0000      -1.013578       -27.5808
  98   2.0000      -1.012681       -27.5564
  99   2.0000      -1.012185       -27.5430
 100   2.0000      -1.007084       -27.4042
 101   2.0000      -1.000559       -27.2266
 102   2.0000      -0.996770       -27.1235
 103   2.0000      -0.996125       -27.1059
 104   2.0000      -0.989574       -26.9277
 105   2.0000      -0.976198       -26.5637
 106   2.0000      -0.949195       -25.8289
 107   2.0000      -0.940118       -25.5819
 108   2.0000      -0.933488       -25.4015
 109   2.0000      -0.927177       -25.2298
 110   2.0000      -0.921475       -25.0746
 111   2.0000      -0.919102       -25.0101
 112   2.0000      -0.907991       -24.7077
 113   2.0000      -0.903511       -24.5858
 114   2.0000      -0.895161       -24.3586
 115   2.0000      -0.888533       -24.1782
 116   2.0000      -0.886335       -24.1184
 117   2.0000      -0.883995       -24.0547
 118   2.0000      -0.876819       -23.8595
 119   2.0000      -0.862538       -23.4709
 120   2.0000      -0.860326       -23.4107
 121   2.0000      -0.854386       -23.2490
 122   2.0000      -0.836716       -22.7682
 123   2.0000      -0.833227       -22.6733
 124   2.0000      -0.826583       -22.4925
 125   2.0000      -0.820066       -22.3151
 126   2.0000      -0.811104       -22.0713
 127   2.0000      -0.797508       -21.7013
 128   2.0000      -0.784729       -21.3536
 129   2.0000      -0.782829       -21.3019
 130   2.0000      -0.763853       -20.7855
 131   2.0000      -0.757544       -20.6138
 132   2.0000      -0.755546       -20.5595
 133   2.0000      -0.745710       -20.2918
 134   2.0000      -0.745122       -20.2758
 135   2.0000      -0.735854       -20.0236
 136   2.0000      -0.732903       -19.9433
 137   2.0000      -0.731708       -19.9108
 138   2.0000      -0.723858       -19.6972
 139   2.0000      -0.713457       -19.4141
 140   2.0000      -0.710505       -19.3338
 141   2.0000      -0.705542       -19.1988
 142   2.0000      -0.701836       -19.0979
 143   2.0000      -0.687703       -18.7134
 144   2.0000      -0.684350       -18.6221
 145   2.0000      -0.683309       -18.5938
 146   2.0000      -0.681154       -18.5352
 147   2.0000      -0.673758       -18.3339
 148   2.0000      -0.672516       -18.3001
 149   2.0000      -0.665471       -18.1084
 150   2.0000      -0.656700       -17.8697
 151   2.0000      -0.653088       -17.7714
 152   2.0000      -0.650813       -17.7095
 153   2.0000      -0.647322       -17.6145
 154   2.0000      -0.643471       -17.5097
 155   2.0000      -0.637332       -17.3427
 156   2.0000      -0.634380       -17.2624
 157   2.0000      -0.633075       -17.2269
 158   2.0000      -0.626815       -17.0565
 159   2.0000      -0.626452       -17.0466
 160   2.0000      -0.623939       -16.9782
 161   2.0000      -0.619562       -16.8591
 162   2.0000      -0.613819       -16.7029
 163   2.0000      -0.609734       -16.5917
 164   2.0000      -0.604985       -16.4625
 165   2.0000      -0.603057       -16.4100
 166   2.0000      -0.596772       -16.2390
 167   2.0000      -0.596707       -16.2372
 168   2.0000      -0.595609       -16.2073
 169   2.0000      -0.592114       -16.1123
 170   2.0000      -0.591627       -16.0990
 171   2.0000      -0.583915       -15.8891
 172   2.0000      -0.578055       -15.7297
 173   2.0000      -0.576119       -15.6770
 174   2.0000      -0.574512       -15.6333
 175   2.0000      -0.571585       -15.5536
 176   2.0000      -0.568794       -15.4777
 177   2.0000      -0.566095       -15.4042
 178   2.0000      -0.564735       -15.3672
 179   2.0000      -0.560080       -15.2406
 180   2.0000      -0.559181       -15.2161
 181   2.0000      -0.558053       -15.1854
 182   2.0000      -0.557437       -15.1686
 183   2.0000      -0.553015       -15.0483
 184   2.0000      -0.550631       -14.9834
 185   2.0000      -0.548316       -14.9204
 186   2.0000      -0.547002       -14.8847
 187   2.0000      -0.545419       -14.8416
 188   2.0000      -0.543532       -14.7903
 189   2.0000      -0.541517       -14.7354
 190   2.0000      -0.540255       -14.7011
 191   2.0000      -0.538181       -14.6447
 192   2.0000      -0.537753       -14.6330
 193   2.0000      -0.536511       -14.5992
 194   2.0000      -0.534559       -14.5461
 195   2.0000      -0.530041       -14.4232
 196   2.0000      -0.527150       -14.3445
 197   2.0000      -0.522567       -14.2198
 198   2.0000      -0.518839       -14.1183
 199   2.0000      -0.516976       -14.0676
 200   2.0000      -0.515268       -14.0211
 201   2.0000      -0.513667       -13.9776
 202   2.0000      -0.511544       -13.9198
 203   2.0000      -0.511009       -13.9053
 204   2.0000      -0.508639       -13.8408
 205   2.0000      -0.505888       -13.7659
 206   2.0000      -0.502995       -13.6872
 207   2.0000      -0.499377       -13.5887
 208   2.0000      -0.498148       -13.5553
 209   2.0000      -0.496853       -13.5201
 210   2.0000      -0.496042       -13.4980
 211   2.0000      -0.492677       -13.4064
 212   2.0000      -0.489045       -13.3076
 213   2.0000      -0.483412       -13.1543
 214   2.0000      -0.481763       -13.1094
 215   2.0000      -0.477612       -12.9965
 216   2.0000      -0.475794       -12.9470
 217   2.0000      -0.475079       -12.9276
 218   2.0000      -0.468494       -12.7484
 219   2.0000      -0.466770       -12.7015
 220   2.0000      -0.463939       -12.6244
 221   2.0000      -0.461307       -12.5528
 222   2.0000      -0.460792       -12.5388
 223   2.0000      -0.459880       -12.5140
 224   2.0000      -0.459500       -12.5036
 225   2.0000      -0.458581       -12.4786
 226   2.0000      -0.454627       -12.3710
 227   2.0000      -0.451514       -12.2863
 228   2.0000      -0.450126       -12.2485
 229   2.0000      -0.447690       -12.1823
 230   2.0000      -0.444960       -12.1080
 231   2.0000      -0.443374       -12.0648
 232   2.0000      -0.441640       -12.0176
 233   2.0000      -0.441014       -12.0006
 234   2.0000      -0.435315       -11.8455
 235   2.0000      -0.433019       -11.7830
 236   2.0000      -0.428422       -11.6580
 237   2.0000      -0.426942       -11.6177
 238   2.0000      -0.425597       -11.5811
 239   2.0000      -0.423345       -11.5198
 240   2.0000      -0.417747       -11.3675
 241   2.0000      -0.415922       -11.3178
 242   2.0000      -0.411066       -11.1857
 243   2.0000      -0.409767       -11.1503
 244   2.0000      -0.399541       -10.8721
 245   2.0000      -0.390474       -10.6253
 246   2.0000      -0.387139       -10.5346
 247   2.0000      -0.385590       -10.4924
 248   2.0000      -0.378185       -10.2909
 249   2.0000      -0.376701       -10.2505
 250   2.0000      -0.374309       -10.1855
 251   2.0000      -0.370689       -10.0870
 252   2.0000      -0.368978       -10.0404
 253   2.0000      -0.367345        -9.9960
 254   2.0000      -0.362373        -9.8607
 255   2.0000      -0.361093        -9.8258
 256   2.0000      -0.355051        -9.6614
 257   2.0000      -0.352105        -9.5813
 258   2.0000      -0.345249        -9.3947
 259   2.0000      -0.333580        -9.0772
 260   2.0000      -0.333516        -9.0754
 261   2.0000      -0.331695        -9.0259
 262   2.0000      -0.320042        -8.7088
 263   2.0000      -0.311059        -8.4643
 264   2.0000      -0.309089        -8.4107
 265   2.0000      -0.295799        -8.0491
 266   2.0000      -0.285975        -7.7818
 267   2.0000      -0.274345        -7.4653
 268   0.0000      -0.153644        -4.1809
 269   0.0000      -0.135715        -3.6930
 270   0.0000      -0.103678        -2.8212
 271   0.0000      -0.100648        -2.7388
 272   0.0000      -0.092964        -2.5297

MULLIKEN ATOMIC CHARGES
-----------------------
   0 C :   -0.105159
   1 C :    0.242304
   2 F :   -0.166332
   3 C :    0.239832
   4 F :   -0.167372
   5 C :   -0.101230
   6 C :    0.114259
   7 C :    0.114040
   8 C :   -0.080010
   9 C :    0.055256
  10 C :   -0.014340
  11 C :   -0.069542
  12 C :    0.152304
  13 O :   -0.133528
  14 C :   -0.055571
  15 C :    0.311242
  16 C :   -0.337325
  17 C :   -0.191441
  18 N :    0.162408
  19 C :   -0.181306
  20 N :    0.160804
  21 C :   -0.027976
  22 C :    0.088407
  23 C :   -0.047787
  24 C :    0.091836
  25 C :   -0.084760
  26 C :    0.008918
  27 C :   -0.148687
  28 N :    0.159299
  29 C :    0.099900
  30 C :   -0.069690
  31 C :    0.110279
  32 C :    0.002259
  33 C :   -0.090538
  34 C :   -0.170896
  35 N :    0.146223
  36 C :    0.007856
  37 C :    0.012284
  38 N :    0.048361
  39 N :    0.223748
  40 C :   -0.036645
  41 C :    0.064256
  42 N :    0.308747
  43 O :   -0.322378
  44 O :   -0.265766
  45 C :    0.002399
  46 C :   -0.026994
  47 C :    0.049326
  48 C :    0.015051
  49 C :    0.018672
  50 C :    0.011671
  51 C :    0.087907
  52 N :    0.273546
  53 O :   -0.250412
  54 O :   -0.251246
  55 C :    0.001952
  56 C :   -0.017660
  57 C :   -0.002846
  58 C :    0.066804
  59 C :   -0.113071
  60 C :    0.133524
  61 O :   -0.181591
  62 C :    0.028422
  63 C :   -0.080212
  64 C :    0.118582
  65 C :    0.125445
  66 C :   -0.117109
  67 C :    0.244135
  68 C :    0.238984
  69 C :   -0.077884
  70 F :   -0.175279
  71 F :   -0.174058
  72 C :   -0.097290
  73 C :    0.025028
  74 C :    0.290468
  75 C :   -0.327162
  76 C :   -0.198322
  77 N :    0.166808
  78 C :   -0.182906
  79 N :    0.155251
  80 H :    0.010549
  81 H :    0.004362
  82 H :   -0.003711
  83 H :   -0.002568
  84 H :    0.017247
  85 H :    0.029386
  86 H :    0.019264
  87 H :    0.026863
  88 H :    0.006790
  89 H :    0.046888
  90 H :    0.061748
  91 H :    0.014390
  92 H :   -0.001488
  93 H :   -0.101182
  94 H :   -0.003632
  95 H :    0.041605
  96 H :    0.011737
  97 H :    0.032806
  98 H :   -0.029971
  99 H :    0.000644
 100 H :   -0.009959
 101 H :   -0.008240
Sum of atomic charges:   -0.0000000

LOEWDIN ATOMIC CHARGES
----------------------
   0 C :   -0.028192
   1 C :    0.069387
   2 F :   -0.044445
   3 C :    0.070272
   4 F :   -0.044994
   5 C :   -0.031225
   6 C :   -0.006943
   7 C :   -0.004392
   8 C :    0.020588
   9 C :   -0.024738
  10 C :   -0.055179
  11 C :    0.037123
  12 C :    0.086240
  13 O :   -0.122767
  14 C :   -0.063695
  15 C :    0.072042
  16 C :   -0.125506
  17 C :   -0.022984
  18 N :   -0.040476
  19 C :   -0.017202
  20 N :   -0.040401
  21 C :    0.062131
  22 C :   -0.033051
  23 C :    0.046060
  24 C :    0.044233
  25 C :   -0.089054
  26 C :    0.077243
  27 C :   -0.002900
  28 N :   -0.045644
  29 C :    0.050724
  30 C :    0.010779
  31 C :   -0.020769
  32 C :    0.056247
  33 C :   -0.072731
  34 C :   -0.033367
  35 N :   -0.044572
  36 C :   -0.014054
  37 C :    0.007362
  38 N :    0.107366
  39 N :    0.222328
  40 C :    0.041713
  41 C :   -0.133029
  42 N :    0.294369
  43 O :   -0.275936
  44 O :   -0.228854
  45 C :    0.070391
  46 C :   -0.071260
  47 C :    0.040221
  48 C :   -0.006752
  49 C :   -0.058615
  50 C :   -0.000176
  51 C :   -0.043408
  52 N :    0.285488
  53 O :   -0.213977
  54 O :   -0.211775
  55 C :   -0.014964
  56 C :    0.027383
  57 C :   -0.027028
  58 C :    0.066210
  59 C :   -0.086686
  60 C :    0.087134
  61 O :   -0.166363
  62 C :   -0.070298
  63 C :    0.041286
  64 C :   -0.002293
  65 C :   -0.004147
  66 C :   -0.036138
  67 C :    0.069318
  68 C :    0.064235
  69 C :   -0.016673
  70 F :   -0.053419
  71 F :   -0.051299
  72 C :    0.009469
  73 C :   -0.026125
  74 C :    0.070009
  75 C :   -0.134788
  76 C :   -0.019578
  77 N :   -0.043823
  78 C :   -0.018649
  79 N :   -0.048048
  80 H :    0.048904
  81 H :    0.046607
  82 H :    0.040809
  83 H :    0.043278
  84 H :    0.047703
  85 H :    0.038778
  86 H :    0.045124
  87 H :    0.040957
  88 H :    0.039767
  89 H :    0.043003
  90 H :    0.037696
  91 H :    0.048170
  92 H :    0.033936
  93 H :    0.008616
  94 H :    0.035874
  95 H :    0.046744
  96 H :    0.039322
  97 H :    0.043045
  98 H :    0.032105
  99 H :    0.044922
 100 H :    0.042538
 101 H :    0.038131

  Mayer bond orders larger than 0.100000
B(  0-C ,  1-C ) :   1.4446 B(  0-C ,  5-C ) :   0.1073 B(  0-C ,  7-C ) :   1.1877
B(  0-C , 80-H ) :   1.0059 B(  1-C ,  2-F ) :   1.1397 B(  1-C ,  3-C ) :   1.1866
B(  3-C ,  4-F ) :   1.1381 B(  3-C ,  5-C ) :   1.4456 B(  5-C ,  6-C ) :   1.1921
B(  5-C , 81-H ) :   1.0066 B(  6-C ,  7-C ) :   1.2485 B(  6-C , 11-C ) :   1.1952
B(  7-C ,  8-C ) :   1.2256 B(  8-C ,  9-C ) :   1.4422 B(  8-C , 82-H ) :   0.9885
B(  9-C , 10-C ) :   1.2157 B(  9-C , 15-C ) :   0.9930 B( 10-C , 11-C ) :   1.4694
B( 10-C , 12-C ) :   0.9436 B( 11-C , 83-H ) :   1.0153 B( 12-C , 13-O ) :   2.2246
B( 12-C , 14-C ) :   0.9213 B( 14-C , 15-C ) :   1.0523 B( 14-C , 21-C ) :   1.6323
B( 15-C , 16-C ) :   1.6455 B( 16-C , 17-C ) :   1.1391 B( 16-C , 19-C ) :   1.1447
B( 17-C , 18-N ) :   2.9707 B( 19-C , 20-N ) :   2.9628 B( 21-C , 22-C ) :   1.1062
B( 21-C , 84-H ) :   0.9372 B( 22-C , 23-C ) :   1.5761 B( 22-C , 26-C ) :   1.0220
B( 23-C , 24-C ) :   1.0829 B( 23-C , 85-H ) :   0.9849 B( 24-C , 25-C ) :   1.0943
B( 24-C , 29-C ) :   1.4803 B( 25-C , 26-C ) :   1.6729 B( 25-C , 27-C ) :   1.0806
B( 26-C , 86-H ) :   1.0233 B( 27-C , 28-N ) :   2.9281 B( 29-C , 30-C ) :   1.0711
B( 29-C , 33-C ) :   1.1001 B( 30-C , 31-C ) :   1.6308 B( 30-C , 87-H ) :   0.9983
B( 31-C , 32-C ) :   1.0607 B( 31-C , 36-C ) :   0.9831 B( 32-C , 33-C ) :   1.6904
B( 32-C , 88-H ) :   1.0135 B( 33-C , 34-C ) :   1.0881 B( 34-C , 35-N ) :   2.9725
B( 36-C , 37-C ) :   1.8846 B( 36-C , 38-N ) :   1.0644 B( 37-C , 89-H ) :   0.9338
B( 37-C , 90-H ) :   0.9323 B( 38-N , 39-N ) :   1.7334 B( 39-N , 40-C ) :   1.4823
B( 40-C , 41-C ) :   1.1949 B( 40-C , 47-C ) :   1.0063 B( 41-C , 42-N ) :   1.0445
B( 41-C , 45-C ) :   1.2453 B( 42-N , 43-O ) :   1.3823 B( 42-N , 44-O ) :   1.4896
B( 43-O , 44-O ) :   0.2067 B( 45-C , 46-C ) :   1.3599 B( 45-C , 91-H ) :   1.0277
B( 46-C , 47-C ) :   1.2927 B( 46-C , 92-H ) :   1.0063 B( 47-C , 48-C ) :   1.3611
B( 48-C , 49-C ) :   1.1654 B( 48-C , 55-C ) :   1.0823 B( 49-C , 50-C ) :   1.5282
B( 49-C , 93-H ) :   0.9976 B( 50-C , 51-C ) :   1.1884 B( 50-C , 94-H ) :   1.0096
B( 51-C , 52-N ) :   0.9433 B( 51-C , 55-C ) :   1.4803 B( 52-N , 53-O ) :   1.5323
B( 52-N , 54-O ) :   1.4951 B( 53-O , 54-O ) :   0.2615 B( 55-C , 56-C ) :   1.1247
B( 56-C , 57-C ) :   1.6740 B( 56-C , 95-H ) :   0.9471 B( 57-C , 58-C ) :   1.1432
B( 57-C , 96-H ) :   0.9588 B( 58-C , 59-C ) :   1.6840 B( 58-C , 97-H ) :   0.8955
B( 59-C , 60-C ) :   0.9637 B( 59-C , 74-C ) :   1.0033 B( 60-C , 61-O ) :   2.1468
B( 60-C , 62-C ) :   0.9439 B( 62-C , 63-C ) :   1.4386 B( 62-C , 73-C ) :   1.2026
B( 63-C , 64-C ) :   1.2004 B( 63-C , 98-H ) :   1.0052 B( 64-C , 65-C ) :   1.2481
B( 64-C , 69-C ) :   1.2126 B( 65-C , 66-C ) :   1.1880 B( 65-C , 72-C ) :   1.2066
B( 66-C , 67-C ) :   1.4391 B( 66-C , 69-C ) :   0.1116 B( 66-C , 99-H ) :   1.0071
B( 67-C , 68-C ) :   1.1888 B( 67-C , 71-F ) :   1.1312 B( 68-C , 69-C ) :   1.4265
B( 68-C , 70-F ) :   1.1354 B( 69-C ,100-H ) :   0.9998 B( 72-C , 73-C ) :   1.4517
B( 72-C ,101-H ) :   0.9945 B( 73-C , 74-C ) :   1.0004 B( 74-C , 75-C ) :   1.6638
B( 75-C , 76-C ) :   1.1721 B( 75-C , 78-C ) :   1.1211 B( 76-C , 77-N ) :   2.9692
B( 78-C , 79-N ) :   2.9848

-----------------------------------------------------------------------------
         ABSORPTION SPECTRUM VIA TRANSITION ELECTRIC DIPOLE MOMENTS
-----------------------------------------------------------------------------
State   Energy  Wavelength   fosc         T2         TX        TY        TZ
        (cm-1)    (nm)                  (au**2)     (au)      (au)      (au)
-----------------------------------------------------------------------------
   0    9465.6   1056.5   0.097735013   3.39921   0.63664  -0.38128  -1.68776
   1   12684.4    788.4   0.001324288   0.03437   0.06391  -0.06306   0.16220
   2   13051.7    766.2   0.040742532   1.02767  -0.46598  -0.89104   0.12880
   3   13190.7    758.1   0.037126044   0.92658   0.57678  -0.43894  -0.63344
   4   16426.6    608.8   0.173368199   3.47453  -0.02940  -0.66969   1.73930
   5   17836.8    560.6   0.000305366   0.00564   0.01972   0.05301  -0.04937
   6   18773.5    532.7   0.006191688   0.10858   0.04655   0.24539  -0.21493
   7   19054.3    524.8   0.004852477   0.08384   0.13651  -0.05301  -0.24979
   8   19253.2    519.4   0.001470523   0.02514   0.08083  -0.02532  -0.13405
   9   20415.5    489.8   0.015427529   0.24878   0.05389  -0.45368   0.20011
  10   20941.7    477.5   0.017356103   0.27284  -0.04731   0.44665  -0.26667
  11   21034.5    475.4   0.010639756   0.16652   0.10661   0.36664  -0.14398
  12   21788.5    459.0   0.018359188   0.27740  -0.02893   0.37699   0.36666
  13   22718.5    440.2   0.001359290   0.01970   0.00616   0.12031   0.07201
  14   22912.6    436.4   0.031892954   0.45824  -0.09280  -0.63278   0.22185
  15   23109.5    432.7   0.005042239   0.07183   0.08092  -0.14251  -0.21206
  16   23732.0    421.4   0.105091566   1.45784  -0.20956  -1.14094  -0.33494
  17   24041.5    415.9   0.211517912   2.89641   0.62457   1.49930  -0.50835
  18   24161.0    413.9   0.148750758   2.02684  -0.10050  -1.26490   0.64558
  19   25112.3    398.2   0.088958710   1.16621  -0.09259  -0.10745  -1.07056
  20   26089.4    383.3   0.918588745  11.59130  -0.03075   0.60292  -3.35065
  21   26168.7    382.1   0.006999993   0.08806  -0.08185   0.09028  -0.27058
  22   26863.2    372.3   0.083655722   1.02521   0.63688   0.15772  -0.77119
  23   26986.2    370.6   0.053713040   0.65526   0.35888   0.52257  -0.50338
  24   27150.3    368.3   0.008377782   0.10159  -0.11663  -0.15902   0.25039
  25   27283.4    366.5   0.024951974   0.30108  -0.30321  -0.36844   0.27093
  26   27784.1    359.9   0.027178284   0.32203   0.37405   0.36800  -0.21609
  27   27938.6    357.9   0.004255069   0.05014  -0.01472   0.22047   0.03626
  28   28203.4    354.6   0.154502927   1.80348   0.13304  -0.37275   1.28329
  29   28246.5    354.0   0.006663431   0.07766  -0.13527   0.10388  -0.22039
  30   28374.9    352.4   0.015183636   0.17616  -0.06172  -0.09343   0.40451
  31   28470.1    351.2   0.043451477   0.50245  -0.50254  -0.22586   0.44597
  32   28692.3    348.5   0.003365632   0.03862  -0.15648  -0.11794  -0.01494
  33   28815.3    347.0   0.166047059   1.89707  -0.85658  -0.80345   0.71958
  34   29301.7    341.3   0.007459970   0.08381   0.23370   0.13774  -0.10113
  35   29557.2    338.3   0.002795337   0.03113  -0.08972   0.11476   0.09957
  36   30123.9    332.0   0.040345285   0.44092   0.29517   0.52488   0.27981
  37   30232.9    330.8   0.009614902   0.10470   0.17055  -0.12434  -0.24526
  38   30260.3    330.5   0.000656799   0.00715   0.04804   0.06816  -0.01386
  39   30378.6    329.2   0.305005474   3.30533  -0.04611   1.09563   1.45010
  40   30577.7    327.0   0.009719262   0.10464  -0.07874   0.06482   0.30699
  41   30880.5    323.8   0.017604105   0.18767  -0.25998  -0.14661   0.31399
  42   30989.6    322.7   0.061202130   0.65017  -0.27854   0.04139   0.75556
  43   31057.2    322.0   0.379743117   4.02534   1.19479   0.67644  -1.46296
  44   31667.7    315.8   0.019826110   0.20611  -0.07020   0.40226   0.19842
  45   31729.9    315.2   0.066063360   0.68544  -0.41329  -0.08308   0.71255
  46   31792.4    314.5   0.061324832   0.63502  -0.05329  -0.79479   0.02222
  47   31999.4    312.5   0.038661581   0.39775  -0.00816  -0.59373  -0.21253
  48   32076.8    311.8   0.056372674   0.57857  -0.14805   0.26574   0.69716
  49   32165.3    310.9   0.000337698   0.00346   0.00198  -0.05044  -0.03013
  50   32224.6    310.3   0.016670356   0.17031   0.17109   0.35892  -0.11052
  51   32621.5    306.5   0.026054699   0.26294  -0.14091  -0.37826  -0.31623
  52   32886.3    304.1   0.243664599   2.43923   0.69912  -0.53293  -1.29091
  53   32946.6    303.5   0.052330999   0.52291  -0.24471  -0.11562   0.67056
  54   33346.0    299.9   0.453194908   4.47421   1.31740   0.53300  -1.56671
  55   33417.4    299.2   0.003395696   0.03345  -0.07431  -0.09628   0.13661
  56   33629.5    297.4   0.053084175   0.51966  -0.49611  -0.05348   0.52026
  57   33914.2    294.9   0.022353988   0.21699   0.19046   0.42414   0.02878
  58   33999.7    294.1   0.062845816   0.60852  -0.35203   0.10859   0.68761
  59   34082.8    293.4   0.029216276   0.28221  -0.00678  -0.36066   0.38998
  60   34496.0    289.9   0.013256728   0.12652  -0.19829  -0.24243   0.16859
  61   34668.6    288.4   0.064367104   0.61123   0.29601  -0.27037  -0.67119
  62   34820.4    287.2   0.465398559   4.40014  -0.10582   1.45877   1.50365
  63   34922.9    286.3   0.204921636   1.93176  -0.36902   1.27542   0.41095
  64   34952.7    286.1   0.329197876   3.10064  -0.54952  -1.63021   0.37563
  65   35218.6    283.9   0.008771725   0.08200   0.14637   0.24092   0.05028
  66   35310.5    283.2   0.008328186   0.07765   0.12438   0.02215  -0.24837
  67   35354.4    282.9   0.031775856   0.29589   0.26957   0.36552  -0.29937
  68   35494.5    281.7   0.087815769   0.81449  -0.69105  -0.35342   0.46047
  69   35618.0    280.8   0.193944997   1.79260   0.48556   0.98819  -0.76178
  70   35648.0    280.5   0.068328252   0.63102  -0.37594   0.58318   0.38677
  71   35748.8    279.7   0.054487054   0.50177   0.18205   0.60041  -0.32884
  72   35938.1    278.3   0.009489631   0.08693   0.08504   0.26050   0.10881
  73   36141.6    276.7   0.006010093   0.05475   0.10216   0.18425  -0.10178
  74   36289.6    275.6   0.004033929   0.03660  -0.07300  -0.14959   0.09428
  75   36339.8    275.2   0.014782732   0.13392  -0.01319  -0.36550  -0.01244
  76   36440.7    274.4   0.019928608   0.18004  -0.15233   0.10635   0.38147
  77   36671.2    272.7   0.000077139   0.00069   0.02572   0.00073  -0.00554
  78   36709.8    272.4   0.053073636   0.47596   0.25032   0.64070   0.05299
  79   36805.6    271.7   0.019322896   0.17284  -0.19859  -0.36231  -0.04612
  80   37070.3    269.8   0.174404771   1.54884   0.89499   0.83148  -0.23765
  81   37230.3    268.6   0.255345764   2.25792  -0.74645  -1.24689  -0.38209
  82   37650.5    265.6   0.004593188   0.04016   0.19362   0.01306   0.05003
  83   37828.7    264.3   0.046223199   0.40227  -0.34591  -0.25316   0.46747
  84   37917.8    263.7   0.033398629   0.28998  -0.27217  -0.13104   0.44579
  85   38165.7    262.0   0.000691357   0.00596  -0.05555  -0.05355   0.00306
  86   38207.6    261.7   0.047042117   0.40533   0.41630   0.34493   0.33623
  87   38289.7    261.2   0.083326159   0.71643   0.01475   0.18488   0.82585
  88   38510.4    259.7   0.049723039   0.42506  -0.47259  -0.11357  -0.43454
  89   38537.5    259.5   0.106297268   0.90806   0.79007   0.37597  -0.37749
  90   38751.6    258.1   0.001129677   0.00960  -0.02362   0.08213  -0.04790
  91   38756.7    258.0   0.000039362   0.00033  -0.00962   0.00010  -0.01555
  92   39088.6    255.8   0.134306587   1.13116   0.77509   0.69727   0.21025
  93   39257.7    254.7   0.040922856   0.34318   0.15050  -0.45639  -0.33501
  94   39526.7    253.0   0.154644258   1.28801   0.38827   0.82086  -0.68076
  95   39527.4    253.0   0.043037151   0.35844  -0.21081  -0.41909   0.37198
  96   39672.4    252.1   0.010154692   0.08427  -0.03744  -0.24782  -0.14646
  97   39730.2    251.7   0.025733832   0.21324  -0.18369  -0.38594  -0.17477
  98   40057.4    249.6   0.208096158   1.71024  -0.42214  -0.29754  -1.20146
  99   40085.0    249.5   0.011044311   0.09071  -0.11148   0.00579   0.27972
 100   40140.1    249.1   0.004903516   0.04022  -0.02752  -0.05063  -0.19208

FINAL SINGLE POINT ENERGY     -3692.750514163665

DIPOLE MOMENT
-------------
                                X             Y             Z
Electronic contribution:     -8.42082      -6.77330      40.99589
Nuclear contribution   :      7.27161      11.12656     -38.33141
                        -----------------------------------------
Total Dipole Moment    :     -1.14921       4.35326       2.66448
                        -----------------------------------------
Magnitude (a.u.)       :      5.23173
Magnitude (Debye)      :     13.29800

Rotational constants in cm-1:     0.001365     0.000310     0.000267
Rotational constants in MHz :    40.925104     9.281591     8.013015

                             ****ORCA TERMINATED NORMALLY****
TOTAL RUN TIME: 0 days 0 hours 13 minutes 21 seconds 732 msec
