                         Program Version 4.2.0 -  RELEASE  -
|  1> # ORCA input file
|  2> # SCF done       -205.665321579731          0.000736347999
|  3> ! CAM-B3LYP def2-SVP def2/J RIJCOSX Grid4 TightSCF
|  4> %maxcore 5000
|  5> %tddft
|  6>     Mode sTDDFT
|  7>     Ethresh 5.0
|  8>     maxcore 5000
|  9> end
| 10>
| 11> %pal
| 12>   nprocs 6
| 13>   end
| 14> * xyz 0 1
| 15>    C      -12.55027         2.83760        -5.39245
| 16>    C      -12.38348         4.03771        -4.76023
| 17>    F      -13.15129         5.08492        -5.08944
| 18>    C      -11.40594         4.19004        -3.75665
| 19>    F      -11.26635         5.37777        -3.15168
| 20>    C      -10.60764         3.13971        -3.39961
| 21>    C      -10.75461         1.89039        -4.03293
| 22>    C      -11.74251         1.73518        -5.04837
| 23>    C      -11.90433         0.49215        -5.70242
| 24>    C      -11.09876        -0.55988        -5.35512
| 25>    C      -10.11726        -0.39629        -4.33871
| 26>    C       -9.94217         0.78850        -3.68418
| 27>    C       -9.36946        -1.65573        -4.16416
| 28>    O       -8.51629        -1.87514        -3.33355
| 29>    C       -9.97321        -2.61120        -5.13012
| 30>    C      -11.02128        -1.92839        -5.85552
| 31>    C      -11.75405        -2.44233        -6.89648
| 32>    C      -12.73917        -1.71990        -7.60099
| 33>    N      -13.55950        -1.18824        -8.20258
| 34>    C      -11.61925        -3.74917        -7.40762
| 35>    N      -11.56114        -4.79829        -7.87240
| 36>    C       -9.72607        -3.95697        -5.17570
| 37>    C       -8.60641        -4.64461        -4.66213
| 38>    C       -7.33142        -4.17141        -4.35728
| 39>    N       -6.71341        -2.96497        -4.77013
| 40>    O       -5.69946        -2.63742        -4.18989
| 41>    O       -7.18603        -2.37020        -5.72092
| 42>    C       -6.59311        -5.18986        -3.68345
| 43>    C       -7.39782        -6.27618        -3.52001
| 44>    C       -8.65428        -6.02721        -4.17229
| 45>    C       -9.64921        -6.97256        -4.36345
| 46>    C      -10.51623        -7.12807        -5.48251
| 47>    C      -11.13378        -8.34158        -5.38632
| 48>    C      -10.74290        -8.98848        -4.17046
| 49>    N      -11.29542       -10.22946        -3.81618
| 50>    O      -10.81538       -10.85624        -2.88108
| 51>    O      -12.23349       -10.63194        -4.48124
| 52>    C       -9.84869        -8.15596        -3.48541
| 53>    C       -9.35776        -8.11574        -2.17181
| 54>    C       -9.30613        -9.10533        -1.22047
| 55>    C       -8.72115        -8.85071         0.03109
| 56>    N       -8.57163        -9.78765         1.02211
| 57>    C       -9.08437       -11.13866         1.00118
| 58>    C      -10.59000       -11.17822         1.24390
| 59>    C       -7.87418        -9.28299         2.13632
| 60>    O       -7.61684        -9.92742         3.12747
| 61>    C       -7.58254        -7.90820         1.77102
| 62>    C       -8.11814        -7.66385         0.49590
| 63>    C       -7.82222        -6.28602         0.15954
| 64>    O       -8.12313        -5.59778        -0.79434
| 65>    N       -7.06775        -5.80495         1.25111
| 66>    C       -6.65786        -4.41998         1.27910
| 67>    C       -5.36076        -4.20215         0.50367
| 68>    C       -6.91669        -6.75890         2.21712
| 69>    C       -6.23926        -6.66388         3.46359
| 70>    C       -5.23682        -5.82809         3.80252
| 71>    C       -4.62641        -5.82001         5.11090
| 72>    C       -3.28004        -5.65926         5.30363
| 73>    S       -2.81961        -5.78415         6.94755
| 74>    C       -4.44468        -6.01638         7.42142
| 75>    C       -5.30773        -6.01398         6.36108
| 76>    C       -6.76932        -6.01292         6.52527
| 77>    O       -7.56534        -5.59311         5.72425
| 78>    O       -7.11707        -6.50297         7.74039
| 79>    C       -8.43994        -6.51316         8.07168
| 80>    C       -8.84492        -6.96821         9.25995
| 81>    C      -10.22259        -6.98783         9.65955
| 82>    O      -11.20565        -6.55196         8.84013
| 83>    C      -12.38105        -6.67925         9.47506
| 84>    C      -12.18391        -7.20029        10.72135
| 85>    C      -10.78885        -7.40254        10.84653
| 86>    F      -10.13649        -7.89330        11.89910
| 87>    F      -13.11713        -7.46180        11.63176
| 88>    H      -13.30201         2.73868        -6.15990
| 89>    H       -9.86311         3.27269        -2.63045
| 90>    H      -12.66365         0.40521        -6.46270
| 91>    H       -9.18750         0.88566        -2.91871
| 92>    H      -10.49114        -4.58072        -5.61324
| 93>    H       -5.56688        -5.08183        -3.38722
| 94>    H       -7.10259        -7.22142        -3.10744
| 95>    H      -10.57953        -6.47903        -6.33488
| 96>    H      -11.80856        -8.78094        -6.09709
| 97>    H       -8.96661        -7.14900        -1.88596
| 98>    H       -9.67456       -10.09588        -1.43602
| 99>    H       -8.56430       -11.66979         1.80296
|100>    H       -8.83929       -11.60729         0.04474
|101>    H      -10.83032       -10.70476         2.19298
|102>    H      -10.92511       -12.21067         1.27505
|103>    H      -11.12570       -10.66583         0.44888
|104>    H       -6.57125        -4.10186         2.31970
|105>    H       -7.45280        -3.84549         0.79393
|106>    H       -4.56451        -4.84758         0.86980
|107>    H       -5.04753        -3.16625         0.59498
|108>    H       -5.52524        -4.41791        -0.54877
|109>    H       -6.56044        -7.41537         4.17271
|110>    H       -4.77838        -5.17658         3.07337
|111>    H       -2.53064        -5.51386         4.55060
|112>    H       -4.69439        -6.11589         8.45895
|113>    H       -9.11792        -6.13004         7.31969
|114>    H       -8.13692        -7.34373         9.98250
|115>    H      -13.27100        -6.37661         8.96217
|116> *
|117>
|118>                          ****END OF INPUT****

CARTESIAN COORDINATES (ANGSTROEM)
---------------------------------
  C    -12.550270    2.837600   -5.392450
  C    -12.383480    4.037710   -4.760230
  F    -13.151290    5.084920   -5.089440
  C    -11.405940    4.190040   -3.756650
  F    -11.266350    5.377770   -3.151680
  C    -10.607640    3.139710   -3.399610
  C    -10.754610    1.890390   -4.032930
  C    -11.742510    1.735180   -5.048370
  C    -11.904330    0.492150   -5.702420
  C    -11.098760   -0.559880   -5.355120
  C    -10.117260   -0.396290   -4.338710
  C     -9.942170    0.788500   -3.684180
  C     -9.369460   -1.655730   -4.164160
  O     -8.516290   -1.875140   -3.333550
  C     -9.973210   -2.611200   -5.130120
  C    -11.021280   -1.928390   -5.855520
  C    -11.754050   -2.442330   -6.896480
  C    -12.739170   -1.719900   -7.600990
  N    -13.559500   -1.188240   -8.202580
  C    -11.619250   -3.749170   -7.407620
  N    -11.561140   -4.798290   -7.872400
  C     -9.726070   -3.956970   -5.175700
  C     -8.606410   -4.644610   -4.662130
  C     -7.331420   -4.171410   -4.357280
  N     -6.713410   -2.964970   -4.770130
  O     -5.699460   -2.637420   -4.189890
  O     -7.186030   -2.370200   -5.720920
  C     -6.593110   -5.189860   -3.683450
  C     -7.397820   -6.276180   -3.520010
  C     -8.654280   -6.027210   -4.172290
  C     -9.649210   -6.972560   -4.363450
  C    -10.516230   -7.128070   -5.482510
  C    -11.133780   -8.341580   -5.386320
  C    -10.742900   -8.988480   -4.170460
  N    -11.295420  -10.229460   -3.816180
  O    -10.815380  -10.856240   -2.881080
  O    -12.233490  -10.631940   -4.481240
  C     -9.848690   -8.155960   -3.485410
  C     -9.357760   -8.115740   -2.171810
  C     -9.306130   -9.105330   -1.220470
  C     -8.721150   -8.850710    0.031090
  N     -8.571630   -9.787650    1.022110
  C     -9.084370  -11.138660    1.001180
  C    -10.590000  -11.178220    1.243900
  C     -7.874180   -9.282990    2.136320
  O     -7.616840   -9.927420    3.127470
  C     -7.582540   -7.908200    1.771020
  C     -8.118140   -7.663850    0.495900
  C     -7.822220   -6.286020    0.159540
  O     -8.123130   -5.597780   -0.794340
  N     -7.067750   -5.804950    1.251110
  C     -6.657860   -4.419980    1.279100
  C     -5.360760   -4.202150    0.503670
  C     -6.916690   -6.758900    2.217120
  C     -6.239260   -6.663880    3.463590
  C     -5.236820   -5.828090    3.802520
  C     -4.626410   -5.820010    5.110900
  C     -3.280040   -5.659260    5.303630
  S     -2.819610   -5.784150    6.947550
  C     -4.444680   -6.016380    7.421420
  C     -5.307730   -6.013980    6.361080
  C     -6.769320   -6.012920    6.525270
  O     -7.565340   -5.593110    5.724250
  O     -7.117070   -6.502970    7.740390
  C     -8.439940   -6.513160    8.071680
  C     -8.844920   -6.968210    9.259950
  C    -10.222590   -6.987830    9.659550
  O    -11.205650   -6.551960    8.840130
  C    -12.381050   -6.679250    9.475060
  C    -12.183910   -7.200290   10.721350
  C    -10.788850   -7.402540   10.846530
  F    -10.136490   -7.893300   11.899100
  F    -13.117130   -7.461800   11.631760
  H    -13.302010    2.738680   -6.159900
  H     -9.863110    3.272690   -2.630450
  H    -12.663650    0.405210   -6.462700
  H     -9.187500    0.885660   -2.918710
  H    -10.491140   -4.580720   -5.613240
  H     -5.566880   -5.081830   -3.387220
  H     -7.102590   -7.221420   -3.107440
  H    -10.579530   -6.479030   -6.334880
  H    -11.808560   -8.780940   -6.097090
  H     -8.966610   -7.149000   -1.885960
  H     -9.674560  -10.095880   -1.436020
  H     -8.564300  -11.669790    1.802960
  H     -8.839290  -11.607290    0.044740
  H    -10.830320  -10.704760    2.192980
  H    -10.925110  -12.210670    1.275050
  H    -11.125700  -10.665830    0.448880
  H     -6.571250   -4.101860    2.319700
  H     -7.452800   -3.845490    0.793930
  H     -4.564510   -4.847580    0.869800
  H     -5.047530   -3.166250    0.594980
  H     -5.525240   -4.417910   -0.548770
  H     -6.560440   -7.415370    4.172710
  H     -4.778380   -5.176580    3.073370
  H     -2.530640   -5.513860    4.550600
  H     -4.694390   -6.115890    8.458950
  H     -9.117920   -6.130040    7.319690
  H     -8.136920   -7.343730    9.982500
  H    -13.271000   -6.376610    8.962170

 Total Charge           Charge          ....    0
 Multiplicity           Mult            ....    1
 Number of Electrons    NEL             ....  514
 Basis Dimension        Dim             .... 1166

ORBITAL ENERGIES
----------------

  NO   OCC          E(Eh)            E(eV)
   0   2.0000     -88.987725     -2421.4791
   1   2.0000     -24.800099      -674.8450
   2   2.0000     -24.797036      -674.7617
   3   2.0000     -24.796871      -674.7572
   4   2.0000     -24.795967      -674.7326
   5   2.0000     -19.306406      -525.3540
   6   2.0000     -19.294613      -525.0331
   7   2.0000     -19.243308      -523.6370
   8   2.0000     -19.237989      -523.4923
   9   2.0000     -19.237494      -523.4788
  10   2.0000     -19.235503      -523.4247
  11   2.0000     -19.227604      -523.2097
  12   2.0000     -19.219904      -523.0002
  13   2.0000     -19.217248      -522.9279
  14   2.0000     -19.197688      -522.3956
  15   2.0000     -14.647590      -398.5812
  16   2.0000     -14.646186      -398.5430
  17   2.0000     -14.475206      -393.8904
  18   2.0000     -14.463022      -393.5588
  19   2.0000     -14.419672      -392.3792
  20   2.0000     -14.414572      -392.2404
  21   2.0000     -10.428095      -283.7629
  22   2.0000     -10.396700      -282.9086
  23   2.0000     -10.384015      -282.5634
  24   2.0000     -10.379984      -282.4537
  25   2.0000     -10.379193      -282.4322
  26   2.0000     -10.367986      -282.1272
  27   2.0000     -10.364927      -282.0440
  28   2.0000     -10.363845      -282.0146
  29   2.0000     -10.359433      -281.8945
  30   2.0000     -10.352518      -281.7063
  31   2.0000     -10.344586      -281.4905
  32   2.0000     -10.343810      -281.4694
  33   2.0000     -10.341976      -281.4195
  34   2.0000     -10.340505      -281.3794
  35   2.0000     -10.339931      -281.3638
  36   2.0000     -10.335755      -281.2502
  37   2.0000     -10.330560      -281.1088
  38   2.0000     -10.328182      -281.0441
  39   2.0000     -10.327855      -281.0352
  40   2.0000     -10.325044      -280.9587
  41   2.0000     -10.324791      -280.9518
  42   2.0000     -10.323615      -280.9198
  43   2.0000     -10.321262      -280.8558
  44   2.0000     -10.320598      -280.8378
  45   2.0000     -10.318816      -280.7893
  46   2.0000     -10.317598      -280.7561
  47   2.0000     -10.313529      -280.6454
  48   2.0000     -10.312015      -280.6042
  49   2.0000     -10.311793      -280.5981
  50   2.0000     -10.309952      -280.5480
  51   2.0000     -10.308854      -280.5182
  52   2.0000     -10.308588      -280.5110
  53   2.0000     -10.308188      -280.5000
  54   2.0000     -10.306222      -280.4466
  55   2.0000     -10.305440      -280.4253
  56   2.0000     -10.303988      -280.3858
  57   2.0000     -10.303658      -280.3768
  58   2.0000     -10.301744      -280.3247
  59   2.0000     -10.300720      -280.2968
  60   2.0000     -10.300428      -280.2889
  61   2.0000     -10.299660      -280.2680
  62   2.0000     -10.299255      -280.2570
  63   2.0000     -10.298842      -280.2457
  64   2.0000     -10.295691      -280.1600
  65   2.0000     -10.293384      -280.0972
  66   2.0000     -10.292845      -280.0826
  67   2.0000     -10.291285      -280.0401
  68   2.0000     -10.286428      -279.9079
  69   2.0000     -10.282600      -279.8038
  70   2.0000     -10.277814      -279.6735
  71   2.0000     -10.273810      -279.5646
  72   2.0000     -10.264450      -279.3099
  73   2.0000      -8.084110      -219.9798
  74   2.0000      -6.053213      -164.7163
  75   2.0000      -6.048721      -164.5941
  76   2.0000      -6.046797      -164.5417
  77   2.0000      -1.320493       -35.9324
  78   2.0000      -1.319321       -35.9006
  79   2.0000      -1.317385       -35.8479
  80   2.0000      -1.315671       -35.8012
  81   2.0000      -1.308386       -35.6030
  82   2.0000      -1.304459       -35.4961
  83   2.0000      -1.226503       -33.3748
  84   2.0000      -1.223869       -33.3032
  85   2.0000      -1.156629       -31.4735
  86   2.0000      -1.139550       -31.0087
  87   2.0000      -1.138659       -30.9845
  88   2.0000      -1.132019       -30.8038
  89   2.0000      -1.131953       -30.8020
  90   2.0000      -1.127736       -30.6873
  91   2.0000      -1.083246       -29.4766
  92   2.0000      -1.069061       -29.0906
  93   2.0000      -1.020745       -27.7759
  94   2.0000      -1.016807       -27.6687
  95   2.0000      -1.014362       -27.6022
  96   2.0000      -1.004094       -27.3228
  97   2.0000      -0.997122       -27.1331
  98   2.0000      -0.995446       -27.0875
  99   2.0000      -0.979851       -26.6631
 100   2.0000      -0.943397       -25.6711
 101   2.0000      -0.931218       -25.3397
 102   2.0000      -0.926519       -25.2119
 103   2.0000      -0.920483       -25.0476
 104   2.0000      -0.918493       -24.9935
 105   2.0000      -0.910634       -24.7796
 106   2.0000      -0.908507       -24.7217
 107   2.0000      -0.904238       -24.6056
 108   2.0000      -0.891503       -24.2590
 109   2.0000      -0.885145       -24.0860
 110   2.0000      -0.882367       -24.0104
 111   2.0000      -0.878460       -23.9041
 112   2.0000      -0.877919       -23.8894
 113   2.0000      -0.861059       -23.4306
 114   2.0000      -0.849866       -23.1260
 115   2.0000      -0.839160       -22.8347
 116   2.0000      -0.832779       -22.6611
 117   2.0000      -0.832135       -22.6436
 118   2.0000      -0.830974       -22.6119
 119   2.0000      -0.808996       -22.0139
 120   2.0000      -0.796078       -21.6624
 121   2.0000      -0.775451       -21.1011
 122   2.0000      -0.770107       -20.9557
 123   2.0000      -0.766547       -20.8588
 124   2.0000      -0.765546       -20.8316
 125   2.0000      -0.763142       -20.7662
 126   2.0000      -0.735340       -20.0096
 127   2.0000      -0.731227       -19.8977
 128   2.0000      -0.723784       -19.6952
 129   2.0000      -0.719416       -19.5763
 130   2.0000      -0.717567       -19.5260
 131   2.0000      -0.715471       -19.4690
 132   2.0000      -0.712949       -19.4003
 133   2.0000      -0.703650       -19.1473
 134   2.0000      -0.700391       -19.0586
 135   2.0000      -0.689669       -18.7669
 136   2.0000      -0.688035       -18.7224
 137   2.0000      -0.683715       -18.6048
 138   2.0000      -0.674349       -18.3500
 139   2.0000      -0.671761       -18.2795
 140   2.0000      -0.664991       -18.0953
 141   2.0000      -0.662386       -18.0244
 142   2.0000      -0.661610       -18.0033
 143   2.0000      -0.653625       -17.7860
 144   2.0000      -0.649724       -17.6799
 145   2.0000      -0.644267       -17.5314
 146   2.0000      -0.641777       -17.4636
 147   2.0000      -0.640495       -17.4287
 148   2.0000      -0.631288       -17.1782
 149   2.0000      -0.629348       -17.1254
 150   2.0000      -0.626573       -17.0499
 151   2.0000      -0.622116       -16.9286
 152   2.0000      -0.619514       -16.8578
 153   2.0000      -0.613660       -16.6985
 154   2.0000      -0.609206       -16.5773
 155   2.0000      -0.606347       -16.4995
 156   2.0000      -0.604347       -16.4451
 157   2.0000      -0.596938       -16.2435
 158   2.0000      -0.595491       -16.2041
 159   2.0000      -0.594967       -16.1899
 160   2.0000      -0.588968       -16.0266
 161   2.0000      -0.585922       -15.9437
 162   2.0000      -0.584798       -15.9132
 163   2.0000      -0.583954       -15.8902
 164   2.0000      -0.583159       -15.8685
 165   2.0000      -0.579343       -15.7647
 166   2.0000      -0.578187       -15.7333
 167   2.0000      -0.574437       -15.6312
 168   2.0000      -0.571316       -15.5463
 169   2.0000      -0.569458       -15.4957
 170   2.0000      -0.559865       -15.2347
 171   2.0000      -0.556898       -15.1540
 172   2.0000      -0.552916       -15.0456
 173   2.0000      -0.550913       -14.9911
 174   2.0000      -0.548063       -14.9136
 175   2.0000      -0.545687       -14.8489
 176   2.0000      -0.545546       -14.8451
 177   2.0000      -0.543118       -14.7790
 178   2.0000      -0.539883       -14.6910
 179   2.0000      -0.538892       -14.6640
 180   2.0000      -0.537689       -14.6313
 181   2.0000      -0.536299       -14.5934
 182   2.0000      -0.535717       -14.5776
 183   2.0000      -0.531518       -14.4633
 184   2.0000      -0.530357       -14.4317
 185   2.0000      -0.526843       -14.3361
 186   2.0000      -0.521305       -14.1854
 187   2.0000      -0.519844       -14.1457
 188   2.0000      -0.518471       -14.1083
 189   2.0000      -0.517243       -14.0749
 190   2.0000      -0.516688       -14.0598
 191   2.0000      -0.513565       -13.9748
 192   2.0000      -0.512742       -13.9524
 193   2.0000      -0.510644       -13.8953
 194   2.0000      -0.509981       -13.8773
 195   2.0000      -0.505520       -13.7559
 196   2.0000      -0.503146       -13.6913
 197   2.0000      -0.501114       -13.6360
 198   2.0000      -0.499483       -13.5916
 199   2.0000      -0.497301       -13.5323
 200   2.0000      -0.493038       -13.4162
 201   2.0000      -0.490048       -13.3349
 202   2.0000      -0.486650       -13.2424
 203   2.0000      -0.483213       -13.1489
 204   2.0000      -0.482065       -13.1177
 205   2.0000      -0.478252       -13.0139
 206   2.0000      -0.476603       -12.9690
 207   2.0000      -0.472477       -12.8568
 208   2.0000      -0.470507       -12.8031
 209   2.0000      -0.468718       -12.7545
 210   2.0000      -0.467764       -12.7285
 211   2.0000      -0.461827       -12.5669
 212   2.0000      -0.461630       -12.5616
 213   2.0000      -0.457483       -12.4487
 214   2.0000      -0.455206       -12.3868
 215   2.0000      -0.453529       -12.3411
 216   2.0000      -0.452303       -12.3078
 217   2.0000      -0.450254       -12.2520
 218   2.0000      -0.447348       -12.1730
 219   2.0000      -0.446386       -12.1468
 220   2.0000      -0.443891       -12.0789
 221   2.0000      -0.443436       -12.0665
 222   2.0000      -0.441159       -12.0045
 223   2.0000      -0.434344       -11.8191
 224   2.0000      -0.433326       -11.7914
 225   2.0000      -0.431151       -11.7322
 226   2.0000      -0.428814       -11.6686
 227   2.0000      -0.427909       -11.6440
 228   2.0000      -0.424263       -11.5448
 229   2.0000      -0.411017       -11.1843
 230   2.0000      -0.401204       -10.9173
 231   2.0000      -0.396588       -10.7917
 232   2.0000      -0.387621       -10.5477
 233   2.0000      -0.386291       -10.5115
 234   2.0000      -0.384005       -10.4493
 235   2.0000      -0.381777       -10.3887
 236   2.0000      -0.380585       -10.3562
 237   2.0000      -0.376772       -10.2525
 238   2.0000      -0.374377       -10.1873
 239   2.0000      -0.371704       -10.1146
 240   2.0000      -0.368624       -10.0308
 241   2.0000      -0.368082       -10.0160
 242   2.0000      -0.361279        -9.8309
 243   2.0000      -0.351932        -9.5766
 244   2.0000      -0.348023        -9.4702
 245   2.0000      -0.345506        -9.4017
 246   2.0000      -0.344592        -9.3768
 247   2.0000      -0.343798        -9.3552
 248   2.0000      -0.332546        -9.0490
 249   2.0000      -0.331819        -9.0293
 250   2.0000      -0.322955        -8.7880
 251   2.0000      -0.316340        -8.6081
 252   2.0000      -0.303186        -8.2501
 253   2.0000      -0.301356        -8.2003
 254   2.0000      -0.282869        -7.6972
 255   2.0000      -0.277656        -7.5554
 256   2.0000      -0.245558        -6.6820
 257   0.0000      -0.147793        -4.0216
 258   0.0000      -0.100209        -2.7268
 259   0.0000      -0.077357        -2.1050
 260   0.0000      -0.059933        -1.6308
 261   0.0000      -0.040485        -1.1017

MULLIKEN ATOMIC CHARGES
-----------------------
   0 C :   -0.115338
   1 C :    0.245317
   2 F :   -0.171316
   3 C :    0.240822
   4 F :   -0.172299
   5 C :   -0.111044
   6 C :    0.121111
   7 C :    0.120714
   8 C :   -0.092237
   9 C :    0.059508
  10 C :   -0.010926
  11 C :   -0.082240
  12 C :    0.155380
  13 O :   -0.151825
  14 C :   -0.059850
  15 C :    0.301326
  16 C :   -0.340995
  17 C :   -0.183883
  18 N :    0.147607
  19 C :   -0.176701
  20 N :    0.145659
  21 C :   -0.028688
  22 C :    0.063743
  23 C :    0.090959
  24 N :    0.267884
  25 O :   -0.229045
  26 O :   -0.238815
  27 C :    0.020471
  28 C :    0.031270
  29 C :    0.033598
  30 C :    0.014743
  31 C :    0.003857
  32 C :    0.029734
  33 C :    0.062544
  34 N :    0.280354
  35 O :   -0.268152
  36 O :   -0.247521
  37 C :    0.097498
  38 C :   -0.104043
  39 C :    0.002273
  40 C :    0.135504
  41 N :   -0.260007
  42 C :    0.097829
  43 C :    0.005118
  44 C :    0.146129
  45 O :   -0.185288
  46 C :   -0.040362
  47 C :   -0.048784
  48 C :    0.166304
  49 O :   -0.187434
  50 N :   -0.248999
  51 C :    0.105680
  52 C :   -0.002471
  53 C :    0.090400
  54 C :    0.022452
  55 C :   -0.003221
  56 C :    0.095702
  57 C :   -0.122338
  58 S :    0.158315
  59 C :   -0.089094
  60 C :   -0.000767
  61 C :    0.201702
  62 O :   -0.188499
  63 O :   -0.244203
  64 C :    0.159500
  65 C :   -0.003784
  66 C :    0.066637
  67 O :   -0.195020
  68 C :    0.056766
  69 C :    0.210793
  70 C :    0.139814
  71 F :   -0.169040
  72 F :   -0.168384
  73 H :    0.007981
  74 H :   -0.000427
  75 H :   -0.005670
  76 H :   -0.009462
  77 H :   -0.001140
  78 H :   -0.001909
  79 H :    0.003082
  80 H :    0.004982
  81 H :    0.014573
  82 H :    0.036867
  83 H :    0.006166
  84 H :    0.043884
  85 H :    0.034519
  86 H :    0.023909
  87 H :    0.028810
  88 H :    0.022635
  89 H :    0.037858
  90 H :    0.045139
  91 H :    0.014853
  92 H :    0.031147
  93 H :    0.035817
  94 H :    0.022497
  95 H :   -0.001350
  96 H :    0.031174
  97 H :    0.045026
  98 H :    0.041058
  99 H :    0.013894
 100 H :    0.021683
Sum of atomic charges:   -0.0000000

LOEWDIN ATOMIC CHARGES
----------------------
   0 C :   -0.029263
   1 C :    0.066348
   2 F :   -0.049416
   3 C :    0.067395
   4 F :   -0.050218
   5 C :   -0.033355
   6 C :   -0.008011
   7 C :   -0.006051
   8 C :    0.017591
   9 C :   -0.021070
  10 C :   -0.047258
  11 C :    0.031453
  12 C :    0.083024
  13 O :   -0.143060
  14 C :   -0.079028
  15 C :    0.078651
  16 C :   -0.140563
  17 C :   -0.017882
  18 N :   -0.053676
  19 C :   -0.010991
  20 N :   -0.058677
  21 C :    0.069693
  22 C :   -0.038513
  23 C :    0.014988
  24 N :    0.289536
  25 O :   -0.188215
  26 O :   -0.201683
  27 C :   -0.005639
  28 C :    0.001165
  29 C :    0.038758
  30 C :    0.055269
  31 C :   -0.050670
  32 C :    0.042326
  33 C :   -0.060902
  34 N :    0.287549
  35 O :   -0.228414
  36 O :   -0.211696
  37 C :    0.010256
  38 C :    0.005712
  39 C :    0.001776
  40 C :    0.066141
  41 N :    0.000451
  42 C :    0.038438
  43 C :   -0.058527
  44 C :    0.077158
  45 O :   -0.190846
  46 C :   -0.114770
  47 C :   -0.097586
  48 C :    0.084633
  49 O :   -0.165728
  50 N :    0.011161
  51 C :    0.039279
  52 C :   -0.061383
  53 C :    0.091251
  54 C :   -0.015278
  55 C :    0.013852
  56 C :   -0.049615
  57 C :   -0.173146
  58 S :    0.483860
  59 C :   -0.144651
  60 C :   -0.105304
  61 C :    0.102728
  62 O :   -0.156373
  63 O :   -0.042554
  64 C :    0.068150
  65 C :   -0.066025
  66 C :   -0.005125
  67 O :    0.022868
  68 C :    0.006336
  69 C :    0.009864
  70 C :    0.010518
  71 F :   -0.046899
  72 F :   -0.045276
  73 H :    0.047725
  74 H :    0.044652
  75 H :    0.039935
  76 H :    0.040510
  77 H :    0.042348
  78 H :    0.034664
  79 H :    0.031460
  80 H :    0.031884
  81 H :    0.042883
  82 H :    0.039453
  83 H :    0.031535
  84 H :    0.037784
  85 H :    0.028136
  86 H :    0.029946
  87 H :    0.034006
  88 H :    0.025026
  89 H :    0.030100
  90 H :    0.039605
  91 H :    0.018300
  92 H :    0.034733
  93 H :    0.034293
  94 H :    0.047250
  95 H :    0.034123
  96 H :    0.028169
  97 H :    0.033134
  98 H :    0.028203
  99 H :    0.045410
 100 H :    0.029888

  Mayer bond orders larger than 0.100000
B(  0-C ,  1-C ) :   1.4397 B(  0-C ,  5-C ) :   0.1092 B(  0-C ,  7-C ) :   1.1863
B(  0-C , 73-H ) :   1.0085 B(  1-C ,  2-F ) :   1.1347 B(  1-C ,  3-C ) :   1.1910
B(  3-C ,  4-F ) :   1.1331 B(  3-C ,  5-C ) :   1.4424 B(  5-C ,  6-C ) :   1.1909
B(  5-C , 74-H ) :   1.0083 B(  6-C ,  7-C ) :   1.2564 B(  6-C , 11-C ) :   1.1852
B(  7-C ,  8-C ) :   1.2140 B(  8-C ,  9-C ) :   1.4472 B(  8-C , 75-H ) :   0.9913
B(  9-C , 10-C ) :   1.2201 B(  9-C , 15-C ) :   0.9824 B( 10-C , 11-C ) :   1.4738
B( 10-C , 12-C ) :   0.9435 B( 11-C , 76-H ) :   1.0175 B( 12-C , 13-O ) :   2.2127
B( 12-C , 14-C ) :   0.9413 B( 14-C , 15-C ) :   1.0994 B( 14-C , 21-C ) :   1.5674
B( 15-C , 16-C ) :   1.6252 B( 16-C , 17-C ) :   1.1444 B( 16-C , 19-C ) :   1.1503
B( 17-C , 18-N ) :   2.9625 B( 19-C , 20-N ) :   2.9495 B( 21-C , 22-C ) :   1.2070
B( 21-C , 77-H ) :   0.9230 B( 22-C , 23-C ) :   1.4360 B( 22-C , 29-C ) :   1.0666
B( 23-C , 24-N ) :   0.9027 B( 23-C , 27-C ) :   1.2108 B( 24-N , 25-O ) :   1.5473
B( 24-N , 26-O ) :   1.5325 B( 25-O , 26-O ) :   0.2717 B( 27-C , 28-C ) :   1.5192
B( 27-C , 78-H ) :   1.0035 B( 28-C , 29-C ) :   1.1388 B( 28-C , 79-H ) :   1.0005
B( 29-C , 30-C ) :   1.4488 B( 30-C , 31-C ) :   1.1619 B( 30-C , 37-C ) :   1.0044
B( 31-C , 32-C ) :   1.5300 B( 31-C , 80-H ) :   0.9833 B( 32-C , 33-C ) :   1.1583
B( 32-C , 81-H ) :   1.0070 B( 33-C , 34-N ) :   0.9713 B( 33-C , 37-C ) :   1.4099
B( 34-N , 35-O ) :   1.4554 B( 34-N , 36-O ) :   1.5380 B( 35-O , 36-O ) :   0.2461
B( 37-C , 38-C ) :   1.2173 B( 38-C , 39-C ) :   1.4846 B( 38-C , 82-H ) :   0.9379
B( 39-C , 40-C ) :   1.1900 B( 39-C , 83-H ) :   0.9555 B( 40-C , 41-N ) :   1.1684
B( 40-C , 47-C ) :   1.2634 B( 41-N , 42-C ) :   0.9345 B( 41-N , 44-C ) :   1.0377
B( 42-C , 43-C ) :   1.1250 B( 42-C , 84-H ) :   0.9283 B( 42-C , 85-H ) :   0.9489
B( 43-C , 86-H ) :   0.9640 B( 43-C , 87-H ) :   0.9674 B( 43-C , 88-H ) :   0.9672
B( 44-C , 45-O ) :   2.1514 B( 44-C , 46-C ) :   0.9705 B( 46-C , 47-C ) :   1.2975
B( 46-C , 53-C ) :   1.2950 B( 47-C , 48-C ) :   0.9815 B( 48-C , 49-O ) :   1.9998
B( 48-C , 50-N ) :   1.0546 B( 49-O , 82-H ) :   0.1113 B( 50-N , 51-C ) :   0.9313
B( 50-N , 53-C ) :   1.2078 B( 51-C , 52-C ) :   1.1170 B( 51-C , 89-H ) :   0.9485
B( 51-C , 90-H ) :   0.9317 B( 52-C , 91-H ) :   0.9635 B( 52-C , 92-H ) :   0.9674
B( 52-C , 93-H ) :   0.9610 B( 53-C , 54-C ) :   1.2014 B( 54-C , 55-C ) :   1.6604
B( 54-C , 94-H ) :   0.9375 B( 55-C , 56-C ) :   1.0653 B( 55-C , 95-H ) :   0.9680
B( 56-C , 57-C ) :   1.5333 B( 56-C , 60-C ) :   1.2367 B( 57-C , 58-S ) :   1.1743
B( 57-C , 96-H ) :   0.9702 B( 58-S , 59-C ) :   1.2099 B( 59-C , 60-C ) :   1.5369
B( 59-C , 97-H ) :   0.9653 B( 60-C , 61-C ) :   0.9442 B( 61-C , 62-O ) :   2.1126
B( 61-C , 63-O ) :   1.1455 B( 63-O , 64-C ) :   1.0060 B( 64-C , 65-C ) :   1.7394
B( 64-C , 98-H ) :   0.9755 B( 65-C , 66-C ) :   1.1103 B( 65-C , 99-H ) :   0.9575
B( 66-C , 67-O ) :   1.1456 B( 66-C , 68-C ) :   0.1152 B( 66-C , 70-C ) :   1.4265
B( 67-O , 68-C ) :   1.1194 B( 68-C , 69-C ) :   1.5013 B( 68-C ,100-H ) :   1.0088
B( 69-C , 70-C ) :   1.1831 B( 69-C , 72-F ) :   1.1440 B( 70-C , 71-F ) :   1.1718

-----------------------------------------------------------------------------
         ABSORPTION SPECTRUM VIA TRANSITION ELECTRIC DIPOLE MOMENTS
-----------------------------------------------------------------------------
State   Energy  Wavelength   fosc         T2         TX        TY        TZ
        (cm-1)    (nm)                  (au**2)     (au)      (au)      (au)
-----------------------------------------------------------------------------
   0    4980.3   2007.9   0.144358093   9.54249   1.05387  -0.77568   2.79824
   1   11148.5    897.0   0.030635146   0.90464  -0.30021   0.76689   0.47581
   2   15871.1    630.1   0.118685313   2.46187   0.70845   1.24630   0.63773
   3   16384.3    610.3   0.215021530   4.32046   0.64859   1.82546   0.75333
   4   19146.6    522.3   0.001403486   0.02413   0.10510   0.03941  -0.10739
   5   19711.1    507.3   0.002925532   0.04886  -0.05248   0.08779   0.19596
   6   20665.6    483.9   0.149675812   2.38440  -1.20541   0.21076  -0.94179
   7   20861.6    479.3   0.206639404   3.26093   0.39774  -1.60379   0.72842
   8   22094.4    452.6   0.005857112   0.08727   0.03239   0.28503   0.07058
   9   22541.4    443.6   0.269920311   3.94212   0.29623   1.95798   0.14385
  10   22859.0    437.5   0.010622009   0.15298   0.38185  -0.05333  -0.06576
  11   23027.2    434.3   0.088860110   1.27040  -0.70591   0.07709  -0.87530
  12   24361.0    410.5   0.097751261   1.32100  -0.92612  -0.67882   0.05012
  13   25052.0    399.2   0.123438925   1.62213   0.75597   0.06330   1.02305
  14   25309.2    395.1   0.075247999   0.97880   0.89831   0.09693   0.40304
  15   26297.4    380.3   0.104380955   1.30672  -0.76107  -0.72560   0.44834
  16   26497.6    377.4   0.010148931   0.12609   0.17624  -0.26886   0.15083
  17   27435.8    364.5   0.111677491   1.34006  -0.53827   0.75208  -0.69621
  18   27667.3    361.4   0.057063875   0.67900  -0.44093   0.45733  -0.52482
  19   27865.7    358.9   0.019228951   0.22718  -0.41321   0.06968  -0.22711
  20   28436.9    351.7   0.215833920   2.49869   0.60150   0.83001   1.20331
  21   28720.0    348.2   0.052347146   0.60005  -0.24268  -0.72817   0.10451
  22   28943.8    345.5   0.013040430   0.14832   0.32713   0.09658  -0.17883
  23   29164.6    342.9   0.102060480   1.15207   0.20858  -0.93824  -0.47778
  24   29620.9    337.6   0.201868615   2.24360   1.11221   0.96812   0.26335
  25   30114.8    332.1   0.011757561   0.12853   0.22401  -0.17352  -0.21964
  26   30367.2    329.3   0.005481362   0.05942  -0.10330   0.01046   0.22055
  27   30630.4    326.5   0.043201634   0.46433   0.53432  -0.04391   0.42059
  28   31088.8    321.7   0.032690105   0.34617  -0.03223  -0.47958   0.33931
  29   31282.5    319.7   0.005779983   0.06083   0.01662   0.23786  -0.06303
  30   31560.9    316.8   0.011360675   0.11850   0.22797  -0.25788  -0.00539
  31   31632.4    316.1   0.002205255   0.02295  -0.02640   0.07213  -0.13058
  32   31744.0    315.0   0.115333934   1.19611  -0.92027   0.52959  -0.26218
  33   31886.7    313.6   0.029798388   0.30765   0.07135  -0.04658  -0.54808
  34   32679.6    306.0   0.030719382   0.30946  -0.17291   0.04869  -0.52650
  35   32959.8    303.4   0.061766359   0.61694  -0.26839  -0.18301  -0.71513
  36   33299.5    300.3   0.136213601   1.34666  -0.61038  -0.79437  -0.58573
  37   33484.5    298.6   0.042751222   0.42032  -0.06919  -0.04682   0.64292
  38   33599.2    297.6   0.063045395   0.61773   0.08297  -0.77712   0.08322
  39   33872.1    295.2   0.430034847   4.17962  -0.31054   1.95079   0.52687
  40   34284.6    291.7   0.317351468   3.04731  -0.54923  -1.15520  -1.18793
  41   34478.8    290.0   0.108720042   1.03809   0.06389   0.28047  -0.97742
  42   34672.9    288.4   0.103593378   0.98360  -0.97860  -0.14393  -0.07233
  43   35006.6    285.7   0.036430235   0.34260  -0.05801   0.53517   0.22983
  44   35451.8    282.1   0.002463915   0.02288  -0.13523  -0.02241   0.06396
  45   35691.4    280.2   0.013405317   0.12365  -0.04530   0.34715  -0.03296
  46   35903.9    278.5   0.244175810   2.23891   1.27070   0.28162  -0.73819
  47   36079.0    277.2   0.072534783   0.66186  -0.75107  -0.30456   0.07073
  48   36322.1    275.3   0.061248295   0.55514   0.03077   0.74403  -0.02465
  49   36489.4    274.1   0.052575831   0.47435  -0.18338  -0.59772  -0.28888
  50   37059.6    269.8   0.003374117   0.02997   0.11387  -0.05942  -0.11609
  51   37357.7    267.7   0.031744358   0.27974  -0.35306   0.13898  -0.36848
  52   37763.1    264.8   0.030642102   0.26713   0.40212  -0.27570   0.17152
  53   37955.8    263.5   0.368549038   3.19663  -0.79913  -1.12192  -1.13988
  54   38759.0    258.0   0.044440419   0.37747   0.28434   0.51849  -0.16672
  55   38938.2    256.8   0.015647718   0.13230  -0.24285   0.23646  -0.13193
  56   39106.4    255.7   0.012723063   0.10711   0.16089  -0.26767   0.09784
  57   39383.6    253.9   0.009893073   0.08270  -0.20024  -0.10503  -0.17767
  58   39801.4    251.2   0.001982037   0.01639   0.01139   0.01735  -0.12635
  59   39912.2    250.5   0.021009963   0.17330  -0.07157  -0.32852   0.24546
  60   40036.4    249.8   0.022427247   0.18442  -0.00510  -0.41503   0.11019
  61   40184.5    248.9   0.089017896   0.72928  -0.24251   0.47705  -0.66550
  62   40289.1    248.2   0.034570133   0.28248   0.25075   0.31639   0.34569

FINAL SINGLE POINT ENERGY     -3872.022518236568

DIPOLE MOMENT
-------------
                                X             Y             Z
Electronic contribution:    -23.64282      39.86002       7.25835
Nuclear contribution   :     26.33634     -39.68833      -3.52020
                        -----------------------------------------
Total Dipole Moment    :      2.69353       0.17169       3.73814
                        -----------------------------------------
Magnitude (a.u.)       :      4.61067
Magnitude (Debye)      :     11.71939

Rotational constants in cm-1:     0.000954     0.000379     0.000334
Rotational constants in MHz :    28.587683    11.356603    10.008914

                             ****ORCA TERMINATED NORMALLY****
TOTAL RUN TIME: 0 days 0 hours 25 minutes 29 seconds 878 msec
