                         Program Version 4.2.0 -  RELEASE  -
|  1> # ORCA input file
|  2> # SCF done       -202.986712431561          0.000858352242
|  3> ! CAM-B3LYP def2-SVP def2/J RIJCOSX Grid4 TightSCF
|  4> %maxcore 5000
|  5> %tddft
|  6>     Mode sTDDFT
|  7>     Ethresh 5.0
|  8>     maxcore 5000
|  9> end
| 10>
| 11> %pal
| 12>   nprocs 6
| 13>   end
| 14> * xyz 0 1
| 15>    C       -5.39867         6.03682        -2.19764
| 16>    S       -6.81181         7.00655        -2.20934
| 17>    C       -7.92258         5.53247        -2.04906
| 18>    O       -9.10824         5.63490        -1.95224
| 19>    C       -7.05148         4.38594        -2.02983
| 20>    C       -5.65716         4.70326        -2.08846
| 21>    C       -4.77808         3.56206        -2.02722
| 22>    O       -3.59030         3.46202        -2.04713
| 23>    S       -5.87849         2.08135        -1.87979
| 24>    C       -7.33734         3.04906        -1.93494
| 25>    C       -8.62721         2.42722        -1.92112
| 26>    C       -9.67192         2.61651        -2.80080
| 27>    N       -9.71502         3.45394        -3.94475
| 28>    O      -10.78448         3.55833        -4.50639
| 29>    O       -8.68516         3.98768        -4.30748
| 30>    C      -10.74801         1.71213        -2.47214
| 31>    C      -10.34829         0.92395        -1.44861
| 32>    C       -9.02338         1.32875        -1.03928
| 33>    C       -8.32104         0.88330         0.06264
| 34>    C       -7.46650         1.67226         0.89011
| 35>    C       -7.20171         0.98298         2.03915
| 36>    C       -7.80128        -0.30941         1.95326
| 37>    N       -7.65144        -1.29050         2.95190
| 38>    O       -8.16397        -2.38573         2.77415
| 39>    O       -7.02650        -0.98209         3.94840
| 40>    C       -8.47066        -0.42655         0.72911
| 41>    C       -9.00200        -1.59890         0.17263
| 42>    C       -9.21456        -1.76648        -1.17365
| 43>    C       -9.82289        -2.82384        -1.86483
| 44>    N      -10.38149        -3.99802        -1.43666
| 45>    C      -10.38816        -4.55243        -0.10164
| 46>    C       -9.03369        -5.14393         0.27737
| 47>    C      -10.93063        -4.74173        -2.51061
| 48>    O      -11.45344        -5.82131        -2.38216
| 49>    C      -10.70432        -3.90413        -3.67852
| 50>    C      -10.02210        -2.76428        -3.26111
| 51>    C       -9.81796        -1.90909        -4.41522
| 52>    O       -9.32168        -0.81190        -4.52503
| 53>    N      -10.36039        -2.64735        -5.49455
| 54>    C      -10.49518        -2.01802        -6.79120
| 55>    C      -11.94982        -1.68824        -7.11053
| 56>    C      -10.90762        -3.83038        -5.07137
| 57>    C      -11.56798        -4.83517        -5.80664
| 58>    C      -11.47719        -5.10778        -7.13928
| 59>    C      -12.23585        -6.11218        -7.79179
| 60>    C      -13.57605        -6.43618        -7.62177
| 61>    N      -14.54570        -5.78081        -6.82941
| 62>    O      -14.24658        -4.72675        -6.29320
| 63>    O      -15.64301        -6.29776        -6.76158
| 64>    C      -13.94225        -7.45321        -8.56856
| 65>    C      -12.86235        -7.74610        -9.34009
| 66>    C      -11.74726        -6.96096        -8.89552
| 67>    C      -10.42997        -7.08352        -9.28155
| 68>    C       -9.27794        -6.72867        -8.50400
| 69>    C       -8.16603        -7.17323        -9.14235
| 70>    C       -8.55475        -7.79250       -10.38361
| 71>    N       -7.57622        -8.17877       -11.33093
| 72>    O       -7.93167        -8.50968       -12.44608
| 73>    O       -6.41669        -8.12267       -10.96801
| 74>    C       -9.93642        -7.76003       -10.50020
| 75>    C      -10.78556        -8.15137       -11.56892
| 76>    C      -10.60180        -9.21613       -12.39235
| 77>    C      -11.48217        -9.53166       -13.45087
| 78>    S      -12.82698        -8.51004       -13.92215
| 79>    C      -13.30647        -9.60603       -15.32226
| 80>    O      -14.22833        -9.35487       -16.03535
| 81>    C      -12.37272       -10.70899       -15.30499
| 82>    C      -11.39801       -10.64549       -14.26738
| 83>    C      -10.49055       -11.76035       -14.23703
| 84>    O       -9.60167       -12.05659       -13.49842
| 85>    S      -10.98073       -12.84778       -15.67207
| 86>    C      -12.26312       -11.80605       -16.11194
| 87>    H       -4.43179         6.49887        -2.27527
| 88>    H      -11.68654         1.70290        -2.99173
| 89>    H      -10.93822         0.19001        -0.93566
| 90>    H       -7.20103         2.69233         0.69306
| 91>    H       -6.63789         1.32238         2.88779
| 92>    H       -9.16210        -2.40995         0.86862
| 93>    H       -8.87483        -0.98513        -1.84237
| 94>    H      -11.14201        -5.34477        -0.11117
| 95>    H      -10.69924        -3.78465         0.61004
| 96>    H       -8.80118        -5.98753        -0.36755
| 97>    H       -9.06355        -5.48818         1.30643
| 98>    H       -8.23943        -4.40763         0.18608
| 99>    H      -10.05114        -2.64892        -7.56422
|100>    H       -9.91034        -1.09547        -6.72988
|101>    H      -12.57614        -2.57661        -7.08131
|102>    H      -12.01299        -1.24466        -8.09985
|103>    H      -12.33605        -0.97366        -6.38817
|104>    H      -12.14902        -5.49974        -5.18002
|105>    H      -10.75797        -4.58714        -7.75517
|106>    H      -14.92690        -7.87687        -8.62791
|107>    H      -12.81533        -8.51063       -10.08968
|108>    H       -9.31042        -6.29102        -7.52568
|109>    H       -7.14519        -7.09703        -8.81877
|110>    H      -11.67727        -7.55097       -11.70916
|111>    H       -9.77069        -9.89458       -12.26268
|112>    H      -12.88741       -12.04566       -16.95285
|113> *
|114>
|115>                          ****END OF INPUT****

CARTESIAN COORDINATES (ANGSTROEM)
---------------------------------
  C     -5.398670    6.036820   -2.197640
  S     -6.811810    7.006550   -2.209340
  C     -7.922580    5.532470   -2.049060
  O     -9.108240    5.634900   -1.952240
  C     -7.051480    4.385940   -2.029830
  C     -5.657160    4.703260   -2.088460
  C     -4.778080    3.562060   -2.027220
  O     -3.590300    3.462020   -2.047130
  S     -5.878490    2.081350   -1.879790
  C     -7.337340    3.049060   -1.934940
  C     -8.627210    2.427220   -1.921120
  C     -9.671920    2.616510   -2.800800
  N     -9.715020    3.453940   -3.944750
  O    -10.784480    3.558330   -4.506390
  O     -8.685160    3.987680   -4.307480
  C    -10.748010    1.712130   -2.472140
  C    -10.348290    0.923950   -1.448610
  C     -9.023380    1.328750   -1.039280
  C     -8.321040    0.883300    0.062640
  C     -7.466500    1.672260    0.890110
  C     -7.201710    0.982980    2.039150
  C     -7.801280   -0.309410    1.953260
  N     -7.651440   -1.290500    2.951900
  O     -8.163970   -2.385730    2.774150
  O     -7.026500   -0.982090    3.948400
  C     -8.470660   -0.426550    0.729110
  C     -9.002000   -1.598900    0.172630
  C     -9.214560   -1.766480   -1.173650
  C     -9.822890   -2.823840   -1.864830
  N    -10.381490   -3.998020   -1.436660
  C    -10.388160   -4.552430   -0.101640
  C     -9.033690   -5.143930    0.277370
  C    -10.930630   -4.741730   -2.510610
  O    -11.453440   -5.821310   -2.382160
  C    -10.704320   -3.904130   -3.678520
  C    -10.022100   -2.764280   -3.261110
  C     -9.817960   -1.909090   -4.415220
  O     -9.321680   -0.811900   -4.525030
  N    -10.360390   -2.647350   -5.494550
  C    -10.495180   -2.018020   -6.791200
  C    -11.949820   -1.688240   -7.110530
  C    -10.907620   -3.830380   -5.071370
  C    -11.567980   -4.835170   -5.806640
  C    -11.477190   -5.107780   -7.139280
  C    -12.235850   -6.112180   -7.791790
  C    -13.576050   -6.436180   -7.621770
  N    -14.545700   -5.780810   -6.829410
  O    -14.246580   -4.726750   -6.293200
  O    -15.643010   -6.297760   -6.761580
  C    -13.942250   -7.453210   -8.568560
  C    -12.862350   -7.746100   -9.340090
  C    -11.747260   -6.960960   -8.895520
  C    -10.429970   -7.083520   -9.281550
  C     -9.277940   -6.728670   -8.504000
  C     -8.166030   -7.173230   -9.142350
  C     -8.554750   -7.792500  -10.383610
  N     -7.576220   -8.178770  -11.330930
  O     -7.931670   -8.509680  -12.446080
  O     -6.416690   -8.122670  -10.968010
  C     -9.936420   -7.760030  -10.500200
  C    -10.785560   -8.151370  -11.568920
  C    -10.601800   -9.216130  -12.392350
  C    -11.482170   -9.531660  -13.450870
  S    -12.826980   -8.510040  -13.922150
  C    -13.306470   -9.606030  -15.322260
  O    -14.228330   -9.354870  -16.035350
  C    -12.372720  -10.708990  -15.304990
  C    -11.398010  -10.645490  -14.267380
  C    -10.490550  -11.760350  -14.237030
  O     -9.601670  -12.056590  -13.498420
  S    -10.980730  -12.847780  -15.672070
  C    -12.263120  -11.806050  -16.111940
  H     -4.431790    6.498870   -2.275270
  H    -11.686540    1.702900   -2.991730
  H    -10.938220    0.190010   -0.935660
  H     -7.201030    2.692330    0.693060
  H     -6.637890    1.322380    2.887790
  H     -9.162100   -2.409950    0.868620
  H     -8.874830   -0.985130   -1.842370
  H    -11.142010   -5.344770   -0.111170
  H    -10.699240   -3.784650    0.610040
  H     -8.801180   -5.987530   -0.367550
  H     -9.063550   -5.488180    1.306430
  H     -8.239430   -4.407630    0.186080
  H    -10.051140   -2.648920   -7.564220
  H     -9.910340   -1.095470   -6.729880
  H    -12.576140   -2.576610   -7.081310
  H    -12.012990   -1.244660   -8.099850
  H    -12.336050   -0.973660   -6.388170
  H    -12.149020   -5.499740   -5.180020
  H    -10.757970   -4.587140   -7.755170
  H    -14.926900   -7.876870   -8.627910
  H    -12.815330   -8.510630  -10.089680
  H     -9.310420   -6.291020   -7.525680
  H     -7.145190   -7.097030   -8.818770
  H    -11.677270   -7.550970  -11.709160
  H     -9.770690   -9.894580  -12.262680
  H    -12.887410  -12.045660  -16.952850

 Total Charge           Charge          ....    0
 Multiplicity           Mult            ....    1
 Number of Electrons    NEL             ....  532
 Basis Dimension        Dim             .... 1154

ORBITAL ENERGIES
----------------

  NO   OCC          E(Eh)            E(eV)
   0   2.0000     -88.963773     -2420.8273
   1   2.0000     -88.961978     -2420.7785
   2   2.0000     -88.959357     -2420.7072
   3   2.0000     -88.958905     -2420.6949
   4   2.0000     -19.256064      -523.9842
   5   2.0000     -19.252824      -523.8960
   6   2.0000     -19.251458      -523.8588
   7   2.0000     -19.250939      -523.8447
   8   2.0000     -19.250467      -523.8318
   9   2.0000     -19.247155      -523.7417
  10   2.0000     -19.246673      -523.7286
  11   2.0000     -19.245704      -523.7022
  12   2.0000     -19.240903      -523.5716
  13   2.0000     -19.235594      -523.4271
  14   2.0000     -19.233868      -523.3802
  15   2.0000     -19.232012      -523.3296
  16   2.0000     -19.218574      -522.9640
  17   2.0000     -19.213336      -522.8215
  18   2.0000     -14.663139      -399.0043
  19   2.0000     -14.661576      -398.9618
  20   2.0000     -14.656967      -398.8363
  21   2.0000     -14.656008      -398.8103
  22   2.0000     -14.477598      -393.9555
  23   2.0000     -14.474515      -393.8716
  24   2.0000     -10.404213      -283.1130
  25   2.0000     -10.402839      -283.0756
  26   2.0000     -10.400280      -283.0060
  27   2.0000     -10.398611      -282.9606
  28   2.0000     -10.397360      -282.9265
  29   2.0000     -10.397237      -282.9232
  30   2.0000     -10.366177      -282.0780
  31   2.0000     -10.364273      -282.0262
  32   2.0000     -10.354117      -281.7498
  33   2.0000     -10.353965      -281.7457
  34   2.0000     -10.350660      -281.6558
  35   2.0000     -10.350277      -281.6454
  36   2.0000     -10.347702      -281.5753
  37   2.0000     -10.346663      -281.5470
  38   2.0000     -10.346159      -281.5333
  39   2.0000     -10.346025      -281.5296
  40   2.0000     -10.343834      -281.4700
  41   2.0000     -10.342444      -281.4322
  42   2.0000     -10.341498      -281.4065
  43   2.0000     -10.339693      -281.3574
  44   2.0000     -10.339371      -281.3486
  45   2.0000     -10.338264      -281.3185
  46   2.0000     -10.334521      -281.2166
  47   2.0000     -10.330365      -281.1035
  48   2.0000     -10.323401      -280.9140
  49   2.0000     -10.323278      -280.9107
  50   2.0000     -10.322407      -280.8870
  51   2.0000     -10.321996      -280.8758
  52   2.0000     -10.321408      -280.8598
  53   2.0000     -10.320163      -280.8259
  54   2.0000     -10.319668      -280.8124
  55   2.0000     -10.316723      -280.7323
  56   2.0000     -10.316146      -280.7166
  57   2.0000     -10.315685      -280.7041
  58   2.0000     -10.312384      -280.6142
  59   2.0000     -10.309690      -280.5409
  60   2.0000     -10.305985      -280.4401
  61   2.0000     -10.304094      -280.3887
  62   2.0000     -10.303890      -280.3831
  63   2.0000     -10.302990      -280.3586
  64   2.0000     -10.302118      -280.3349
  65   2.0000     -10.301390      -280.3151
  66   2.0000     -10.301269      -280.3118
  67   2.0000     -10.299225      -280.2562
  68   2.0000     -10.291969      -280.0587
  69   2.0000     -10.290778      -280.0263
  70   2.0000     -10.272080      -279.5175
  71   2.0000     -10.270635      -279.4782
  72   2.0000      -8.061529      -219.3654
  73   2.0000      -8.059291      -219.3045
  74   2.0000      -8.056689      -219.2337
  75   2.0000      -8.056285      -219.2227
  76   2.0000      -6.030747      -164.1050
  77   2.0000      -6.028603      -164.0466
  78   2.0000      -6.026720      -163.9954
  79   2.0000      -6.025938      -163.9741
  80   2.0000      -6.025727      -163.9684
  81   2.0000      -6.024731      -163.9413
  82   2.0000      -6.023027      -163.8949
  83   2.0000      -6.021882      -163.8637
  84   2.0000      -6.021648      -163.8574
  85   2.0000      -6.020531      -163.8270
  86   2.0000      -6.018155      -163.7623
  87   2.0000      -6.017488      -163.7442
  88   2.0000      -1.334124       -36.3034
  89   2.0000      -1.333184       -36.2778
  90   2.0000      -1.329955       -36.1899
  91   2.0000      -1.326089       -36.0847
  92   2.0000      -1.163141       -31.6507
  93   2.0000      -1.159119       -31.5412
  94   2.0000      -1.158482       -31.5239
  95   2.0000      -1.156775       -31.4775
  96   2.0000      -1.155070       -31.4310
  97   2.0000      -1.151678       -31.3387
  98   2.0000      -1.151329       -31.3293
  99   2.0000      -1.150660       -31.3110
 100   2.0000      -1.147491       -31.2248
 101   2.0000      -1.143662       -31.1206
 102   2.0000      -1.088178       -29.6108
 103   2.0000      -1.077898       -29.3311
 104   2.0000      -1.035726       -28.1835
 105   2.0000      -1.033676       -28.1278
 106   2.0000      -1.015751       -27.6400
 107   2.0000      -1.013975       -27.5917
 108   2.0000      -1.012718       -27.5574
 109   2.0000      -1.001571       -27.2541
 110   2.0000      -0.961770       -26.1711
 111   2.0000      -0.950917       -25.8758
 112   2.0000      -0.948126       -25.7998
 113   2.0000      -0.935642       -25.4601
 114   2.0000      -0.931905       -25.3584
 115   2.0000      -0.927004       -25.2251
 116   2.0000      -0.921314       -25.0702
 117   2.0000      -0.916989       -24.9525
 118   2.0000      -0.895502       -24.3679
 119   2.0000      -0.892265       -24.2798
 120   2.0000      -0.890078       -24.2203
 121   2.0000      -0.867602       -23.6086
 122   2.0000      -0.865701       -23.5569
 123   2.0000      -0.862136       -23.4599
 124   2.0000      -0.858016       -23.3478
 125   2.0000      -0.846204       -23.0264
 126   2.0000      -0.840427       -22.8692
 127   2.0000      -0.836364       -22.7586
 128   2.0000      -0.833382       -22.6775
 129   2.0000      -0.830613       -22.6021
 130   2.0000      -0.814146       -22.1541
 131   2.0000      -0.810192       -22.0464
 132   2.0000      -0.790927       -21.5222
 133   2.0000      -0.775254       -21.0957
 134   2.0000      -0.773923       -21.0595
 135   2.0000      -0.765219       -20.8227
 136   2.0000      -0.750614       -20.4252
 137   2.0000      -0.746704       -20.3189
 138   2.0000      -0.741832       -20.1863
 139   2.0000      -0.730214       -19.8701
 140   2.0000      -0.722424       -19.6582
 141   2.0000      -0.714669       -19.4471
 142   2.0000      -0.713622       -19.4187
 143   2.0000      -0.706288       -19.2191
 144   2.0000      -0.702435       -19.1142
 145   2.0000      -0.699901       -19.0453
 146   2.0000      -0.689039       -18.7497
 147   2.0000      -0.684915       -18.6375
 148   2.0000      -0.674021       -18.3410
 149   2.0000      -0.672571       -18.3016
 150   2.0000      -0.668292       -18.1852
 151   2.0000      -0.661823       -18.0091
 152   2.0000      -0.657728       -17.8977
 153   2.0000      -0.650809       -17.7094
 154   2.0000      -0.650368       -17.6974
 155   2.0000      -0.646779       -17.5998
 156   2.0000      -0.643862       -17.5204
 157   2.0000      -0.643001       -17.4969
 158   2.0000      -0.639631       -17.4052
 159   2.0000      -0.637072       -17.3356
 160   2.0000      -0.636196       -17.3118
 161   2.0000      -0.635628       -17.2963
 162   2.0000      -0.630534       -17.1577
 163   2.0000      -0.629128       -17.1195
 164   2.0000      -0.626014       -17.0347
 165   2.0000      -0.621078       -16.9004
 166   2.0000      -0.612212       -16.6591
 167   2.0000      -0.604662       -16.4537
 168   2.0000      -0.602569       -16.3967
 169   2.0000      -0.599978       -16.3262
 170   2.0000      -0.597025       -16.2459
 171   2.0000      -0.594051       -16.1650
 172   2.0000      -0.590961       -16.0809
 173   2.0000      -0.590086       -16.0570
 174   2.0000      -0.586815       -15.9680
 175   2.0000      -0.584817       -15.9137
 176   2.0000      -0.579899       -15.7799
 177   2.0000      -0.567950       -15.4547
 178   2.0000      -0.562852       -15.3160
 179   2.0000      -0.559675       -15.2295
 180   2.0000      -0.556948       -15.1553
 181   2.0000      -0.553292       -15.0558
 182   2.0000      -0.552095       -15.0233
 183   2.0000      -0.551605       -15.0099
 184   2.0000      -0.551058       -14.9950
 185   2.0000      -0.550185       -14.9713
 186   2.0000      -0.547647       -14.9022
 187   2.0000      -0.546742       -14.8776
 188   2.0000      -0.544174       -14.8077
 189   2.0000      -0.541840       -14.7442
 190   2.0000      -0.538938       -14.6652
 191   2.0000      -0.537680       -14.6310
 192   2.0000      -0.533213       -14.5095
 193   2.0000      -0.531903       -14.4738
 194   2.0000      -0.530296       -14.4301
 195   2.0000      -0.527921       -14.3654
 196   2.0000      -0.525589       -14.3020
 197   2.0000      -0.524639       -14.2762
 198   2.0000      -0.522648       -14.2220
 199   2.0000      -0.521611       -14.1938
 200   2.0000      -0.515212       -14.0196
 201   2.0000      -0.513765       -13.9803
 202   2.0000      -0.512219       -13.9382
 203   2.0000      -0.510198       -13.8832
 204   2.0000      -0.507658       -13.8141
 205   2.0000      -0.507448       -13.8083
 206   2.0000      -0.500969       -13.6321
 207   2.0000      -0.500675       -13.6241
 208   2.0000      -0.497383       -13.5345
 209   2.0000      -0.494313       -13.4509
 210   2.0000      -0.492859       -13.4114
 211   2.0000      -0.488295       -13.2872
 212   2.0000      -0.486349       -13.2342
 213   2.0000      -0.484293       -13.1783
 214   2.0000      -0.482573       -13.1315
 215   2.0000      -0.477947       -13.0056
 216   2.0000      -0.477140       -12.9836
 217   2.0000      -0.474549       -12.9131
 218   2.0000      -0.466053       -12.6819
 219   2.0000      -0.464910       -12.6509
 220   2.0000      -0.463066       -12.6007
 221   2.0000      -0.462672       -12.5899
 222   2.0000      -0.460969       -12.5436
 223   2.0000      -0.457986       -12.4624
 224   2.0000      -0.453189       -12.3319
 225   2.0000      -0.450310       -12.2536
 226   2.0000      -0.447145       -12.1674
 227   2.0000      -0.445930       -12.1344
 228   2.0000      -0.437467       -11.9041
 229   2.0000      -0.436160       -11.8685
 230   2.0000      -0.435394       -11.8477
 231   2.0000      -0.433055       -11.7840
 232   2.0000      -0.416352       -11.3295
 233   2.0000      -0.406635       -11.0651
 234   2.0000      -0.401928       -10.9370
 235   2.0000      -0.397939       -10.8285
 236   2.0000      -0.392881       -10.6908
 237   2.0000      -0.391982       -10.6664
 238   2.0000      -0.391420       -10.6511
 239   2.0000      -0.391104       -10.6425
 240   2.0000      -0.389284       -10.5930
 241   2.0000      -0.385510       -10.4903
 242   2.0000      -0.385311       -10.4848
 243   2.0000      -0.383630       -10.4391
 244   2.0000      -0.375605       -10.2207
 245   2.0000      -0.373662       -10.1678
 246   2.0000      -0.373158       -10.1541
 247   2.0000      -0.372383       -10.1331
 248   2.0000      -0.370004       -10.0683
 249   2.0000      -0.360160        -9.8005
 250   2.0000      -0.356583        -9.7031
 251   2.0000      -0.354555        -9.6479
 252   2.0000      -0.353508        -9.6194
 253   2.0000      -0.352848        -9.6015
 254   2.0000      -0.352660        -9.5964
 255   2.0000      -0.343928        -9.3588
 256   2.0000      -0.341587        -9.2950
 257   2.0000      -0.341432        -9.2908
 258   2.0000      -0.334790        -9.1101
 259   2.0000      -0.329348        -8.9620
 260   2.0000      -0.324650        -8.8342
 261   2.0000      -0.320199        -8.7131
 262   2.0000      -0.309410        -8.4195
 263   2.0000      -0.285569        -7.7707
 264   2.0000      -0.283891        -7.7251
 265   2.0000      -0.254008        -6.9119
 266   0.0000      -0.161496        -4.3945
 267   0.0000      -0.145394        -3.9564
 268   0.0000      -0.107859        -2.9350
 269   0.0000      -0.094353        -2.5675
 270   0.0000      -0.079521        -2.1639

MULLIKEN ATOMIC CHARGES
-----------------------
   0 C :   -0.065768
   1 S :    0.047574
   2 C :    0.020422
   3 O :   -0.137556
   4 C :    0.174284
   5 C :    0.041731
   6 C :    0.049495
   7 O :   -0.124821
   8 S :    0.066082
   9 C :   -0.241006
  10 C :    0.049801
  11 C :    0.125316
  12 N :    0.272524
  13 O :   -0.227063
  14 O :   -0.233610
  15 C :    0.030897
  16 C :    0.016404
  17 C :    0.006226
  18 C :    0.010862
  19 C :    0.028484
  20 C :    0.021140
  21 C :    0.087695
  22 N :    0.275819
  23 O :   -0.260675
  24 O :   -0.239814
  25 C :    0.044428
  26 C :   -0.030107
  27 C :   -0.059733
  28 C :    0.134473
  29 N :   -0.264346
  30 C :    0.090211
  31 C :    0.007256
  32 C :    0.148054
  33 O :   -0.168651
  34 C :   -0.020950
  35 C :   -0.048957
  36 C :    0.158098
  37 O :   -0.176735
  38 N :   -0.265223
  39 C :    0.092236
  40 C :   -0.010254
  41 C :    0.097946
  42 C :    0.032931
  43 C :   -0.067670
  44 C :    0.053156
  45 C :    0.070251
  46 N :    0.263572
  47 O :   -0.244044
  48 O :   -0.229599
  49 C :    0.031180
  50 C :   -0.015576
  51 C :    0.051754
  52 C :    0.034215
  53 C :   -0.008992
  54 C :    0.020480
  55 C :    0.086474
  56 N :    0.258290
  57 O :   -0.235361
  58 O :   -0.233981
  59 C :    0.067508
  60 C :   -0.075404
  61 C :    0.050859
  62 C :   -0.088721
  63 S :    0.018497
  64 C :    0.059814
  65 O :   -0.123257
  66 C :    0.051657
  67 C :    0.079582
  68 C :    0.022690
  69 O :   -0.126516
  70 S :    0.049598
  71 C :   -0.063846
  72 H :    0.054531
  73 H :    0.005345
  74 H :    0.006150
  75 H :    0.005338
  76 H :    0.011659
  77 H :    0.024567
  78 H :    0.040929
  79 H :    0.048508
  80 H :    0.032675
  81 H :    0.026482
  82 H :    0.036007
  83 H :    0.023482
  84 H :    0.023910
  85 H :    0.052026
  86 H :    0.041299
  87 H :    0.026770
  88 H :    0.028016
  89 H :    0.025605
  90 H :    0.017245
  91 H :    0.014441
  92 H :    0.004448
  93 H :    0.005665
  94 H :    0.014878
  95 H :    0.032547
  96 H :    0.029151
  97 H :    0.056597
Sum of atomic charges:   -0.0000000

LOEWDIN ATOMIC CHARGES
----------------------
   0 C :   -0.080615
   1 S :    0.349699
   2 C :   -0.032228
   3 O :   -0.129637
   4 C :   -0.125568
   5 C :   -0.143087
   6 C :   -0.031310
   7 O :   -0.126404
   8 S :    0.341651
   9 C :   -0.094591
  10 C :   -0.035419
  11 C :    0.012657
  12 N :    0.287165
  13 O :   -0.187566
  14 O :   -0.193701
  15 C :    0.008523
  16 C :   -0.020694
  17 C :    0.036695
  18 C :    0.044140
  19 C :   -0.039349
  20 C :    0.029321
  21 C :   -0.048897
  22 N :    0.285505
  23 O :   -0.225441
  24 O :   -0.204379
  25 C :    0.008858
  26 C :    0.000858
  27 C :   -0.006011
  28 C :    0.069241
  29 N :   -0.002142
  30 C :    0.036303
  31 C :   -0.059470
  32 C :    0.083524
  33 O :   -0.171230
  34 C :   -0.099352
  35 C :   -0.095092
  36 C :    0.083933
  37 O :   -0.176109
  38 N :   -0.001883
  39 C :    0.036772
  40 C :   -0.062093
  41 C :    0.078252
  42 C :    0.009753
  43 C :   -0.012954
  44 C :    0.008699
  45 C :   -0.042915
  46 N :    0.284123
  47 O :   -0.209084
  48 O :   -0.194562
  49 C :    0.028967
  50 C :   -0.044795
  51 C :    0.041629
  52 C :    0.040336
  53 C :   -0.043510
  54 C :    0.023536
  55 C :   -0.031646
  56 N :    0.281826
  57 O :   -0.195934
  58 O :   -0.199140
  59 C :    0.006466
  60 C :   -0.008701
  61 C :    0.001943
  62 C :   -0.089179
  63 S :    0.320171
  64 C :   -0.031560
  65 O :   -0.125487
  66 C :   -0.145373
  67 C :   -0.125842
  68 C :   -0.028089
  69 O :   -0.119622
  70 S :    0.346560
  71 C :   -0.082034
  72 H :    0.040893
  73 H :    0.040129
  74 H :    0.033401
  75 H :    0.031719
  76 H :    0.042396
  77 H :    0.038299
  78 H :    0.049306
  79 H :    0.039624
  80 H :    0.025667
  81 H :    0.031439
  82 H :    0.037870
  83 H :    0.023619
  84 H :    0.019565
  85 H :    0.039920
  86 H :    0.026541
  87 H :    0.033465
  88 H :    0.032511
  89 H :    0.048817
  90 H :    0.035366
  91 H :    0.042471
  92 H :    0.032507
  93 H :    0.032743
  94 H :    0.041872
  95 H :    0.032199
  96 H :    0.041617
  97 H :    0.041633

  Mayer bond orders larger than 0.100000
B(  0-C ,  1-S ) :   1.1533 B(  0-C ,  5-C ) :   1.5525 B(  0-C , 72-H ) :   0.9654
B(  1-S ,  2-C ) :   0.9731 B(  1-S ,  3-O ) :   0.1079 B(  2-C ,  3-O ) :   2.1874
B(  2-C ,  4-C ) :   0.9196 B(  4-C ,  5-C ) :   1.1177 B(  4-C ,  9-C ) :   1.5678
B(  5-C ,  6-C ) :   0.9270 B(  6-C ,  7-O ) :   2.2267 B(  6-C ,  8-S ) :   0.9565
B(  7-O ,  8-S ) :   0.1118 B(  8-S ,  9-C ) :   1.1101 B(  9-C , 10-C ) :   1.0548
B( 10-C , 11-C ) :   1.6098 B( 10-C , 17-C ) :   1.0758 B( 11-C , 12-N ) :   0.9140
B( 11-C , 15-C ) :   1.1293 B( 12-N , 13-O ) :   1.5448 B( 12-N , 14-O ) :   1.5252
B( 13-O , 14-O ) :   0.2773 B( 15-C , 16-C ) :   1.5992 B( 15-C , 73-H ) :   1.0096
B( 16-C , 17-C ) :   1.1115 B( 16-C , 74-H ) :   0.9942 B( 17-C , 18-C ) :   1.4692
B( 18-C , 19-C ) :   1.1744 B( 18-C , 25-C ) :   0.9922 B( 19-C , 20-C ) :   1.5250
B( 19-C , 75-H ) :   1.0023 B( 20-C , 21-C ) :   1.1600 B( 20-C , 76-H ) :   1.0110
B( 21-C , 22-N ) :   0.9548 B( 21-C , 25-C ) :   1.4493 B( 22-N , 23-O ) :   1.4835
B( 22-N , 24-O ) :   1.5395 B( 23-O , 24-O ) :   0.2563 B( 25-C , 26-C ) :   1.2441
B( 26-C , 27-C ) :   1.4282 B( 26-C , 77-H ) :   0.9510 B( 27-C , 28-C ) :   1.2547
B( 27-C , 78-H ) :   0.9284 B( 28-C , 29-N ) :   1.1863 B( 28-C , 35-C ) :   1.2864
B( 29-N , 30-C ) :   0.9315 B( 29-N , 32-C ) :   1.0292 B( 30-C , 31-C ) :   1.1194
B( 30-C , 79-H ) :   0.9253 B( 30-C , 80-H ) :   0.9503 B( 31-C , 81-H ) :   0.9614
B( 31-C , 82-H ) :   0.9678 B( 31-C , 83-H ) :   0.9671 B( 32-C , 33-O ) :   2.1555
B( 32-C , 34-C ) :   0.9616 B( 34-C , 35-C ) :   1.2924 B( 34-C , 41-C ) :   1.2984
B( 35-C , 36-C ) :   0.9739 B( 36-C , 37-O ) :   2.1184 B( 36-C , 38-N ) :   1.0352
B( 38-N , 39-C ) :   0.9339 B( 38-N , 41-C ) :   1.1936 B( 39-C , 40-C ) :   1.1145
B( 39-C , 84-H ) :   0.9509 B( 39-C , 85-H ) :   0.9258 B( 40-C , 86-H ) :   0.9624
B( 40-C , 87-H ) :   0.9662 B( 40-C , 88-H ) :   0.9625 B( 41-C , 42-C ) :   1.2250
B( 42-C , 43-C ) :   1.5855 B( 42-C , 89-H ) :   0.9367 B( 43-C , 44-C ) :   1.1237
B( 43-C , 90-H ) :   0.9464 B( 44-C , 45-C ) :   1.5386 B( 44-C , 51-C ) :   1.0301
B( 45-C , 46-N ) :   0.9370 B( 45-C , 49-C ) :   1.1231 B( 46-N , 47-O ) :   1.5088
B( 46-N , 48-O ) :   1.5383 B( 47-O , 48-O ) :   0.2626 B( 49-C , 50-C ) :   1.5870
B( 49-C , 91-H ) :   1.0098 B( 50-C , 51-C ) :   1.1097 B( 50-C , 92-H ) :   1.0048
B( 51-C , 52-C ) :   1.5152 B( 52-C , 53-C ) :   1.1134 B( 52-C , 59-C ) :   1.0316
B( 53-C , 54-C ) :   1.5821 B( 53-C , 93-H ) :   1.0021 B( 54-C , 55-C ) :   1.1224
B( 54-C , 94-H ) :   1.0094 B( 55-C , 56-N ) :   0.9311 B( 55-C , 59-C ) :   1.5489
B( 56-N , 57-O ) :   1.5198 B( 56-N , 58-O ) :   1.5400 B( 57-O , 58-O ) :   0.2677
B( 59-C , 60-C ) :   1.1099 B( 60-C , 61-C ) :   1.6196 B( 60-C , 95-H ) :   0.9432
B( 61-C , 62-C ) :   1.2173 B( 61-C , 96-H ) :   0.9572 B( 62-C , 63-S ) :   1.0704
B( 62-C , 67-C ) :   1.4870 B( 63-S , 64-C ) :   0.9640 B( 63-S , 65-O ) :   0.1124
B( 64-C , 65-O ) :   2.2296 B( 64-C , 66-C ) :   0.9307 B( 66-C , 67-C ) :   1.1379
B( 66-C , 71-C ) :   1.5439 B( 67-C , 68-C ) :   0.9432 B( 68-C , 69-O ) :   2.1705
B( 68-C , 70-S ) :   0.9703 B( 69-O , 70-S ) :   0.1068 B( 70-S , 71-C ) :   1.1632
B( 71-C , 97-H ) :   0.9657

-----------------------------------------------------------------------------
         ABSORPTION SPECTRUM VIA TRANSITION ELECTRIC DIPOLE MOMENTS
-----------------------------------------------------------------------------
State   Energy  Wavelength   fosc         T2         TX        TY        TZ
        (cm-1)    (nm)                  (au**2)     (au)      (au)      (au)
-----------------------------------------------------------------------------
   0    5368.8   1862.6   0.329985916  20.23475  -1.01393  -2.88819  -3.29622
   1    8620.4   1160.0   0.048067091   1.83568   0.09418  -0.13309  -1.34503
   2   10761.2    929.3   0.009392738   0.28735  -0.16383  -0.47046   0.19793
   3   11693.9    855.1   0.123206123   3.46856  -0.08106  -1.13645  -1.47325
   4   15378.8    650.2   0.021948252   0.46984   0.04714   0.10809  -0.67523
   5   16571.8    603.4   0.036960301   0.73425  -0.39404   0.14403  -0.74715
   6   17383.7    575.3   0.231903910   4.39178  -0.58142  -0.15165  -2.00767
   7   18661.5    535.9   0.009229974   0.16283   0.11017   0.34370   0.18044
   8   18843.5    530.7   0.018271067   0.31921   0.07559  -0.55990   0.00232
   9   19703.6    507.5   0.008598774   0.14367   0.14722   0.34924  -0.00551
  10   20910.9    478.2   0.020989520   0.33045  -0.05488  -0.34887  -0.45358
  11   21809.0    458.5   0.007244879   0.10936  -0.14009   0.20225   0.22098
  12   22104.5    452.4   0.011321918   0.16862   0.23849  -0.29586   0.15560
  13   22352.4    447.4   0.086622716   1.27580   0.11320  -0.66486  -0.90606
  14   22718.0    440.2   0.178845106   2.59169  -0.40227  -1.50873  -0.39194
  15   23389.6    427.5   0.140801000   1.98179  -0.21344  -0.87504  -1.08191
  16   23557.7    424.5   0.143965854   2.01188   0.02626   1.13643   0.84836
  17   23679.1    422.3   0.019527871   0.27150   0.16574   0.17541  -0.46180
  18   24046.2    415.9   0.051335356   0.70282   0.24684  -0.13108   0.79039
  19   24173.3    413.7   0.018683669   0.25445   0.05471  -0.13931   0.48171
  20   24348.7    410.7   0.090090965   1.21809  -0.07384   1.08283  -0.20029
  21   24571.9    407.0   0.004322557   0.05791  -0.21234   0.10315  -0.04674
  22   24891.0    401.8   0.013221897   0.17487  -0.40454   0.09169   0.05301
  23   25047.0    399.2   0.050882282   0.66878  -0.01833   0.67892   0.45554
  24   25332.2    394.8   0.027186696   0.35331  -0.07232   0.27371  -0.52265
  25   25435.4    393.2   0.006574730   0.08510  -0.11930   0.12713   0.23389
  26   26185.3    381.9   0.007779344   0.09780   0.12398   0.24221   0.15417
  27   26462.0    377.9   0.077135569   0.95964  -0.02414   0.78174  -0.58986
  28   26490.6    377.5   0.005223107   0.06491   0.00089  -0.19149   0.16805
  29   26724.7    374.2   0.005638861   0.06946  -0.17341  -0.19778  -0.01651
  30   26850.7    372.4   0.040188631   0.49275  -0.21902  -0.49094   0.45140
  31   27150.3    368.3   0.000285211   0.00346  -0.03948  -0.04355  -0.00164
  32   27512.1    363.5   0.112706326   1.34865   0.54215  -0.99416   0.25765
  33   27723.7    360.7   0.000598789   0.00711   0.05675   0.05674  -0.02590
  34   27971.9    357.5   0.006693595   0.07878  -0.18390  -0.06215   0.20272
  35   28114.8    355.7   0.049289006   0.57715   0.31188  -0.18217   0.66835
  36   28532.7    350.5   0.174803228   2.01689  -1.37708  -0.10820  -0.32987
  37   29083.6    343.8   0.267920164   3.03272  -0.46313   0.19637   1.66723
  38   29159.0    342.9   0.069502586   0.78470  -0.21327   0.42055   0.74990
  39   29417.0    339.9   0.008139187   0.09109   0.04163   0.24481  -0.17153
  40   29677.0    337.0   0.017996612   0.19964  -0.12189   0.06608   0.42475
  41   29895.7    334.5   0.058488673   0.64408  -0.35585  -0.71416  -0.08612
  42   30020.3    333.1   0.056540644   0.62004   0.12799   0.01660  -0.77678
  43   30151.5    331.7   0.005160693   0.05635   0.03986  -0.07667  -0.22109
  44   30359.8    329.4   0.016890436   0.18315   0.01719  -0.15490  -0.39858
  45   30534.2    327.5   0.036366616   0.39210   0.49328  -0.16845   0.34697
  46   30880.5    323.8   0.046119488   0.49167   0.33126  -0.13607  -0.60285
  47   31018.8    322.4   0.183674606   1.94939   1.09237  -0.03600   0.86880
  48   31215.4    320.4   0.079934165   0.84302  -0.43504   0.27359  -0.76086
  49   31478.6    317.7   0.103658781   1.08409  -0.99675   0.19636   0.22806
  50   31611.2    316.3   0.004979572   0.05186  -0.00422   0.20318  -0.10276
  51   31645.7    316.0   0.311696205   3.24259   1.52008   0.60823   0.74967
  52   32071.0    311.8   0.099154832   1.01783   0.99771   0.00067  -0.14969
  53   32159.1    311.0   0.038870485   0.39792  -0.07166  -0.56552  -0.27013
  54   32335.7    309.3   0.000910015   0.00926  -0.05510  -0.00990   0.07830
  55   32376.4    308.9   0.013386577   0.13612   0.25858   0.04159   0.25985
  56   32604.4    306.7   0.013184440   0.13313   0.17657   0.30149   0.10513
  57   32664.4    306.1   0.049885013   0.50277   0.66916   0.22524   0.06529
  58   32814.1    304.7   0.053610338   0.53785   0.29698  -0.47062  -0.47768
  59   32958.3    303.4   0.111151573   1.11027  -0.91247  -0.49035  -0.19290
  60   32992.1    303.1   0.031707726   0.31640   0.43917  -0.34728   0.05405
  61   33132.5    301.8   0.082111310   0.81588  -0.79916   0.14506  -0.39519
  62   33225.6    301.0   0.261806112   2.59407   1.02998  -0.29606   1.20232
  63   33251.0    300.7   0.017024841   0.16856   0.38159  -0.04978  -0.14309
  64   33294.2    300.4   0.082629114   0.81703   0.58902  -0.43059  -0.53356
  65   33346.0    299.9   0.019964061   0.19710   0.26280   0.22566   0.27769
  66   33372.0    299.7   0.035089661   0.34616  -0.56473   0.16083  -0.03697
  67   33909.4    294.9   0.032546271   0.31598   0.29531  -0.45472  -0.14832
  68   34016.1    294.0   0.020402346   0.19746  -0.24579   0.36647   0.05236
  69   34071.9    293.5   0.030571060   0.29539  -0.36921  -0.29168  -0.27201
  70   34438.4    290.4   0.023046656   0.22031  -0.04875  -0.38864   0.25864
  71   34667.5    288.5   0.002164834   0.02056   0.07231   0.06227   0.10701
  72   34775.5    287.6   0.081279201   0.76945  -0.87606   0.04428  -0.00221
  73   34921.1    286.4   0.030368459   0.28629  -0.44996  -0.28367   0.05797
  74   34945.2    286.2   0.021040765   0.19822  -0.34293   0.06238  -0.27700
  75   35273.9    283.5   0.016615499   0.15507   0.15652  -0.16895  -0.31942
  76   35339.3    283.0   0.030482315   0.28397  -0.47620   0.00988  -0.23896
  77   35465.1    282.0   0.010327880   0.09587  -0.30121  -0.01301  -0.07051
  78   35894.2    278.6   0.020824460   0.19100   0.26787  -0.09261  -0.33266
  79   36637.4    272.9   0.027960241   0.25124   0.47514   0.11016   0.11553
  80   36666.5    272.7   0.042319685   0.37997   0.10196  -0.22945   0.56296
  81   36910.7    270.9   0.004439808   0.03960   0.16701   0.09534  -0.05117
  82   37056.9    269.9   0.022780735   0.20238  -0.23459  -0.11794  -0.36529
  83   37113.5    269.4   0.020126804   0.17853  -0.21990   0.10653  -0.34472
  84   37151.2    269.2   0.003443966   0.03052   0.06216   0.15526   0.05049
  85   37448.6    267.0   0.038891207   0.34189  -0.27497   0.20980   0.47145
  86   37704.5    265.2   0.012361941   0.10794  -0.17688   0.07041   0.26775
  87   37824.8    264.4   0.011991003   0.10436  -0.26173  -0.17210  -0.07901
  88   37924.7    263.7   0.007547688   0.06552  -0.06792   0.07194   0.23607
  89   38042.6    262.9   0.000907605   0.00785  -0.04725   0.01647   0.07315
  90   38128.0    262.3   0.012972835   0.11201   0.12199   0.01720   0.31118
  91   38192.0    261.8   0.020750990   0.17887  -0.37955   0.03262  -0.18370
  92   38260.2    261.4   0.020961023   0.18036   0.07048  -0.04396   0.41649
  93   38428.8    260.2   0.031169467   0.26702  -0.30881   0.37264  -0.18111
  94   38478.2    259.9   0.000285262   0.00244   0.01659   0.04591   0.00761
  95   38861.3    257.3   0.055081518   0.46662   0.56003  -0.31239  -0.23537
  96   39017.7    256.3   0.016044245   0.13537   0.27727   0.23294   0.06505
  97   39329.1    254.3   0.039856286   0.33362  -0.49178   0.29340   0.07542
  98   39611.7    252.5   0.003793729   0.03153  -0.03249   0.01178   0.17417
  99   39937.7    250.4   0.026301141   0.21680  -0.14707  -0.40676   0.17241
 100   39984.6    250.1   0.008029559   0.06611  -0.14194  -0.20967  -0.04478
 101   40110.7    249.3   0.042713398   0.35057  -0.49253   0.09512   0.31455
 102   40206.5    248.7   0.028203623   0.23093  -0.00203   0.41503   0.24224
 103   40274.9    248.3   0.036831546   0.30107  -0.49863  -0.07861  -0.21508

FINAL SINGLE POINT ENERGY     -4814.199500767328

DIPOLE MOMENT
-------------
                                X             Y             Z
Electronic contribution:      9.86743       8.76806     -23.66023
Nuclear contribution   :    -10.34634      -9.41044      23.49756
                        -----------------------------------------
Total Dipole Moment    :     -0.47891      -0.64239      -0.16267
                        -----------------------------------------
Magnitude (a.u.)       :      0.81760
Magnitude (Debye)      :      2.07818

Rotational constants in cm-1:     0.001604     0.000277     0.000264
Rotational constants in MHz :    48.086369     8.299498     7.923315

                             ****ORCA TERMINATED NORMALLY****
TOTAL RUN TIME: 0 days 0 hours 18 minutes 51 seconds 716 msec
