                         Program Version 4.2.0 -  RELEASE  -
|  1> # ORCA input file
|  2> # SCF done       -159.004856866201          0.000826028292
|  3> ! CAM-B3LYP def2-SVP def2/J RIJCOSX Grid4 TightSCF
|  4> %maxcore 5000
|  5> %tddft
|  6>     Mode sTDDFT
|  7>     Ethresh 5.0
|  8>     maxcore 5000
|  9> end
| 10>
| 11> %pal
| 12>   nprocs 6
| 13>   end
| 14> * xyz 0 1
| 15>    C       -7.98616         1.58514        -5.64879
| 16>    N       -7.66420         2.77649        -6.21439
| 17>    C       -7.74800         3.09583        -7.61754
| 18>    C       -6.55889         2.53045        -8.39036
| 19>    C       -7.13531         3.67860        -5.25649
| 20>    O       -6.77726         4.80696        -5.52368
| 21>    C       -7.17256         2.92730        -4.02593
| 22>    C       -7.70754         1.63408        -4.30968
| 23>    C       -7.74662         0.89784        -3.06400
| 24>    O       -8.12754        -0.21527        -2.78271
| 25>    N       -7.21894         1.79839        -2.10751
| 26>    C       -7.10746         1.37885        -0.73213
| 27>    C       -5.72010         0.82134        -0.41842
| 28>    C       -6.86952         3.00461        -2.67387
| 29>    C       -6.31370         4.16999        -2.07982
| 30>    C       -5.81647         4.36754        -0.83563
| 31>    C       -5.28298         5.60869        -0.39622
| 32>    S       -5.29605         7.04784        -1.37821
| 33>    C       -4.50844         7.97806        -0.14038
| 34>    C       -4.25424         7.18130         0.98097
| 35>    C       -4.69629         5.85813         0.82713
| 36>    C       -3.63153         7.61234         2.16387
| 37>    N       -3.12895         7.91277         3.15116
| 38>    C       -4.23465         9.34599        -0.38142
| 39>    C       -3.58227        10.18566         0.46152
| 40>    C       -3.33351        11.55212         0.18831
| 41>    S       -3.90769        12.34854        -1.25402
| 42>    C       -3.19053        13.85994        -0.77665
| 43>    C       -2.53851        13.71921         0.45539
| 44>    C       -2.62744        12.42961         0.98982
| 45>    C       -1.87556        14.78382         1.09214
| 46>    N       -1.33460        15.64465         1.62181
| 47>    C       -3.27913        15.03578        -1.54790
| 48>    C       -4.00025        15.13860        -2.69917
| 49>    C       -4.10289        16.30570        -3.48931
| 50>    C       -3.45159        17.51752        -3.35307
| 51>    C       -3.88381        18.39892        -4.37740
| 52>    C       -4.86960        17.64587        -5.18181
| 53>    C       -4.97803        16.40253        -4.65172
| 54>    C       -5.54584        18.09361        -6.32282
| 55>    N       -6.10981        18.41480        -7.27025
| 56>    C       -3.46958        19.69433        -4.60475
| 57>    C       -3.96656        20.61323        -5.56932
| 58>    C       -3.25628        21.79425        -5.47967
| 59>    C       -2.26125        21.63678        -4.43023
| 60>    C       -2.38945        20.39759        -3.88793
| 61>    C       -1.59416        19.88979        -2.85524
| 62>    N       -0.91829        19.50252        -2.01075
| 63>    C       -3.43892        22.97028        -6.25529
| 64>    C       -4.46804        23.25098        -7.12482
| 65>    C       -4.26026        24.54331        -7.70156
| 66>    C       -2.99336        25.04356        -7.12541
| 67>    C       -2.52839        24.11011        -6.25880
| 68>    C       -2.36246        26.26389        -7.39308
| 69>    N       -1.81057        27.25422        -7.57799
| 70>    C       -5.06322        25.20088        -8.59138
| 71>    C       -4.82039        26.48426        -9.21790
| 72>    C       -5.85157        26.76354       -10.04627
| 73>    C       -6.81434        25.68669        -9.98425
| 74>    C       -6.35772        24.73962        -9.11813
| 75>    C       -7.03775        23.56823        -8.77178
| 76>    N       -7.63214        22.62358        -8.49885
| 77>    H       -8.39846         0.78619        -6.23734
| 78>    H       -7.75352         4.18669        -7.69037
| 79>    H       -8.68658         2.70247        -8.01802
| 80>    H       -5.63172         2.94612        -8.00337
| 81>    H       -6.64441         2.78918        -9.44182
| 82>    H       -6.52095         1.44706        -8.29800
| 83>    H       -7.84718         0.58303        -0.59959
| 84>    H       -7.36982         2.21095        -0.07466
| 85>    H       -5.54404        -0.07102        -1.01363
| 86>    H       -5.65678         0.55429         0.63301
| 87>    H       -4.94077         1.54493        -0.64857
| 88>    H       -6.27472         5.00053        -2.77655
| 89>    H       -5.77400         3.57811        -0.10142
| 90>    H       -4.58363         5.10995         1.59225
| 91>    H       -4.58292         9.72909        -1.33321
| 92>    H       -3.20784         9.82486         1.40879
| 93>    H       -2.18993        12.14213         1.92941
| 94>    H       -2.74143        15.89332        -1.16515
| 95>    H       -4.55385        14.27144        -3.04072
| 96>    H       -2.73521        17.77145        -2.59757
| 97>    H       -5.60370        15.60623        -5.01136
| 98>    H       -4.76705        20.41025        -6.25280
| 99>    H       -1.55407        22.38552        -4.12577
|100>    H       -5.30440        22.61692        -7.34281
|101>    H       -1.62625        24.18330        -5.68027
|102>    H       -3.95004        27.08547        -9.04464
|103>    H       -5.96577        27.63668       -10.66129
|104>    H       -7.73752        25.65218       -10.53320
|105> *
|106>
|107>                          ****END OF INPUT****

CARTESIAN COORDINATES (ANGSTROEM)
---------------------------------
  C     -7.986160    1.585140   -5.648790
  N     -7.664200    2.776490   -6.214390
  C     -7.748000    3.095830   -7.617540
  C     -6.558890    2.530450   -8.390360
  C     -7.135310    3.678600   -5.256490
  O     -6.777260    4.806960   -5.523680
  C     -7.172560    2.927300   -4.025930
  C     -7.707540    1.634080   -4.309680
  C     -7.746620    0.897840   -3.064000
  O     -8.127540   -0.215270   -2.782710
  N     -7.218940    1.798390   -2.107510
  C     -7.107460    1.378850   -0.732130
  C     -5.720100    0.821340   -0.418420
  C     -6.869520    3.004610   -2.673870
  C     -6.313700    4.169990   -2.079820
  C     -5.816470    4.367540   -0.835630
  C     -5.282980    5.608690   -0.396220
  S     -5.296050    7.047840   -1.378210
  C     -4.508440    7.978060   -0.140380
  C     -4.254240    7.181300    0.980970
  C     -4.696290    5.858130    0.827130
  C     -3.631530    7.612340    2.163870
  N     -3.128950    7.912770    3.151160
  C     -4.234650    9.345990   -0.381420
  C     -3.582270   10.185660    0.461520
  C     -3.333510   11.552120    0.188310
  S     -3.907690   12.348540   -1.254020
  C     -3.190530   13.859940   -0.776650
  C     -2.538510   13.719210    0.455390
  C     -2.627440   12.429610    0.989820
  C     -1.875560   14.783820    1.092140
  N     -1.334600   15.644650    1.621810
  C     -3.279130   15.035780   -1.547900
  C     -4.000250   15.138600   -2.699170
  C     -4.102890   16.305700   -3.489310
  C     -3.451590   17.517520   -3.353070
  C     -3.883810   18.398920   -4.377400
  C     -4.869600   17.645870   -5.181810
  C     -4.978030   16.402530   -4.651720
  C     -5.545840   18.093610   -6.322820
  N     -6.109810   18.414800   -7.270250
  C     -3.469580   19.694330   -4.604750
  C     -3.966560   20.613230   -5.569320
  C     -3.256280   21.794250   -5.479670
  C     -2.261250   21.636780   -4.430230
  C     -2.389450   20.397590   -3.887930
  C     -1.594160   19.889790   -2.855240
  N     -0.918290   19.502520   -2.010750
  C     -3.438920   22.970280   -6.255290
  C     -4.468040   23.250980   -7.124820
  C     -4.260260   24.543310   -7.701560
  C     -2.993360   25.043560   -7.125410
  C     -2.528390   24.110110   -6.258800
  C     -2.362460   26.263890   -7.393080
  N     -1.810570   27.254220   -7.577990
  C     -5.063220   25.200880   -8.591380
  C     -4.820390   26.484260   -9.217900
  C     -5.851570   26.763540  -10.046270
  C     -6.814340   25.686690   -9.984250
  C     -6.357720   24.739620   -9.118130
  C     -7.037750   23.568230   -8.771780
  N     -7.632140   22.623580   -8.498850
  H     -8.398460    0.786190   -6.237340
  H     -7.753520    4.186690   -7.690370
  H     -8.686580    2.702470   -8.018020
  H     -5.631720    2.946120   -8.003370
  H     -6.644410    2.789180   -9.441820
  H     -6.520950    1.447060   -8.298000
  H     -7.847180    0.583030   -0.599590
  H     -7.369820    2.210950   -0.074660
  H     -5.544040   -0.071020   -1.013630
  H     -5.656780    0.554290    0.633010
  H     -4.940770    1.544930   -0.648570
  H     -6.274720    5.000530   -2.776550
  H     -5.774000    3.578110   -0.101420
  H     -4.583630    5.109950    1.592250
  H     -4.582920    9.729090   -1.333210
  H     -3.207840    9.824860    1.408790
  H     -2.189930   12.142130    1.929410
  H     -2.741430   15.893320   -1.165150
  H     -4.553850   14.271440   -3.040720
  H     -2.735210   17.771450   -2.597570
  H     -5.603700   15.606230   -5.011360
  H     -4.767050   20.410250   -6.252800
  H     -1.554070   22.385520   -4.125770
  H     -5.304400   22.616920   -7.342810
  H     -1.626250   24.183300   -5.680270
  H     -3.950040   27.085470   -9.044640
  H     -5.965770   27.636680  -10.661290
  H     -7.737520   25.652180  -10.533200

 Total Charge           Charge          ....    0
 Multiplicity           Mult            ....    1
 Number of Electrons    NEL             ....  432
 Basis Dimension        Dim             .... 1016

ORBITAL ENERGIES
----------------

  NO   OCC          E(Eh)            E(eV)
   0   2.0000     -88.987522     -2421.4736
   1   2.0000     -88.986034     -2421.4331
   2   2.0000     -19.194371      -522.3054
   3   2.0000     -19.189741      -522.1794
   4   2.0000     -14.457775      -393.4161
   5   2.0000     -14.455775      -393.3616
   6   2.0000     -14.420115      -392.3913
   7   2.0000     -14.414739      -392.2450
   8   2.0000     -14.413755      -392.2182
   9   2.0000     -14.411782      -392.1645
  10   2.0000     -14.411443      -392.1553
  11   2.0000     -14.406125      -392.0106
  12   2.0000     -10.376936      -282.3708
  13   2.0000     -10.375995      -282.3452
  14   2.0000     -10.346010      -281.5292
  15   2.0000     -10.343787      -281.4688
  16   2.0000     -10.342497      -281.4336
  17   2.0000     -10.337147      -281.2881
  18   2.0000     -10.334390      -281.2131
  19   2.0000     -10.331477      -281.1338
  20   2.0000     -10.330925      -281.1188
  21   2.0000     -10.330298      -281.1017
  22   2.0000     -10.329804      -281.0883
  23   2.0000     -10.329178      -281.0712
  24   2.0000     -10.327921      -281.0370
  25   2.0000     -10.327722      -281.0316
  26   2.0000     -10.323310      -280.9116
  27   2.0000     -10.322831      -280.8985
  28   2.0000     -10.321097      -280.8513
  29   2.0000     -10.320068      -280.8233
  30   2.0000     -10.317317      -280.7485
  31   2.0000     -10.315642      -280.7029
  32   2.0000     -10.315388      -280.6960
  33   2.0000     -10.315234      -280.6918
  34   2.0000     -10.314279      -280.6658
  35   2.0000     -10.314008      -280.6584
  36   2.0000     -10.313839      -280.6538
  37   2.0000     -10.313703      -280.6501
  38   2.0000     -10.313478      -280.6440
  39   2.0000     -10.313464      -280.6436
  40   2.0000     -10.313245      -280.6377
  41   2.0000     -10.313042      -280.6321
  42   2.0000     -10.312456      -280.6162
  43   2.0000     -10.312269      -280.6111
  44   2.0000     -10.312191      -280.6090
  45   2.0000     -10.311893      -280.6009
  46   2.0000     -10.310552      -280.5644
  47   2.0000     -10.310249      -280.5562
  48   2.0000     -10.309840      -280.5450
  49   2.0000     -10.309827      -280.5447
  50   2.0000     -10.309037      -280.5231
  51   2.0000     -10.308138      -280.4987
  52   2.0000     -10.303625      -280.3759
  53   2.0000     -10.295764      -280.1620
  54   2.0000     -10.293649      -280.1044
  55   2.0000     -10.292287      -280.0674
  56   2.0000     -10.289687      -279.9966
  57   2.0000     -10.289228      -279.9841
  58   2.0000     -10.268493      -279.4199
  59   2.0000     -10.268282      -279.4142
  60   2.0000     -10.264394      -279.3084
  61   2.0000     -10.262888      -279.2674
  62   2.0000      -8.082836      -219.9452
  63   2.0000      -8.081468      -219.9079
  64   2.0000      -6.051952      -164.6820
  65   2.0000      -6.050585      -164.6448
  66   2.0000      -6.048085      -164.5768
  67   2.0000      -6.046604      -164.5364
  68   2.0000      -6.045033      -164.4937
  69   2.0000      -6.043720      -164.4580
  70   2.0000      -1.135180       -30.8898
  71   2.0000      -1.128460       -30.7070
  72   2.0000      -1.066058       -29.0089
  73   2.0000      -1.056782       -28.7565
  74   2.0000      -1.026076       -27.9209
  75   2.0000      -1.024038       -27.8655
  76   2.0000      -1.022676       -27.8284
  77   2.0000      -1.018239       -27.7077
  78   2.0000      -1.005047       -27.3487
  79   2.0000      -1.001120       -27.2419
  80   2.0000      -0.999130       -27.1877
  81   2.0000      -0.993889       -27.0451
  82   2.0000      -0.991342       -26.9758
  83   2.0000      -0.988728       -26.9046
  84   2.0000      -0.983588       -26.7648
  85   2.0000      -0.977885       -26.6096
  86   2.0000      -0.943139       -25.6641
  87   2.0000      -0.932076       -25.3631
  88   2.0000      -0.927609       -25.2415
  89   2.0000      -0.912206       -24.8224
  90   2.0000      -0.893575       -24.3154
  91   2.0000      -0.883029       -24.0284
  92   2.0000      -0.879899       -23.9433
  93   2.0000      -0.874838       -23.8055
  94   2.0000      -0.871813       -23.7232
  95   2.0000      -0.867424       -23.6038
  96   2.0000      -0.860635       -23.4191
  97   2.0000      -0.848976       -23.1018
  98   2.0000      -0.846183       -23.0258
  99   2.0000      -0.837903       -22.8005
 100   2.0000      -0.825540       -22.4641
 101   2.0000      -0.824384       -22.4326
 102   2.0000      -0.810333       -22.0503
 103   2.0000      -0.799448       -21.7541
 104   2.0000      -0.782640       -21.2967
 105   2.0000      -0.774222       -21.0676
 106   2.0000      -0.764886       -20.8136
 107   2.0000      -0.758965       -20.6525
 108   2.0000      -0.741500       -20.1772
 109   2.0000      -0.734765       -19.9940
 110   2.0000      -0.721728       -19.6392
 111   2.0000      -0.717351       -19.5201
 112   2.0000      -0.713244       -19.4084
 113   2.0000      -0.709815       -19.3151
 114   2.0000      -0.697534       -18.9809
 115   2.0000      -0.694214       -18.8905
 116   2.0000      -0.687702       -18.7133
 117   2.0000      -0.685730       -18.6597
 118   2.0000      -0.681603       -18.5474
 119   2.0000      -0.675784       -18.3890
 120   2.0000      -0.673702       -18.3324
 121   2.0000      -0.657075       -17.8799
 122   2.0000      -0.652465       -17.7545
 123   2.0000      -0.648191       -17.6382
 124   2.0000      -0.645194       -17.5566
 125   2.0000      -0.637614       -17.3504
 126   2.0000      -0.632450       -17.2098
 127   2.0000      -0.618730       -16.8365
 128   2.0000      -0.609584       -16.5876
 129   2.0000      -0.607634       -16.5346
 130   2.0000      -0.592696       -16.1281
 131   2.0000      -0.588726       -16.0201
 132   2.0000      -0.586953       -15.9718
 133   2.0000      -0.582021       -15.8376
 134   2.0000      -0.565092       -15.3769
 135   2.0000      -0.561232       -15.2719
 136   2.0000      -0.558553       -15.1990
 137   2.0000      -0.551478       -15.0065
 138   2.0000      -0.550641       -14.9837
 139   2.0000      -0.549169       -14.9437
 140   2.0000      -0.546313       -14.8659
 141   2.0000      -0.540826       -14.7166
 142   2.0000      -0.537175       -14.6173
 143   2.0000      -0.534812       -14.5530
 144   2.0000      -0.532189       -14.4816
 145   2.0000      -0.530900       -14.4465
 146   2.0000      -0.527700       -14.3594
 147   2.0000      -0.524871       -14.2825
 148   2.0000      -0.523424       -14.2431
 149   2.0000      -0.522266       -14.2116
 150   2.0000      -0.521917       -14.2021
 151   2.0000      -0.519715       -14.1422
 152   2.0000      -0.517038       -14.0693
 153   2.0000      -0.512780       -13.9534
 154   2.0000      -0.511556       -13.9201
 155   2.0000      -0.510609       -13.8944
 156   2.0000      -0.504896       -13.7389
 157   2.0000      -0.503250       -13.6941
 158   2.0000      -0.501896       -13.6573
 159   2.0000      -0.497148       -13.5281
 160   2.0000      -0.495985       -13.4964
 161   2.0000      -0.494437       -13.4543
 162   2.0000      -0.492667       -13.4062
 163   2.0000      -0.485256       -13.2045
 164   2.0000      -0.483958       -13.1692
 165   2.0000      -0.482702       -13.1350
 166   2.0000      -0.480952       -13.0874
 167   2.0000      -0.477861       -13.0032
 168   2.0000      -0.475645       -12.9430
 169   2.0000      -0.468150       -12.7390
 170   2.0000      -0.467387       -12.7182
 171   2.0000      -0.462817       -12.5939
 172   2.0000      -0.461916       -12.5694
 173   2.0000      -0.460842       -12.5401
 174   2.0000      -0.459684       -12.5086
 175   2.0000      -0.455868       -12.4048
 176   2.0000      -0.454321       -12.3627
 177   2.0000      -0.450335       -12.2543
 178   2.0000      -0.448625       -12.2077
 179   2.0000      -0.446439       -12.1482
 180   2.0000      -0.445931       -12.1344
 181   2.0000      -0.442846       -12.0504
 182   2.0000      -0.442257       -12.0344
 183   2.0000      -0.440586       -11.9890
 184   2.0000      -0.439618       -11.9626
 185   2.0000      -0.438535       -11.9331
 186   2.0000      -0.436564       -11.8795
 187   2.0000      -0.435404       -11.8479
 188   2.0000      -0.435274       -11.8444
 189   2.0000      -0.431344       -11.7375
 190   2.0000      -0.429617       -11.6905
 191   2.0000      -0.425969       -11.5912
 192   2.0000      -0.420229       -11.4350
 193   2.0000      -0.419368       -11.4116
 194   2.0000      -0.418490       -11.3877
 195   2.0000      -0.418255       -11.3813
 196   2.0000      -0.413881       -11.2623
 197   2.0000      -0.408935       -11.1277
 198   2.0000      -0.404140       -10.9972
 199   2.0000      -0.400970       -10.9110
 200   2.0000      -0.398340       -10.8394
 201   2.0000      -0.376364       -10.2414
 202   2.0000      -0.358917        -9.7666
 203   2.0000      -0.349743        -9.5170
 204   2.0000      -0.348591        -9.4857
 205   2.0000      -0.347514        -9.4563
 206   2.0000      -0.338490        -9.2108
 207   2.0000      -0.333126        -9.0648
 208   2.0000      -0.330756        -9.0003
 209   2.0000      -0.327402        -8.9091
 210   2.0000      -0.317767        -8.6469
 211   2.0000      -0.310521        -8.4497
 212   2.0000      -0.303557        -8.2602
 213   2.0000      -0.287611        -7.8263
 214   2.0000      -0.265407        -7.2221
 215   2.0000      -0.246137        -6.6977
 216   0.0000      -0.143244        -3.8979
 217   0.0000      -0.110241        -2.9998
 218   0.0000      -0.092284        -2.5112
 219   0.0000      -0.064977        -1.7681
 220   0.0000      -0.035247        -0.9591

MULLIKEN ATOMIC CHARGES
-----------------------
   0 C :    0.049992
   1 N :   -0.265556
   2 C :    0.110795
   3 C :   -0.003114
   4 C :    0.157687
   5 O :   -0.193852
   6 C :   -0.076036
   7 C :    0.004942
   8 C :    0.161893
   9 O :   -0.185236
  10 N :   -0.276353
  11 C :    0.098192
  12 C :    0.003663
  13 C :    0.133382
  14 C :   -0.051946
  15 C :    0.038753
  16 C :   -0.042634
  17 S :    0.159896
  18 C :   -0.054570
  19 C :   -0.066787
  20 C :    0.009024
  21 C :   -0.169919
  22 N :    0.115483
  23 C :    0.034536
  24 C :    0.015157
  25 C :   -0.032649
  26 S :    0.125764
  27 C :   -0.035066
  28 C :   -0.041952
  29 C :    0.018081
  30 C :   -0.191531
  31 N :    0.149545
  32 C :    0.010058
  33 C :   -0.014195
  34 C :    0.121056
  35 C :   -0.118017
  36 C :    0.115120
  37 C :   -0.087513
  38 C :   -0.003700
  39 C :   -0.179922
  40 N :    0.150296
  41 C :    0.113138
  42 C :   -0.120191
  43 C :    0.109090
  44 C :   -0.021162
  45 C :   -0.086707
  46 C :   -0.177647
  47 N :    0.140724
  48 C :    0.109147
  49 C :   -0.113300
  50 C :    0.117512
  51 C :   -0.081753
  52 C :   -0.016688
  53 C :   -0.183218
  54 N :    0.143796
  55 C :    0.066524
  56 C :   -0.011002
  57 C :    0.042698
  58 C :    0.021061
  59 C :   -0.108216
  60 C :   -0.176648
  61 N :    0.140562
  62 H :    0.017935
  63 H :    0.042349
  64 H :    0.019086
  65 H :    0.031834
  66 H :    0.025109
  67 H :    0.016327
  68 H :    0.043720
  69 H :    0.021410
  70 H :    0.033178
  71 H :    0.021589
  72 H :    0.016955
  73 H :    0.016604
  74 H :   -0.008498
  75 H :   -0.000316
  76 H :   -0.002972
  77 H :    0.014528
  78 H :    0.011321
  79 H :    0.033195
  80 H :   -0.008018
  81 H :    0.006621
  82 H :    0.000076
  83 H :    0.013353
  84 H :   -0.001965
  85 H :    0.014869
  86 H :    0.000412
  87 H :    0.012152
  88 H :    0.003482
  89 H :    0.005178
Sum of atomic charges:   -0.0000000

LOEWDIN ATOMIC CHARGES
----------------------
   0 C :    0.099439
   1 N :   -0.002245
   2 C :    0.038497
   3 C :   -0.060785
   4 C :    0.076750
   5 O :   -0.197823
   6 C :   -0.120018
   7 C :   -0.133983
   8 C :    0.083433
   9 O :   -0.189179
  10 N :   -0.011447
  11 C :    0.033942
  12 C :   -0.063908
  13 C :    0.074980
  14 C :   -0.035298
  15 C :   -0.020385
  16 C :   -0.166315
  17 S :    0.475956
  18 C :   -0.133250
  19 C :   -0.108478
  20 C :   -0.017026
  21 C :   -0.028075
  22 N :   -0.056669
  23 C :   -0.049983
  24 C :   -0.013690
  25 C :   -0.153595
  26 S :    0.454346
  27 C :   -0.135936
  28 C :   -0.091904
  29 C :   -0.014594
  30 C :   -0.035897
  31 N :   -0.037307
  32 C :   -0.001664
  33 C :   -0.020773
  34 C :   -0.009880
  35 C :   -0.027716
  36 C :    0.046872
  37 C :   -0.075153
  38 C :    0.053269
  39 C :   -0.035383
  40 N :   -0.049483
  41 C :    0.032880
  42 C :   -0.005693
  43 C :   -0.016729
  44 C :    0.045786
  45 C :   -0.078772
  46 C :   -0.032888
  47 N :   -0.057507
  48 C :   -0.012888
  49 C :   -0.001704
  50 C :    0.038976
  51 C :   -0.076237
  52 C :    0.052367
  53 C :   -0.032079
  54 N :   -0.057653
  55 C :    0.046397
  56 C :   -0.015159
  57 C :   -0.004042
  58 C :    0.051553
  59 C :   -0.092744
  60 C :   -0.034990
  61 N :   -0.058132
  62 H :    0.034095
  63 H :    0.036569
  64 H :    0.025301
  65 H :    0.032000
  66 H :    0.030699
  67 H :    0.022973
  68 H :    0.038125
  69 H :    0.020992
  70 H :    0.034853
  71 H :    0.030011
  72 H :    0.019985
  73 H :    0.039272
  74 H :    0.037246
  75 H :    0.041246
  76 H :    0.025683
  77 H :    0.046720
  78 H :    0.046251
  79 H :    0.050046
  80 H :    0.026043
  81 H :    0.034497
  82 H :    0.037990
  83 H :    0.038356
  84 H :    0.035675
  85 H :    0.039109
  86 H :    0.036629
  87 H :    0.037455
  88 H :    0.033314
  89 H :    0.038484

  Mayer bond orders larger than 0.100000
B(  0-C ,  1-N ) :   1.2025 B(  0-C ,  7-C ) :   1.4459 B(  0-C , 62-H ) :   0.9892
B(  1-N ,  2-C ) :   0.9416 B(  1-N ,  4-C ) :   1.0282 B(  2-C ,  3-C ) :   1.1180
B(  2-C , 63-H ) :   0.9352 B(  2-C , 64-H ) :   0.9539 B(  3-C , 65-H ) :   0.9678
B(  3-C , 66-H ) :   0.9692 B(  3-C , 67-H ) :   0.9688 B(  4-C ,  5-O ) :   2.1238
B(  4-C ,  6-C ) :   0.9926 B(  6-C ,  7-C ) :   1.1955 B(  6-C , 13-C ) :   1.3852
B(  7-C ,  8-C ) :   0.9551 B(  8-C ,  9-O ) :   2.1687 B(  8-C , 10-N ) :   1.0152
B( 10-N , 11-C ) :   0.9462 B( 10-N , 13-C ) :   1.1630 B( 11-C , 12-C ) :   1.1155
B( 11-C , 68-H ) :   0.9256 B( 11-C , 69-H ) :   0.9511 B( 12-C , 70-H ) :   0.9607
B( 12-C , 71-H ) :   0.9688 B( 12-C , 72-H ) :   0.9671 B( 13-C , 14-C ) :   1.1882
B( 14-C , 15-C ) :   1.5834 B( 14-C , 73-H ) :   0.9438 B( 15-C , 16-C ) :   1.1544
B( 15-C , 74-H ) :   0.9778 B( 16-C , 17-S ) :   1.1071 B( 16-C , 20-C ) :   1.4555
B( 17-S , 18-C ) :   1.1421 B( 18-C , 19-C ) :   1.4417 B( 18-C , 23-C ) :   1.1727
B( 19-C , 20-C ) :   1.2854 B( 19-C , 21-C ) :   1.1136 B( 20-C , 75-H ) :   1.0089
B( 21-C , 22-N ) :   2.9637 B( 23-C , 24-C ) :   1.6387 B( 23-C , 76-H ) :   0.9421
B( 24-C , 25-C ) :   1.1770 B( 24-C , 77-H ) :   0.9621 B( 25-C , 26-S ) :   1.1041
B( 25-C , 29-C ) :   1.4498 B( 26-S , 27-C ) :   1.1147 B( 27-C , 28-C ) :   1.4247
B( 27-C , 32-C ) :   1.2124 B( 28-C , 29-C ) :   1.2802 B( 28-C , 30-C ) :   1.1006
B( 29-C , 78-H ) :   1.0113 B( 30-C , 31-N ) :   3.0234 B( 32-C , 33-C ) :   1.5940
B( 32-C , 79-H ) :   0.9647 B( 33-C , 34-C ) :   1.1312 B( 33-C , 80-H ) :   0.9731
B( 34-C , 35-C ) :   1.5235 B( 34-C , 38-C ) :   1.0219 B( 35-C , 36-C ) :   1.1470
B( 35-C , 81-H ) :   0.9971 B( 36-C , 37-C ) :   1.0972 B( 36-C , 41-C ) :   1.3787
B( 37-C , 38-C ) :   1.6843 B( 37-C , 39-C ) :   1.0845 B( 38-C , 82-H ) :   1.0245
B( 39-C , 40-N ) :   2.9776 B( 41-C , 42-C ) :   1.1188 B( 41-C , 45-C ) :   1.1119
B( 42-C , 43-C ) :   1.5528 B( 42-C , 83-H ) :   1.0058 B( 43-C , 44-C ) :   1.0593
B( 43-C , 48-C ) :   1.0053 B( 44-C , 45-C ) :   1.6631 B( 44-C , 84-H ) :   1.0179
B( 45-C , 46-C ) :   1.0821 B( 46-C , 47-N ) :   2.9697 B( 48-C , 49-C ) :   1.5787
B( 48-C , 52-C ) :   1.0474 B( 49-C , 50-C ) :   1.0919 B( 49-C , 85-H ) :   1.0036
B( 50-C , 51-C ) :   1.0939 B( 50-C , 55-C ) :   1.4686 B( 51-C , 52-C ) :   1.6830
B( 51-C , 53-C ) :   1.0828 B( 52-C , 86-H ) :   1.0180 B( 53-C , 54-N ) :   2.9765
B( 55-C , 56-C ) :   1.0848 B( 55-C , 59-C ) :   1.1074 B( 56-C , 57-C ) :   1.6605
B( 56-C , 87-H ) :   0.9973 B( 57-C , 58-C ) :   1.0608 B( 57-C , 88-H ) :   1.0031
B( 58-C , 59-C ) :   1.6674 B( 58-C , 89-H ) :   1.0146 B( 59-C , 60-C ) :   1.1048
B( 60-C , 61-N ) :   2.9728

-----------------------------------------------------------------------------
         ABSORPTION SPECTRUM VIA TRANSITION ELECTRIC DIPOLE MOMENTS
-----------------------------------------------------------------------------
State   Energy  Wavelength   fosc         T2         TX        TY        TZ
        (cm-1)    (nm)                  (au**2)     (au)      (au)      (au)
-----------------------------------------------------------------------------
   0   11081.5    902.4   0.966178920  28.70336   0.22304   5.01029  -1.88431
   1   14805.7    675.4   0.037139228   0.82581   0.50392   0.36967   0.65971
   2   16229.8    616.2   0.061536303   1.24823  -0.31232  -0.83442  -0.67411
   3   17947.0    557.2   0.110526768   2.02745   1.03436   0.64395   0.73681
   4   18622.2    537.0   0.020706505   0.36606   0.31589   0.24167   0.45593
   5   19277.0    518.8   0.563664584   9.62624  -0.85422  -2.67009  -1.32935
   6   20778.8    481.3   0.449269381   7.11808  -0.19086   2.02166  -1.73048
   7   22588.1    442.7   0.028112071   0.40972  -0.01029   0.19559  -0.60939
   8   23450.0    426.4   0.215685616   3.02798   0.26734   1.64197  -0.51033
   9   23945.9    417.6   0.320440558   4.40547  -0.00298  -1.80220   1.07589
  10   25465.1    392.7   0.499506542   6.45760   0.54950  -1.44509   2.01677
  11   25981.7    384.9   0.089148892   1.12960  -0.40964   0.79885  -0.56888
  12   26835.0    372.6   0.110239158   1.35242  -0.28382   0.24057  -1.10181
  13   28076.4    356.2   0.006034115   0.07075  -0.13461  -0.19700   0.11759
  14   28169.5    355.0   0.010963826   0.12813  -0.09038   0.00602  -0.34630
  15   28849.3    346.6   0.101881748   1.16262   0.55468  -0.78832   0.48321
  16   29689.9    336.8   0.201690701   2.23641  -0.76940  -0.93987  -0.87240
  17   29936.7    334.0   0.042303534   0.46521   0.33910   0.31894   0.49850
  18   30005.9    333.3   0.088575260   0.97181   0.02202   0.94218  -0.28919
  19   30659.1    326.2   0.014652006   0.15733   0.26541   0.11744   0.27037
  20   31343.5    319.0   0.032926821   0.34584  -0.41739  -0.11858  -0.39695
  21   31910.8    313.4   0.000547146   0.00564  -0.01729  -0.06350   0.03624
  22   32408.2    308.6   0.004262745   0.04330   0.10680   0.01781   0.17771
  23   33029.7    302.8   0.014991697   0.14942  -0.13278  -0.36277  -0.01372
  24   33412.2    299.3   0.024135199   0.23781  -0.30359  -0.29533  -0.24171
  25   33891.5    295.1   0.003779971   0.03672  -0.10103  -0.13065  -0.09717
  26   34092.6    293.3   0.060839064   0.58749   0.39160   0.50124   0.42766
  27   34335.6    291.2   0.103575584   0.99309   0.88279  -0.04879   0.45977
  28   35017.6    285.6   0.004349127   0.04089  -0.09299  -0.01524  -0.17891
  29   35202.4    284.1   0.165875189   1.55126   0.82287   0.12331   0.92679
  30   35358.6    282.8   0.117340244   1.09252  -0.67515  -0.00336  -0.79792
  31   35923.3    278.4   0.147375436   1.35059   0.42584   1.07566  -0.11051
  32   35999.2    277.8   0.001934693   0.01769  -0.05494  -0.12108  -0.00378
  33   37052.6    269.9   0.031094984   0.27628  -0.37417  -0.33246   0.16044
  34   37798.9    264.6   0.139491977   1.21492   0.81561  -0.09700   0.73504
  35   38458.5    260.0   0.111060896   0.95070  -0.78085  -0.14696  -0.56513
  36   38683.0    258.5   0.007255435   0.06175   0.20816   0.10202   0.08950
  37   38956.6    256.7   0.032525936   0.27487   0.07591  -0.45619   0.24697
  38   39333.8    254.2   0.013927329   0.11657   0.21014   0.26577   0.04213
  39   39521.7    253.0   0.031887790   0.26562   0.15801  -0.08569   0.48303
  40   39690.9    251.9   0.004629102   0.03840  -0.12311   0.14026   0.05971
  41   39940.2    250.4   0.026815652   0.22103   0.19581  -0.10176   0.41513

FINAL SINGLE POINT ENERGY     -3303.360951182251

DIPOLE MOMENT
-------------
                                X             Y             Z
Electronic contribution:     12.22957      66.72705       8.90778
Nuclear contribution   :    -13.41240     -68.85839     -10.33336
                        -----------------------------------------
Total Dipole Moment    :     -1.18283      -2.13133      -1.42559
                        -----------------------------------------
Magnitude (a.u.)       :      2.82382
Magnitude (Debye)      :      7.17758

Rotational constants in cm-1:     0.001855     0.000256     0.000228
Rotational constants in MHz :    55.604831     7.687249     6.848237

                             ****ORCA TERMINATED NORMALLY****
TOTAL RUN TIME: 0 days 0 hours 7 minutes 3 seconds 835 msec
