                         Program Version 4.2.0 -  RELEASE  -
|  1> # ORCA input file
|  2> # SCF done       -172.719451174037          0.000711800000
|  3> ! CAM-B3LYP def2-SVP def2/J RIJCOSX Grid4 TightSCF
|  4> %maxcore 5000
|  5> %tddft
|  6>     Mode sTDDFT
|  7>     Ethresh 5.0
|  8>     maxcore 5000
|  9> end
| 10>
| 11> %pal
| 12>   nprocs 6
| 13>   end
| 14> * xyz 0 1
| 15>    C       -2.88859         1.21645         1.68995
| 16>    C       -2.98849         0.44884         2.82132
| 17>    C       -1.90846        -0.23818         3.41195
| 18>    N       -1.06694        -0.82001         3.93212
| 19>    C       -4.19006         0.24619         3.53008
| 20>    N       -5.14849         0.05676         4.13297
| 21>    C       -1.67237         1.44679         0.91496
| 22>    C       -1.98146         2.27829        -0.19358
| 23>    C       -1.03723         2.67397        -1.11046
| 24>    C        0.27599         2.22936        -0.92724
| 25>    C        0.57589         1.40027         0.18047
| 26>    C       -0.37961         1.00016         1.10801
| 27>    S        2.25648         0.96704         0.21685
| 28>    C        2.53192         1.89148        -1.23607
| 29>    C        1.42187         2.49506        -1.72484
| 30>   Br        4.25538         1.97131        -1.97019
| 31>    C       -3.40941         2.60418        -0.15562
| 32>    O       -4.04054         3.29527        -0.95298
| 33>    C       -3.95339         1.93964         1.03224
| 34>    C       -5.27836         2.05923         1.37621
| 35>    N       -6.09593         2.79018         0.60954
| 36>    C       -7.41772         3.02860         0.78743
| 37>    S       -8.29466         2.38203         2.13772
| 38>    C       -9.72781         3.15546         1.54253
| 39>    N      -10.91468         2.99191         2.27082
| 40>    O      -11.91639         3.53266         1.84095
| 41>    O      -10.85003         2.31474         3.28058
| 42>    C       -9.53641         3.86103         0.38553
| 43>    C       -8.20678         3.80396        -0.07516
| 44>    C       -7.69581         4.43051        -1.26475
| 45>    C       -8.40718         5.18658        -2.12249
| 46>    C       -7.80531         5.75440        -3.29367
| 47>    C       -8.40850         6.51575        -4.21971
| 48>    C       -9.84980         6.91637        -4.20198
| 49>    C       -7.62185         7.02593        -5.39668
| 50>    N       -8.05657         6.35223        -6.60401
| 51>    C       -7.71398         6.74506        -7.83880
| 52>    C       -8.00764         6.03339        -8.96716
| 53>    C       -7.66913         6.37296       -10.28703
| 54>    C       -6.91827         7.41722       -10.77519
| 55>    C       -6.62305         7.62509       -12.14344
| 56>    C       -5.82870         8.70319       -12.39994
| 57>    C       -5.44908         9.41838       -11.24553
| 58>    S       -6.13977         8.67932        -9.82566
| 59>    C       -4.64696        10.54583       -11.16297
| 60>    C       -4.02083        11.24173       -12.21291
| 61>    C       -3.28605        12.31733       -11.79833
| 62>    C       -3.30200        12.52453       -10.40426
| 63>    S       -4.27171        11.29993        -9.62608
| 64>    C       -2.64666        13.53145        -9.71425
| 65>    C       -2.73111        13.70284        -8.34234
| 66>    C       -2.11005        14.65583        -7.55550
| 67>    C       -2.66600        14.93189        -6.20945
| 68>    O       -3.50828        14.28333        -5.62287
| 69>    C       -2.00234        16.17174        -5.77347
| 70>    C       -2.05916        17.02459        -4.72240
| 71>    S       -0.94665        18.33049        -4.93208
| 72>    C       -0.39469        17.71045        -6.44825
| 73>    C       -1.04599        16.56208        -6.76721
| 74>    C       -1.03375        15.56713        -7.82988
| 75>    C       -0.03604        15.48460        -8.77696
| 76>    C        0.19235        14.40275        -9.64361
| 77>    N        0.46518        13.53374       -10.34499
| 78>    C        0.95063        16.48241        -8.88262
| 79>    N        1.75335        17.29601        -8.99981
| 80>    H       -1.30179         3.30721        -1.94267
| 81>    H       -0.10060         0.36935         1.93527
| 82>    H        1.41116         3.10330        -2.61071
| 83>    H       -5.70193         1.58543         2.25212
| 84>    H       -5.61744         3.21365        -0.20807
| 85>    H      -10.33760         4.39088        -0.09502
| 86>    H       -6.64798         4.27321        -1.48451
| 87>    H       -9.45220         5.38288        -1.94198
| 88>    H       -6.75185         5.53484        -3.41836
| 89>    H      -10.47370         6.17289        -3.71508
| 90>    H      -10.21252         7.06798        -5.21637
| 91>    H       -9.96537         7.85835        -3.66468
| 92>    H       -6.54830         6.86163        -5.23603
| 93>    H       -7.78572         8.10148        -5.52390
| 94>    H       -8.44885         5.42828        -6.48840
| 95>    H       -7.20536         7.69550        -7.89037
| 96>    H       -8.55298         5.10627        -8.84276
| 97>    H       -8.03369         5.69370       -11.04822
| 98>    H       -7.00470         6.96379       -12.90168
| 99>    H       -5.50585         8.99677       -13.38205
|100>    H       -4.12145        10.93930       -13.23981
|101>    H       -2.72801        12.96290       -12.45249
|102>    H       -2.06903        14.21991       -10.31242
|103>    H       -3.43741        13.07422        -7.80667
|104>    H       -2.67093        16.97883        -3.84404
|105>    H        0.35995        18.24523        -6.98895
|106> *
|107>
|108>                          ****END OF INPUT****

CARTESIAN COORDINATES (ANGSTROEM)
---------------------------------
  C     -2.888590    1.216450    1.689950
  C     -2.988490    0.448840    2.821320
  C     -1.908460   -0.238180    3.411950
  N     -1.066940   -0.820010    3.932120
  C     -4.190060    0.246190    3.530080
  N     -5.148490    0.056760    4.132970
  C     -1.672370    1.446790    0.914960
  C     -1.981460    2.278290   -0.193580
  C     -1.037230    2.673970   -1.110460
  C      0.275990    2.229360   -0.927240
  C      0.575890    1.400270    0.180470
  C     -0.379610    1.000160    1.108010
  S      2.256480    0.967040    0.216850
  C      2.531920    1.891480   -1.236070
  C      1.421870    2.495060   -1.724840
  Br     4.255380    1.971310   -1.970190
  C     -3.409410    2.604180   -0.155620
  O     -4.040540    3.295270   -0.952980
  C     -3.953390    1.939640    1.032240
  C     -5.278360    2.059230    1.376210
  N     -6.095930    2.790180    0.609540
  C     -7.417720    3.028600    0.787430
  S     -8.294660    2.382030    2.137720
  C     -9.727810    3.155460    1.542530
  N    -10.914680    2.991910    2.270820
  O    -11.916390    3.532660    1.840950
  O    -10.850030    2.314740    3.280580
  C     -9.536410    3.861030    0.385530
  C     -8.206780    3.803960   -0.075160
  C     -7.695810    4.430510   -1.264750
  C     -8.407180    5.186580   -2.122490
  C     -7.805310    5.754400   -3.293670
  C     -8.408500    6.515750   -4.219710
  C     -9.849800    6.916370   -4.201980
  C     -7.621850    7.025930   -5.396680
  N     -8.056570    6.352230   -6.604010
  C     -7.713980    6.745060   -7.838800
  C     -8.007640    6.033390   -8.967160
  C     -7.669130    6.372960  -10.287030
  C     -6.918270    7.417220  -10.775190
  C     -6.623050    7.625090  -12.143440
  C     -5.828700    8.703190  -12.399940
  C     -5.449080    9.418380  -11.245530
  S     -6.139770    8.679320   -9.825660
  C     -4.646960   10.545830  -11.162970
  C     -4.020830   11.241730  -12.212910
  C     -3.286050   12.317330  -11.798330
  C     -3.302000   12.524530  -10.404260
  S     -4.271710   11.299930   -9.626080
  C     -2.646660   13.531450   -9.714250
  C     -2.731110   13.702840   -8.342340
  C     -2.110050   14.655830   -7.555500
  C     -2.666000   14.931890   -6.209450
  O     -3.508280   14.283330   -5.622870
  C     -2.002340   16.171740   -5.773470
  C     -2.059160   17.024590   -4.722400
  S     -0.946650   18.330490   -4.932080
  C     -0.394690   17.710450   -6.448250
  C     -1.045990   16.562080   -6.767210
  C     -1.033750   15.567130   -7.829880
  C     -0.036040   15.484600   -8.776960
  C      0.192350   14.402750   -9.643610
  N      0.465180   13.533740  -10.344990
  C      0.950630   16.482410   -8.882620
  N      1.753350   17.296010   -8.999810
  H     -1.301790    3.307210   -1.942670
  H     -0.100600    0.369350    1.935270
  H      1.411160    3.103300   -2.610710
  H     -5.701930    1.585430    2.252120
  H     -5.617440    3.213650   -0.208070
  H    -10.337600    4.390880   -0.095020
  H     -6.647980    4.273210   -1.484510
  H     -9.452200    5.382880   -1.941980
  H     -6.751850    5.534840   -3.418360
  H    -10.473700    6.172890   -3.715080
  H    -10.212520    7.067980   -5.216370
  H     -9.965370    7.858350   -3.664680
  H     -6.548300    6.861630   -5.236030
  H     -7.785720    8.101480   -5.523900
  H     -8.448850    5.428280   -6.488400
  H     -7.205360    7.695500   -7.890370
  H     -8.552980    5.106270   -8.842760
  H     -8.033690    5.693700  -11.048220
  H     -7.004700    6.963790  -12.901680
  H     -5.505850    8.996770  -13.382050
  H     -4.121450   10.939300  -13.239810
  H     -2.728010   12.962900  -12.452490
  H     -2.069030   14.219910  -10.312420
  H     -3.437410   13.074220   -7.806670
  H     -2.670930   16.978830   -3.844040
  H      0.359950   18.245230   -6.988950

 Total Charge           Charge          ....    0
 Multiplicity           Mult            ....    1
 Number of Electrons    NEL             ....  510
 Basis Dimension        Dim             .... 1078

ORBITAL ENERGIES
----------------

  NO   OCC          E(Eh)            E(eV)
   0   2.0000    -482.893162    -13140.1910
   1   2.0000     -89.000975     -2421.8397
   2   2.0000     -88.986020     -2421.4327
   3   2.0000     -88.964320     -2420.8422
   4   2.0000     -88.957671     -2420.6613
   5   2.0000     -88.952984     -2420.5338
   6   2.0000     -62.570896     -1702.6406
   7   2.0000     -56.404864     -1534.8544
   8   2.0000     -56.402114     -1534.7796
   9   2.0000     -56.402086     -1534.7788
  10   2.0000     -19.248968      -523.7910
  11   2.0000     -19.247979      -523.7641
  12   2.0000     -19.245328      -523.6920
  13   2.0000     -19.184218      -522.0291
  14   2.0000     -14.660277      -398.9264
  15   2.0000     -14.506192      -394.7335
  16   2.0000     -14.469923      -393.7466
  17   2.0000     -14.428876      -392.6297
  18   2.0000     -14.423953      -392.4957
  19   2.0000     -14.387605      -391.5066
  20   2.0000     -14.386694      -391.4819
  21   2.0000     -10.391560      -282.7687
  22   2.0000     -10.383732      -282.5557
  23   2.0000     -10.381126      -282.4848
  24   2.0000     -10.368445      -282.1397
  25   2.0000     -10.358370      -281.8656
  26   2.0000     -10.356405      -281.8121
  27   2.0000     -10.352451      -281.7045
  28   2.0000     -10.348859      -281.6068
  29   2.0000     -10.339710      -281.3578
  30   2.0000     -10.337198      -281.2895
  31   2.0000     -10.335859      -281.2530
  32   2.0000     -10.333152      -281.1794
  33   2.0000     -10.331078      -281.1229
  34   2.0000     -10.326867      -281.0083
  35   2.0000     -10.322981      -280.9026
  36   2.0000     -10.321476      -280.8616
  37   2.0000     -10.319117      -280.7974
  38   2.0000     -10.318650      -280.7847
  39   2.0000     -10.318530      -280.7815
  40   2.0000     -10.317820      -280.7622
  41   2.0000     -10.315901      -280.7099
  42   2.0000     -10.314093      -280.6607
  43   2.0000     -10.312233      -280.6101
  44   2.0000     -10.310916      -280.5743
  45   2.0000     -10.310539      -280.5640
  46   2.0000     -10.310480      -280.5624
  47   2.0000     -10.308990      -280.5219
  48   2.0000     -10.308107      -280.4978
  49   2.0000     -10.308096      -280.4975
  50   2.0000     -10.306464      -280.4531
  51   2.0000     -10.306121      -280.4438
  52   2.0000     -10.303208      -280.3645
  53   2.0000     -10.301070      -280.3064
  54   2.0000     -10.298309      -280.2312
  55   2.0000     -10.296441      -280.1804
  56   2.0000     -10.295970      -280.1676
  57   2.0000     -10.294937      -280.1395
  58   2.0000     -10.291875      -280.0561
  59   2.0000     -10.291417      -280.0437
  60   2.0000     -10.291119      -280.0356
  61   2.0000     -10.288735      -279.9707
  62   2.0000     -10.286482      -279.9094
  63   2.0000     -10.282786      -279.8088
  64   2.0000     -10.280077      -279.7351
  65   2.0000     -10.277535      -279.6659
  66   2.0000     -10.265942      -279.3505
  67   2.0000     -10.265880      -279.3488
  68   2.0000     -10.262410      -279.2544
  69   2.0000      -8.800346      -239.4696
  70   2.0000      -8.096226      -220.3095
  71   2.0000      -8.082026      -219.9231
  72   2.0000      -8.060129      -219.3273
  73   2.0000      -8.053519      -219.1474
  74   2.0000      -8.049161      -219.0288
  75   2.0000      -6.636739      -180.5948
  76   2.0000      -6.622038      -180.1948
  77   2.0000      -6.621821      -180.1889
  78   2.0000      -6.065854      -165.0603
  79   2.0000      -6.061490      -164.9415
  80   2.0000      -6.057702      -164.8384
  81   2.0000      -6.051682      -164.6746
  82   2.0000      -6.047410      -164.5584
  83   2.0000      -6.043282      -164.4461
  84   2.0000      -6.029737      -164.0775
  85   2.0000      -6.025763      -163.9694
  86   2.0000      -6.022835      -163.8897
  87   2.0000      -6.021349      -163.8492
  88   2.0000      -6.018698      -163.7771
  89   2.0000      -6.018181      -163.7630
  90   2.0000      -6.016090      -163.7061
  91   2.0000      -6.014757      -163.6699
  92   2.0000      -6.010408      -163.5515
  93   2.0000      -2.752543       -74.9005
  94   2.0000      -2.748495       -74.7903
  95   2.0000      -2.748324       -74.7857
  96   2.0000      -2.736645       -74.4679
  97   2.0000      -2.736614       -74.4671
  98   2.0000      -1.330055       -36.1926
  99   2.0000      -1.159808       -31.5600
 100   2.0000      -1.149311       -31.2743
 101   2.0000      -1.114623       -30.3304
 102   2.0000      -1.098868       -29.9017
 103   2.0000      -1.068712       -29.0811
 104   2.0000      -1.035330       -28.1728
 105   2.0000      -1.024937       -27.8900
 106   2.0000      -1.021270       -27.7902
 107   2.0000      -1.006018       -27.3752
 108   2.0000      -1.005772       -27.3685
 109   2.0000      -1.001796       -27.2603
 110   2.0000      -0.995945       -27.1010
 111   2.0000      -0.982121       -26.7249
 112   2.0000      -0.979746       -26.6603
 113   2.0000      -0.966403       -26.2972
 114   2.0000      -0.953888       -25.9566
 115   2.0000      -0.948904       -25.8210
 116   2.0000      -0.934879       -25.4394
 117   2.0000      -0.930576       -25.3223
 118   2.0000      -0.920575       -25.0501
 119   2.0000      -0.916719       -24.9452
 120   2.0000      -0.907644       -24.6982
 121   2.0000      -0.897919       -24.4336
 122   2.0000      -0.893734       -24.3197
 123   2.0000      -0.890214       -24.2240
 124   2.0000      -0.872630       -23.7455
 125   2.0000      -0.867866       -23.6158
 126   2.0000      -0.862144       -23.4601
 127   2.0000      -0.860293       -23.4098
 128   2.0000      -0.846240       -23.0274
 129   2.0000      -0.841426       -22.8964
 130   2.0000      -0.832183       -22.6449
 131   2.0000      -0.828365       -22.5410
 132   2.0000      -0.816366       -22.2145
 133   2.0000      -0.810875       -22.0650
 134   2.0000      -0.804982       -21.9047
 135   2.0000      -0.797282       -21.6952
 136   2.0000      -0.779759       -21.2183
 137   2.0000      -0.775260       -21.0959
 138   2.0000      -0.762003       -20.7352
 139   2.0000      -0.754996       -20.5445
 140   2.0000      -0.743952       -20.2440
 141   2.0000      -0.734628       -19.9902
 142   2.0000      -0.725915       -19.7532
 143   2.0000      -0.722370       -19.6567
 144   2.0000      -0.704960       -19.1829
 145   2.0000      -0.702938       -19.1279
 146   2.0000      -0.696421       -18.9506
 147   2.0000      -0.687025       -18.6949
 148   2.0000      -0.679764       -18.4973
 149   2.0000      -0.670362       -18.2415
 150   2.0000      -0.666274       -18.1302
 151   2.0000      -0.660526       -17.9738
 152   2.0000      -0.654301       -17.8044
 153   2.0000      -0.648584       -17.6489
 154   2.0000      -0.643935       -17.5224
 155   2.0000      -0.643367       -17.5069
 156   2.0000      -0.641565       -17.4579
 157   2.0000      -0.638853       -17.3841
 158   2.0000      -0.633410       -17.2360
 159   2.0000      -0.631327       -17.1793
 160   2.0000      -0.622752       -16.9459
 161   2.0000      -0.618048       -16.8179
 162   2.0000      -0.615234       -16.7414
 163   2.0000      -0.608600       -16.5609
 164   2.0000      -0.607578       -16.5330
 165   2.0000      -0.605731       -16.4828
 166   2.0000      -0.596638       -16.2353
 167   2.0000      -0.594982       -16.1903
 168   2.0000      -0.590633       -16.0720
 169   2.0000      -0.583541       -15.8790
 170   2.0000      -0.576100       -15.6765
 171   2.0000      -0.574742       -15.6395
 172   2.0000      -0.570409       -15.5216
 173   2.0000      -0.570071       -15.5124
 174   2.0000      -0.561540       -15.2803
 175   2.0000      -0.559230       -15.2174
 176   2.0000      -0.550992       -14.9933
 177   2.0000      -0.549922       -14.9641
 178   2.0000      -0.546444       -14.8695
 179   2.0000      -0.541276       -14.7289
 180   2.0000      -0.538416       -14.6510
 181   2.0000      -0.533297       -14.5118
 182   2.0000      -0.532279       -14.4840
 183   2.0000      -0.530968       -14.4484
 184   2.0000      -0.523384       -14.2420
 185   2.0000      -0.519925       -14.1479
 186   2.0000      -0.519088       -14.1251
 187   2.0000      -0.515736       -14.0339
 188   2.0000      -0.510777       -13.8989
 189   2.0000      -0.510029       -13.8786
 190   2.0000      -0.509262       -13.8577
 191   2.0000      -0.508457       -13.8358
 192   2.0000      -0.506888       -13.7931
 193   2.0000      -0.499678       -13.5969
 194   2.0000      -0.499305       -13.5868
 195   2.0000      -0.496044       -13.4980
 196   2.0000      -0.488105       -13.2820
 197   2.0000      -0.485134       -13.2012
 198   2.0000      -0.481806       -13.1106
 199   2.0000      -0.481366       -13.0986
 200   2.0000      -0.478182       -13.0120
 201   2.0000      -0.476637       -12.9699
 202   2.0000      -0.475146       -12.9294
 203   2.0000      -0.472751       -12.8642
 204   2.0000      -0.470205       -12.7949
 205   2.0000      -0.469392       -12.7728
 206   2.0000      -0.466832       -12.7032
 207   2.0000      -0.465709       -12.6726
 208   2.0000      -0.460784       -12.5386
 209   2.0000      -0.459999       -12.5172
 210   2.0000      -0.455170       -12.3858
 211   2.0000      -0.453786       -12.3481
 212   2.0000      -0.450822       -12.2675
 213   2.0000      -0.450415       -12.2564
 214   2.0000      -0.449673       -12.2362
 215   2.0000      -0.443674       -12.0730
 216   2.0000      -0.441763       -12.0210
 217   2.0000      -0.438367       -11.9286
 218   2.0000      -0.438270       -11.9259
 219   2.0000      -0.437978       -11.9180
 220   2.0000      -0.434548       -11.8246
 221   2.0000      -0.431418       -11.7395
 222   2.0000      -0.424507       -11.5514
 223   2.0000      -0.423681       -11.5289
 224   2.0000      -0.421761       -11.4767
 225   2.0000      -0.420986       -11.4556
 226   2.0000      -0.415670       -11.3110
 227   2.0000      -0.412944       -11.2368
 228   2.0000      -0.406553       -11.0629
 229   2.0000      -0.401250       -10.9186
 230   2.0000      -0.399609       -10.8739
 231   2.0000      -0.396978       -10.8023
 232   2.0000      -0.395668       -10.7667
 233   2.0000      -0.388752       -10.5785
 234   2.0000      -0.388177       -10.5628
 235   2.0000      -0.383820       -10.4443
 236   2.0000      -0.382993       -10.4218
 237   2.0000      -0.382577       -10.4105
 238   2.0000      -0.377410       -10.2698
 239   2.0000      -0.373527       -10.1642
 240   2.0000      -0.368020       -10.0143
 241   2.0000      -0.361814        -9.8455
 242   2.0000      -0.351762        -9.5719
 243   2.0000      -0.348316        -9.4782
 244   2.0000      -0.330996        -9.0068
 245   2.0000      -0.329344        -8.9619
 246   2.0000      -0.323423        -8.8008
 247   2.0000      -0.317339        -8.6352
 248   2.0000      -0.312591        -8.5060
 249   2.0000      -0.310333        -8.4446
 250   2.0000      -0.304421        -8.2837
 251   2.0000      -0.290614        -7.9080
 252   2.0000      -0.277776        -7.5587
 253   2.0000      -0.272264        -7.4087
 254   2.0000      -0.215071        -5.8524
 255   0.0000      -0.098678        -2.6852
 256   0.0000      -0.097091        -2.6420
 257   0.0000      -0.080412        -2.1881
 258   0.0000      -0.055187        -1.5017
 259   0.0000      -0.041502        -1.1293

MULLIKEN ATOMIC CHARGES
-----------------------
   0 C :    0.327388
   1 C :   -0.340172
   2 C :   -0.185891
   3 N :    0.157467
   4 C :   -0.195644
   5 N :    0.144977
   6 C :    0.008122
   7 C :   -0.004820
   8 C :   -0.067801
   9 C :    0.116862
  10 C :   -0.091857
  11 C :   -0.019270
  12 S :    0.195898
  13 C :   -0.124508
  14 C :    0.039926
  15 Br:    0.033338
  16 C :    0.170196
  17 O :   -0.229042
  18 C :   -0.130734
  19 C :    0.027673
  20 N :   -0.009913
  21 C :   -0.115701
  22 S :    0.184156
  23 C :    0.003536
  24 N :    0.274629
  25 O :   -0.246050
  26 O :   -0.252940
  27 C :    0.005042
  28 C :    0.140400
  29 C :   -0.040824
  30 C :    0.005734
  31 C :    0.025343
  32 C :   -0.248497
  33 C :    0.100208
  34 C :    0.222727
  35 N :   -0.162126
  36 C :    0.081981
  37 C :   -0.045313
  38 C :    0.035354
  39 C :   -0.059194
  40 C :    0.056680
  41 C :    0.006745
  42 C :   -0.006462
  43 S :    0.052790
  44 C :   -0.065703
  45 C :    0.040045
  46 C :    0.026407
  47 C :   -0.014301
  48 S :    0.096817
  49 C :   -0.007316
  50 C :    0.021530
  51 C :   -0.155252
  52 C :    0.145555
  53 O :   -0.168602
  54 C :    0.045932
  55 C :   -0.151175
  56 S :    0.127921
  57 C :   -0.143351
  58 C :    0.019471
  59 C :    0.296741
  60 C :   -0.350439
  61 C :   -0.217716
  62 N :    0.148651
  63 C :   -0.189240
  64 N :    0.126903
  65 H :   -0.010319
  66 H :   -0.003205
  67 H :   -0.000665
  68 H :    0.046914
  69 H :    0.187158
  70 H :    0.011128
  71 H :   -0.007299
  72 H :   -0.012611
  73 H :   -0.016142
  74 H :    0.026908
  75 H :    0.017043
  76 H :    0.042022
  77 H :    0.022799
  78 H :    0.031182
  79 H :    0.130371
  80 H :    0.029318
  81 H :   -0.022195
  82 H :   -0.001876
  83 H :   -0.007330
  84 H :   -0.011555
  85 H :   -0.008067
  86 H :   -0.000908
  87 H :    0.003779
  88 H :    0.006374
  89 H :    0.029695
  90 H :    0.044193
Sum of atomic charges:   -0.0000000

LOEWDIN ATOMIC CHARGES
----------------------
   0 C :    0.078426
   1 C :   -0.145640
   2 C :   -0.020420
   3 N :   -0.049611
   4 C :   -0.020083
   5 N :   -0.051221
   6 C :   -0.018369
   7 C :   -0.052891
   8 C :    0.025342
   9 C :   -0.033033
  10 C :   -0.142907
  11 C :   -0.006114
  12 S :    0.440857
  13 C :   -0.269829
  14 C :   -0.069573
  15 Br:    0.143860
  16 C :    0.098569
  17 O :   -0.181014
  18 C :   -0.144755
  19 C :    0.112711
  20 N :    0.077767
  21 C :   -0.111366
  22 S :    0.476248
  23 C :   -0.199096
  24 N :    0.273349
  25 O :   -0.212740
  26 O :   -0.219259
  27 C :    0.003342
  28 C :   -0.087495
  29 C :   -0.022801
  30 C :   -0.017851
  31 C :   -0.037881
  32 C :   -0.042857
  33 C :   -0.051064
  34 C :    0.050482
  35 N :    0.017977
  36 C :    0.072727
  37 C :   -0.135172
  38 C :    0.000517
  39 C :   -0.190483
  40 C :   -0.001394
  41 C :   -0.064584
  42 C :   -0.136544
  43 S :    0.386023
  44 C :   -0.209678
  45 C :   -0.005958
  46 C :   -0.049465
  47 C :   -0.098202
  48 S :    0.395516
  49 C :   -0.082066
  50 C :    0.048517
  51 C :   -0.120434
  52 C :    0.074813
  53 O :   -0.170407
  54 C :   -0.089479
  55 C :   -0.149829
  56 S :    0.456672
  57 C :   -0.159692
  58 C :   -0.058941
  59 C :    0.069562
  60 C :   -0.166573
  61 C :   -0.025624
  62 N :   -0.073405
  63 C :   -0.016510
  64 N :   -0.078407
  65 H :    0.041500
  66 H :    0.042661
  67 H :    0.039931
  68 H :    0.037000
  69 H :    0.083338
  70 H :    0.044659
  71 H :    0.031317
  72 H :    0.025543
  73 H :    0.030240
  74 H :    0.032269
  75 H :    0.030900
  76 H :    0.045311
  77 H :    0.025129
  78 H :    0.034223
  79 H :    0.084408
  80 H :    0.017525
  81 H :    0.026536
  82 H :    0.041816
  83 H :    0.036131
  84 H :    0.032664
  85 H :    0.034410
  86 H :    0.038729
  87 H :    0.036971
  88 H :    0.030798
  89 H :    0.030885
  90 H :    0.032545

  Mayer bond orders larger than 0.100000
B(  0-C ,  1-C ) :   1.6325 B(  0-C ,  6-C ) :   1.0047 B(  0-C , 18-C ) :   1.0919
B(  1-C ,  2-C ) :   1.1409 B(  1-C ,  4-C ) :   1.1490 B(  2-C ,  3-N ) :   2.9713
B(  4-C ,  5-N ) :   2.9525 B(  6-C ,  7-C ) :   1.2720 B(  6-C , 11-C ) :   1.4237
B(  7-C ,  8-C ) :   1.4198 B(  7-C , 16-C ) :   0.9855 B(  8-C ,  9-C ) :   1.2425
B(  8-C , 65-H ) :   1.0183 B(  9-C , 10-C ) :   1.3067 B(  9-C , 14-C ) :   1.1646
B( 10-C , 11-C ) :   1.3202 B( 10-C , 12-S ) :   1.0932 B( 11-C , 66-H ) :   0.9802
B( 12-S , 13-C ) :   1.0889 B( 13-C , 14-C ) :   1.6147 B( 13-C , 15-Br) :   1.0243
B( 14-C , 67-H ) :   1.0006 B( 16-C , 17-O ) :   2.0204 B( 16-C , 18-C ) :   1.0082
B( 17-O , 69-H ) :   0.1427 B( 18-C , 19-C ) :   1.4591 B( 19-C , 20-N ) :   1.3356
B( 19-C , 68-H ) :   0.9313 B( 20-N , 21-C ) :   1.1974 B( 20-N , 69-H ) :   0.8206
B( 21-C , 22-S ) :   1.1374 B( 21-C , 28-C ) :   1.3760 B( 22-S , 23-C ) :   1.0841
B( 23-C , 24-N ) :   0.9622 B( 23-C , 27-C ) :   1.5078 B( 24-N , 25-O ) :   1.5343
B( 24-N , 26-O ) :   1.5180 B( 25-O , 26-O ) :   0.2638 B( 27-C , 28-C ) :   1.2197
B( 27-C , 70-H ) :   0.9998 B( 28-C , 29-C ) :   1.0414 B( 29-C , 30-C ) :   1.7458
B( 29-C , 71-H ) :   0.9794 B( 30-C , 31-C ) :   1.0940 B( 30-C , 72-H ) :   0.9730
B( 31-C , 32-C ) :   1.7692 B( 31-C , 73-H ) :   0.9766 B( 32-C , 33-C ) :   1.0709
B( 32-C , 34-C ) :   1.0447 B( 33-C , 74-H ) :   0.9512 B( 33-C , 75-H ) :   0.9487
B( 33-C , 76-H ) :   0.9455 B( 34-C , 35-N ) :   0.9527 B( 34-C , 77-H ) :   0.9403
B( 34-C , 78-H ) :   0.9321 B( 35-N , 36-C ) :   1.3024 B( 35-N , 79-H ) :   0.9356
B( 36-C , 37-C ) :   1.5039 B( 36-C , 80-H ) :   0.9495 B( 37-C , 38-C ) :   1.2773
B( 37-C , 81-H ) :   0.9614 B( 38-C , 39-C ) :   1.5281 B( 38-C , 82-H ) :   0.9606
B( 39-C , 40-C ) :   1.1869 B( 39-C , 43-S ) :   1.0106 B( 40-C , 41-C ) :   1.5444
B( 40-C , 83-H ) :   0.9976 B( 41-C , 42-C ) :   1.2239 B( 41-C , 84-H ) :   0.9944
B( 42-C , 43-S ) :   1.0863 B( 42-C , 44-C ) :   1.4313 B( 44-C , 45-C ) :   1.2466
B( 44-C , 48-S ) :   1.0351 B( 45-C , 46-C ) :   1.5088 B( 45-C , 85-H ) :   0.9951
B( 46-C , 47-C ) :   1.2123 B( 46-C , 86-H ) :   1.0013 B( 47-C , 48-S ) :   1.0967
B( 47-C , 49-C ) :   1.4464 B( 49-C , 50-C ) :   1.2732 B( 49-C , 87-H ) :   0.9631
B( 50-C , 51-C ) :   1.4794 B( 50-C , 88-H ) :   0.9388 B( 51-C , 52-C ) :   0.9753
B( 51-C , 59-C ) :   1.1171 B( 52-C , 53-O ) :   2.2288 B( 52-C , 54-C ) :   0.9260
B( 54-C , 55-C ) :   1.5600 B( 54-C , 58-C ) :   1.2200 B( 55-C , 56-S ) :   1.1725
B( 55-C , 89-H ) :   0.9705 B( 56-S , 57-C ) :   1.1590 B( 57-C , 58-C ) :   1.5569
B( 57-C , 90-H ) :   0.9559 B( 58-C , 59-C ) :   0.9951 B( 59-C , 60-C ) :   1.5818
B( 60-C , 61-C ) :   1.1672 B( 60-C , 63-C ) :   1.1424 B( 61-C , 62-N ) :   3.0067
B( 63-C , 64-N ) :   2.9876

-----------------------------------------------------------------------------
         ABSORPTION SPECTRUM VIA TRANSITION ELECTRIC DIPOLE MOMENTS
-----------------------------------------------------------------------------
State   Energy  Wavelength   fosc         T2         TX        TY        TZ
        (cm-1)    (nm)                  (au**2)     (au)      (au)      (au)
-----------------------------------------------------------------------------
   0   11935.4    837.8   1.219407586  33.63458   3.30165   4.74364   0.48115
   1   17831.2    560.8   0.000153979   0.00284   0.02146  -0.02218   0.04348
   2   21512.2    464.9   0.000149850   0.00229  -0.03482   0.01360  -0.02993
   3   22354.6    447.3   1.021435471  15.04250   3.49872  -1.33870   1.00465
   4   22575.5    443.0   0.002229536   0.03251  -0.15516  -0.08501  -0.03480
   5   23969.7    417.2   0.183079111   2.51450   0.08895  -0.22304   1.56743
   6   25358.2    394.3   0.089274077   1.15900  -1.01111  -0.01016   0.36952
   7   25893.2    386.2   0.001919715   0.02441  -0.04296  -0.03459   0.14617
   8   26257.3    380.8   0.083211371   1.04330  -0.22563  -0.37577   0.92260
   9   27817.1    359.5   0.364507094   4.31389   0.36144  -0.16639  -2.03852
  10   28862.2    346.5   0.157490574   1.79639   0.03535   0.51136   1.23841
  11   28917.6    345.8   0.489707822   5.57507  -1.68336  -0.46984   1.58764
  12   29657.7    337.2   0.001158512   0.01286   0.05252  -0.00219  -0.10048
  13   29709.6    336.6   0.000740093   0.00820   0.05497   0.03274  -0.06408
  14   29894.0    334.5   0.094951738   1.04567  -0.99816   0.19382   0.10849
  15   30300.5    330.0   0.176898099   1.92198   1.16285  -0.59827   0.46026
  16   30410.5    328.8   0.002708402   0.02932  -0.10945   0.08486  -0.10069
  17   31256.7    319.9   0.008197331   0.08634   0.05033   0.16079   0.24074
  18   31879.3    313.7   0.430637730   4.44712   1.25052   0.63147  -1.57625
  19   32438.4    308.3   0.003340077   0.03390  -0.12529  -0.05992  -0.12087
  20   33160.2    301.6   0.068922492   0.68426   0.11399   0.47984   0.66409
  21   33422.9    299.2   0.066953218   0.65948  -0.00841  -0.29464  -0.75670
  22   33556.0    298.0   0.202341324   1.98514   0.45168   0.66521  -1.15699
  23   33903.9    295.0   0.000008653   0.00008  -0.00001  -0.00601  -0.00692
  24   33906.9    294.9   0.004112076   0.03993   0.11239   0.06586  -0.15151
  25   34138.1    292.9   0.024869239   0.23983   0.18395   0.10190  -0.44227
  26   34378.6    290.9   0.000226108   0.00217  -0.02293  -0.03532   0.01980
  27   34644.3    288.6   0.375574081   3.56894   1.35941   0.46549  -1.22649
  28   34691.2    288.3   0.079525202   0.75468   0.32454  -0.18325  -0.78471
  29   35274.6    283.5   0.000175432   0.00164   0.01732   0.00795  -0.03569
  30   35558.0    281.2   0.304331210   2.81763  -0.45180   0.20132   1.60405
  31   36462.5    274.3   0.001130425   0.01021   0.04320  -0.04048   0.08186
  32   36680.7    272.6   0.370617669   3.32632  -0.03114   0.35338  -1.78899
  33   37037.8    270.0   0.329249407   2.92654  -0.13275   1.32749  -1.07083
  34   37176.6    269.0   0.160837376   1.42427   1.15540  -0.29784   0.02484
  35   37210.3    268.7   0.002271473   0.02010   0.05632   0.06794  -0.11095
  36   37775.9    264.7   0.000144420   0.00126   0.00480  -0.03307   0.01192
  37   38192.4    261.8   0.000098636   0.00085   0.01815  -0.01989  -0.01120
  38   38920.3    256.9   0.000045240   0.00038   0.00430   0.00551  -0.01827
  39   38947.1    256.8   0.000337359   0.00285   0.03446  -0.03051  -0.02707
  40   39115.2    255.7   0.000020395   0.00017   0.00623  -0.00418  -0.01074
  41   39195.1    255.1   0.356007939   2.99022  -0.90515   0.70216   1.29534
  42   39866.5    250.8   0.061267259   0.50594   0.33381  -0.01361  -0.62795
  43   40008.8    249.9   0.211232512   1.73813   0.32078  -0.73512   1.04634
  44   40205.8    248.7   0.000005229   0.00004  -0.00316  -0.00171   0.00547

FINAL SINGLE POINT ENERGY     -7089.802807621021

DIPOLE MOMENT
-------------
                                X             Y             Z
Electronic contribution:    123.79009     -61.30120      58.26809
Nuclear contribution   :   -126.48467      58.32277     -60.49636
                        -----------------------------------------
Total Dipole Moment    :     -2.69458      -2.97843      -2.22827
                        -----------------------------------------
Magnitude (a.u.)       :      4.59314
Magnitude (Debye)      :     11.67484

Rotational constants in cm-1:     0.000677     0.000294     0.000248
Rotational constants in MHz :    20.306418     8.805141     7.431405

                             ****ORCA TERMINATED NORMALLY****
TOTAL RUN TIME: 0 days 0 hours 7 minutes 57 seconds 924 msec
