                         Program Version 4.2.0 -  RELEASE  -
|  1> # ORCA input file
|  2> # SCF done       -156.412345966024          0.000420075416
|  3> ! CAM-B3LYP def2-SVP def2/J RIJCOSX Grid4 TightSCF
|  4> %maxcore 5000
|  5> %tddft
|  6>     Mode sTDDFT
|  7>     Ethresh 5.0
|  8>     maxcore 5000
|  9> end
| 10>
| 11> %pal
| 12>   nprocs 6
| 13>   end
| 14> * xyz 0 1
| 15>    C       -5.08744         3.84752         3.20642
| 16>    C       -4.10109         3.51748         4.09190
| 17>    C       -3.90815         4.15424         5.33811
| 18>    N       -3.70468         4.63023         6.36211
| 19>    C       -3.14586         2.49320         3.90596
| 20>    N       -2.33274         1.68679         3.83691
| 21>    C       -6.08263         4.89491         3.38624
| 22>    C       -6.97799         4.88178         2.28753
| 23>    C       -8.03026         5.75900         2.17796
| 24>    C       -8.20516         6.70069         3.19631
| 25>    C       -7.30565         6.70798         4.29087
| 26>    C       -6.24565         5.81932         4.40475
| 27>    S       -7.70760         7.94894         5.43913
| 28>    C       -9.05690         8.43508         4.44732
| 29>    C       -9.20222         7.70694         3.31453
| 30>   Br      -10.14810         9.85423         5.00301
| 31>    C       -6.60588         3.79878         1.35717
| 32>    O       -7.24442         3.40552         0.41219
| 33>    C       -5.33520         3.22531         1.90597
| 34>    C       -4.59888         2.29641         1.27365
| 35>    C       -4.88678         1.87070        -0.10069
| 36>    N       -5.01865         0.56641        -0.32035
| 37>    C       -5.31200         0.20568        -1.55978
| 38>    C       -5.47003         1.12332        -2.58264
| 39>    C       -5.26010         2.47144        -2.26127
| 40>    N       -4.95600         2.82517        -1.01266
| 41>    C       -5.38551         3.51987        -3.25368
| 42>    C       -5.11766         4.80430        -2.98779
| 43>    C       -5.29668         5.87808        -3.94959
| 44>    N       -5.83193         5.58478        -5.13795
| 45>    C       -6.03655         6.59757        -5.96329
| 46>    C       -5.72378         7.90339        -5.63438
| 47>    C       -5.13157         8.11660        -4.37853
| 48>    N       -4.92728         7.08767        -3.55105
| 49>    C       -4.73746         9.43318        -3.94690
| 50>    C       -3.96740         9.63532        -2.85618
| 51>    C       -3.57786        10.91493        -2.39177
| 52>    S       -2.43365        11.09115        -1.08344
| 53>    C       -2.50695        12.83124        -1.10098
| 54>    C       -1.73062        13.65248        -0.13348
| 55>    C       -2.37153        13.62562         1.25597
| 56>    C       -3.38324        13.23541        -2.05856
| 57>    C       -3.99222        12.17106        -2.81124
| 58>    N       -4.86971        12.56623        -3.75076
| 59>    C       -5.00647        13.85318        -3.78712
| 60>    S       -3.98968        14.76314        -2.61189
| 61>    C       -5.88453        14.57741        -4.62105
| 62>    C       -6.64412        13.97061        -5.57880
| 63>    C       -7.59842        14.57204        -6.41865
| 64>    C       -8.12313        15.84100        -6.36801
| 65>    C       -9.11882        16.33429        -7.25573
| 66>    C       -9.54976        17.59321        -6.98529
| 67>    C       -8.92101        18.18436        -5.86169
| 68>    S       -7.74541        17.07351        -5.18079
| 69>    C       -9.14860        19.42586        -5.31863
| 70>    C      -10.07108        20.41118        -5.77465
| 71>    C      -10.09276        21.53868        -5.03189
| 72>    C       -9.18200        21.53535        -3.92205
| 73>    S       -8.29977        19.99965        -3.89936
| 74>    C       -8.98933        22.50377        -3.01700
| 75>    H       -8.69482         5.72017         1.32920
| 76>    H       -5.58964         5.86572         5.25782
| 77>    H       -9.97998         7.87069         2.59118
| 78>    H       -3.74680         1.82370         1.74153
| 79>    H       -5.42582        -0.85880        -1.72154
| 80>    H       -5.73113         0.82050        -3.58345
| 81>    H       -5.72848         3.23259        -4.23727
| 82>    H       -4.76380         5.09879        -2.01117
| 83>    H       -6.47413         6.34142        -6.92098
| 84>    H       -5.90846         8.72238        -6.31046
| 85>    H       -5.06906        10.27375        -4.53811
| 86>    H       -3.61387         8.77714        -2.30138
| 87>    H       -1.69510        14.67983        -0.50336
| 88>    H       -0.70927        13.27061        -0.06613
| 89>    H       -3.38414        14.02000         1.21268
| 90>    H       -1.79134        14.23114         1.94710
| 91>    H       -2.41088        12.60596         1.63241
| 92>    H       -5.91582        15.64417        -4.46342
| 93>    H       -6.49344        12.90747        -5.71066
| 94>    H       -8.01103        13.94112        -7.19644
| 95>    H       -9.48708        15.72845        -8.06515
| 96>    H      -10.30327        18.10962        -7.55230
| 97>    H      -10.68677        20.24240        -6.64019
| 98>    H      -10.72387        22.38899        -5.22020
| 99>    H       -9.54905        23.42106        -3.06677
|100>    H       -8.27791        22.39845        -2.21860
|101> *
|102>
|103>                          ****END OF INPUT****

CARTESIAN COORDINATES (ANGSTROEM)
---------------------------------
  C     -5.087440    3.847520    3.206420
  C     -4.101090    3.517480    4.091900
  C     -3.908150    4.154240    5.338110
  N     -3.704680    4.630230    6.362110
  C     -3.145860    2.493200    3.905960
  N     -2.332740    1.686790    3.836910
  C     -6.082630    4.894910    3.386240
  C     -6.977990    4.881780    2.287530
  C     -8.030260    5.759000    2.177960
  C     -8.205160    6.700690    3.196310
  C     -7.305650    6.707980    4.290870
  C     -6.245650    5.819320    4.404750
  S     -7.707600    7.948940    5.439130
  C     -9.056900    8.435080    4.447320
  C     -9.202220    7.706940    3.314530
  Br   -10.148100    9.854230    5.003010
  C     -6.605880    3.798780    1.357170
  O     -7.244420    3.405520    0.412190
  C     -5.335200    3.225310    1.905970
  C     -4.598880    2.296410    1.273650
  C     -4.886780    1.870700   -0.100690
  N     -5.018650    0.566410   -0.320350
  C     -5.312000    0.205680   -1.559780
  C     -5.470030    1.123320   -2.582640
  C     -5.260100    2.471440   -2.261270
  N     -4.956000    2.825170   -1.012660
  C     -5.385510    3.519870   -3.253680
  C     -5.117660    4.804300   -2.987790
  C     -5.296680    5.878080   -3.949590
  N     -5.831930    5.584780   -5.137950
  C     -6.036550    6.597570   -5.963290
  C     -5.723780    7.903390   -5.634380
  C     -5.131570    8.116600   -4.378530
  N     -4.927280    7.087670   -3.551050
  C     -4.737460    9.433180   -3.946900
  C     -3.967400    9.635320   -2.856180
  C     -3.577860   10.914930   -2.391770
  S     -2.433650   11.091150   -1.083440
  C     -2.506950   12.831240   -1.100980
  C     -1.730620   13.652480   -0.133480
  C     -2.371530   13.625620    1.255970
  C     -3.383240   13.235410   -2.058560
  C     -3.992220   12.171060   -2.811240
  N     -4.869710   12.566230   -3.750760
  C     -5.006470   13.853180   -3.787120
  S     -3.989680   14.763140   -2.611890
  C     -5.884530   14.577410   -4.621050
  C     -6.644120   13.970610   -5.578800
  C     -7.598420   14.572040   -6.418650
  C     -8.123130   15.841000   -6.368010
  C     -9.118820   16.334290   -7.255730
  C     -9.549760   17.593210   -6.985290
  C     -8.921010   18.184360   -5.861690
  S     -7.745410   17.073510   -5.180790
  C     -9.148600   19.425860   -5.318630
  C    -10.071080   20.411180   -5.774650
  C    -10.092760   21.538680   -5.031890
  C     -9.182000   21.535350   -3.922050
  S     -8.299770   19.999650   -3.899360
  C     -8.989330   22.503770   -3.017000
  H     -8.694820    5.720170    1.329200
  H     -5.589640    5.865720    5.257820
  H     -9.979980    7.870690    2.591180
  H     -3.746800    1.823700    1.741530
  H     -5.425820   -0.858800   -1.721540
  H     -5.731130    0.820500   -3.583450
  H     -5.728480    3.232590   -4.237270
  H     -4.763800    5.098790   -2.011170
  H     -6.474130    6.341420   -6.920980
  H     -5.908460    8.722380   -6.310460
  H     -5.069060   10.273750   -4.538110
  H     -3.613870    8.777140   -2.301380
  H     -1.695100   14.679830   -0.503360
  H     -0.709270   13.270610   -0.066130
  H     -3.384140   14.020000    1.212680
  H     -1.791340   14.231140    1.947100
  H     -2.410880   12.605960    1.632410
  H     -5.915820   15.644170   -4.463420
  H     -6.493440   12.907470   -5.710660
  H     -8.011030   13.941120   -7.196440
  H     -9.487080   15.728450   -8.065150
  H    -10.303270   18.109620   -7.552300
  H    -10.686770   20.242400   -6.640190
  H    -10.723870   22.388990   -5.220200
  H     -9.549050   23.421060   -3.066770
  H     -8.277910   22.398450   -2.218600

 Total Charge           Charge          ....    0
 Multiplicity           Mult            ....    1
 Number of Electrons    NEL             ....  474
 Basis Dimension        Dim             .... 1008

ORBITAL ENERGIES
----------------

  NO   OCC          E(Eh)            E(eV)
   0   2.0000    -482.884674    -13139.9600
   1   2.0000     -88.974241     -2421.1122
   2   2.0000     -88.954045     -2420.5626
   3   2.0000     -88.949812     -2420.4474
   4   2.0000     -88.949264     -2420.4325
   5   2.0000     -88.946040     -2420.3448
   6   2.0000     -62.562400     -1702.4094
   7   2.0000     -56.396351     -1534.6227
   8   2.0000     -56.393631     -1534.5487
   9   2.0000     -56.393602     -1534.5479
  10   2.0000     -19.212696      -522.8040
  11   2.0000     -14.415687      -392.2708
  12   2.0000     -14.414371      -392.2350
  13   2.0000     -14.403671      -391.9438
  14   2.0000     -14.401748      -391.8915
  15   2.0000     -14.400038      -391.8449
  16   2.0000     -14.392778      -391.6474
  17   2.0000     -14.392026      -391.6269
  18   2.0000     -10.363474      -282.0045
  19   2.0000     -10.358177      -281.8603
  20   2.0000     -10.343912      -281.4722
  21   2.0000     -10.341178      -281.3977
  22   2.0000     -10.340677      -281.3841
  23   2.0000     -10.336424      -281.2684
  24   2.0000     -10.327160      -281.0163
  25   2.0000     -10.324731      -280.9502
  26   2.0000     -10.323725      -280.9228
  27   2.0000     -10.319608      -280.8108
  28   2.0000     -10.318082      -280.7693
  29   2.0000     -10.316935      -280.7381
  30   2.0000     -10.316737      -280.7327
  31   2.0000     -10.316296      -280.7207
  32   2.0000     -10.315711      -280.7048
  33   2.0000     -10.314266      -280.6654
  34   2.0000     -10.311828      -280.5991
  35   2.0000     -10.307736      -280.4877
  36   2.0000     -10.307181      -280.4726
  37   2.0000     -10.306942      -280.4661
  38   2.0000     -10.306772      -280.4615
  39   2.0000     -10.304786      -280.4075
  40   2.0000     -10.299603      -280.2664
  41   2.0000     -10.299000      -280.2500
  42   2.0000     -10.298955      -280.2488
  43   2.0000     -10.298209      -280.2285
  44   2.0000     -10.298038      -280.2239
  45   2.0000     -10.296770      -280.1894
  46   2.0000     -10.295615      -280.1579
  47   2.0000     -10.295354      -280.1508
  48   2.0000     -10.290648      -280.0228
  49   2.0000     -10.289974      -280.0044
  50   2.0000     -10.289429      -279.9896
  51   2.0000     -10.288772      -279.9717
  52   2.0000     -10.283812      -279.8367
  53   2.0000     -10.282255      -279.7944
  54   2.0000     -10.279752      -279.7263
  55   2.0000     -10.279059      -279.7074
  56   2.0000     -10.277934      -279.6768
  57   2.0000     -10.275500      -279.6106
  58   2.0000     -10.273944      -279.5682
  59   2.0000     -10.269507      -279.4475
  60   2.0000     -10.265187      -279.3299
  61   2.0000     -10.263296      -279.2785
  62   2.0000     -10.257838      -279.1300
  63   2.0000     -10.253200      -279.0037
  64   2.0000      -8.791842      -239.2382
  65   2.0000      -8.070283      -219.6036
  66   2.0000      -8.049826      -219.0469
  67   2.0000      -8.046073      -218.9448
  68   2.0000      -8.045032      -218.9165
  69   2.0000      -8.041858      -218.8301
  70   2.0000      -6.628164      -180.3615
  71   2.0000      -6.613578      -179.9646
  72   2.0000      -6.613352      -179.9585
  73   2.0000      -6.039971      -164.3560
  74   2.0000      -6.035713      -164.2401
  75   2.0000      -6.031470      -164.1246
  76   2.0000      -6.019554      -163.8004
  77   2.0000      -6.015901      -163.7010
  78   2.0000      -6.015476      -163.6894
  79   2.0000      -6.014331      -163.6583
  80   2.0000      -6.011926      -163.5928
  81   2.0000      -6.011342      -163.5769
  82   2.0000      -6.010843      -163.5634
  83   2.0000      -6.010255      -163.5473
  84   2.0000      -6.007687      -163.4775
  85   2.0000      -6.007184      -163.4638
  86   2.0000      -6.006597      -163.4478
  87   2.0000      -6.003008      -163.3502
  88   2.0000      -2.743993       -74.6678
  89   2.0000      -2.739950       -74.5578
  90   2.0000      -2.739806       -74.5539
  91   2.0000      -2.728192       -74.2379
  92   2.0000      -2.728185       -74.2377
  93   2.0000      -1.129127       -30.7251
  94   2.0000      -1.077851       -29.3298
  95   2.0000      -1.066356       -29.0170
  96   2.0000      -1.056432       -28.7470
  97   2.0000      -1.021641       -27.8003
  98   2.0000      -1.012529       -27.5523
  99   2.0000      -1.001806       -27.2605
 100   2.0000      -0.993488       -27.0342
 101   2.0000      -0.987753       -26.8781
 102   2.0000      -0.978819       -26.6350
 103   2.0000      -0.975026       -26.5318
 104   2.0000      -0.968835       -26.3634
 105   2.0000      -0.964094       -26.2343
 106   2.0000      -0.941854       -25.6291
 107   2.0000      -0.913142       -24.8479
 108   2.0000      -0.911298       -24.7977
 109   2.0000      -0.907548       -24.6956
 110   2.0000      -0.903267       -24.5791
 111   2.0000      -0.892703       -24.2917
 112   2.0000      -0.884801       -24.0767
 113   2.0000      -0.882896       -24.0248
 114   2.0000      -0.878754       -23.9121
 115   2.0000      -0.866634       -23.5823
 116   2.0000      -0.856700       -23.3120
 117   2.0000      -0.854361       -23.2483
 118   2.0000      -0.848777       -23.0964
 119   2.0000      -0.842361       -22.9218
 120   2.0000      -0.832106       -22.6427
 121   2.0000      -0.829669       -22.5764
 122   2.0000      -0.827636       -22.5211
 123   2.0000      -0.809776       -22.0351
 124   2.0000      -0.783476       -21.3195
 125   2.0000      -0.778907       -21.1951
 126   2.0000      -0.778836       -21.1932
 127   2.0000      -0.761611       -20.7245
 128   2.0000      -0.757107       -20.6019
 129   2.0000      -0.742020       -20.1914
 130   2.0000      -0.738741       -20.1022
 131   2.0000      -0.732278       -19.9263
 132   2.0000      -0.711550       -19.3623
 133   2.0000      -0.702727       -19.1222
 134   2.0000      -0.701086       -19.0775
 135   2.0000      -0.693346       -18.8669
 136   2.0000      -0.688149       -18.7255
 137   2.0000      -0.679773       -18.4976
 138   2.0000      -0.678370       -18.4594
 139   2.0000      -0.668103       -18.1800
 140   2.0000      -0.655037       -17.8245
 141   2.0000      -0.651703       -17.7337
 142   2.0000      -0.644391       -17.5348
 143   2.0000      -0.637632       -17.3508
 144   2.0000      -0.628442       -17.1008
 145   2.0000      -0.623502       -16.9663
 146   2.0000      -0.620755       -16.8916
 147   2.0000      -0.617781       -16.8107
 148   2.0000      -0.613592       -16.6967
 149   2.0000      -0.608002       -16.5446
 150   2.0000      -0.599974       -16.3261
 151   2.0000      -0.595829       -16.2133
 152   2.0000      -0.590802       -16.0765
 153   2.0000      -0.583159       -15.8686
 154   2.0000      -0.580346       -15.7920
 155   2.0000      -0.570181       -15.5154
 156   2.0000      -0.563273       -15.3274
 157   2.0000      -0.560000       -15.2384
 158   2.0000      -0.557192       -15.1620
 159   2.0000      -0.547419       -14.8960
 160   2.0000      -0.540312       -14.7026
 161   2.0000      -0.538493       -14.6531
 162   2.0000      -0.537256       -14.6195
 163   2.0000      -0.533810       -14.5257
 164   2.0000      -0.531240       -14.4558
 165   2.0000      -0.529521       -14.4090
 166   2.0000      -0.527460       -14.3529
 167   2.0000      -0.523772       -14.2526
 168   2.0000      -0.523104       -14.2344
 169   2.0000      -0.516408       -14.0522
 170   2.0000      -0.512348       -13.9417
 171   2.0000      -0.509644       -13.8681
 172   2.0000      -0.508809       -13.8454
 173   2.0000      -0.507104       -13.7990
 174   2.0000      -0.506216       -13.7748
 175   2.0000      -0.503784       -13.7087
 176   2.0000      -0.500682       -13.6243
 177   2.0000      -0.499536       -13.5931
 178   2.0000      -0.497374       -13.5342
 179   2.0000      -0.495750       -13.4900
 180   2.0000      -0.491860       -13.3842
 181   2.0000      -0.488303       -13.2874
 182   2.0000      -0.487188       -13.2571
 183   2.0000      -0.483893       -13.1674
 184   2.0000      -0.478504       -13.0208
 185   2.0000      -0.472448       -12.8560
 186   2.0000      -0.469455       -12.7745
 187   2.0000      -0.469145       -12.7661
 188   2.0000      -0.465832       -12.6759
 189   2.0000      -0.458679       -12.4813
 190   2.0000      -0.456567       -12.4238
 191   2.0000      -0.452219       -12.3055
 192   2.0000      -0.447924       -12.1886
 193   2.0000      -0.447108       -12.1664
 194   2.0000      -0.445691       -12.1279
 195   2.0000      -0.442658       -12.0453
 196   2.0000      -0.439181       -11.9507
 197   2.0000      -0.438129       -11.9221
 198   2.0000      -0.435501       -11.8506
 199   2.0000      -0.434693       -11.8286
 200   2.0000      -0.431502       -11.7418
 201   2.0000      -0.428003       -11.6466
 202   2.0000      -0.426369       -11.6021
 203   2.0000      -0.422890       -11.5074
 204   2.0000      -0.422727       -11.5030
 205   2.0000      -0.415260       -11.2998
 206   2.0000      -0.412580       -11.2269
 207   2.0000      -0.412239       -11.2176
 208   2.0000      -0.408877       -11.1261
 209   2.0000      -0.407213       -11.0808
 210   2.0000      -0.403351       -10.9757
 211   2.0000      -0.400502       -10.8982
 212   2.0000      -0.397803       -10.8248
 213   2.0000      -0.386646       -10.5212
 214   2.0000      -0.377476       -10.2716
 215   2.0000      -0.374002       -10.1771
 216   2.0000      -0.373900       -10.1743
 217   2.0000      -0.372410       -10.1338
 218   2.0000      -0.369321       -10.0497
 219   2.0000      -0.367600       -10.0029
 220   2.0000      -0.363641        -9.8952
 221   2.0000      -0.357337        -9.7236
 222   2.0000      -0.346949        -9.4410
 223   2.0000      -0.339717        -9.2442
 224   2.0000      -0.335043        -9.1170
 225   2.0000      -0.332401        -9.0451
 226   2.0000      -0.326181        -8.8758
 227   2.0000      -0.321238        -8.7413
 228   2.0000      -0.319899        -8.7049
 229   2.0000      -0.316355        -8.6084
 230   2.0000      -0.312753        -8.5104
 231   2.0000      -0.309651        -8.4260
 232   2.0000      -0.292322        -7.9545
 233   2.0000      -0.290487        -7.9046
 234   2.0000      -0.283972        -7.7273
 235   2.0000      -0.246073        -6.6960
 236   2.0000      -0.224656        -6.1132
 237   0.0000      -0.085575        -2.3286
 238   0.0000      -0.084173        -2.2905
 239   0.0000      -0.050567        -1.3760
 240   0.0000      -0.041926        -1.1409
 241   0.0000      -0.034474        -0.9381

MULLIKEN ATOMIC CHARGES
-----------------------
   0 C :    0.310090
   1 C :   -0.341743
   2 C :   -0.188882
   3 N :    0.156055
   4 C :   -0.189983
   5 N :    0.164407
   6 C :    0.014700
   7 C :   -0.014927
   8 C :   -0.063498
   9 C :    0.116440
  10 C :   -0.088507
  11 C :   -0.019915
  12 S :    0.185655
  13 C :   -0.122521
  14 C :    0.040276
  15 Br:    0.024450
  16 C :    0.153797
  17 O :   -0.126987
  18 C :   -0.064924
  19 C :    0.030517
  20 C :   -0.049731
  21 N :   -0.079117
  22 C :    0.080588
  23 C :   -0.031329
  24 C :    0.061792
  25 N :   -0.049898
  26 C :    0.017706
  27 C :    0.077801
  28 C :   -0.064352
  29 N :   -0.085458
  30 C :    0.079766
  31 C :   -0.049266
  32 C :    0.062210
  33 N :   -0.057074
  34 C :   -0.032093
  35 C :    0.068254
  36 C :   -0.172248
  37 S :    0.134795
  38 C :   -0.335948
  39 C :    0.090194
  40 C :    0.014296
  41 C :    0.042478
  42 C :    0.099435
  43 N :   -0.037135
  44 C :   -0.089638
  45 S :    0.075191
  46 C :    0.024226
  47 C :    0.036028
  48 C :   -0.015501
  49 C :   -0.011260
  50 C :    0.034146
  51 C :    0.031215
  52 C :   -0.044696
  53 S :    0.072824
  54 C :   -0.058761
  55 C :    0.028514
  56 C :    0.059468
  57 C :   -0.068703
  58 S :    0.091616
  59 C :   -0.020488
  60 H :   -0.006068
  61 H :   -0.005816
  62 H :   -0.001270
  63 H :    0.048190
  64 H :    0.008317
  65 H :   -0.003277
  66 H :   -0.004867
  67 H :   -0.000136
  68 H :   -0.001586
  69 H :   -0.012091
  70 H :   -0.011235
  71 H :   -0.009684
  72 H :    0.011929
  73 H :    0.017395
  74 H :    0.019446
  75 H :    0.018954
  76 H :    0.016819
  77 H :   -0.003696
  78 H :    0.008209
  79 H :   -0.013855
  80 H :   -0.009904
  81 H :   -0.010532
  82 H :   -0.007644
  83 H :   -0.005621
  84 H :    0.025422
  85 H :    0.028252
Sum of atomic charges:   -0.0000000

LOEWDIN ATOMIC CHARGES
----------------------
   0 C :    0.076375
   1 C :   -0.129039
   2 C :   -0.016758
   3 N :   -0.048679
   4 C :   -0.020517
   5 N :   -0.040766
   6 C :   -0.021992
   7 C :   -0.048758
   8 C :    0.024306
   9 C :   -0.029695
  10 C :   -0.142665
  11 C :   -0.008895
  12 S :    0.431928
  13 C :   -0.270155
  14 C :   -0.069451
  15 Br:    0.137997
  16 C :    0.086530
  17 O :   -0.121581
  18 C :   -0.064620
  19 C :    0.079117
  20 C :    0.019385
  21 N :   -0.087042
  22 C :    0.051745
  23 C :   -0.052787
  24 C :    0.042142
  25 N :   -0.068401
  26 C :   -0.015145
  27 C :    0.011442
  28 C :    0.022765
  29 N :   -0.100557
  30 C :    0.045152
  31 C :   -0.069414
  32 C :    0.039015
  33 N :   -0.090484
  34 C :   -0.052886
  35 C :    0.005273
  36 C :   -0.200300
  37 S :    0.438667
  38 C :   -0.190032
  39 C :   -0.042992
  40 C :   -0.049894
  41 C :   -0.215605
  42 C :   -0.047939
  43 N :   -0.103237
  44 C :   -0.085581
  45 S :    0.344839
  46 C :   -0.086256
  47 C :    0.014272
  48 C :   -0.076353
  49 C :   -0.126267
  50 C :   -0.034258
  51 C :   -0.028011
  52 C :   -0.186910
  53 S :    0.392003
  54 C :   -0.163818
  55 C :   -0.026999
  56 C :   -0.021507
  57 C :   -0.140908
  58 S :    0.360557
  59 C :   -0.062737
  60 H :    0.042580
  61 H :    0.040985
  62 H :    0.039706
  63 H :    0.050945
  64 H :    0.027115
  65 H :    0.035132
  66 H :    0.031011
  67 H :    0.034959
  68 H :    0.023099
  69 H :    0.031097
  70 H :    0.026622
  71 H :    0.031791
  72 H :    0.032449
  73 H :    0.033054
  74 H :    0.026765
  75 H :    0.024648
  76 H :    0.022568
  77 H :    0.011814
  78 H :    0.037845
  79 H :    0.034713
  80 H :    0.034505
  81 H :    0.032663
  82 H :    0.033938
  83 H :    0.035937
  84 H :    0.031306
  85 H :    0.029136

  Mayer bond orders larger than 0.100000
B(  0-C ,  1-C ) :   1.6633 B(  0-C ,  6-C ) :   1.0198 B(  0-C , 18-C ) :   1.0239
B(  1-C ,  2-C ) :   1.1376 B(  1-C ,  4-C ) :   1.1406 B(  2-C ,  3-N ) :   2.9740
B(  4-C ,  5-N ) :   2.9802 B(  6-C ,  7-C ) :   1.2736 B(  6-C , 11-C ) :   1.3983
B(  7-C ,  8-C ) :   1.4205 B(  7-C , 16-C ) :   0.9384 B(  8-C ,  9-C ) :   1.2557
B(  8-C , 60-H ) :   1.0155 B(  9-C , 10-C ) :   1.2968 B(  9-C , 14-C ) :   1.1638
B( 10-C , 11-C ) :   1.3450 B( 10-C , 12-S ) :   1.0841 B( 11-C , 61-H ) :   0.9787
B( 12-S , 13-C ) :   1.0860 B( 13-C , 14-C ) :   1.6166 B( 13-C , 15-Br) :   1.0192
B( 14-C , 62-H ) :   1.0007 B( 16-C , 17-O ) :   2.2517 B( 16-C , 18-C ) :   0.9109
B( 18-C , 19-C ) :   1.8265 B( 19-C , 20-C ) :   0.9475 B( 19-C , 63-H ) :   0.9319
B( 20-C , 21-N ) :   1.5116 B( 20-C , 25-N ) :   1.5202 B( 21-N , 22-C ) :   1.5288
B( 22-C , 23-C ) :   1.3834 B( 22-C , 64-H ) :   0.9802 B( 23-C , 24-C ) :   1.3322
B( 23-C , 65-H ) :   0.9756 B( 24-C , 25-N ) :   1.5142 B( 24-C , 26-C ) :   1.0413
B( 26-C , 27-C ) :   1.7426 B( 26-C , 66-H ) :   0.9714 B( 27-C , 28-C ) :   1.0031
B( 27-C , 67-H ) :   0.9702 B( 28-C , 29-N ) :   1.5294 B( 28-C , 33-N ) :   1.5455
B( 29-N , 30-C ) :   1.5402 B( 30-C , 31-C ) :   1.3771 B( 30-C , 68-H ) :   0.9803
B( 31-C , 32-C ) :   1.3220 B( 31-C , 69-H ) :   0.9761 B( 32-C , 33-N ) :   1.5007
B( 32-C , 34-C ) :   1.0763 B( 34-C , 35-C ) :   1.6951 B( 34-C , 70-H ) :   0.9665
B( 35-C , 36-C ) :   1.1203 B( 35-C , 71-H ) :   0.9591 B( 36-C , 37-S ) :   1.1018
B( 36-C , 38-C ) :   0.1017 B( 36-C , 42-C ) :   1.4263 B( 37-S , 38-C ) :   1.1424
B( 38-C , 39-C ) :   1.0546 B( 38-C , 41-C ) :   1.6045 B( 39-C , 40-C ) :   1.0988
B( 39-C , 72-H ) :   0.9331 B( 39-C , 73-H ) :   0.9237 B( 40-C , 74-H ) :   0.9718
B( 40-C , 75-H ) :   0.9686 B( 40-C , 76-H ) :   0.9713 B( 41-C , 42-C ) :   1.1995
B( 41-C , 45-S ) :   1.0164 B( 42-C , 43-N ) :   1.3176 B( 43-N , 44-C ) :   1.7238
B( 44-C , 45-S ) :   1.0234 B( 44-C , 46-C ) :   1.1488 B( 46-C , 47-C ) :   1.6308
B( 46-C , 77-H ) :   0.9260 B( 47-C , 48-C ) :   1.2072 B( 47-C , 78-H ) :   0.9677
B( 48-C , 49-C ) :   1.5570 B( 48-C , 79-H ) :   0.9646 B( 49-C , 50-C ) :   1.1424
B( 49-C , 53-S ) :   1.0549 B( 50-C , 51-C ) :   1.6031 B( 50-C , 80-H ) :   0.9990
B( 51-C , 52-C ) :   1.1721 B( 51-C , 81-H ) :   0.9929 B( 52-C , 53-S ) :   1.0274
B( 52-C , 54-C ) :   1.5541 B( 54-C , 55-C ) :   1.1472 B( 54-C , 58-S ) :   1.0567
B( 55-C , 56-C ) :   1.6661 B( 55-C , 82-H ) :   0.9927 B( 56-C , 57-C ) :   1.0772
B( 56-C , 83-H ) :   0.9929 B( 57-C , 58-S ) :   1.0051 B( 57-C , 59-C ) :   1.8679
B( 59-C , 84-H ) :   0.9503 B( 59-C , 85-H ) :   0.9419

-----------------------------------------------------------------------------
         ABSORPTION SPECTRUM VIA TRANSITION ELECTRIC DIPOLE MOMENTS
-----------------------------------------------------------------------------
State   Energy  Wavelength   fosc         T2         TX        TY        TZ
        (cm-1)    (nm)                  (au**2)     (au)      (au)      (au)
-----------------------------------------------------------------------------
   0   16496.0    606.2   1.434683677  28.63214   2.11908  -4.90542   0.28010
   1   20935.8    477.7   0.038502595   0.60545  -0.75927   0.15103  -0.07840
   2   22120.2    452.1   0.000067049   0.00100   0.00520  -0.03108  -0.00214
   3   25809.7    387.5   0.043794897   0.55862   0.53619   0.51481  -0.07801
   4   25842.9    387.0   0.000389397   0.00496  -0.01489   0.05499   0.04141
   5   27894.2    358.5   0.066377457   0.78340   0.04288  -0.71796   0.51584
   6   28033.9    356.7   0.015794243   0.18548   0.26826  -0.33255  -0.05411
   7   28537.5    350.4   0.397063637   4.58057   1.52879  -1.49282  -0.12189
   8   28770.5    347.6   0.036096216   0.41304   0.17140  -0.40088   0.47218
   9   28951.1    345.4   0.152914810   1.73884  -0.33353   0.37855  -1.21832
  10   29179.0    342.7   0.042784479   0.48272  -0.32093   0.55250   0.27287
  11   30049.3    332.8   0.005490334   0.06015   0.18546   0.11704   0.10981
  12   30471.6    328.2   0.049856411   0.53864   0.45317  -0.49132   0.30311
  13   30858.4    324.1   1.125035345  12.00240   1.63640   2.11697   2.20069
  14   31347.1    319.0   0.010629940   0.11164   0.04751  -0.25363  -0.21226
  15   31914.7    313.3   0.092347905   0.95260   0.52932   0.23120   0.78675
  16   32544.6    307.3   0.008286528   0.08382   0.08422  -0.26128  -0.09201
  17   32651.1    306.3   0.000972929   0.00981   0.00986  -0.05980   0.07834
  18   32669.7    306.1   0.001594067   0.01606   0.08928   0.04606   0.07728
  19   33623.2    297.4   0.016900233   0.16547   0.25998   0.26295   0.16954
  20   34252.8    291.9   0.305308056   2.93439   1.13645  -0.60400   1.13051
  21   34373.2    290.9   0.081410181   0.77971  -0.53753   0.35787   0.60225
  22   34385.1    290.8   0.108908374   1.04272   0.87021  -0.53253  -0.04305
  23   34480.2    290.0   0.230663862   2.20234  -1.10587   0.98909   0.03318
  24   34722.3    288.0   0.013297733   0.12608   0.18797  -0.20615   0.21966
  25   34933.2    286.3   0.000143628   0.00135   0.00852   0.00184   0.03574
  26   35019.7    285.6   0.013676758   0.12857   0.27961   0.06971  -0.21338
  27   35566.8    281.2   0.010114263   0.09362  -0.30271   0.04362   0.00918
  28   35613.8    280.8   0.141096429   1.30429  -0.04767   0.27775   1.10674
  29   36164.2    276.5   0.181553980   1.65273  -0.57352  -0.82370  -0.80333
  30   36510.1    273.9   0.001015262   0.00915  -0.01374   0.01938   0.09268
  31   36832.9    271.5   0.025824746   0.23082   0.34040  -0.32601   0.09309
  32   37000.6    270.3   0.000799660   0.00711   0.00503  -0.06876  -0.04860
  33   37245.3    268.5   0.071223018   0.62954   0.22443  -0.20955  -0.73162
  34   38412.0    260.3   0.168779770   1.44654   0.01831  -0.87937   0.82031
  35   38536.8    259.5   0.225367376   1.92527  -0.57480  -1.08574  -0.64501
  36   38989.4    256.5   0.001660464   0.01402   0.00146  -0.11836   0.00298
  37   39288.1    254.5   0.169602145   1.42117   0.16755  -0.97368   0.66712
  38   39593.5    252.6   0.164875185   1.37090   0.28529   0.01766  -1.13543
  39   39844.7    251.0   0.224888748   1.85812  -0.47010   0.39941  -1.21556
  40   39953.5    250.3   0.012325307   0.10156  -0.07256   0.01921   0.30972
  41   40223.7    248.6   0.524270392   4.29090   0.39019  -1.81681  -0.91534

FINAL SINGLE POINT ENERGY     -6788.410736102984

DIPOLE MOMENT
-------------
                                X             Y             Z
Electronic contribution:    -42.08376     -32.76341      93.77250
Nuclear contribution   :     39.30996      37.21168     -96.46001
                        -----------------------------------------
Total Dipole Moment    :     -2.77380       4.44827      -2.68751
                        -----------------------------------------
Magnitude (a.u.)       :      5.89099
Magnitude (Debye)      :     14.97371

Rotational constants in cm-1:     0.001189     0.000392     0.000341
Rotational constants in MHz :    35.653078    11.763876    10.235331

                             ****ORCA TERMINATED NORMALLY****
TOTAL RUN TIME: 0 days 0 hours 6 minutes 23 seconds 632 msec
