                         Program Version 4.2.0 -  RELEASE  -
|  1> # ORCA input file
|  2> # SCF done       -183.042622150099          0.000286949897
|  3> ! CAM-B3LYP def2-SVP def2/J RIJCOSX Grid4 TightSCF
|  4> %maxcore 5000
|  5> %tddft
|  6>     Mode sTDDFT
|  7>     Ethresh 5.0
|  8>     maxcore 5000
|  9> end
| 10>
| 11> %pal
| 12>   nprocs 6
| 13>   end
| 14> * xyz 0 1
| 15>    C       -9.77329        -1.86113        -1.62462
| 16>    C      -10.41056        -2.55983        -0.63028
| 17>    C      -10.91253        -3.86923        -0.78057
| 18>    N      -11.33679        -4.93474        -0.83600
| 19>    C      -10.66667        -2.08454         0.67233
| 20>    N      -10.91754        -1.77562         1.75033
| 21>    C       -9.55249        -2.34098        -2.98298
| 22>    C       -8.93219        -1.31150        -3.73101
| 23>    C       -8.60652        -1.44909        -5.05837
| 24>    C       -8.90741        -2.66361        -5.68156
| 25>    C       -9.51268        -3.69557        -4.92307
| 26>    C       -9.84285        -3.55481        -3.58080
| 27>    S       -9.78171        -5.11780        -5.88540
| 28>    C       -9.09754        -4.30828        -7.27286
| 29>    C       -8.68256        -3.04425        -7.03184
| 30>   Br       -8.98119        -5.20479        -8.90701
| 31>    C       -8.71560        -0.13236        -2.87264
| 32>    O       -8.14679         0.88683        -3.20098
| 33>    C       -9.25480        -0.50588        -1.53659
| 34>    C       -9.10894         0.21316        -0.38571
| 35>    C       -8.70581         1.58203        -0.28291
| 36>    C       -9.07835         2.50746        -1.25502
| 37>    C       -8.63171         3.81285        -1.23138
| 38>    C       -7.78963         4.28191        -0.22577
| 39>    C       -7.52077         3.40585         0.88053
| 40>    C       -7.96604         2.05603         0.84872
| 41>    C       -7.60488         1.24547         1.94340
| 42>    C       -6.88683         1.77981         2.98230
| 43>    C       -6.51541         3.12827         2.91396
| 44>    N       -6.80996         3.90268         1.90494
| 45>    C       -7.18282         5.56815        -0.23767
| 46>    C       -6.91964         6.33832        -1.33724
| 47>    C       -6.26055         7.60012        -1.33937
| 48>    C       -5.99260         8.09942        -2.57604
| 49>    C       -6.41637         7.25873        -3.63184
| 50>    S       -7.21120         5.83800        -2.99569
| 51>    C       -6.25765         7.39801        -4.99580
| 52>    C       -5.66374         8.43921        -5.74511
| 53>    C       -5.64551         8.20786        -7.08559
| 54>    C       -6.21346         6.96352        -7.48335
| 55>    S       -6.81894         6.12975        -6.06103
| 56>    C       -6.17541         6.43473        -8.74546
| 57>    C       -6.65947         5.15111        -9.14160
| 58>    C       -7.70238         4.53512        -8.45110
| 59>    C       -8.12210         3.25422        -8.74268
| 60>    C       -7.55192         2.50816        -9.76865
| 61>    C       -6.48965         3.10309       -10.51890
| 62>    C       -6.06415         4.43089       -10.23085
| 63>    C       -5.02369         4.94227       -11.02889
| 64>    C       -4.46368         4.17031       -12.01512
| 65>    C       -4.92295         2.85853       -12.16992
| 66>    N       -5.88638         2.34887       -11.45161
| 67>    C       -8.00735         1.16899        -9.96616
| 68>    C       -7.99488         0.34789       -11.04881
| 69>    C       -7.75949         0.55257       -12.46078
| 70>    C       -7.96940         1.71188       -13.15940
| 71>    C       -7.76175         1.84599       -14.54562
| 72>    N       -7.58429         2.01321       -15.66777
| 73>    C       -8.47102         2.89221       -12.57653
| 74>    N       -8.91429         3.86539       -12.15877
| 75>    C       -7.49256        -0.75571       -13.04889
| 76>    C       -7.77154        -1.75781       -12.08389
| 77>    C       -8.16776        -1.11020       -10.82337
| 78>    O       -8.51246        -1.64401        -9.78974
| 79>    C       -7.65239        -3.10036       -12.35183
| 80>    C       -7.22369        -3.47066       -13.63075
| 81>    C       -6.93332        -2.46448       -14.58301
| 82>    C       -7.06514        -1.10688       -14.31463
| 83>    S       -6.40844        -3.14727       -16.09185
| 84>    C       -6.58810        -4.75275       -15.43307
| 85>    C       -7.01731        -4.77863       -14.14959
| 86>   Br       -6.18779        -6.23927       -16.50390
| 87>    H       -8.13648        -0.64340        -5.60022
| 88>    H      -10.30255        -4.37023        -3.04782
| 89>    H       -8.26328        -2.40429        -7.78624
| 90>    H       -9.29638        -0.30253         0.54650
| 91>    H       -9.75341         2.20421        -2.03837
| 92>    H       -8.96930         4.48513        -2.00406
| 93>    H       -7.89856         0.20714         1.97591
| 94>    H       -6.61083         1.18086         3.83587
| 95>    H       -5.95235         3.59033         3.71476
| 96>    H       -6.80884         5.91505         0.71628
| 97>    H       -5.99861         8.08774        -0.41704
| 98>    H       -5.48774         9.03105        -2.75997
| 99>    H       -5.26092         9.31870        -5.27519
|100>    H       -5.22675         8.88359        -7.81064
|101>    H       -5.66170         7.03509        -9.48300
|102>    H       -8.23179         5.08508        -7.68996
|103>    H       -8.94007         2.82877        -8.17986
|104>    H       -4.65667         5.94470       -10.87014
|105>    H       -3.67647         4.55110       -12.64642
|106>    H       -4.48558         2.19776       -12.90823
|107>    H       -8.39111         0.69190        -9.06665
|108>    H       -7.88321        -3.84290       -11.60352
|109>    H       -6.83038        -0.37553       -15.07031
|110>    H       -7.18299        -5.67914       -13.58690
|111> *
|112>
|113>                          ****END OF INPUT****

CARTESIAN COORDINATES (ANGSTROEM)
---------------------------------
  C     -9.773290   -1.861130   -1.624620
  C    -10.410560   -2.559830   -0.630280
  C    -10.912530   -3.869230   -0.780570
  N    -11.336790   -4.934740   -0.836000
  C    -10.666670   -2.084540    0.672330
  N    -10.917540   -1.775620    1.750330
  C     -9.552490   -2.340980   -2.982980
  C     -8.932190   -1.311500   -3.731010
  C     -8.606520   -1.449090   -5.058370
  C     -8.907410   -2.663610   -5.681560
  C     -9.512680   -3.695570   -4.923070
  C     -9.842850   -3.554810   -3.580800
  S     -9.781710   -5.117800   -5.885400
  C     -9.097540   -4.308280   -7.272860
  C     -8.682560   -3.044250   -7.031840
  Br    -8.981190   -5.204790   -8.907010
  C     -8.715600   -0.132360   -2.872640
  O     -8.146790    0.886830   -3.200980
  C     -9.254800   -0.505880   -1.536590
  C     -9.108940    0.213160   -0.385710
  C     -8.705810    1.582030   -0.282910
  C     -9.078350    2.507460   -1.255020
  C     -8.631710    3.812850   -1.231380
  C     -7.789630    4.281910   -0.225770
  C     -7.520770    3.405850    0.880530
  C     -7.966040    2.056030    0.848720
  C     -7.604880    1.245470    1.943400
  C     -6.886830    1.779810    2.982300
  C     -6.515410    3.128270    2.913960
  N     -6.809960    3.902680    1.904940
  C     -7.182820    5.568150   -0.237670
  C     -6.919640    6.338320   -1.337240
  C     -6.260550    7.600120   -1.339370
  C     -5.992600    8.099420   -2.576040
  C     -6.416370    7.258730   -3.631840
  S     -7.211200    5.838000   -2.995690
  C     -6.257650    7.398010   -4.995800
  C     -5.663740    8.439210   -5.745110
  C     -5.645510    8.207860   -7.085590
  C     -6.213460    6.963520   -7.483350
  S     -6.818940    6.129750   -6.061030
  C     -6.175410    6.434730   -8.745460
  C     -6.659470    5.151110   -9.141600
  C     -7.702380    4.535120   -8.451100
  C     -8.122100    3.254220   -8.742680
  C     -7.551920    2.508160   -9.768650
  C     -6.489650    3.103090  -10.518900
  C     -6.064150    4.430890  -10.230850
  C     -5.023690    4.942270  -11.028890
  C     -4.463680    4.170310  -12.015120
  C     -4.922950    2.858530  -12.169920
  N     -5.886380    2.348870  -11.451610
  C     -8.007350    1.168990   -9.966160
  C     -7.994880    0.347890  -11.048810
  C     -7.759490    0.552570  -12.460780
  C     -7.969400    1.711880  -13.159400
  C     -7.761750    1.845990  -14.545620
  N     -7.584290    2.013210  -15.667770
  C     -8.471020    2.892210  -12.576530
  N     -8.914290    3.865390  -12.158770
  C     -7.492560   -0.755710  -13.048890
  C     -7.771540   -1.757810  -12.083890
  C     -8.167760   -1.110200  -10.823370
  O     -8.512460   -1.644010   -9.789740
  C     -7.652390   -3.100360  -12.351830
  C     -7.223690   -3.470660  -13.630750
  C     -6.933320   -2.464480  -14.583010
  C     -7.065140   -1.106880  -14.314630
  S     -6.408440   -3.147270  -16.091850
  C     -6.588100   -4.752750  -15.433070
  C     -7.017310   -4.778630  -14.149590
  Br    -6.187790   -6.239270  -16.503900
  H     -8.136480   -0.643400   -5.600220
  H    -10.302550   -4.370230   -3.047820
  H     -8.263280   -2.404290   -7.786240
  H     -9.296380   -0.302530    0.546500
  H     -9.753410    2.204210   -2.038370
  H     -8.969300    4.485130   -2.004060
  H     -7.898560    0.207140    1.975910
  H     -6.610830    1.180860    3.835870
  H     -5.952350    3.590330    3.714760
  H     -6.808840    5.915050    0.716280
  H     -5.998610    8.087740   -0.417040
  H     -5.487740    9.031050   -2.759970
  H     -5.260920    9.318700   -5.275190
  H     -5.226750    8.883590   -7.810640
  H     -5.661700    7.035090   -9.483000
  H     -8.231790    5.085080   -7.689960
  H     -8.940070    2.828770   -8.179860
  H     -4.656670    5.944700  -10.870140
  H     -3.676470    4.551100  -12.646420
  H     -4.485580    2.197760  -12.908230
  H     -8.391110    0.691900   -9.066650
  H     -7.883210   -3.842900  -11.603520
  H     -6.830380   -0.375530  -15.070310
  H     -7.182990   -5.679140  -13.586900

 Total Charge           Charge          ....    0
 Multiplicity           Mult            ....    1
 Number of Electrons    NEL             ....  564
 Basis Dimension        Dim             .... 1180

ORBITAL ENERGIES
----------------

  NO   OCC          E(Eh)            E(eV)
   0   2.0000    -482.883903    -13139.9390
   1   2.0000    -482.878667    -13139.7965
   2   2.0000     -88.973639     -2421.0958
   3   2.0000     -88.968215     -2420.9482
   4   2.0000     -88.954531     -2420.5758
   5   2.0000     -88.953170     -2420.5388
   6   2.0000     -62.561615     -1702.3881
   7   2.0000     -62.556144     -1702.2392
   8   2.0000     -56.395563     -1534.6013
   9   2.0000     -56.392854     -1534.5276
  10   2.0000     -56.392818     -1534.5266
  11   2.0000     -56.390069     -1534.4518
  12   2.0000     -56.387434     -1534.3801
  13   2.0000     -56.387372     -1534.3784
  14   2.0000     -19.215997      -522.8939
  15   2.0000     -19.212789      -522.8066
  16   2.0000     -14.414352      -392.2344
  17   2.0000     -14.411977      -392.1698
  18   2.0000     -14.410196      -392.1214
  19   2.0000     -14.408138      -392.0654
  20   2.0000     -14.407513      -392.0484
  21   2.0000     -14.406425      -392.0188
  22   2.0000     -10.365318      -282.0547
  23   2.0000     -10.365134      -282.0496
  24   2.0000     -10.356583      -281.8170
  25   2.0000     -10.348823      -281.6058
  26   2.0000     -10.339126      -281.3419
  27   2.0000     -10.338567      -281.3267
  28   2.0000     -10.332801      -281.1698
  29   2.0000     -10.331806      -281.1427
  30   2.0000     -10.323953      -280.9290
  31   2.0000     -10.322433      -280.8877
  32   2.0000     -10.321628      -280.8658
  33   2.0000     -10.319888      -280.8184
  34   2.0000     -10.319175      -280.7990
  35   2.0000     -10.317996      -280.7669
  36   2.0000     -10.317617      -280.7566
  37   2.0000     -10.317404      -280.7508
  38   2.0000     -10.315496      -280.6989
  39   2.0000     -10.315075      -280.6875
  40   2.0000     -10.314151      -280.6623
  41   2.0000     -10.314107      -280.6611
  42   2.0000     -10.313243      -280.6376
  43   2.0000     -10.310435      -280.5612
  44   2.0000     -10.308292      -280.5029
  45   2.0000     -10.307567      -280.4832
  46   2.0000     -10.305222      -280.4193
  47   2.0000     -10.304577      -280.4018
  48   2.0000     -10.303772      -280.3799
  49   2.0000     -10.303599      -280.3752
  50   2.0000     -10.301993      -280.3315
  51   2.0000     -10.301122      -280.3078
  52   2.0000     -10.300561      -280.2925
  53   2.0000     -10.300359      -280.2870
  54   2.0000     -10.299344      -280.2594
  55   2.0000     -10.299295      -280.2581
  56   2.0000     -10.298209      -280.2285
  57   2.0000     -10.297170      -280.2002
  58   2.0000     -10.296600      -280.1847
  59   2.0000     -10.296004      -280.1685
  60   2.0000     -10.295642      -280.1587
  61   2.0000     -10.295451      -280.1535
  62   2.0000     -10.295410      -280.1524
  63   2.0000     -10.295403      -280.1522
  64   2.0000     -10.295061      -280.1428
  65   2.0000     -10.295007      -280.1414
  66   2.0000     -10.292276      -280.0671
  67   2.0000     -10.290657      -280.0230
  68   2.0000     -10.290133      -280.0088
  69   2.0000     -10.289969      -280.0043
  70   2.0000     -10.289599      -279.9942
  71   2.0000     -10.289263      -279.9851
  72   2.0000     -10.287845      -279.9465
  73   2.0000     -10.287390      -279.9341
  74   2.0000     -10.286032      -279.8972
  75   2.0000     -10.285031      -279.8699
  76   2.0000     -10.282781      -279.8087
  77   2.0000     -10.281218      -279.7662
  78   2.0000     -10.280907      -279.7577
  79   2.0000     -10.279478      -279.7188
  80   2.0000      -8.791039      -239.2163
  81   2.0000      -8.785512      -239.0659
  82   2.0000      -8.069635      -219.5859
  83   2.0000      -8.064175      -219.4374
  84   2.0000      -8.050689      -219.0704
  85   2.0000      -8.049248      -219.0312
  86   2.0000      -6.627345      -180.3392
  87   2.0000      -6.621697      -180.1855
  88   2.0000      -6.612760      -179.9424
  89   2.0000      -6.612583      -179.9375
  90   2.0000      -6.607359      -179.7954
  91   2.0000      -6.607079      -179.7878
  92   2.0000      -6.039323      -164.3383
  93   2.0000      -6.035062      -164.2224
  94   2.0000      -6.033870      -164.1900
  95   2.0000      -6.030860      -164.1080
  96   2.0000      -6.029608      -164.0740
  97   2.0000      -6.025385      -163.9591
  98   2.0000      -6.020485      -163.8257
  99   2.0000      -6.018998      -163.7853
 100   2.0000      -6.016239      -163.7102
 101   2.0000      -6.014819      -163.6716
 102   2.0000      -6.011586      -163.5836
 103   2.0000      -6.010207      -163.5461
 104   2.0000      -2.743198       -74.6462
 105   2.0000      -2.739142       -74.5359
 106   2.0000      -2.738975       -74.5313
 107   2.0000      -2.737593       -74.4937
 108   2.0000      -2.733588       -74.3847
 109   2.0000      -2.733433       -74.3805
 110   2.0000      -2.727408       -74.2165
 111   2.0000      -2.727389       -74.2160
 112   2.0000      -2.721988       -74.0690
 113   2.0000      -2.721975       -74.0687
 114   2.0000      -1.130290       -30.7567
 115   2.0000      -1.128464       -30.7071
 116   2.0000      -1.050270       -28.5793
 117   2.0000      -1.046516       -28.4771
 118   2.0000      -1.018886       -27.7253
 119   2.0000      -1.018359       -27.7109
 120   2.0000      -1.008673       -27.4474
 121   2.0000      -1.006919       -27.3996
 122   2.0000      -1.006239       -27.3812
 123   2.0000      -0.991823       -26.9889
 124   2.0000      -0.987322       -26.8664
 125   2.0000      -0.985580       -26.8190
 126   2.0000      -0.984472       -26.7888
 127   2.0000      -0.984329       -26.7849
 128   2.0000      -0.961669       -26.1683
 129   2.0000      -0.959858       -26.1191
 130   2.0000      -0.939581       -25.5673
 131   2.0000      -0.937178       -25.5019
 132   2.0000      -0.923259       -25.1232
 133   2.0000      -0.920197       -25.0398
 134   2.0000      -0.904256       -24.6061
 135   2.0000      -0.903870       -24.5956
 136   2.0000      -0.894720       -24.3466
 137   2.0000      -0.891462       -24.2579
 138   2.0000      -0.887383       -24.1469
 139   2.0000      -0.882933       -24.0258
 140   2.0000      -0.879482       -23.9319
 141   2.0000      -0.875575       -23.8256
 142   2.0000      -0.865236       -23.5443
 143   2.0000      -0.855369       -23.2758
 144   2.0000      -0.853214       -23.2171
 145   2.0000      -0.851750       -23.1773
 146   2.0000      -0.849138       -23.1062
 147   2.0000      -0.831020       -22.6132
 148   2.0000      -0.829492       -22.5716
 149   2.0000      -0.826058       -22.4782
 150   2.0000      -0.822027       -22.3685
 151   2.0000      -0.814065       -22.1518
 152   2.0000      -0.791490       -21.5375
 153   2.0000      -0.773366       -21.0444
 154   2.0000      -0.761291       -20.7158
 155   2.0000      -0.756200       -20.5772
 156   2.0000      -0.751617       -20.4525
 157   2.0000      -0.740203       -20.1420
 158   2.0000      -0.737227       -20.0610
 159   2.0000      -0.732516       -19.9328
 160   2.0000      -0.729930       -19.8624
 161   2.0000      -0.728295       -19.8179
 162   2.0000      -0.712482       -19.3876
 163   2.0000      -0.701830       -19.0978
 164   2.0000      -0.694591       -18.9008
 165   2.0000      -0.686735       -18.6870
 166   2.0000      -0.684931       -18.6379
 167   2.0000      -0.681665       -18.5491
 168   2.0000      -0.678784       -18.4706
 169   2.0000      -0.664141       -18.0722
 170   2.0000      -0.660588       -17.9755
 171   2.0000      -0.651773       -17.7356
 172   2.0000      -0.649041       -17.6613
 173   2.0000      -0.643918       -17.5219
 174   2.0000      -0.635476       -17.2922
 175   2.0000      -0.630099       -17.1459
 176   2.0000      -0.625927       -17.0323
 177   2.0000      -0.623116       -16.9558
 178   2.0000      -0.618994       -16.8437
 179   2.0000      -0.616511       -16.7761
 180   2.0000      -0.614830       -16.7304
 181   2.0000      -0.610304       -16.6072
 182   2.0000      -0.607813       -16.5394
 183   2.0000      -0.594223       -16.1696
 184   2.0000      -0.593434       -16.1482
 185   2.0000      -0.589743       -16.0477
 186   2.0000      -0.587227       -15.9792
 187   2.0000      -0.579856       -15.7787
 188   2.0000      -0.577967       -15.7273
 189   2.0000      -0.571522       -15.5519
 190   2.0000      -0.563741       -15.3402
 191   2.0000      -0.554392       -15.0858
 192   2.0000      -0.550987       -14.9931
 193   2.0000      -0.549085       -14.9414
 194   2.0000      -0.546820       -14.8797
 195   2.0000      -0.541917       -14.7463
 196   2.0000      -0.538658       -14.6576
 197   2.0000      -0.537103       -14.6153
 198   2.0000      -0.535782       -14.5794
 199   2.0000      -0.532814       -14.4986
 200   2.0000      -0.530996       -14.4491
 201   2.0000      -0.528789       -14.3891
 202   2.0000      -0.525985       -14.3128
 203   2.0000      -0.524288       -14.2666
 204   2.0000      -0.522463       -14.2169
 205   2.0000      -0.519491       -14.1361
 206   2.0000      -0.514633       -14.0039
 207   2.0000      -0.512862       -13.9557
 208   2.0000      -0.505946       -13.7675
 209   2.0000      -0.505478       -13.7548
 210   2.0000      -0.504937       -13.7400
 211   2.0000      -0.503868       -13.7110
 212   2.0000      -0.502623       -13.6771
 213   2.0000      -0.500396       -13.6165
 214   2.0000      -0.498442       -13.5633
 215   2.0000      -0.496987       -13.5237
 216   2.0000      -0.495721       -13.4893
 217   2.0000      -0.493131       -13.4188
 218   2.0000      -0.490976       -13.3601
 219   2.0000      -0.490075       -13.3356
 220   2.0000      -0.488176       -13.2840
 221   2.0000      -0.486678       -13.2432
 222   2.0000      -0.483300       -13.1513
 223   2.0000      -0.481591       -13.1048
 224   2.0000      -0.473943       -12.8966
 225   2.0000      -0.472249       -12.8505
 226   2.0000      -0.469261       -12.7692
 227   2.0000      -0.462902       -12.5962
 228   2.0000      -0.461714       -12.5639
 229   2.0000      -0.458587       -12.4788
 230   2.0000      -0.454709       -12.3733
 231   2.0000      -0.448484       -12.2039
 232   2.0000      -0.447183       -12.1685
 233   2.0000      -0.446507       -12.1501
 234   2.0000      -0.445183       -12.1140
 235   2.0000      -0.444062       -12.0835
 236   2.0000      -0.442985       -12.0542
 237   2.0000      -0.441954       -12.0262
 238   2.0000      -0.441856       -12.0235
 239   2.0000      -0.439912       -11.9706
 240   2.0000      -0.438315       -11.9271
 241   2.0000      -0.436337       -11.8733
 242   2.0000      -0.433901       -11.8070
 243   2.0000      -0.433290       -11.7904
 244   2.0000      -0.429267       -11.6809
 245   2.0000      -0.425563       -11.5801
 246   2.0000      -0.424569       -11.5531
 247   2.0000      -0.423725       -11.5301
 248   2.0000      -0.419996       -11.4287
 249   2.0000      -0.419327       -11.4105
 250   2.0000      -0.415422       -11.3042
 251   2.0000      -0.413162       -11.2427
 252   2.0000      -0.406958       -11.0739
 253   2.0000      -0.405119       -11.0238
 254   2.0000      -0.402096       -10.9416
 255   2.0000      -0.398346       -10.8395
 256   2.0000      -0.393165       -10.6986
 257   2.0000      -0.385516       -10.4904
 258   2.0000      -0.382314       -10.4033
 259   2.0000      -0.380013       -10.3407
 260   2.0000      -0.373443       -10.1619
 261   2.0000      -0.368839       -10.0366
 262   2.0000      -0.368035       -10.0147
 263   2.0000      -0.366283        -9.9671
 264   2.0000      -0.350227        -9.5302
 265   2.0000      -0.348255        -9.4765
 266   2.0000      -0.344434        -9.3725
 267   2.0000      -0.339895        -9.2490
 268   2.0000      -0.335139        -9.1196
 269   2.0000      -0.333717        -9.0809
 270   2.0000      -0.332823        -9.0566
 271   2.0000      -0.328964        -8.9516
 272   2.0000      -0.325882        -8.8677
 273   2.0000      -0.321978        -8.7615
 274   2.0000      -0.319929        -8.7057
 275   2.0000      -0.311859        -8.4861
 276   2.0000      -0.309383        -8.4187
 277   2.0000      -0.296081        -8.0568
 278   2.0000      -0.286937        -7.8079
 279   2.0000      -0.286750        -7.8029
 280   2.0000      -0.273792        -7.4503
 281   2.0000      -0.225001        -6.1226
 282   0.0000      -0.105190        -2.8624
 283   0.0000      -0.086203        -2.3457
 284   0.0000      -0.069464        -1.8902
 285   0.0000      -0.058135        -1.5819
 286   0.0000      -0.049951        -1.3592

MULLIKEN ATOMIC CHARGES
-----------------------
   0 C :    0.302922
   1 C :   -0.355973
   2 C :   -0.184922
   3 N :    0.149648
   4 C :   -0.194783
   5 N :    0.152990
   6 C :    0.020460
   7 C :   -0.012766
   8 C :   -0.077823
   9 C :    0.125114
  10 C :   -0.090923
  11 C :   -0.025854
  12 S :    0.177087
  13 C :   -0.131074
  14 C :    0.058737
  15 Br:    0.020438
  16 C :    0.129082
  17 O :   -0.144567
  18 C :   -0.079331
  19 C :   -0.056356
  20 C :    0.058195
  21 C :    0.066953
  22 C :   -0.084492
  23 C :    0.101564
  24 C :   -0.059294
  25 C :    0.080759
  26 C :    0.005864
  27 C :    0.018246
  28 C :    0.026020
  29 N :   -0.050042
  30 C :   -0.028751
  31 C :   -0.007372
  32 C :    0.041643
  33 C :    0.037561
  34 C :   -0.043310
  35 S :    0.078063
  36 C :   -0.051732
  37 C :    0.041969
  38 C :    0.031338
  39 C :   -0.015467
  40 S :    0.074532
  41 C :   -0.052944
  42 C :    0.106089
  43 C :   -0.045798
  44 C :   -0.014447
  45 C :    0.121786
  46 C :   -0.074526
  47 C :    0.097758
  48 C :    0.005038
  49 C :    0.016903
  50 C :    0.046581
  51 N :   -0.066234
  52 C :   -0.020402
  53 C :   -0.095713
  54 C :    0.343510
  55 C :   -0.344888
  56 C :   -0.198178
  57 N :    0.150929
  58 C :   -0.201672
  59 N :    0.172195
  60 C :    0.001700
  61 C :    0.008270
  62 C :    0.141885
  63 O :   -0.160244
  64 C :   -0.059857
  65 C :    0.110419
  66 C :   -0.088718
  67 C :   -0.027337
  68 S :    0.183185
  69 C :   -0.124363
  70 C :    0.041227
  71 Br:    0.020914
  72 H :   -0.012522
  73 H :   -0.007513
  74 H :   -0.006952
  75 H :    0.028714
  76 H :   -0.012595
  77 H :   -0.000373
  78 H :   -0.006651
  79 H :   -0.000181
  80 H :    0.003885
  81 H :    0.006535
  82 H :   -0.003630
  83 H :   -0.009728
  84 H :   -0.009255
  85 H :   -0.007576
  86 H :   -0.010690
  87 H :    0.004448
  88 H :   -0.012224
  89 H :   -0.016616
  90 H :   -0.003216
  91 H :    0.005315
  92 H :    0.013005
  93 H :   -0.028225
  94 H :   -0.006559
  95 H :   -0.004817
Sum of atomic charges:   -0.0000000

LOEWDIN ATOMIC CHARGES
----------------------
   0 C :    0.076732
   1 C :   -0.144372
   2 C :   -0.018139
   3 N :   -0.054993
   4 C :   -0.023074
   5 N :   -0.056109
   6 C :   -0.024177
   7 C :   -0.052679
   8 C :    0.022328
   9 C :   -0.030609
  10 C :   -0.143044
  11 C :   -0.010397
  12 S :    0.424645
  13 C :   -0.272547
  14 C :   -0.060936
  15 Br:    0.138508
  16 C :    0.080101
  17 O :   -0.137275
  18 C :   -0.092773
  19 C :    0.074301
  20 C :   -0.042853
  21 C :    0.040936
  22 C :   -0.031562
  23 C :   -0.005090
  24 C :    0.011096
  25 C :   -0.015331
  26 C :    0.016069
  27 C :   -0.038148
  28 C :    0.024531
  29 N :   -0.064272
  30 C :   -0.034172
  31 C :   -0.134429
  32 C :   -0.019515
  33 C :   -0.031548
  34 C :   -0.171302
  35 S :    0.397009
  36 C :   -0.182071
  37 C :   -0.025034
  38 C :   -0.031926
  39 C :   -0.127376
  40 S :    0.395797
  41 C :   -0.059946
  42 C :    0.005107
  43 C :   -0.032318
  44 C :    0.025882
  45 C :   -0.043214
  46 C :    0.020987
  47 C :   -0.021556
  48 C :    0.025272
  49 C :   -0.044587
  50 C :    0.034707
  51 N :   -0.064243
  52 C :    0.074444
  53 C :   -0.083043
  54 C :    0.079763
  55 C :   -0.134803
  56 C :   -0.019605
  57 N :   -0.061219
  58 C :   -0.016501
  59 N :   -0.053290
  60 C :   -0.010997
  61 C :   -0.053942
  62 C :    0.096505
  63 O :   -0.154806
  64 C :    0.023499
  65 C :   -0.036385
  66 C :   -0.141839
  67 C :   -0.015494
  68 S :    0.430115
  69 C :   -0.273328
  70 C :   -0.069942
  71 Br:    0.134757
  72 H :    0.040153
  73 H :    0.040477
  74 H :    0.035636
  75 H :    0.039808
  76 H :    0.034200
  77 H :    0.020132
  78 H :    0.034679
  79 H :    0.035648
  80 H :    0.022517
  81 H :    0.038543
  82 H :    0.037038
  83 H :    0.033623
  84 H :    0.034202
  85 H :    0.034522
  86 H :    0.031817
  87 H :    0.020171
  88 H :    0.036123
  89 H :    0.031397
  90 H :    0.034758
  91 H :    0.023269
  92 H :    0.042634
  93 H :    0.033959
  94 H :    0.040132
  95 H :    0.038285

  Mayer bond orders larger than 0.100000
B(  0-C ,  1-C ) :   1.6281 B(  0-C ,  6-C ) :   1.0109 B(  0-C , 18-C ) :   1.0577
B(  1-C ,  2-C ) :   1.1448 B(  1-C ,  4-C ) :   1.1456 B(  2-C ,  3-N ) :   2.9696
B(  4-C ,  5-N ) :   2.9749 B(  6-C ,  7-C ) :   1.2687 B(  6-C , 11-C ) :   1.3993
B(  7-C ,  8-C ) :   1.4181 B(  7-C , 16-C ) :   0.9446 B(  8-C ,  9-C ) :   1.2449
B(  8-C , 72-H ) :   1.0187 B(  9-C , 10-C ) :   1.2932 B(  9-C , 14-C ) :   1.1574
B( 10-C , 11-C ) :   1.3369 B( 10-C , 12-S ) :   1.0873 B( 11-C , 73-H ) :   0.9800
B( 12-S , 13-C ) :   1.0745 B( 13-C , 14-C ) :   1.6216 B( 13-C , 15-Br) :   1.0265
B( 14-C , 74-H ) :   0.9832 B( 16-C , 17-O ) :   2.2270 B( 16-C , 18-C ) :   0.9298
B( 18-C , 19-C ) :   1.6245 B( 19-C , 20-C ) :   1.1088 B( 19-C , 75-H ) :   0.9354
B( 20-C , 21-C ) :   1.4017 B( 20-C , 25-C ) :   1.1722 B( 21-C , 22-C ) :   1.3377
B( 21-C , 76-H ) :   0.9784 B( 22-C , 23-C ) :   1.3606 B( 22-C , 77-H ) :   0.9736
B( 23-C , 24-C ) :   1.1755 B( 23-C , 30-C ) :   1.1460 B( 24-C , 25-C ) :   1.2532
B( 24-C , 29-N ) :   1.4785 B( 25-C , 26-C ) :   1.2885 B( 26-C , 27-C ) :   1.5265
B( 26-C , 78-H ) :   0.9695 B( 27-C , 28-C ) :   1.2562 B( 27-C , 79-H ) :   0.9700
B( 28-C , 29-N ) :   1.6417 B( 28-C , 80-H ) :   0.9787 B( 30-C , 31-C ) :   1.5665
B( 30-C , 81-H ) :   0.9588 B( 31-C , 32-C ) :   1.1340 B( 31-C , 35-S ) :   1.0348
B( 32-C , 33-C ) :   1.6017 B( 32-C , 82-H ) :   0.9987 B( 33-C , 34-C ) :   1.1763
B( 33-C , 83-H ) :   0.9939 B( 34-C , 35-S ) :   1.0498 B( 34-C , 36-C ) :   1.5161
B( 36-C , 37-C ) :   1.1801 B( 36-C , 40-S ) :   1.0371 B( 37-C , 38-C ) :   1.6051
B( 37-C , 84-H ) :   0.9936 B( 38-C , 39-C ) :   1.1288 B( 38-C , 85-H ) :   0.9968
B( 39-C , 40-S ) :   1.0436 B( 39-C , 41-C ) :   1.6155 B( 41-C , 42-C ) :   1.1049
B( 41-C , 86-H ) :   0.9593 B( 42-C , 43-C ) :   1.3776 B( 42-C , 47-C ) :   1.1835
B( 43-C , 44-C ) :   1.3170 B( 43-C , 87-H ) :   0.9666 B( 44-C , 45-C ) :   1.3679
B( 44-C , 88-H ) :   0.9987 B( 45-C , 46-C ) :   1.1976 B( 45-C , 52-C ) :   1.0833
B( 46-C , 47-C ) :   1.2370 B( 46-C , 51-N ) :   1.4668 B( 47-C , 48-C ) :   1.2902
B( 48-C , 49-C ) :   1.5084 B( 48-C , 89-H ) :   0.9713 B( 49-C , 50-C ) :   1.2648
B( 49-C , 90-H ) :   0.9727 B( 50-C , 51-N ) :   1.5994 B( 50-C , 91-H ) :   0.9764
B( 52-C , 53-C ) :   1.6621 B( 52-C , 92-H ) :   0.9385 B( 53-C , 54-C ) :   1.0263
B( 53-C , 62-C ) :   0.9634 B( 54-C , 55-C ) :   1.6468 B( 54-C , 60-C ) :   1.0185
B( 55-C , 56-C ) :   1.1454 B( 55-C , 58-C ) :   1.1672 B( 56-C , 57-N ) :   2.9834
B( 58-C , 59-N ) :   3.0116 B( 60-C , 61-C ) :   1.2699 B( 60-C , 67-C ) :   1.4155
B( 61-C , 62-C ) :   0.9343 B( 61-C , 64-C ) :   1.4200 B( 62-C , 63-O ) :   2.1583
B( 64-C , 65-C ) :   1.2524 B( 64-C , 93-H ) :   1.0137 B( 65-C , 66-C ) :   1.3098
B( 65-C , 70-C ) :   1.1612 B( 66-C , 67-C ) :   1.3210 B( 66-C , 68-S ) :   1.0857
B( 67-C , 94-H ) :   0.9843 B( 68-S , 69-C ) :   1.0848 B( 69-C , 70-C ) :   1.6211
B( 69-C , 71-Br) :   1.0163 B( 70-C , 95-H ) :   1.0001

-----------------------------------------------------------------------------
         ABSORPTION SPECTRUM VIA TRANSITION ELECTRIC DIPOLE MOMENTS
-----------------------------------------------------------------------------
State   Energy  Wavelength   fosc         T2         TX        TY        TZ
        (cm-1)    (nm)                  (au**2)     (au)      (au)      (au)
-----------------------------------------------------------------------------
   0   11837.3    844.8   0.710959567  19.77276   0.80183   1.06981  -4.24091
   1   17042.0    586.8   0.718164800  13.87325   0.88842   3.21152   1.66435
   2   21428.4    466.7   0.096804759   1.48724  -0.19020  -0.46403   1.11164
   3   22006.1    454.4   0.711269481  10.64063   0.93721   2.82813   1.32813
   4   23272.6    429.7   0.265477848   3.75542   0.24335   1.33585   1.38265
   5   24825.1    402.8   0.099792334   1.32337  -0.20983   0.01390   1.13100
   6   25621.1    390.3   0.033641420   0.43227  -0.29797   0.53332  -0.24299
   7   25711.5    388.9   0.306878726   3.92930   0.49670   1.91784  -0.06695
   8   25850.5    386.8   0.205409748   2.61593   0.34732  -0.32059  -1.54678
   9   27682.5    361.2   0.049889218   0.59330   0.25838   0.61272   0.38873
  10   28052.1    356.5   0.021989764   0.25807   0.08838  -0.07811   0.49412
  11   28302.2    353.3   0.050050529   0.58219   0.02730  -0.52427  -0.55371
  12   28829.5    346.9   0.006863790   0.07838  -0.08419  -0.22979  -0.13597
  13   29366.8    340.5   0.033049708   0.37050  -0.36030  -0.04836  -0.48820
  14   29945.4    333.9   0.044431662   0.48847   0.00557   0.27613  -0.64202
  15   29991.8    333.4   0.107368203   1.17855  -0.09160   0.99492   0.42462
  16   30183.2    331.3   0.048111424   0.52476   0.44274  -0.23778  -0.52172
  17   30274.3    330.3   0.091045146   0.99005   0.31382  -0.55513  -0.76381
  18   30432.5    328.6   0.191081662   2.06708   0.02418   0.32646   1.39997
  19   30928.3    323.3   0.051878089   0.55221  -0.12618  -0.31429   0.66144
  20   31097.5    321.6   0.005792869   0.06133  -0.17560   0.17210   0.02948
  21   31501.9    317.4   0.037093358   0.38765   0.00843  -0.39974   0.47726
  22   31552.3    316.9   0.050711534   0.52912  -0.04783   0.12096   0.71568
  23   32027.7    312.2   0.145710733   1.49776   0.27471  -0.80019  -0.88430
  24   32146.0    311.1   0.397972303   4.07569   0.42653   0.17078  -1.96586
  25   32228.5    310.3   0.072854732   0.74421  -0.34633   0.72702   0.30936
  26   32963.5    303.4   0.040747463   0.40695  -0.43287  -0.36741  -0.29084
  27   33131.0    301.8   0.208023026   2.06706  -0.23731   1.41799   0.00754
  28   33206.9    301.1   0.046577334   0.46177  -0.18921  -0.43481  -0.48673
  29   33575.5    297.8   0.384149797   3.76663   0.10922  -1.91492  -0.29626
  30   33888.6    295.1   0.020771839   0.20179   0.23969   0.20959  -0.31687
  31   34095.2    293.3   0.148511755   1.43398  -0.41569   0.96428   0.57562
  32   34306.7    291.5   0.018912411   0.18149  -0.06594   0.35236  -0.23017
  33   34798.3    287.4   0.157412730   1.48922   0.26466  -0.02865  -1.19095
  34   34887.7    286.6   0.048856682   0.46103  -0.42073  -0.01541   0.53270
  35   35327.7    283.1   0.023434696   0.21838   0.02110  -0.30722   0.35150
  36   35522.1    281.5   0.036803913   0.34109   0.16701   0.05501  -0.55693
  37   35689.0    280.2   0.004947013   0.04563   0.01110  -0.20788  -0.04794
  38   35886.6    278.7   0.019208298   0.17621  -0.17815  -0.06376  -0.37471
  39   36248.2    275.9   0.068854120   0.62534   0.09491   0.13459   0.77345
  40   36296.4    275.5   0.006934785   0.06290   0.01128  -0.04989   0.24553
  41   36836.0    271.5   0.101189899   0.90436  -0.33673  -0.16135   0.87461
  42   37027.1    270.1   0.044085961   0.39197   0.22993   0.25623   0.52292
  43   37078.7    269.7   0.012442553   0.11047   0.28391   0.16760  -0.04218
  44   37378.3    267.5   0.061246595   0.53943   0.13200   0.21397  -0.69009
  45   37596.8    266.0   0.003032929   0.02656  -0.08433  -0.05776  -0.12692
  46   37837.2    264.3   0.015119517   0.13155  -0.24086  -0.24583  -0.11448
  47   37949.2    263.5   0.017524692   0.15203  -0.34713   0.16517  -0.06518
  48   38237.5    261.5   0.279008036   2.40216  -0.62270  -1.41811  -0.05808
  49   38252.4    261.4   0.074912989   0.64472  -0.40989  -0.66296   0.19286
  50   38533.6    259.5   0.007558888   0.06458   0.02988  -0.25223   0.00824
  51   38593.1    259.1   0.026825841   0.22883  -0.04970   0.20473   0.42947
  52   38929.5    256.9   0.052639595   0.44515   0.37916   0.41039  -0.36466
  53   38959.5    256.7   0.022393118   0.18922  -0.01421  -0.43474   0.00494
  54   39222.3    255.0   0.067529613   0.56681  -0.11620   0.73623  -0.10619
  55   39312.4    254.4   0.015505464   0.12985  -0.01687  -0.24828  -0.26061
  56   39825.7    251.1   0.028336726   0.23424  -0.22966   0.04638   0.42349
  57   40071.1    249.6   0.001496672   0.01230  -0.06510   0.08948  -0.00721
  58   40205.2    248.7   0.012477460   0.10217   0.07595  -0.18728  -0.24764

FINAL SINGLE POINT ENERGY     -9440.255539169542

DIPOLE MOMENT
-------------
                                X             Y             Z
Electronic contribution:     -8.96399    -162.48407    -136.67293
Nuclear contribution   :     11.89459     164.71257     136.68949
                        -----------------------------------------
Total Dipole Moment    :      2.93060       2.22850       0.01656
                        -----------------------------------------
Magnitude (a.u.)       :      3.68170
Magnitude (Debye)      :      9.35814

Rotational constants in cm-1:     0.000891     0.000397     0.000284
Rotational constants in MHz :    26.704845    11.910520     8.505749

                             ****ORCA TERMINATED NORMALLY****
TOTAL RUN TIME: 0 days 0 hours 26 minutes 45 seconds 81 msec
