                         Program Version 4.2.0 -  RELEASE  -
|  1> # ORCA input file
|  2> # SCF done       -181.678503910561          0.000902294422
|  3> ! CAM-B3LYP def2-SVP def2/J RIJCOSX Grid4 TightSCF
|  4> %maxcore 5000
|  5> %tddft
|  6>     Mode sTDDFT
|  7>     Ethresh 5.0
|  8>     maxcore 5000
|  9> end
| 10>
| 11> %pal
| 12>   nprocs 6
| 13>   end
| 14> * xyz 0 1
| 15>    C       -4.33001        -2.61511        -2.07548
| 16>    C       -2.96140        -2.66423        -2.11487
| 17>    C       -2.21306        -3.85908        -2.17975
| 18>    N       -1.55174        -4.79528        -2.23387
| 19>    C       -2.11455        -1.53619        -2.07935
| 20>    N       -1.36813        -0.66440        -2.05270
| 21>    C       -5.22699        -3.76121        -2.04033
| 22>    C       -6.55866        -3.29860        -1.89239
| 23>    C       -7.63515        -4.15003        -1.82597
| 24>    C       -7.38654        -5.52395        -1.90384
| 25>    C       -6.05273        -5.97742        -2.05524
| 26>    C       -4.96505        -5.11689        -2.12582
| 27>    S       -5.97281        -7.70980        -2.14235
| 28>    C       -7.70602        -7.80271        -1.97439
| 29>    C       -8.31566        -6.59832        -1.85885
| 30>   Br       -8.54576        -9.47790        -1.97253
| 31>    C       -6.57274        -1.82643        -1.84801
| 32>    O       -7.54713        -1.11151        -1.85303
| 33>    C       -5.14030        -1.41483        -1.96695
| 34>    C       -4.72564        -0.13124        -2.13134
| 35>    C       -5.50978         1.00399        -1.79259
| 36>    O       -5.28240         2.18934        -2.42505
| 37>    C       -6.46147         1.21056        -0.81355
| 38>    C       -7.15966         0.58944         0.32629
| 39>    O       -7.06672        -0.50532         0.81085
| 40>    N       -7.96381         1.61704         0.80906
| 41>    C       -7.83243         2.84213         0.15717
| 42>    O       -8.42587         3.84828         0.44030
| 43>    C       -6.83236         2.57100        -0.88187
| 44>    C       -6.08899         3.14425        -1.89933
| 45>    C       -6.09283         4.47642        -2.39497
| 46>    C       -5.33484         4.90225        -3.42947
| 47>    C       -5.38621         6.24547        -3.91487
| 48>    C       -4.72943         6.72494        -4.98591
| 49>    C       -3.80334         5.92146        -5.84158
| 50>    C       -4.94000         8.15778        -5.41686
| 51>    N       -3.70705         8.89995        -5.47626
| 52>    C       -3.12384         9.32881        -6.61327
| 53>    C       -1.91584         9.93978        -6.67160
| 54>    C       -1.31949        10.43932        -7.85589
| 55>    S        0.16285        11.36628        -7.73783
| 56>    C        0.27291        11.66145        -9.47498
| 57>    C       -0.82784        11.05804       -10.06715
| 58>    C       -1.68706        10.37006        -9.18565
| 59>    N       -2.68428         9.81530        -9.96492
| 60>    C       -2.46670        10.11506       -11.29611
| 61>    O       -3.14246         9.77790       -12.23218
| 62>    N       -1.32056        10.89933       -11.33102
| 63>    C        1.22972        12.47057       -10.09814
| 64>    C        2.41566        12.95674        -9.61590
| 65>    C        3.23886        12.55378        -8.50517
| 66>    C        3.36286        11.27527        -8.01710
| 67>    C        4.22615        10.91494        -6.96655
| 68>    N        4.89759        10.58078        -6.09653
| 69>    C        2.71963        10.17088        -8.60930
| 70>    N        2.26122         9.24742        -9.11586
| 71>    C        4.13735        13.66444        -8.20332
| 72>    C        4.02968        14.62346        -9.24192
| 73>    C        2.99908        14.18129       -10.20714
| 74>    O        2.66605        14.72691       -11.23706
| 75>    C        4.79216        15.76482        -9.27063
| 76>    C        5.69379        15.97440        -8.22081
| 77>    C        5.78377        15.01652        -7.18400
| 78>    C        5.01940        13.85557        -7.15876
| 79>    S        6.95465        15.47963        -5.98608
| 80>    C        7.30596        16.93168        -6.88545
| 81>    C        6.58384        17.06603        -8.02244
| 82>   Br        8.59206        18.13353        -6.23668
| 83>    H       -8.63656        -3.76635        -1.71160
| 84>    H       -3.96957        -5.50999        -2.24792
| 85>    H       -9.37700        -6.47154        -1.74788
| 86>    H       -3.74706         0.08690        -2.53867
| 87>    H       -8.58402         1.48991         1.59651
| 88>    H       -6.77198         5.14512        -1.88557
| 89>    H       -4.67912         4.19787        -3.91988
| 90>    H       -6.04356         6.91023        -3.36833
| 91>    H       -3.21282         5.22686        -5.25108
| 92>    H       -3.12495         6.57031        -6.39081
| 93>    H       -4.37592         5.34198        -6.56663
| 94>    H       -5.62883         8.65524        -4.72502
| 95>    H       -5.39122         8.17059        -6.41426
| 96>    H       -3.17987         8.97494        -4.61921
| 97>    H       -3.71611         9.18835        -7.50622
| 98>    H       -1.35506        10.09083        -5.76050
| 99>    H       -3.42162         9.20048        -9.67125
|100>    H       -0.91739        11.24543       -12.18493
|101>    H        0.94702        12.85224       -11.07549
|102>    H        4.69978        16.47457       -10.07768
|103>    H        5.11780        13.15246        -6.34808
|104>    H        6.67305        17.89929        -8.69533
|105> *
|106>
|107>                          ****END OF INPUT****

CARTESIAN COORDINATES (ANGSTROEM)
---------------------------------
  C     -4.330010   -2.615110   -2.075480
  C     -2.961400   -2.664230   -2.114870
  C     -2.213060   -3.859080   -2.179750
  N     -1.551740   -4.795280   -2.233870
  C     -2.114550   -1.536190   -2.079350
  N     -1.368130   -0.664400   -2.052700
  C     -5.226990   -3.761210   -2.040330
  C     -6.558660   -3.298600   -1.892390
  C     -7.635150   -4.150030   -1.825970
  C     -7.386540   -5.523950   -1.903840
  C     -6.052730   -5.977420   -2.055240
  C     -4.965050   -5.116890   -2.125820
  S     -5.972810   -7.709800   -2.142350
  C     -7.706020   -7.802710   -1.974390
  C     -8.315660   -6.598320   -1.858850
  Br    -8.545760   -9.477900   -1.972530
  C     -6.572740   -1.826430   -1.848010
  O     -7.547130   -1.111510   -1.853030
  C     -5.140300   -1.414830   -1.966950
  C     -4.725640   -0.131240   -2.131340
  C     -5.509780    1.003990   -1.792590
  O     -5.282400    2.189340   -2.425050
  C     -6.461470    1.210560   -0.813550
  C     -7.159660    0.589440    0.326290
  O     -7.066720   -0.505320    0.810850
  N     -7.963810    1.617040    0.809060
  C     -7.832430    2.842130    0.157170
  O     -8.425870    3.848280    0.440300
  C     -6.832360    2.571000   -0.881870
  C     -6.088990    3.144250   -1.899330
  C     -6.092830    4.476420   -2.394970
  C     -5.334840    4.902250   -3.429470
  C     -5.386210    6.245470   -3.914870
  C     -4.729430    6.724940   -4.985910
  C     -3.803340    5.921460   -5.841580
  C     -4.940000    8.157780   -5.416860
  N     -3.707050    8.899950   -5.476260
  C     -3.123840    9.328810   -6.613270
  C     -1.915840    9.939780   -6.671600
  C     -1.319490   10.439320   -7.855890
  S      0.162850   11.366280   -7.737830
  C      0.272910   11.661450   -9.474980
  C     -0.827840   11.058040  -10.067150
  C     -1.687060   10.370060   -9.185650
  N     -2.684280    9.815300   -9.964920
  C     -2.466700   10.115060  -11.296110
  O     -3.142460    9.777900  -12.232180
  N     -1.320560   10.899330  -11.331020
  C      1.229720   12.470570  -10.098140
  C      2.415660   12.956740   -9.615900
  C      3.238860   12.553780   -8.505170
  C      3.362860   11.275270   -8.017100
  C      4.226150   10.914940   -6.966550
  N      4.897590   10.580780   -6.096530
  C      2.719630   10.170880   -8.609300
  N      2.261220    9.247420   -9.115860
  C      4.137350   13.664440   -8.203320
  C      4.029680   14.623460   -9.241920
  C      2.999080   14.181290  -10.207140
  O      2.666050   14.726910  -11.237060
  C      4.792160   15.764820   -9.270630
  C      5.693790   15.974400   -8.220810
  C      5.783770   15.016520   -7.184000
  C      5.019400   13.855570   -7.158760
  S      6.954650   15.479630   -5.986080
  C      7.305960   16.931680   -6.885450
  C      6.583840   17.066030   -8.022440
  Br     8.592060   18.133530   -6.236680
  H     -8.636560   -3.766350   -1.711600
  H     -3.969570   -5.509990   -2.247920
  H     -9.377000   -6.471540   -1.747880
  H     -3.747060    0.086900   -2.538670
  H     -8.584020    1.489910    1.596510
  H     -6.771980    5.145120   -1.885570
  H     -4.679120    4.197870   -3.919880
  H     -6.043560    6.910230   -3.368330
  H     -3.212820    5.226860   -5.251080
  H     -3.124950    6.570310   -6.390810
  H     -4.375920    5.341980   -6.566630
  H     -5.628830    8.655240   -4.725020
  H     -5.391220    8.170590   -6.414260
  H     -3.179870    8.974940   -4.619210
  H     -3.716110    9.188350   -7.506220
  H     -1.355060   10.090830   -5.760500
  H     -3.421620    9.200480   -9.671250
  H     -0.917390   11.245430  -12.184930
  H      0.947020   12.852240  -11.075490
  H      4.699780   16.474570  -10.077680
  H      5.117800   13.152460   -6.348080
  H      6.673050   17.899290   -8.695330

 Total Charge           Charge          ....    0
 Multiplicity           Mult            ....    1
 Number of Electrons    NEL             ....  538
 Basis Dimension        Dim             .... 1110

ORBITAL ENERGIES
----------------

  NO   OCC          E(Eh)            E(eV)
   0   2.0000    -482.889591    -13140.0938
   1   2.0000    -482.878789    -13139.7999
   2   2.0000     -88.980464     -2421.2815
   3   2.0000     -88.967201     -2420.9206
   4   2.0000     -88.958823     -2420.6926
   5   2.0000     -62.567346     -1702.5440
   6   2.0000     -62.556521     -1702.2495
   7   2.0000     -56.401301     -1534.7574
   8   2.0000     -56.398571     -1534.6831
   9   2.0000     -56.398544     -1534.6824
  10   2.0000     -56.390462     -1534.4625
  11   2.0000     -56.387764     -1534.3891
  12   2.0000     -56.387726     -1534.3880
  13   2.0000     -19.324971      -525.8592
  14   2.0000     -19.223567      -523.0998
  15   2.0000     -19.219304      -522.9838
  16   2.0000     -19.219267      -522.9828
  17   2.0000     -19.200542      -522.4733
  18   2.0000     -19.190028      -522.1872
  19   2.0000     -14.472966      -393.8294
  20   2.0000     -14.467547      -393.6820
  21   2.0000     -14.463136      -393.5619
  22   2.0000     -14.462091      -393.5335
  23   2.0000     -14.423321      -392.4785
  24   2.0000     -14.422341      -392.4518
  25   2.0000     -14.403414      -391.9368
  26   2.0000     -14.398527      -391.8038
  27   2.0000     -10.413227      -283.3583
  28   2.0000     -10.408748      -283.2364
  29   2.0000     -10.407965      -283.2151
  30   2.0000     -10.377802      -282.3944
  31   2.0000     -10.375701      -282.3372
  32   2.0000     -10.371009      -282.2095
  33   2.0000     -10.363875      -282.0154
  34   2.0000     -10.352519      -281.7064
  35   2.0000     -10.351620      -281.6819
  36   2.0000     -10.350357      -281.6475
  37   2.0000     -10.349296      -281.6187
  38   2.0000     -10.346939      -281.5545
  39   2.0000     -10.340422      -281.3772
  40   2.0000     -10.339245      -281.3452
  41   2.0000     -10.331212      -281.1266
  42   2.0000     -10.331205      -281.1264
  43   2.0000     -10.329338      -281.0756
  44   2.0000     -10.328116      -281.0423
  45   2.0000     -10.326653      -281.0025
  46   2.0000     -10.325653      -280.9753
  47   2.0000     -10.324623      -280.9473
  48   2.0000     -10.323557      -280.9183
  49   2.0000     -10.316262      -280.7198
  50   2.0000     -10.314848      -280.6813
  51   2.0000     -10.314303      -280.6664
  52   2.0000     -10.313557      -280.6461
  53   2.0000     -10.313285      -280.6388
  54   2.0000     -10.311446      -280.5887
  55   2.0000     -10.309440      -280.5341
  56   2.0000     -10.309415      -280.5334
  57   2.0000     -10.309040      -280.5232
  58   2.0000     -10.307832      -280.4904
  59   2.0000     -10.306896      -280.4649
  60   2.0000     -10.306323      -280.4493
  61   2.0000     -10.305636      -280.4306
  62   2.0000     -10.302244      -280.3383
  63   2.0000     -10.301288      -280.3123
  64   2.0000     -10.301248      -280.3112
  65   2.0000     -10.298530      -280.2373
  66   2.0000     -10.297644      -280.2131
  67   2.0000     -10.297578      -280.2113
  68   2.0000     -10.295421      -280.1526
  69   2.0000     -10.294200      -280.1194
  70   2.0000     -10.291262      -280.0395
  71   2.0000     -10.288824      -279.9731
  72   2.0000     -10.288263      -279.9579
  73   2.0000     -10.284641      -279.8593
  74   2.0000     -10.281658      -279.7781
  75   2.0000     -10.278219      -279.6846
  76   2.0000      -8.796810      -239.3734
  77   2.0000      -8.785951      -239.0779
  78   2.0000      -8.076443      -219.7712
  79   2.0000      -8.063220      -219.4114
  80   2.0000      -8.053473      -219.1462
  81   2.0000      -6.633155      -180.4973
  82   2.0000      -6.622228      -180.2000
  83   2.0000      -6.618534      -180.0995
  84   2.0000      -6.618307      -180.0933
  85   2.0000      -6.607690      -179.8044
  86   2.0000      -6.607518      -179.7997
  87   2.0000      -6.046135      -164.5237
  88   2.0000      -6.041845      -164.4070
  89   2.0000      -6.037681      -164.2937
  90   2.0000      -6.032912      -164.1639
  91   2.0000      -6.028649      -164.0479
  92   2.0000      -6.024432      -163.9331
  93   2.0000      -6.023341      -163.9034
  94   2.0000      -6.019203      -163.7908
  95   2.0000      -6.014449      -163.6615
  96   2.0000      -2.748963       -74.8031
  97   2.0000      -2.744945       -74.6937
  98   2.0000      -2.744779       -74.6892
  99   2.0000      -2.738075       -74.5068
 100   2.0000      -2.734018       -74.3964
 101   2.0000      -2.733908       -74.3934
 102   2.0000      -2.733144       -74.3726
 103   2.0000      -2.733125       -74.3721
 104   2.0000      -2.722356       -74.0791
 105   2.0000      -2.722328       -74.0783
 106   2.0000      -1.240997       -33.7692
 107   2.0000      -1.164515       -31.6881
 108   2.0000      -1.164346       -31.6835
 109   2.0000      -1.145316       -31.1656
 110   2.0000      -1.138405       -30.9776
 111   2.0000      -1.115319       -30.3494
 112   2.0000      -1.089269       -29.6405
 113   2.0000      -1.064758       -28.9735
 114   2.0000      -1.051395       -28.6099
 115   2.0000      -1.029412       -28.0117
 116   2.0000      -1.019807       -27.7503
 117   2.0000      -1.012731       -27.5578
 118   2.0000      -1.011638       -27.5281
 119   2.0000      -1.001654       -27.2564
 120   2.0000      -1.001382       -27.2490
 121   2.0000      -0.996846       -27.1256
 122   2.0000      -0.985188       -26.8083
 123   2.0000      -0.977649       -26.6032
 124   2.0000      -0.976803       -26.5802
 125   2.0000      -0.955137       -25.9906
 126   2.0000      -0.948447       -25.8085
 127   2.0000      -0.935557       -25.4578
 128   2.0000      -0.933323       -25.3970
 129   2.0000      -0.930984       -25.3334
 130   2.0000      -0.914686       -24.8899
 131   2.0000      -0.909085       -24.7375
 132   2.0000      -0.900202       -24.4957
 133   2.0000      -0.897386       -24.4191
 134   2.0000      -0.891582       -24.2612
 135   2.0000      -0.882604       -24.0169
 136   2.0000      -0.876001       -23.8372
 137   2.0000      -0.873989       -23.7824
 138   2.0000      -0.855525       -23.2800
 139   2.0000      -0.842848       -22.9351
 140   2.0000      -0.834729       -22.7141
 141   2.0000      -0.829004       -22.5583
 142   2.0000      -0.820104       -22.3162
 143   2.0000      -0.814446       -22.1622
 144   2.0000      -0.804247       -21.8847
 145   2.0000      -0.792971       -21.5778
 146   2.0000      -0.783679       -21.3250
 147   2.0000      -0.774660       -21.0796
 148   2.0000      -0.768686       -20.9170
 149   2.0000      -0.762535       -20.7496
 150   2.0000      -0.757578       -20.6147
 151   2.0000      -0.754680       -20.5359
 152   2.0000      -0.743760       -20.2387
 153   2.0000      -0.733605       -19.9624
 154   2.0000      -0.726897       -19.7799
 155   2.0000      -0.710896       -19.3445
 156   2.0000      -0.704052       -19.1582
 157   2.0000      -0.702473       -19.1153
 158   2.0000      -0.696143       -18.9430
 159   2.0000      -0.687112       -18.6973
 160   2.0000      -0.682312       -18.5667
 161   2.0000      -0.680521       -18.5179
 162   2.0000      -0.672789       -18.3075
 163   2.0000      -0.663358       -18.0509
 164   2.0000      -0.661670       -18.0050
 165   2.0000      -0.648809       -17.6550
 166   2.0000      -0.643698       -17.5159
 167   2.0000      -0.635456       -17.2916
 168   2.0000      -0.629057       -17.1175
 169   2.0000      -0.621138       -16.9020
 170   2.0000      -0.620644       -16.8886
 171   2.0000      -0.615577       -16.7507
 172   2.0000      -0.612672       -16.6716
 173   2.0000      -0.606638       -16.5075
 174   2.0000      -0.604323       -16.4445
 175   2.0000      -0.603816       -16.4307
 176   2.0000      -0.600826       -16.3493
 177   2.0000      -0.596886       -16.2421
 178   2.0000      -0.593766       -16.1572
 179   2.0000      -0.591088       -16.0843
 180   2.0000      -0.586140       -15.9497
 181   2.0000      -0.580053       -15.7840
 182   2.0000      -0.574851       -15.6425
 183   2.0000      -0.573284       -15.5999
 184   2.0000      -0.562335       -15.3019
 185   2.0000      -0.558901       -15.2085
 186   2.0000      -0.556312       -15.1380
 187   2.0000      -0.553731       -15.0678
 188   2.0000      -0.551060       -14.9951
 189   2.0000      -0.547430       -14.8963
 190   2.0000      -0.543786       -14.7972
 191   2.0000      -0.540979       -14.7208
 192   2.0000      -0.536746       -14.6056
 193   2.0000      -0.531907       -14.4739
 194   2.0000      -0.529436       -14.4067
 195   2.0000      -0.528540       -14.3823
 196   2.0000      -0.524841       -14.2817
 197   2.0000      -0.523869       -14.2552
 198   2.0000      -0.521947       -14.2029
 199   2.0000      -0.518293       -14.1035
 200   2.0000      -0.515195       -14.0192
 201   2.0000      -0.514338       -13.9959
 202   2.0000      -0.512738       -13.9523
 203   2.0000      -0.511373       -13.9152
 204   2.0000      -0.509627       -13.8677
 205   2.0000      -0.501825       -13.6554
 206   2.0000      -0.500549       -13.6206
 207   2.0000      -0.499276       -13.5860
 208   2.0000      -0.498507       -13.5651
 209   2.0000      -0.497597       -13.5403
 210   2.0000      -0.495765       -13.4904
 211   2.0000      -0.491697       -13.3798
 212   2.0000      -0.488013       -13.2795
 213   2.0000      -0.485631       -13.2147
 214   2.0000      -0.483626       -13.1601
 215   2.0000      -0.482354       -13.1255
 216   2.0000      -0.478682       -13.0256
 217   2.0000      -0.475658       -12.9433
 218   2.0000      -0.472457       -12.8562
 219   2.0000      -0.468841       -12.7578
 220   2.0000      -0.463728       -12.6187
 221   2.0000      -0.461247       -12.5512
 222   2.0000      -0.457234       -12.4420
 223   2.0000      -0.455529       -12.3956
 224   2.0000      -0.452426       -12.3111
 225   2.0000      -0.450543       -12.2599
 226   2.0000      -0.448602       -12.2071
 227   2.0000      -0.444819       -12.1041
 228   2.0000      -0.443885       -12.0787
 229   2.0000      -0.440030       -11.9738
 230   2.0000      -0.437543       -11.9062
 231   2.0000      -0.436235       -11.8706
 232   2.0000      -0.434018       -11.8102
 233   2.0000      -0.431839       -11.7509
 234   2.0000      -0.431670       -11.7464
 235   2.0000      -0.429148       -11.6777
 236   2.0000      -0.426522       -11.6062
 237   2.0000      -0.423970       -11.5368
 238   2.0000      -0.422931       -11.5085
 239   2.0000      -0.417823       -11.3695
 240   2.0000      -0.415917       -11.3177
 241   2.0000      -0.412944       -11.2368
 242   2.0000      -0.406669       -11.0660
 243   2.0000      -0.397649       -10.8206
 244   2.0000      -0.397146       -10.8069
 245   2.0000      -0.390674       -10.6308
 246   2.0000      -0.387371       -10.5409
 247   2.0000      -0.386750       -10.5240
 248   2.0000      -0.379762       -10.3338
 249   2.0000      -0.379014       -10.3135
 250   2.0000      -0.378577       -10.3016
 251   2.0000      -0.370876       -10.0921
 252   2.0000      -0.368628       -10.0309
 253   2.0000      -0.368477       -10.0268
 254   2.0000      -0.365156        -9.9364
 255   2.0000      -0.359642        -9.7863
 256   2.0000      -0.353454        -9.6180
 257   2.0000      -0.347442        -9.4544
 258   2.0000      -0.346330        -9.4241
 259   2.0000      -0.331028        -9.0077
 260   2.0000      -0.325453        -8.8560
 261   2.0000      -0.320310        -8.7161
 262   2.0000      -0.309864        -8.4318
 263   2.0000      -0.305739        -8.3196
 264   2.0000      -0.299155        -8.1404
 265   2.0000      -0.284707        -7.7473
 266   2.0000      -0.282677        -7.6920
 267   2.0000      -0.279064        -7.5937
 268   2.0000      -0.244035        -6.6405
 269   0.0000      -0.106644        -2.9019
 270   0.0000      -0.081498        -2.2177
 271   0.0000      -0.070060        -1.9064
 272   0.0000      -0.060540        -1.6474
 273   0.0000      -0.046885        -1.2758

MULLIKEN ATOMIC CHARGES
-----------------------
   0 C :    0.293756
   1 C :   -0.333153
   2 C :   -0.185851
   3 N :    0.156413
   4 C :   -0.197873
   5 N :    0.163030
   6 C :    0.021556
   7 C :   -0.020724
   8 C :   -0.058195
   9 C :    0.115411
  10 C :   -0.088231
  11 C :   -0.019946
  12 S :    0.190408
  13 C :   -0.123326
  14 C :    0.038695
  15 Br:    0.028569
  16 C :    0.161554
  17 O :   -0.142958
  18 C :   -0.070919
  19 C :   -0.038380
  20 C :    0.116741
  21 O :   -0.202232
  22 C :   -0.015603
  23 C :    0.188213
  24 O :   -0.138241
  25 N :   -0.165037
  26 C :    0.173933
  27 O :   -0.138476
  28 C :   -0.055622
  29 C :    0.105355
  30 C :   -0.038832
  31 C :    0.037481
  32 C :    0.003335
  33 C :   -0.196269
  34 C :    0.083462
  35 C :    0.218921
  36 N :   -0.156767
  37 C :    0.061516
  38 C :    0.035515
  39 C :   -0.185330
  40 S :    0.127937
  41 C :   -0.200451
  42 C :    0.188653
  43 C :    0.136519
  44 N :   -0.122563
  45 C :    0.161258
  46 O :   -0.192809
  47 N :   -0.090857
  48 C :    0.012928
  49 C :   -0.152883
  50 C :    0.255423
  51 C :   -0.328062
  52 C :   -0.176863
  53 N :    0.137041
  54 C :   -0.209751
  55 N :    0.158975
  56 C :    0.004190
  57 C :    0.002102
  58 C :    0.136990
  59 O :   -0.157718
  60 C :   -0.077827
  61 C :    0.111368
  62 C :   -0.086749
  63 C :   -0.025308
  64 S :    0.177983
  65 C :   -0.126697
  66 C :    0.040513
  67 Br:    0.015668
  68 H :   -0.008408
  69 H :   -0.004572
  70 H :   -0.001245
  71 H :    0.036892
  72 H :    0.141165
  73 H :    0.015274
  74 H :    0.008275
  75 H :   -0.017303
  76 H :    0.041882
  77 H :    0.022487
  78 H :    0.040894
  79 H :    0.017246
  80 H :    0.025739
  81 H :    0.126643
  82 H :   -0.023702
  83 H :   -0.027331
  84 H :    0.135531
  85 H :    0.147704
  86 H :    0.004092
  87 H :   -0.011653
  88 H :   -0.005519
  89 H :   -0.004993
Sum of atomic charges:   -0.0000000

LOEWDIN ATOMIC CHARGES
----------------------
   0 C :    0.072862
   1 C :   -0.131656
   2 C :   -0.018432
   3 N :   -0.045880
   4 C :   -0.022192
   5 N :   -0.046180
   6 C :   -0.020160
   7 C :   -0.046651
   8 C :    0.026788
   9 C :   -0.030267
  10 C :   -0.142455
  11 C :   -0.008764
  12 S :    0.435955
  13 C :   -0.270031
  14 C :   -0.069775
  15 Br:    0.140972
  16 C :    0.089136
  17 O :   -0.129231
  18 C :   -0.066015
  19 C :    0.044710
  20 C :    0.047803
  21 O :    0.021030
  22 C :   -0.051410
  23 C :    0.089677
  24 O :   -0.145312
  25 N :   -0.000592
  26 C :    0.086407
  27 O :   -0.155716
  28 C :   -0.099110
  29 C :    0.081885
  30 C :   -0.041684
  31 C :    0.012940
  32 C :   -0.049573
  33 C :   -0.025407
  34 C :   -0.053421
  35 C :    0.048600
  36 N :    0.008227
  37 C :    0.050538
  38 C :   -0.138536
  39 C :   -0.140834
  40 S :    0.443010
  41 C :   -0.221839
  42 C :    0.030724
  43 C :   -0.049354
  44 N :    0.009197
  45 C :    0.076789
  46 O :   -0.209418
  47 N :    0.031131
  48 C :    0.047954
  49 C :   -0.123187
  50 C :    0.063080
  51 C :   -0.156945
  52 C :   -0.020221
  53 N :   -0.064656
  54 C :   -0.035759
  55 N :   -0.064038
  56 C :   -0.015732
  57 C :   -0.051263
  58 C :    0.080565
  59 O :   -0.159499
  60 C :    0.019243
  61 C :   -0.036779
  62 C :   -0.144771
  63 C :   -0.015849
  64 S :    0.426830
  65 C :   -0.275074
  66 C :   -0.070297
  67 Br:    0.130647
  68 H :    0.042313
  69 H :    0.041520
  70 H :    0.039683
  71 H :    0.052276
  72 H :    0.096623
  73 H :    0.046495
  74 H :    0.033001
  75 H :    0.028582
  76 H :    0.039594
  77 H :    0.032959
  78 H :    0.044942
  79 H :    0.029057
  80 H :    0.035454
  81 H :    0.085438
  82 H :    0.020991
  83 H :    0.028182
  84 H :    0.087218
  85 H :    0.101429
  86 H :    0.043679
  87 H :    0.039985
  88 H :    0.039918
  89 H :    0.037929

  Mayer bond orders larger than 0.100000
B(  0-C ,  1-C ) :   1.6488 B(  0-C ,  6-C ) :   1.0145 B(  0-C , 18-C ) :   1.0655
B(  1-C ,  2-C ) :   1.1384 B(  1-C ,  4-C ) :   1.1410 B(  2-C ,  3-N ) :   2.9727
B(  4-C ,  5-N ) :   2.9874 B(  6-C ,  7-C ) :   1.2716 B(  6-C , 11-C ) :   1.4032
B(  7-C ,  8-C ) :   1.4226 B(  7-C , 16-C ) :   0.9465 B(  8-C ,  9-C ) :   1.2512
B(  8-C , 68-H ) :   1.0165 B(  9-C , 10-C ) :   1.2990 B(  9-C , 14-C ) :   1.1627
B( 10-C , 11-C ) :   1.3361 B( 10-C , 12-S ) :   1.0874 B( 11-C , 69-H ) :   0.9802
B( 12-S , 13-C ) :   1.0868 B( 13-C , 14-C ) :   1.6163 B( 13-C , 15-Br) :   1.0214
B( 14-C , 70-H ) :   1.0008 B( 16-C , 17-O ) :   2.2212 B( 16-C , 18-C ) :   0.9251
B( 18-C , 19-C ) :   1.6259 B( 19-C , 20-C ) :   1.1531 B( 19-C , 71-H ) :   0.9358
B( 20-C , 21-O ) :   1.1186 B( 20-C , 22-C ) :   1.4495 B( 21-O , 29-C ) :   1.1739
B( 22-C , 23-C ) :   0.8610 B( 22-C , 28-C ) :   1.3130 B( 23-C , 24-O ) :   2.2471
B( 23-C , 25-N ) :   1.0870 B( 25-N , 26-C ) :   1.0765 B( 25-N , 72-H ) :   0.9148
B( 26-C , 27-O ) :   2.2707 B( 26-C , 28-C ) :   0.8766 B( 28-C , 29-C ) :   1.3767
B( 29-C , 30-C ) :   1.1489 B( 30-C , 31-C ) :   1.6547 B( 30-C , 73-H ) :   0.9691
B( 31-C , 32-C ) :   1.0947 B( 31-C , 74-H ) :   0.9804 B( 32-C , 33-C ) :   1.7485
B( 32-C , 75-H ) :   0.9792 B( 33-C , 34-C ) :   1.0674 B( 33-C , 35-C ) :   1.0493
B( 34-C , 76-H ) :   0.9474 B( 34-C , 77-H ) :   0.9521 B( 34-C , 78-H ) :   0.9439
B( 35-C , 36-N ) :   0.9906 B( 35-C , 79-H ) :   0.9386 B( 35-C , 80-H ) :   0.9263
B( 36-N , 37-C ) :   1.2454 B( 36-N , 81-H ) :   0.9401 B( 37-C , 38-C ) :   1.5844
B( 37-C , 82-H ) :   0.9621 B( 38-C , 39-C ) :   1.1897 B( 38-C , 83-H ) :   0.9401
B( 39-C , 40-S ) :   1.1088 B( 39-C , 43-C ) :   1.4214 B( 40-S , 41-C ) :   1.0323
B( 41-C , 42-C ) :   1.3681 B( 41-C , 48-C ) :   1.2467 B( 42-C , 43-C ) :   1.2840
B( 42-C , 47-N ) :   1.1902 B( 43-C , 44-N ) :   1.1012 B( 44-N , 45-C ) :   1.0797
B( 44-N , 84-H ) :   0.9258 B( 45-C , 46-O ) :   2.1989 B( 45-C , 47-N ) :   1.0462
B( 47-N , 85-H ) :   0.9214 B( 48-C , 49-C ) :   1.5486 B( 48-C , 86-H ) :   0.9451
B( 49-C , 50-C ) :   1.0734 B( 49-C , 58-C ) :   0.9638 B( 50-C , 51-C ) :   1.6178
B( 50-C , 56-C ) :   1.0122 B( 51-C , 52-C ) :   1.1360 B( 51-C , 54-C ) :   1.1573
B( 52-C , 53-N ) :   2.9834 B( 54-C , 55-N ) :   3.0241 B( 56-C , 57-C ) :   1.2787
B( 56-C , 63-C ) :   1.4244 B( 57-C , 58-C ) :   0.9201 B( 57-C , 60-C ) :   1.4299
B( 58-C , 59-O ) :   2.2527 B( 60-C , 61-C ) :   1.2480 B( 60-C , 87-H ) :   1.0163
B( 61-C , 62-C ) :   1.3161 B( 61-C , 66-C ) :   1.1624 B( 62-C , 63-C ) :   1.3184
B( 62-C , 64-S ) :   1.0805 B( 63-C , 88-H ) :   0.9836 B( 64-S , 65-C ) :   1.0863
B( 65-C , 66-C ) :   1.6202 B( 65-C , 67-Br) :   1.0138 B( 66-C , 89-H ) :   1.0002

-----------------------------------------------------------------------------
         ABSORPTION SPECTRUM VIA TRANSITION ELECTRIC DIPOLE MOMENTS
-----------------------------------------------------------------------------
State   Energy  Wavelength   fosc         T2         TX        TY        TZ
        (cm-1)    (nm)                  (au**2)     (au)      (au)      (au)
-----------------------------------------------------------------------------
   0   18163.5    550.6   0.860705713  15.60022  -3.13516  -2.26314   0.80571
   1   20212.1    494.8   0.542065166   8.82908   1.19366  -2.70725   0.27394
   2   21666.3    461.5   0.137627715   2.09121  -0.47610   1.34826   0.21617
   3   25179.0    397.2   0.174490227   2.28144  -0.55189   0.21499  -1.38947
   4   25520.6    391.8   0.205302529   2.64837   0.97480   1.30293  -0.02241
   5   25944.5    385.4   0.264158607   3.35194   1.47414   0.96773  -0.49229
   6   26586.0    376.1   0.052153283   0.64581   0.55963  -0.55435   0.15914
   7   27822.5    359.4   0.384748508   4.55257   0.89758   1.77718  -0.76717
   8   28346.5    352.8   0.018973211   0.22035  -0.46440   0.06742   0.01198
   9   28453.5    351.5   0.068637631   0.79415  -0.46808  -0.74680  -0.13168
  10   28507.9    350.8   0.471219512   5.44168  -1.49948  -1.78645  -0.04266
  11   30160.1    331.6   0.039090279   0.42669  -0.21036  -0.06007  -0.61549
  12   30652.7    326.2   0.011073514   0.11893  -0.08361  -0.31026   0.12522
  13   30977.6    322.8   0.542008536   5.76015   0.68252   1.68527  -1.56659
  14   31106.7    321.5   0.118737189   1.25663   0.42154   0.93379  -0.45495
  15   31498.0    317.5   0.086865543   0.90791  -0.17940  -0.68286   0.63986
  16   31985.0    312.6   0.161998795   1.66740   0.95314   0.87069   0.02870
  17   32287.0    309.7   0.038043302   0.38791  -0.14443   0.29484  -0.52926
  18   32385.6    308.8   0.404718419   4.11412  -1.54355  -1.30264  -0.18632
  19   32860.2    304.3   0.017377034   0.17409  -0.10235  -0.39241  -0.09816
  20   33186.7    301.3   0.106817172   1.05962   0.49475   0.73123   0.52930
  21   33601.4    297.6   0.008997913   0.08816   0.17670  -0.18684  -0.14841
  22   33998.6    294.1   0.318562584   3.08467  -0.88377  -1.44002   0.47955
  23   34427.6    290.5   0.144627675   1.38299   0.32284  -0.53055  -0.99864
  24   34512.2    289.8   0.035190715   0.33568  -0.45568   0.07983  -0.34881
  25   34607.4    289.0   0.163794057   1.55814  -0.48829  -1.10084  -0.32842
  26   36262.2    275.8   0.156589189   1.42162  -0.08478   0.56169   1.04830
  27   36381.8    274.9   0.021502492   0.19457  -0.30134   0.24740  -0.20631
  28   37008.7    270.2   0.306510300   2.72657   1.17929  -1.03578  -0.51286
  29   37919.8    263.7   0.004579843   0.03976   0.05821  -0.16775   0.09072
  30   38109.8    262.4   0.001461977   0.01263  -0.09247  -0.03042   0.05615
  31   38562.6    259.3   0.017915483   0.15295   0.31408   0.20208  -0.11603
  32   39067.6    256.0   0.123059402   1.03699  -0.50221   0.17966  -0.86746
  33   39423.9    253.7   0.075532199   0.63074   0.68829  -0.39225   0.05596
  34   39605.1    252.5   0.010107762   0.08402   0.07089   0.02703  -0.27976
  35   39781.1    251.4   0.052571781   0.43506   0.01111  -0.18130   0.63409
  36   40250.0    248.4   0.072160168   0.59021   0.44626   0.62478  -0.02665
  37   40297.4    248.2   0.012567602   0.10267  -0.05083  -0.31624  -0.00880

FINAL SINGLE POINT ENERGY     -9108.459839097815

DIPOLE MOMENT
-------------
                                X             Y             Z
Electronic contribution:     57.74685     -44.19998      28.02197
Nuclear contribution   :    -61.76550      44.45714     -27.08959
                        -----------------------------------------
Total Dipole Moment    :     -4.01865       0.25716       0.93238
                        -----------------------------------------
Magnitude (a.u.)       :      4.13340
Magnitude (Debye)      :     10.50627

Rotational constants in cm-1:     0.001486     0.000141     0.000139
Rotational constants in MHz :    44.559533     4.229752     4.161689

                             ****ORCA TERMINATED NORMALLY****
TOTAL RUN TIME: 0 days 0 hours 8 minutes 55 seconds 855 msec
