                         Program Version 4.2.0 -  RELEASE  -
|  1> # ORCA input file
|  2> # SCF done       -195.536060198546          0.000991785882
|  3> ! CAM-B3LYP def2-SVP def2/J RIJCOSX Grid4 TightSCF
|  4> %maxcore 5000
|  5> %tddft
|  6>     Mode sTDDFT
|  7>     Ethresh 5.0
|  8>     maxcore 5000
|  9> end
| 10>
| 11> %pal
| 12>   nprocs 6
| 13>   end
| 14> * xyz 0 1
| 15>    C      -12.26482        -7.57763       -13.20047
| 16>    C      -12.85151        -8.46869       -14.05569
| 17>    F      -13.70509        -8.03854       -14.99308
| 18>    C      -12.56715        -9.84549       -13.96274
| 19>    F      -13.15576       -10.69604       -14.81326
| 20>    C      -11.69978       -10.31293       -13.01449
| 21>    C      -11.08093        -9.42027       -12.11904
| 22>    C      -11.36637        -8.02732       -12.21298
| 23>    C      -10.75415        -7.11152       -11.32558
| 24>    C       -9.88752        -7.57527       -10.37248
| 25>    C       -9.61284        -8.97158       -10.28144
| 26>    C      -10.18457        -9.87788       -11.12656
| 27>    C       -8.67609        -9.19852        -9.17228
| 28>    O       -8.21623       -10.26532        -8.78326
| 29>    C       -8.41940        -7.88082        -8.58244
| 30>    C       -9.11542        -6.87705        -9.34750
| 31>    C       -9.02277        -5.51450        -9.19945
| 32>    C       -9.73453        -4.58155        -9.97938
| 33>    N      -10.29084        -3.77259       -10.57510
| 34>    C       -8.16424        -4.87796        -8.28554
| 35>    N       -7.45527        -4.30882        -7.58186
| 36>    C       -7.68786        -7.73489        -7.42750
| 37>    N       -7.09346        -8.79505        -6.86525
| 38>    C       -6.36401        -8.85524        -5.71466
| 39>    S       -6.20735       -10.41301        -4.95824
| 40>    C       -5.31177        -9.68081        -3.67031
| 41>    N       -4.83916       -10.50638        -2.64015
| 42>    O       -4.21823        -9.97935        -1.73665
| 43>    O       -5.09224       -11.69451        -2.73187
| 44>    C       -5.14743        -8.33019        -3.82118
| 45>    C       -5.73388        -7.83088        -5.00089
| 46>    C       -5.62041        -6.45638        -5.43165
| 47>    C       -5.46625        -5.40889        -4.60384
| 48>    C       -5.36963        -4.06491        -5.09631
| 49>    C       -5.24353        -2.96354        -4.34190
| 50>    C       -5.13662        -2.97384        -2.84557
| 51>    C       -5.20329        -1.60881        -4.98957
| 52>    N       -3.89923        -1.00571        -4.79521
| 53>    C       -3.54045         0.20745        -5.23135
| 54>    C       -4.35965         1.08712        -5.88604
| 55>    C       -4.00157         2.36468        -6.34401
| 56>    C       -2.80603         3.04503        -6.27154
| 57>    C       -2.58936         4.34441        -6.78602
| 58>    C       -1.32713         4.83008        -6.60318
| 59>    C       -0.46822         3.93952        -5.92968
| 60>    S       -1.31296         2.46707        -5.53986
| 61>    C        0.86225         4.12301        -5.57978
| 62>    C        1.67654         5.24472        -5.81650
| 63>    C        2.94861         5.11850        -5.32961
| 64>    C        3.19708         3.88920        -4.68691
| 65>    S        1.76586         2.89400        -4.72213
| 66>    C        4.34304         3.43562        -4.05048
| 67>    C        5.54526         4.12346        -4.00987
| 68>    C        6.68990         3.74608        -3.32857
| 69>    C        7.99980         4.27730        -3.75148
| 70>    O        8.20461         5.18551        -4.53209
| 71>    C        9.00447         3.43648        -3.06520
| 72>    C       10.36267         3.44583        -3.18264
| 73>    C       11.12557         2.50895        -2.44716
| 74>    C       10.45720         1.57531        -1.60458
| 75>    C       11.22063         0.63776        -0.88311
| 76>    C       12.58236         0.64595        -1.00323
| 77>    C       13.25870         1.55733        -1.82349
| 78>    C       12.53154         2.47348        -2.53255
| 79>    F       13.31462        -0.25126        -0.31284
| 80>    C        9.04579         1.59692        -1.49489
| 81>    C        8.33169         2.51721        -2.21015
| 82>    C        6.89480         2.79278        -2.27933
| 83>    C        5.96879         2.36249        -1.35276
| 84>    C        4.66377         2.87709        -1.23741
| 85>    N        3.60749         3.29365        -1.05938
| 86>    C        6.25216         1.43908        -0.33044
| 87>    N        6.41545         0.67084         0.50889
| 88>    H      -12.49301        -6.52672       -13.28638
| 89>    H      -11.49316       -11.37009       -12.95607
| 90>    H      -10.99187        -6.06423       -11.42018
| 91>    H       -9.95764       -10.92957       -11.04010
| 92>    H       -7.60910        -6.78283        -6.92352
| 93>    H       -7.30593        -9.68458        -7.34995
| 94>    H       -4.59111        -7.73758        -3.11854
| 95>    H       -5.64380        -6.27529        -6.49751
| 96>    H       -5.45765        -5.56109        -3.53490
| 97>    H       -5.44465        -3.95723        -6.16906
| 98>    H       -6.08493        -3.27483        -2.40152
| 99>    H       -4.88902        -1.98536        -2.46857
|100>    H       -4.37689        -3.67482        -2.50625
|101>    H       -5.96496        -0.96146        -4.53603
|102>    H       -5.42039        -1.69192        -6.06039
|103>    H       -3.19709        -1.59066        -4.37119
|104>    H       -2.51660         0.47373        -5.01851
|105>    H       -5.37904         0.79027        -6.08315
|106>    H       -4.79148         2.91428        -6.84207
|107>    H       -3.37725         4.88689        -7.27870
|108>    H       -0.99811         5.79882        -6.93209
|109>    H        1.31326         6.11588        -6.33177
|110>    H        3.70098         5.88120        -5.41362
|111>    H        4.27969         2.46511        -3.57944
|112>    H        5.66600         4.99646        -4.64038
|113>    H       10.85322         4.15790        -3.82943
|114>    H       10.73304        -0.07714        -0.23876
|115>    H       14.33505         1.51723        -1.87840
|116>    H       13.03023         3.18623        -3.17230
|117>    H        8.56711         0.87559        -0.85177
|118> *
|119>
|120>                          ****END OF INPUT****

CARTESIAN COORDINATES (ANGSTROEM)
---------------------------------
  C    -12.264820   -7.577630  -13.200470
  C    -12.851510   -8.468690  -14.055690
  F    -13.705090   -8.038540  -14.993080
  C    -12.567150   -9.845490  -13.962740
  F    -13.155760  -10.696040  -14.813260
  C    -11.699780  -10.312930  -13.014490
  C    -11.080930   -9.420270  -12.119040
  C    -11.366370   -8.027320  -12.212980
  C    -10.754150   -7.111520  -11.325580
  C     -9.887520   -7.575270  -10.372480
  C     -9.612840   -8.971580  -10.281440
  C    -10.184570   -9.877880  -11.126560
  C     -8.676090   -9.198520   -9.172280
  O     -8.216230  -10.265320   -8.783260
  C     -8.419400   -7.880820   -8.582440
  C     -9.115420   -6.877050   -9.347500
  C     -9.022770   -5.514500   -9.199450
  C     -9.734530   -4.581550   -9.979380
  N    -10.290840   -3.772590  -10.575100
  C     -8.164240   -4.877960   -8.285540
  N     -7.455270   -4.308820   -7.581860
  C     -7.687860   -7.734890   -7.427500
  N     -7.093460   -8.795050   -6.865250
  C     -6.364010   -8.855240   -5.714660
  S     -6.207350  -10.413010   -4.958240
  C     -5.311770   -9.680810   -3.670310
  N     -4.839160  -10.506380   -2.640150
  O     -4.218230   -9.979350   -1.736650
  O     -5.092240  -11.694510   -2.731870
  C     -5.147430   -8.330190   -3.821180
  C     -5.733880   -7.830880   -5.000890
  C     -5.620410   -6.456380   -5.431650
  C     -5.466250   -5.408890   -4.603840
  C     -5.369630   -4.064910   -5.096310
  C     -5.243530   -2.963540   -4.341900
  C     -5.136620   -2.973840   -2.845570
  C     -5.203290   -1.608810   -4.989570
  N     -3.899230   -1.005710   -4.795210
  C     -3.540450    0.207450   -5.231350
  C     -4.359650    1.087120   -5.886040
  C     -4.001570    2.364680   -6.344010
  C     -2.806030    3.045030   -6.271540
  C     -2.589360    4.344410   -6.786020
  C     -1.327130    4.830080   -6.603180
  C     -0.468220    3.939520   -5.929680
  S     -1.312960    2.467070   -5.539860
  C      0.862250    4.123010   -5.579780
  C      1.676540    5.244720   -5.816500
  C      2.948610    5.118500   -5.329610
  C      3.197080    3.889200   -4.686910
  S      1.765860    2.894000   -4.722130
  C      4.343040    3.435620   -4.050480
  C      5.545260    4.123460   -4.009870
  C      6.689900    3.746080   -3.328570
  C      7.999800    4.277300   -3.751480
  O      8.204610    5.185510   -4.532090
  C      9.004470    3.436480   -3.065200
  C     10.362670    3.445830   -3.182640
  C     11.125570    2.508950   -2.447160
  C     10.457200    1.575310   -1.604580
  C     11.220630    0.637760   -0.883110
  C     12.582360    0.645950   -1.003230
  C     13.258700    1.557330   -1.823490
  C     12.531540    2.473480   -2.532550
  F     13.314620   -0.251260   -0.312840
  C      9.045790    1.596920   -1.494890
  C      8.331690    2.517210   -2.210150
  C      6.894800    2.792780   -2.279330
  C      5.968790    2.362490   -1.352760
  C      4.663770    2.877090   -1.237410
  N      3.607490    3.293650   -1.059380
  C      6.252160    1.439080   -0.330440
  N      6.415450    0.670840    0.508890
  H    -12.493010   -6.526720  -13.286380
  H    -11.493160  -11.370090  -12.956070
  H    -10.991870   -6.064230  -11.420180
  H     -9.957640  -10.929570  -11.040100
  H     -7.609100   -6.782830   -6.923520
  H     -7.305930   -9.684580   -7.349950
  H     -4.591110   -7.737580   -3.118540
  H     -5.643800   -6.275290   -6.497510
  H     -5.457650   -5.561090   -3.534900
  H     -5.444650   -3.957230   -6.169060
  H     -6.084930   -3.274830   -2.401520
  H     -4.889020   -1.985360   -2.468570
  H     -4.376890   -3.674820   -2.506250
  H     -5.964960   -0.961460   -4.536030
  H     -5.420390   -1.691920   -6.060390
  H     -3.197090   -1.590660   -4.371190
  H     -2.516600    0.473730   -5.018510
  H     -5.379040    0.790270   -6.083150
  H     -4.791480    2.914280   -6.842070
  H     -3.377250    4.886890   -7.278700
  H     -0.998110    5.798820   -6.932090
  H      1.313260    6.115880   -6.331770
  H      3.700980    5.881200   -5.413620
  H      4.279690    2.465110   -3.579440
  H      5.666000    4.996460   -4.640380
  H     10.853220    4.157900   -3.829430
  H     10.733040   -0.077140   -0.238760
  H     14.335050    1.517230   -1.878400
  H     13.030230    3.186230   -3.172300
  H      8.567110    0.875590   -0.851770

 Total Charge           Charge          ....    0
 Multiplicity           Mult            ....    1
 Number of Electrons    NEL             ....  522
 Basis Dimension        Dim             .... 1184

ORBITAL ENERGIES
----------------

  NO   OCC          E(Eh)            E(eV)
   0   2.0000     -89.003639     -2421.9121
   1   2.0000     -88.960707     -2420.7439
   2   2.0000     -88.948782     -2420.4194
   3   2.0000     -24.810560      -675.1297
   4   2.0000     -24.809813      -675.1093
   5   2.0000     -24.765415      -673.9012
   6   2.0000     -19.253025      -523.9015
   7   2.0000     -19.252369      -523.8836
   8   2.0000     -19.246818      -523.7326
   9   2.0000     -19.178403      -521.8709
  10   2.0000     -14.664339      -399.0370
  11   2.0000     -14.514057      -394.9476
  12   2.0000     -14.469059      -393.7231
  13   2.0000     -14.441271      -392.9670
  14   2.0000     -14.430183      -392.6652
  15   2.0000     -14.383337      -391.3905
  16   2.0000     -14.380690      -391.3185
  17   2.0000     -10.395010      -282.8626
  18   2.0000     -10.394358      -282.8449
  19   2.0000     -10.394259      -282.8422
  20   2.0000     -10.387210      -282.6504
  21   2.0000     -10.387151      -282.6487
  22   2.0000     -10.363576      -282.0072
  23   2.0000     -10.362382      -281.9747
  24   2.0000     -10.357508      -281.8421
  25   2.0000     -10.346911      -281.5538
  26   2.0000     -10.345431      -281.5135
  27   2.0000     -10.344907      -281.4992
  28   2.0000     -10.333584      -281.1911
  29   2.0000     -10.330160      -281.0980
  30   2.0000     -10.329920      -281.0914
  31   2.0000     -10.329244      -281.0730
  32   2.0000     -10.325492      -280.9709
  33   2.0000     -10.325466      -280.9702
  34   2.0000     -10.325199      -280.9630
  35   2.0000     -10.324378      -280.9406
  36   2.0000     -10.323268      -280.9104
  37   2.0000     -10.320214      -280.8273
  38   2.0000     -10.319068      -280.7961
  39   2.0000     -10.315402      -280.6963
  40   2.0000     -10.314912      -280.6830
  41   2.0000     -10.314426      -280.6698
  42   2.0000     -10.314102      -280.6610
  43   2.0000     -10.312056      -280.6053
  44   2.0000     -10.308600      -280.5113
  45   2.0000     -10.308099      -280.4976
  46   2.0000     -10.306176      -280.4453
  47   2.0000     -10.305946      -280.4391
  48   2.0000     -10.305637      -280.4306
  49   2.0000     -10.304226      -280.3922
  50   2.0000     -10.301102      -280.3072
  51   2.0000     -10.300810      -280.2993
  52   2.0000     -10.300227      -280.2834
  53   2.0000     -10.293490      -280.1001
  54   2.0000     -10.288287      -279.9585
  55   2.0000     -10.287659      -279.9414
  56   2.0000     -10.287085      -279.9258
  57   2.0000     -10.285163      -279.8735
  58   2.0000     -10.284212      -279.8476
  59   2.0000     -10.282296      -279.7955
  60   2.0000     -10.280681      -279.7515
  61   2.0000     -10.277205      -279.6570
  62   2.0000     -10.276870      -279.6478
  63   2.0000     -10.276824      -279.6466
  64   2.0000     -10.275850      -279.6201
  65   2.0000     -10.275427      -279.6086
  66   2.0000     -10.272427      -279.5270
  67   2.0000     -10.272104      -279.5182
  68   2.0000     -10.269605      -279.4502
  69   2.0000     -10.266782      -279.3733
  70   2.0000     -10.263383      -279.2808
  71   2.0000     -10.260937      -279.2143
  72   2.0000     -10.254389      -279.0361
  73   2.0000      -8.099401      -220.3959
  74   2.0000      -8.056513      -219.2289
  75   2.0000      -8.045163      -218.9200
  76   2.0000      -6.069018      -165.1464
  77   2.0000      -6.064625      -165.0268
  78   2.0000      -6.060852      -164.9242
  79   2.0000      -6.026116      -163.9789
  80   2.0000      -6.022148      -163.8710
  81   2.0000      -6.017746      -163.7512
  82   2.0000      -6.014739      -163.6694
  83   2.0000      -6.010652      -163.5581
  84   2.0000      -6.006442      -163.4436
  85   2.0000      -1.333937       -36.2983
  86   2.0000      -1.333277       -36.2803
  87   2.0000      -1.318387       -35.8751
  88   2.0000      -1.279456       -34.8158
  89   2.0000      -1.162371       -31.6297
  90   2.0000      -1.153335       -31.3839
  91   2.0000      -1.117701       -30.4142
  92   2.0000      -1.092313       -29.7234
  93   2.0000      -1.065043       -28.9813
  94   2.0000      -1.039652       -28.2904
  95   2.0000      -1.026196       -27.9242
  96   2.0000      -1.023027       -27.8380
  97   2.0000      -1.012755       -27.5585
  98   2.0000      -1.002517       -27.2799
  99   2.0000      -0.997611       -27.1464
 100   2.0000      -0.986310       -26.8389
 101   2.0000      -0.978236       -26.6191
 102   2.0000      -0.971761       -26.4430
 103   2.0000      -0.961370       -26.1602
 104   2.0000      -0.948294       -25.8044
 105   2.0000      -0.947657       -25.7870
 106   2.0000      -0.945758       -25.7354
 107   2.0000      -0.928792       -25.2737
 108   2.0000      -0.921931       -25.0870
 109   2.0000      -0.911400       -24.8005
 110   2.0000      -0.908443       -24.7200
 111   2.0000      -0.904109       -24.6021
 112   2.0000      -0.900760       -24.5109
 113   2.0000      -0.885578       -24.0978
 114   2.0000      -0.875528       -23.8243
 115   2.0000      -0.867610       -23.6089
 116   2.0000      -0.864320       -23.5193
 117   2.0000      -0.858890       -23.3716
 118   2.0000      -0.856634       -23.3102
 119   2.0000      -0.853786       -23.2327
 120   2.0000      -0.842661       -22.9300
 121   2.0000      -0.831301       -22.6209
 122   2.0000      -0.825347       -22.4588
 123   2.0000      -0.822430       -22.3794
 124   2.0000      -0.810460       -22.0538
 125   2.0000      -0.806384       -21.9428
 126   2.0000      -0.804888       -21.9021
 127   2.0000      -0.788113       -21.4457
 128   2.0000      -0.786647       -21.4058
 129   2.0000      -0.779456       -21.2101
 130   2.0000      -0.761221       -20.7139
 131   2.0000      -0.756672       -20.5901
 132   2.0000      -0.737808       -20.0768
 133   2.0000      -0.734416       -19.9845
 134   2.0000      -0.732931       -19.9441
 135   2.0000      -0.724939       -19.7266
 136   2.0000      -0.717512       -19.5245
 137   2.0000      -0.704856       -19.1801
 138   2.0000      -0.697851       -18.9895
 139   2.0000      -0.694196       -18.8900
 140   2.0000      -0.692668       -18.8485
 141   2.0000      -0.682955       -18.5841
 142   2.0000      -0.682082       -18.5604
 143   2.0000      -0.676775       -18.4160
 144   2.0000      -0.670911       -18.2564
 145   2.0000      -0.663622       -18.0581
 146   2.0000      -0.662148       -18.0180
 147   2.0000      -0.657461       -17.8904
 148   2.0000      -0.654728       -17.8160
 149   2.0000      -0.649343       -17.6695
 150   2.0000      -0.648202       -17.6385
 151   2.0000      -0.645365       -17.5613
 152   2.0000      -0.638744       -17.3811
 153   2.0000      -0.637209       -17.3393
 154   2.0000      -0.627091       -17.0640
 155   2.0000      -0.623865       -16.9762
 156   2.0000      -0.620092       -16.8736
 157   2.0000      -0.616266       -16.7695
 158   2.0000      -0.610987       -16.6258
 159   2.0000      -0.607030       -16.5181
 160   2.0000      -0.605910       -16.4876
 161   2.0000      -0.602185       -16.3863
 162   2.0000      -0.600618       -16.3436
 163   2.0000      -0.597878       -16.2691
 164   2.0000      -0.590686       -16.0734
 165   2.0000      -0.588342       -16.0096
 166   2.0000      -0.587239       -15.9796
 167   2.0000      -0.579391       -15.7660
 168   2.0000      -0.575528       -15.6609
 169   2.0000      -0.574834       -15.6420
 170   2.0000      -0.571740       -15.5578
 171   2.0000      -0.568728       -15.4759
 172   2.0000      -0.566594       -15.4178
 173   2.0000      -0.564895       -15.3716
 174   2.0000      -0.559095       -15.2138
 175   2.0000      -0.554241       -15.0817
 176   2.0000      -0.552983       -15.0474
 177   2.0000      -0.548448       -14.9240
 178   2.0000      -0.546211       -14.8632
 179   2.0000      -0.544315       -14.8116
 180   2.0000      -0.540367       -14.7041
 181   2.0000      -0.537518       -14.6266
 182   2.0000      -0.537150       -14.6166
 183   2.0000      -0.533389       -14.5143
 184   2.0000      -0.530953       -14.4480
 185   2.0000      -0.530189       -14.4272
 186   2.0000      -0.527803       -14.3623
 187   2.0000      -0.522008       -14.2046
 188   2.0000      -0.520339       -14.1591
 189   2.0000      -0.519346       -14.1321
 190   2.0000      -0.517070       -14.0702
 191   2.0000      -0.514888       -14.0108
 192   2.0000      -0.513107       -13.9624
 193   2.0000      -0.505353       -13.7514
 194   2.0000      -0.504316       -13.7231
 195   2.0000      -0.502527       -13.6744
 196   2.0000      -0.500997       -13.6328
 197   2.0000      -0.499533       -13.5930
 198   2.0000      -0.498269       -13.5586
 199   2.0000      -0.495401       -13.4805
 200   2.0000      -0.488340       -13.2884
 201   2.0000      -0.487442       -13.2640
 202   2.0000      -0.486611       -13.2414
 203   2.0000      -0.483408       -13.1542
 204   2.0000      -0.481086       -13.0910
 205   2.0000      -0.480966       -13.0878
 206   2.0000      -0.478762       -13.0278
 207   2.0000      -0.472798       -12.8655
 208   2.0000      -0.471929       -12.8419
 209   2.0000      -0.469750       -12.7825
 210   2.0000      -0.468293       -12.7429
 211   2.0000      -0.465450       -12.6655
 212   2.0000      -0.465213       -12.6591
 213   2.0000      -0.461975       -12.5710
 214   2.0000      -0.459836       -12.5128
 215   2.0000      -0.457521       -12.4498
 216   2.0000      -0.454933       -12.3794
 217   2.0000      -0.451836       -12.2951
 218   2.0000      -0.449642       -12.2354
 219   2.0000      -0.448061       -12.1924
 220   2.0000      -0.444996       -12.1089
 221   2.0000      -0.441051       -12.0016
 222   2.0000      -0.439849       -11.9689
 223   2.0000      -0.434162       -11.8141
 224   2.0000      -0.432056       -11.7568
 225   2.0000      -0.431565       -11.7435
 226   2.0000      -0.428695       -11.6654
 227   2.0000      -0.427098       -11.6219
 228   2.0000      -0.424393       -11.5483
 229   2.0000      -0.419995       -11.4286
 230   2.0000      -0.414705       -11.2847
 231   2.0000      -0.411890       -11.2081
 232   2.0000      -0.410471       -11.1695
 233   2.0000      -0.407933       -11.1004
 234   2.0000      -0.406109       -11.0508
 235   2.0000      -0.400186       -10.8896
 236   2.0000      -0.399516       -10.8714
 237   2.0000      -0.398819       -10.8524
 238   2.0000      -0.394549       -10.7362
 239   2.0000      -0.392268       -10.6742
 240   2.0000      -0.389792       -10.6068
 241   2.0000      -0.382466       -10.4074
 242   2.0000      -0.380906       -10.3650
 243   2.0000      -0.372217       -10.1286
 244   2.0000      -0.372092       -10.1251
 245   2.0000      -0.370164       -10.0727
 246   2.0000      -0.359705        -9.7881
 247   2.0000      -0.357191        -9.7197
 248   2.0000      -0.349132        -9.5004
 249   2.0000      -0.343282        -9.3412
 250   2.0000      -0.334795        -9.1102
 251   2.0000      -0.327160        -8.9025
 252   2.0000      -0.322636        -8.7794
 253   2.0000      -0.317485        -8.6392
 254   2.0000      -0.311945        -8.4885
 255   2.0000      -0.303868        -8.2687
 256   2.0000      -0.287833        -7.8323
 257   2.0000      -0.284840        -7.7509
 258   2.0000      -0.276632        -7.5275
 259   2.0000      -0.266488        -7.2515
 260   2.0000      -0.210285        -5.7221
 261   0.0000      -0.105142        -2.8611
 262   0.0000      -0.092864        -2.5270
 263   0.0000      -0.082530        -2.2458
 264   0.0000      -0.062768        -1.7080
 265   0.0000      -0.043598        -1.1864

MULLIKEN ATOMIC CHARGES
-----------------------
   0 C :   -0.107748
   1 C :    0.244938
   2 F :   -0.167800
   3 C :    0.238876
   4 F :   -0.168308
   5 C :   -0.102824
   6 C :    0.114128
   7 C :    0.113605
   8 C :   -0.081645
   9 C :    0.041393
  10 C :    0.002348
  11 C :   -0.077531
  12 C :    0.178704
  13 O :   -0.209100
  14 C :   -0.146612
  15 C :    0.333631
  16 C :   -0.348808
  17 C :   -0.185168
  18 N :    0.152062
  19 C :   -0.200522
  20 N :    0.143946
  21 C :    0.024894
  22 N :    0.008581
  23 C :   -0.121030
  24 S :    0.202127
  25 C :    0.000278
  26 N :    0.276488
  27 O :   -0.241292
  28 O :   -0.254701
  29 C :   -0.005971
  30 C :    0.118926
  31 C :   -0.038745
  32 C :   -0.003318
  33 C :    0.044048
  34 C :   -0.256154
  35 C :    0.086447
  36 C :    0.222484
  37 N :   -0.149165
  38 C :    0.081336
  39 C :   -0.083227
  40 C :    0.047411
  41 C :   -0.062483
  42 C :    0.057759
  43 C :    0.005147
  44 C :    0.000134
  45 S :    0.053150
  46 C :   -0.072425
  47 C :    0.038333
  48 C :    0.012660
  49 C :   -0.042304
  50 S :    0.123831
  51 C :    0.036195
  52 C :    0.025067
  53 C :   -0.145411
  54 C :    0.137118
  55 O :   -0.170785
  56 C :    0.005054
  57 C :   -0.090241
  58 C :    0.102231
  59 C :    0.101141
  60 C :   -0.099606
  61 C :    0.297125
  62 C :   -0.035412
  63 C :   -0.012844
  64 F :   -0.198673
  65 C :   -0.095354
  66 C :    0.045399
  67 C :    0.291044
  68 C :   -0.358933
  69 C :   -0.224158
  70 N :    0.150552
  71 C :   -0.178586
  72 N :    0.120766
  73 H :    0.010542
  74 H :    0.002970
  75 H :   -0.002801
  76 H :   -0.005896
  77 H :    0.052742
  78 H :    0.170039
  79 H :    0.014086
  80 H :    0.007293
  81 H :   -0.006291
  82 H :   -0.005855
  83 H :    0.043557
  84 H :    0.016477
  85 H :    0.035588
  86 H :    0.029307
  87 H :    0.032068
  88 H :    0.138874
  89 H :    0.028205
  90 H :   -0.007652
  91 H :   -0.000782
  92 H :   -0.006916
  93 H :   -0.012282
  94 H :   -0.010911
  95 H :   -0.001776
  96 H :   -0.003362
  97 H :   -0.000637
  98 H :   -0.021063
  99 H :   -0.007657
 100 H :   -0.003820
 101 H :   -0.015685
 102 H :   -0.010837
Sum of atomic charges:   -0.0000000

LOEWDIN ATOMIC CHARGES
----------------------
   0 C :   -0.027982
   1 C :    0.069452
   2 F :   -0.045809
   3 C :    0.070010
   4 F :   -0.046249
   5 C :   -0.031274
   6 C :   -0.008911
   7 C :   -0.006169
   8 C :    0.021805
   9 C :   -0.022344
  10 C :   -0.052681
  11 C :    0.034182
  12 C :    0.094140
  13 O :   -0.169895
  14 C :   -0.150243
  15 C :    0.084206
  16 C :   -0.156429
  17 C :   -0.021138
  18 N :   -0.054055
  19 C :   -0.007855
  20 N :   -0.064715
  21 C :    0.121000
  22 N :    0.077179
  23 C :   -0.117217
  24 S :    0.476958
  25 C :   -0.199770
  26 N :    0.273855
  27 O :   -0.207587
  28 O :   -0.220870
  29 C :    0.002110
  30 C :   -0.083634
  31 C :   -0.032616
  32 C :   -0.008806
  33 C :   -0.030585
  34 C :   -0.041766
  35 C :   -0.056560
  36 C :    0.048941
  37 N :    0.026996
  38 C :    0.071683
  39 C :   -0.144058
  40 C :    0.007888
  41 C :   -0.191929
  42 C :    0.000439
  43 C :   -0.066422
  44 C :   -0.134103
  45 S :    0.389485
  46 C :   -0.214249
  47 C :   -0.004252
  48 C :   -0.057898
  49 C :   -0.098352
  50 S :    0.409149
  51 C :   -0.081343
  52 C :    0.056537
  53 C :   -0.123450
  54 C :    0.074472
  55 O :   -0.172393
  56 C :   -0.053868
  57 C :    0.022894
  58 C :   -0.021911
  59 C :    0.000827
  60 C :   -0.044830
  61 C :    0.087772
  62 C :   -0.045882
  63 C :    0.000714
  64 F :   -0.072714
  65 C :    0.001546
  66 C :   -0.011971
  67 C :    0.066454
  68 C :   -0.167038
  69 C :   -0.024487
  70 N :   -0.073457
  71 C :   -0.019849
  72 N :   -0.080155
  73 H :    0.048731
  74 H :    0.046090
  75 H :    0.041325
  76 H :    0.042129
  77 H :    0.044319
  78 H :    0.084675
  79 H :    0.046406
  80 H :    0.031291
  81 H :    0.026553
  82 H :    0.029084
  83 H :    0.044130
  84 H :    0.030315
  85 H :    0.036342
  86 H :    0.030736
  87 H :    0.031810
  88 H :    0.087766
  89 H :    0.016783
  90 H :    0.028761
  91 H :    0.042223
  92 H :    0.036094
  93 H :    0.032423
  94 H :    0.033916
  95 H :    0.035447
  96 H :    0.030455
  97 H :    0.036461
  98 H :    0.035651
  99 H :    0.040960
 100 H :    0.038346
 101 H :    0.032840
 102 H :    0.037014

  Mayer bond orders larger than 0.100000
B(  0-C ,  1-C ) :   1.4360 B(  0-C ,  5-C ) :   0.1073 B(  0-C ,  7-C ) :   1.1948
B(  0-C , 73-H ) :   1.0065 B(  1-C ,  2-F ) :   1.1388 B(  1-C ,  3-C ) :   1.1934
B(  3-C ,  4-F ) :   1.1376 B(  3-C ,  5-C ) :   1.4398 B(  5-C ,  6-C ) :   1.1950
B(  5-C , 74-H ) :   1.0066 B(  6-C ,  7-C ) :   1.2578 B(  6-C , 11-C ) :   1.1847
B(  7-C ,  8-C ) :   1.2091 B(  8-C ,  9-C ) :   1.4651 B(  8-C , 75-H ) :   0.9896
B(  9-C , 10-C ) :   1.2185 B(  9-C , 15-C ) :   0.9918 B( 10-C , 11-C ) :   1.4735
B( 10-C , 12-C ) :   0.9759 B( 11-C , 76-H ) :   1.0181 B( 12-C , 13-O ) :   2.0568
B( 12-C , 14-C ) :   0.9968 B( 13-O , 78-H ) :   0.1472 B( 14-C , 15-C ) :   1.1115
B( 14-C , 21-C ) :   1.4308 B( 15-C , 16-C ) :   1.6119 B( 16-C , 17-C ) :   1.1449
B( 16-C , 19-C ) :   1.1537 B( 17-C , 18-N ) :   2.9667 B( 19-C , 20-N ) :   2.9670
B( 21-C , 22-N ) :   1.3652 B( 21-C , 77-H ) :   0.9338 B( 22-N , 23-C ) :   1.1468
B( 22-N , 78-H ) :   0.8279 B( 23-C , 24-S ) :   1.1446 B( 23-C , 30-C ) :   1.4027
B( 24-S , 25-C ) :   1.0997 B( 25-C , 26-N ) :   0.9585 B( 25-C , 29-C ) :   1.4896
B( 26-N , 27-O ) :   1.5416 B( 26-N , 28-O ) :   1.5166 B( 27-O , 28-O ) :   0.2663
B( 29-C , 30-C ) :   1.2330 B( 29-C , 79-H ) :   1.0035 B( 30-C , 31-C ) :   1.0196
B( 31-C , 32-C ) :   1.7503 B( 31-C , 80-H ) :   0.9690 B( 32-C , 33-C ) :   1.0996
B( 32-C , 81-H ) :   0.9737 B( 33-C , 34-C ) :   1.7896 B( 33-C , 82-H ) :   0.9675
B( 34-C , 35-C ) :   1.0596 B( 34-C , 36-C ) :   1.0416 B( 35-C , 83-H ) :   0.9464
B( 35-C , 84-H ) :   0.9536 B( 35-C , 85-H ) :   0.9506 B( 36-C , 37-N ) :   0.9634
B( 36-C , 86-H ) :   0.9269 B( 36-C , 87-H ) :   0.9400 B( 37-N , 38-C ) :   1.3310
B( 37-N , 88-H ) :   0.9320 B( 38-C , 39-C ) :   1.5083 B( 38-C , 89-H ) :   0.9471
B( 39-C , 40-C ) :   1.2651 B( 39-C , 90-H ) :   0.9606 B( 40-C , 41-C ) :   1.5265
B( 40-C , 91-H ) :   0.9601 B( 41-C , 42-C ) :   1.1920 B( 41-C , 45-S ) :   1.0123
B( 42-C , 43-C ) :   1.5370 B( 42-C , 92-H ) :   0.9976 B( 43-C , 44-C ) :   1.2312
B( 43-C , 93-H ) :   0.9939 B( 44-C , 45-S ) :   1.0907 B( 44-C , 46-C ) :   1.4180
B( 46-C , 47-C ) :   1.2534 B( 46-C , 50-S ) :   1.0426 B( 47-C , 48-C ) :   1.5175
B( 47-C , 94-H ) :   0.9928 B( 48-C , 49-C ) :   1.2336 B( 48-C , 95-H ) :   0.9904
B( 49-C , 50-S ) :   1.1148 B( 49-C , 51-C ) :   1.3998 B( 51-C , 52-C ) :   1.3246
B( 51-C , 96-H ) :   0.9461 B( 52-C , 53-C ) :   1.4473 B( 52-C , 97-H ) :   0.9469
B( 53-C , 54-C ) :   0.9794 B( 53-C , 67-C ) :   1.1249 B( 54-C , 55-O ) :   2.2341
B( 54-C , 56-C ) :   0.9155 B( 56-C , 57-C ) :   1.4901 B( 56-C , 66-C ) :   1.2179
B( 57-C , 58-C ) :   1.1764 B( 57-C , 98-H ) :   1.0141 B( 58-C , 59-C ) :   1.2656
B( 58-C , 63-C ) :   1.2418 B( 59-C , 60-C ) :   1.2049 B( 59-C , 65-C ) :   1.1914
B( 60-C , 61-C ) :   1.4394 B( 60-C , 99-H ) :   1.0065 B( 61-C , 62-C ) :   1.2619
B( 61-C , 64-F ) :   1.0801 B( 62-C , 63-C ) :   1.4531 B( 62-C ,100-H ) :   0.9919
B( 63-C ,101-H ) :   0.9959 B( 65-C , 66-C ) :   1.4754 B( 65-C ,102-H ) :   0.9928
B( 66-C , 67-C ) :   0.9860 B( 67-C , 68-C ) :   1.5660 B( 68-C , 69-C ) :   1.1693
B( 68-C , 71-C ) :   1.1421 B( 69-C , 70-N ) :   3.0144 B( 71-C , 72-N ) :   2.9668

-----------------------------------------------------------------------------
         ABSORPTION SPECTRUM VIA TRANSITION ELECTRIC DIPOLE MOMENTS
-----------------------------------------------------------------------------
State   Energy  Wavelength   fosc         T2         TX        TY        TZ
        (cm-1)    (nm)                  (au**2)     (au)      (au)      (au)
-----------------------------------------------------------------------------
   0   11882.3    841.6   1.373798784  38.06256  -5.75002  -0.93518  -2.03106
   1   15354.5    651.3   0.000024046   0.00052  -0.00246  -0.02053  -0.00938
   2   20970.7    476.9   0.000046455   0.00073   0.01771   0.00626   0.01940
   3   21772.0    459.3   0.142035795   2.14771  -1.22273  -0.76332  -0.26457
   4   21883.9    457.0   0.551221152   8.29232   1.44215  -0.49126   2.44360
   5   23495.0    425.6   0.385300107   5.39883  -0.89601  -1.79738   1.16851
   6   24771.6    403.7   0.000261942   0.00348   0.00551   0.05453  -0.02184
   7   25465.6    392.7   0.088171592   1.13986   0.00332   0.94940  -0.48835
   8   26780.4    373.4   0.170950953   2.10151   0.63300   0.61411   1.15052
   9   27074.3    369.4   0.008231452   0.10009  -0.16854   0.23965  -0.11938
  10   27128.8    368.6   0.215277183   2.61242   0.96722  -1.14999   0.59535
  11   27703.6    361.0   0.035648712   0.42363   0.58448  -0.27897   0.06471
  12   27710.8    360.9   0.004207958   0.04999  -0.21947   0.03651   0.02217
  13   28362.2    352.6   0.123176076   1.42976   0.04747  -1.18130   0.17899
  14   29015.7    344.6   0.043573516   0.49438  -0.67587  -0.09073   0.17133
  15   29732.5    336.3   0.242682188   2.68709   0.95743  -0.16073   1.32082
  16   30568.8    327.1   0.319988647   3.44614   0.93645  -0.75166   1.41570
  17   30921.5    323.4   0.249368239   2.65495  -0.31080  -1.56973  -0.30711
  18   31036.8    322.2   0.059092058   0.62680   0.45398   0.37521   0.52908
  19   31715.8    315.3   0.178331144   1.85109   0.87250  -0.87472   0.56981
  20   31774.5    314.7   0.000005247   0.00005   0.00553  -0.00330   0.00359
  21   31927.6    313.2   0.000955549   0.00985  -0.07400   0.05462  -0.03734
  22   32247.0    310.1   0.106115275   1.08334  -1.00611   0.02394   0.26552
  23   33023.7    302.8   0.004427272   0.04414   0.19188  -0.02019   0.08312
  24   33185.2    301.3   0.011423038   0.11332   0.31709  -0.10198   0.04870
  25   33288.3    300.4   0.001259598   0.01246   0.05966   0.01622   0.09292
  26   33984.7    294.2   0.414083302   4.01125   1.92830  -0.45573   0.29195
  27   34064.2    293.6   0.593631796   5.73712  -1.08466  -1.15460  -1.79653
  28   34303.1    291.5   0.001408199   0.01351   0.05854   0.07372   0.06821
  29   34341.0    291.2   0.000115007   0.00110   0.03133  -0.01092   0.00143
  30   34586.9    289.1   0.407012398   3.87410  -0.38429  -1.79260  -0.71626
  31   34755.8    287.7   0.035772665   0.33884  -0.56570  -0.13020   0.04332
  32   35360.0    282.8   0.057772674   0.53788   0.05405  -0.70573   0.19210
  33   36127.8    276.8   0.035171219   0.32049   0.07042   0.42852  -0.36318
  34   36428.1    274.5   0.187984825   1.69887  -0.33880  -1.22694  -0.28053
  35   37035.2    270.0   0.000058134   0.00052   0.02271  -0.00061   0.00082
  36   37123.5    269.4   0.000068995   0.00061   0.02067  -0.01258   0.00515
  37   37405.9    267.3   0.063603042   0.55978   0.52196   0.47678  -0.24497
  38   37582.2    266.1   0.154437756   1.35284  -1.11364   0.07819   0.32640
  39   37907.7    263.8   0.000001287   0.00001   0.00249   0.00132   0.00180
  40   38321.5    261.0   0.369018299   3.17016  -1.06698  -1.03068   0.98459
  41   38345.1    260.8   0.151479003   1.30052  -0.83104   0.75487  -0.20019
  42   38609.8    259.0   0.053673370   0.45765   0.47173   0.01387   0.48470
  43   38929.5    256.9   0.153960834   1.30199   0.51507  -0.83747   0.57908
  44   38999.0    256.4   0.002188901   0.01848   0.04921  -0.11035   0.06228
  45   39117.8    255.6   0.002007913   0.01690  -0.02136   0.12787  -0.00949
  46   39559.4    252.8   0.000014881   0.00012   0.01052   0.00049   0.00359
  47   39694.3    251.9   0.000065760   0.00055  -0.01363  -0.00708  -0.01759
  48   39766.1    251.5   0.007718094   0.06390   0.12227   0.21928  -0.02936
  49   40143.5    249.1   0.016736953   0.13726   0.21539  -0.12355  -0.27495

FINAL SINGLE POINT ENERGY     -4325.808491848060

DIPOLE MOMENT
-------------
                                X             Y             Z
Electronic contribution:    -15.45684     -43.69962     -24.96390
Nuclear contribution   :      9.22064      41.62765      20.77580
                        -----------------------------------------
Total Dipole Moment    :     -6.23620      -2.07197      -4.18811
                        -----------------------------------------
Magnitude (a.u.)       :      7.79253
Magnitude (Debye)      :     19.80703

Rotational constants in cm-1:     0.001100     0.000175     0.000161
Rotational constants in MHz :    32.989904     5.233012     4.817351

                             ****ORCA TERMINATED NORMALLY****
TOTAL RUN TIME: 0 days 0 hours 10 minutes 9 seconds 643 msec
