                         Program Version 4.2.0 -  RELEASE  -
|  1> # ORCA input file
|  2> # SCF done       -189.140121274543          0.000868928350
|  3> ! CAM-B3LYP def2-SVP def2/J RIJCOSX Grid4 TightSCF
|  4> %maxcore 5000
|  5> %tddft
|  6>     Mode sTDDFT
|  7>     Ethresh 5.0
|  8>     maxcore 5000
|  9> end
| 10>
| 11> %pal
| 12>   nprocs 6
| 13>   end
| 14> * xyz 0 1
| 15>    C       -0.15683         1.01299         7.04621
| 16>    C        1.16950         0.92533         7.36418
| 17>    F        1.77420         1.92971         8.01440
| 18>    C        1.91657        -0.21644         7.01438
| 19>    F        3.21646        -0.27592         7.33888
| 20>    C        1.32692        -1.25573         6.35071
| 21>    C       -0.03745        -1.19476         6.00820
| 22>    C       -0.79415        -0.04090         6.36175
| 23>    C       -2.16594         0.04313         6.02722
| 24>    C       -2.76044        -0.99317         5.35855
| 25>    C       -1.99632        -2.14075         5.00778
| 26>    C       -0.67279        -2.25233         5.31866
| 27>    C       -2.86169        -3.10133         4.29096
| 28>    O       -2.52737        -4.18558         3.85487
| 29>    C       -4.19141        -2.46311         4.22247
| 30>    C       -4.13115        -1.18477         4.88355
| 31>    C       -5.15835        -0.28605         5.05816
| 32>    C       -5.02181         0.94829         5.72414
| 33>    N       -4.98399         1.96676         6.25410
| 34>    C       -6.48557        -0.45353         4.61590
| 35>    N       -7.58760        -0.51113         4.29335
| 36>    C       -5.29455        -3.01713         3.60546
| 37>    C       -5.32390        -4.25187         2.96425
| 38>    C       -6.45897        -4.74167         2.34794
| 39>    C       -6.59058        -5.97077         1.66055
| 40>    C       -7.83066        -6.18857         1.13664
| 41>    C       -8.74182        -5.13935         1.38689
| 42>    S       -7.97357        -3.86881         2.31356
| 43>    C      -10.06176        -5.03712         0.98862
| 44>    C      -10.82327        -5.94957         0.21955
| 45>    C      -12.09926        -5.54621        -0.02160
| 46>    C      -12.41793        -4.28298         0.54225
| 47>    S      -11.02265        -3.64290         1.41307
| 48>    C      -13.60133        -3.61832         0.42258
| 49>    N      -13.80499        -2.38368         0.95213
| 50>    C      -14.91377        -1.60557         0.84643
| 51>    S      -14.71655         0.11939         0.97507
| 52>    C      -16.38952         0.33243         0.56651
| 53>    N      -16.89212         1.63951         0.53894
| 54>    O      -18.06720         1.78725         0.26400
| 55>    O      -16.10174         2.52988         0.79877
| 56>    C      -17.04524        -0.84652         0.33770
| 57>    C      -16.22651        -1.97466         0.52906
| 58>    C      -16.76789        -3.31477         0.50188
| 59>    C      -16.48302        -4.26505         1.40889
| 60>    C      -17.04028        -5.58779         1.36097
| 61>    S      -17.64455        -6.37733         2.78561
| 62>    C      -18.25384        -7.74604         1.88604
| 63>    C      -17.96199        -7.57904         0.53993
| 64>    C      -17.27782        -6.36899         0.25440
| 65>    N      -16.86275        -5.97062        -1.06689
| 66>    O      -17.68480        -6.02325        -1.94542
| 67>    O      -15.72115        -5.57645        -1.17608
| 68>    N      -18.21099        -8.53470        -0.49910
| 69>    O      -19.24757        -9.15804        -0.45705
| 70>    O      -17.34436        -8.65077        -1.33480
| 71>    C      -18.84899        -8.84289         2.57409
| 72>    S      -19.10760       -10.39661         1.80889
| 73>    C      -19.69639       -11.09082         3.26691
| 74>    C      -19.72838       -10.18537         4.26694
| 75>    C      -19.25004        -8.89982         3.90777
| 76>    C      -19.31208        -7.93373         4.96804
| 77>    C      -19.78699        -8.39041         6.14341
| 78>    S      -20.20540       -10.15189         5.99743
| 79>    O      -21.61451       -10.36620         6.14624
| 80>    O      -19.31326       -10.96311         6.77374
| 81>    C      -19.98267        -7.69552         7.37421
| 82>    C      -20.45548        -8.30165         8.46424
| 83>    H       -0.71464         1.89448         7.32145
| 84>    H        1.91282        -2.12315         6.08974
| 85>    H       -2.70915         0.93030         6.30927
| 86>    H       -0.11641        -3.13459         5.04075
| 87>    H       -6.21833        -2.45129         3.60726
| 88>    H       -4.42707        -4.85366         2.93763
| 89>    H       -5.76302        -6.65193         1.57349
| 90>    H       -8.10856        -7.06664         0.58193
| 91>    H      -10.40211        -6.87181        -0.13694
| 92>    H      -12.82705        -6.09287        -0.59346
| 93>    H      -14.40342        -4.06659        -0.14306
| 94>    H      -12.98195        -1.93228         1.34056
| 95>    H      -18.08871        -0.88903         0.08221
| 96>    H      -17.52206        -3.49332        -0.25370
| 97>    H      -15.84557        -4.04439         2.25310
| 98>    H      -19.99643       -12.11938         3.28636
| 99>    H      -19.01288        -6.90727         4.82430
|100>    H      -19.72670        -6.64251         7.38415
|101>    H      -20.70973        -9.34764         8.45022
|102>    H      -20.60078        -7.76908         9.38812
|103> *
|104>
|105>                          ****END OF INPUT****

CARTESIAN COORDINATES (ANGSTROEM)
---------------------------------
  C     -0.156830    1.012990    7.046210
  C      1.169500    0.925330    7.364180
  F      1.774200    1.929710    8.014400
  C      1.916570   -0.216440    7.014380
  F      3.216460   -0.275920    7.338880
  C      1.326920   -1.255730    6.350710
  C     -0.037450   -1.194760    6.008200
  C     -0.794150   -0.040900    6.361750
  C     -2.165940    0.043130    6.027220
  C     -2.760440   -0.993170    5.358550
  C     -1.996320   -2.140750    5.007780
  C     -0.672790   -2.252330    5.318660
  C     -2.861690   -3.101330    4.290960
  O     -2.527370   -4.185580    3.854870
  C     -4.191410   -2.463110    4.222470
  C     -4.131150   -1.184770    4.883550
  C     -5.158350   -0.286050    5.058160
  C     -5.021810    0.948290    5.724140
  N     -4.983990    1.966760    6.254100
  C     -6.485570   -0.453530    4.615900
  N     -7.587600   -0.511130    4.293350
  C     -5.294550   -3.017130    3.605460
  C     -5.323900   -4.251870    2.964250
  C     -6.458970   -4.741670    2.347940
  C     -6.590580   -5.970770    1.660550
  C     -7.830660   -6.188570    1.136640
  C     -8.741820   -5.139350    1.386890
  S     -7.973570   -3.868810    2.313560
  C    -10.061760   -5.037120    0.988620
  C    -10.823270   -5.949570    0.219550
  C    -12.099260   -5.546210   -0.021600
  C    -12.417930   -4.282980    0.542250
  S    -11.022650   -3.642900    1.413070
  C    -13.601330   -3.618320    0.422580
  N    -13.804990   -2.383680    0.952130
  C    -14.913770   -1.605570    0.846430
  S    -14.716550    0.119390    0.975070
  C    -16.389520    0.332430    0.566510
  N    -16.892120    1.639510    0.538940
  O    -18.067200    1.787250    0.264000
  O    -16.101740    2.529880    0.798770
  C    -17.045240   -0.846520    0.337700
  C    -16.226510   -1.974660    0.529060
  C    -16.767890   -3.314770    0.501880
  C    -16.483020   -4.265050    1.408890
  C    -17.040280   -5.587790    1.360970
  S    -17.644550   -6.377330    2.785610
  C    -18.253840   -7.746040    1.886040
  C    -17.961990   -7.579040    0.539930
  C    -17.277820   -6.368990    0.254400
  N    -16.862750   -5.970620   -1.066890
  O    -17.684800   -6.023250   -1.945420
  O    -15.721150   -5.576450   -1.176080
  N    -18.210990   -8.534700   -0.499100
  O    -19.247570   -9.158040   -0.457050
  O    -17.344360   -8.650770   -1.334800
  C    -18.848990   -8.842890    2.574090
  S    -19.107600  -10.396610    1.808890
  C    -19.696390  -11.090820    3.266910
  C    -19.728380  -10.185370    4.266940
  C    -19.250040   -8.899820    3.907770
  C    -19.312080   -7.933730    4.968040
  C    -19.786990   -8.390410    6.143410
  S    -20.205400  -10.151890    5.997430
  O    -21.614510  -10.366200    6.146240
  O    -19.313260  -10.963110    6.773740
  C    -19.982670   -7.695520    7.374210
  C    -20.455480   -8.301650    8.464240
  H     -0.714640    1.894480    7.321450
  H      1.912820   -2.123150    6.089740
  H     -2.709150    0.930300    6.309270
  H     -0.116410   -3.134590    5.040750
  H     -6.218330   -2.451290    3.607260
  H     -4.427070   -4.853660    2.937630
  H     -5.763020   -6.651930    1.573490
  H     -8.108560   -7.066640    0.581930
  H    -10.402110   -6.871810   -0.136940
  H    -12.827050   -6.092870   -0.593460
  H    -14.403420   -4.066590   -0.143060
  H    -12.981950   -1.932280    1.340560
  H    -18.088710   -0.889030    0.082210
  H    -17.522060   -3.493320   -0.253700
  H    -15.845570   -4.044390    2.253100
  H    -19.996430  -12.119380    3.286360
  H    -19.012880   -6.907270    4.824300
  H    -19.726700   -6.642510    7.384150
  H    -20.709730   -9.347640    8.450220
  H    -20.600780   -7.769080    9.388120

 Total Charge           Charge          ....    0
 Multiplicity           Mult            ....    1
 Number of Electrons    NEL             ....  518
 Basis Dimension        Dim             .... 1076

ORBITAL ENERGIES
----------------

  NO   OCC          E(Eh)            E(eV)
   0   2.0000     -89.162505     -2426.2351
   1   2.0000     -89.022744     -2422.4320
   2   2.0000     -89.002727     -2421.8873
   3   2.0000     -88.997187     -2421.7366
   4   2.0000     -88.976557     -2421.1752
   5   2.0000     -88.963356     -2420.8160
   6   2.0000     -24.789370      -674.5531
   7   2.0000     -24.788173      -674.5205
   8   2.0000     -19.285464      -524.7842
   9   2.0000     -19.281990      -524.6896
  10   2.0000     -19.278521      -524.5952
  11   2.0000     -19.278351      -524.5906
  12   2.0000     -19.249263      -523.7991
  13   2.0000     -19.248826      -523.7872
  14   2.0000     -19.212567      -522.8005
  15   2.0000     -19.211865      -522.7814
  16   2.0000     -19.202366      -522.5230
  17   2.0000     -14.691145      -399.7664
  18   2.0000     -14.685737      -399.6192
  19   2.0000     -14.661077      -398.9482
  20   2.0000     -14.511963      -394.8906
  21   2.0000     -14.404649      -391.9704
  22   2.0000     -14.400680      -391.8624
  23   2.0000     -10.392738      -282.8008
  24   2.0000     -10.383519      -282.5499
  25   2.0000     -10.377795      -282.3941
  26   2.0000     -10.376213      -282.3511
  27   2.0000     -10.371318      -282.2179
  28   2.0000     -10.370634      -282.1993
  29   2.0000     -10.370410      -282.1932
  30   2.0000     -10.359777      -281.9039
  31   2.0000     -10.358924      -281.8806
  32   2.0000     -10.355165      -281.7784
  33   2.0000     -10.352913      -281.7171
  34   2.0000     -10.346595      -281.5452
  35   2.0000     -10.342506      -281.4339
  36   2.0000     -10.333857      -281.1986
  37   2.0000     -10.333776      -281.1963
  38   2.0000     -10.332725      -281.1677
  39   2.0000     -10.332520      -281.1622
  40   2.0000     -10.331262      -281.1279
  41   2.0000     -10.328413      -281.0504
  42   2.0000     -10.328175      -281.0439
  43   2.0000     -10.327936      -281.0374
  44   2.0000     -10.326366      -280.9947
  45   2.0000     -10.325806      -280.9795
  46   2.0000     -10.324433      -280.9421
  47   2.0000     -10.322736      -280.8959
  48   2.0000     -10.319892      -280.8185
  49   2.0000     -10.316710      -280.7319
  50   2.0000     -10.310756      -280.5699
  51   2.0000     -10.308953      -280.5209
  52   2.0000     -10.308767      -280.5158
  53   2.0000     -10.308702      -280.5140
  54   2.0000     -10.305075      -280.4153
  55   2.0000     -10.301246      -280.3111
  56   2.0000     -10.299032      -280.2509
  57   2.0000     -10.298671      -280.2411
  58   2.0000     -10.298623      -280.2398
  59   2.0000     -10.296451      -280.1807
  60   2.0000     -10.294176      -280.1188
  61   2.0000     -10.291274      -280.0398
  62   2.0000     -10.290322      -280.0139
  63   2.0000     -10.289721      -279.9975
  64   2.0000     -10.289221      -279.9839
  65   2.0000     -10.279885      -279.7299
  66   2.0000     -10.279350      -279.7153
  67   2.0000     -10.276591      -279.6403
  68   2.0000      -8.227265      -223.8753
  69   2.0000      -8.117852      -220.8980
  70   2.0000      -8.098539      -220.3724
  71   2.0000      -8.091921      -220.1924
  72   2.0000      -8.073076      -219.6796
  73   2.0000      -8.059400      -219.3074
  74   2.0000      -6.196371      -168.6118
  75   2.0000      -6.195794      -168.5961
  76   2.0000      -6.195616      -168.5913
  77   2.0000      -6.087334      -165.6448
  78   2.0000      -6.083050      -165.5282
  79   2.0000      -6.079625      -165.4350
  80   2.0000      -6.068255      -165.1256
  81   2.0000      -6.063768      -165.0035
  82   2.0000      -6.061520      -164.9424
  83   2.0000      -6.059883      -164.8978
  84   2.0000      -6.056765      -164.8129
  85   2.0000      -6.053884      -164.7346
  86   2.0000      -6.042844      -164.4341
  87   2.0000      -6.038794      -164.3239
  88   2.0000      -6.033894      -164.1906
  89   2.0000      -6.028997      -164.0574
  90   2.0000      -6.024996      -163.9485
  91   2.0000      -6.020542      -163.8273
  92   2.0000      -1.367299       -37.2061
  93   2.0000      -1.359739       -37.0004
  94   2.0000      -1.330747       -36.2115
  95   2.0000      -1.311361       -35.6840
  96   2.0000      -1.296558       -35.2811
  97   2.0000      -1.219348       -33.1801
  98   2.0000      -1.186996       -32.2998
  99   2.0000      -1.181390       -32.1473
 100   2.0000      -1.150344       -31.3024
 101   2.0000      -1.116458       -30.3804
 102   2.0000      -1.116054       -30.3694
 103   2.0000      -1.097070       -29.8528
 104   2.0000      -1.064431       -28.9646
 105   2.0000      -1.033054       -28.1108
 106   2.0000      -1.027039       -27.9472
 107   2.0000      -1.016521       -27.6609
 108   2.0000      -1.006193       -27.3799
 109   2.0000      -0.993868       -27.0445
 110   2.0000      -0.992492       -27.0071
 111   2.0000      -0.981574       -26.7100
 112   2.0000      -0.972772       -26.4705
 113   2.0000      -0.968446       -26.3528
 114   2.0000      -0.961889       -26.1743
 115   2.0000      -0.951694       -25.8969
 116   2.0000      -0.931518       -25.3479
 117   2.0000      -0.924566       -25.1587
 118   2.0000      -0.917756       -24.9734
 119   2.0000      -0.905978       -24.6529
 120   2.0000      -0.904616       -24.6158
 121   2.0000      -0.888814       -24.1859
 122   2.0000      -0.885422       -24.0935
 123   2.0000      -0.882659       -24.0184
 124   2.0000      -0.877678       -23.8828
 125   2.0000      -0.874036       -23.7837
 126   2.0000      -0.867235       -23.5987
 127   2.0000      -0.847403       -23.0590
 128   2.0000      -0.842432       -22.9237
 129   2.0000      -0.838732       -22.8231
 130   2.0000      -0.828824       -22.5535
 131   2.0000      -0.821618       -22.3574
 132   2.0000      -0.814083       -22.1523
 133   2.0000      -0.802792       -21.8451
 134   2.0000      -0.796322       -21.6690
 135   2.0000      -0.787157       -21.4196
 136   2.0000      -0.778044       -21.1716
 137   2.0000      -0.758493       -20.6396
 138   2.0000      -0.754035       -20.5183
 139   2.0000      -0.749294       -20.3893
 140   2.0000      -0.736471       -20.0404
 141   2.0000      -0.726124       -19.7589
 142   2.0000      -0.719677       -19.5834
 143   2.0000      -0.711695       -19.3662
 144   2.0000      -0.705487       -19.1973
 145   2.0000      -0.700652       -19.0657
 146   2.0000      -0.698067       -18.9954
 147   2.0000      -0.686785       -18.6884
 148   2.0000      -0.684899       -18.6370
 149   2.0000      -0.681508       -18.5448
 150   2.0000      -0.672167       -18.2906
 151   2.0000      -0.668764       -18.1980
 152   2.0000      -0.666035       -18.1237
 153   2.0000      -0.659770       -17.9533
 154   2.0000      -0.658291       -17.9130
 155   2.0000      -0.652174       -17.7466
 156   2.0000      -0.648894       -17.6573
 157   2.0000      -0.645076       -17.5534
 158   2.0000      -0.643033       -17.4978
 159   2.0000      -0.642329       -17.4787
 160   2.0000      -0.641341       -17.4518
 161   2.0000      -0.640991       -17.4423
 162   2.0000      -0.631893       -17.1947
 163   2.0000      -0.628594       -17.1049
 164   2.0000      -0.624959       -17.0060
 165   2.0000      -0.624754       -17.0004
 166   2.0000      -0.620866       -16.8946
 167   2.0000      -0.614052       -16.7092
 168   2.0000      -0.607056       -16.5188
 169   2.0000      -0.602421       -16.3927
 170   2.0000      -0.600762       -16.3476
 171   2.0000      -0.599226       -16.3058
 172   2.0000      -0.594298       -16.1717
 173   2.0000      -0.585527       -15.9330
 174   2.0000      -0.578680       -15.7467
 175   2.0000      -0.577070       -15.7029
 176   2.0000      -0.575999       -15.6737
 177   2.0000      -0.571619       -15.5545
 178   2.0000      -0.568868       -15.4797
 179   2.0000      -0.564137       -15.3510
 180   2.0000      -0.558701       -15.2030
 181   2.0000      -0.554956       -15.1011
 182   2.0000      -0.553591       -15.0640
 183   2.0000      -0.548396       -14.9226
 184   2.0000      -0.546695       -14.8763
 185   2.0000      -0.542740       -14.7687
 186   2.0000      -0.539026       -14.6676
 187   2.0000      -0.537928       -14.6378
 188   2.0000      -0.535387       -14.5686
 189   2.0000      -0.531316       -14.4578
 190   2.0000      -0.531164       -14.4537
 191   2.0000      -0.525246       -14.2927
 192   2.0000      -0.521577       -14.1928
 193   2.0000      -0.521437       -14.1890
 194   2.0000      -0.519114       -14.1258
 195   2.0000      -0.517393       -14.0790
 196   2.0000      -0.517068       -14.0701
 197   2.0000      -0.515232       -14.0202
 198   2.0000      -0.511335       -13.9141
 199   2.0000      -0.508550       -13.8384
 200   2.0000      -0.506774       -13.7900
 201   2.0000      -0.501440       -13.6449
 202   2.0000      -0.500381       -13.6161
 203   2.0000      -0.494424       -13.4540
 204   2.0000      -0.493394       -13.4259
 205   2.0000      -0.489745       -13.3267
 206   2.0000      -0.484616       -13.1871
 207   2.0000      -0.482703       -13.1350
 208   2.0000      -0.477487       -12.9931
 209   2.0000      -0.476722       -12.9723
 210   2.0000      -0.475358       -12.9351
 211   2.0000      -0.471698       -12.8355
 212   2.0000      -0.466523       -12.6947
 213   2.0000      -0.463678       -12.6173
 214   2.0000      -0.461256       -12.5514
 215   2.0000      -0.458120       -12.4661
 216   2.0000      -0.456940       -12.4340
 217   2.0000      -0.452976       -12.3261
 218   2.0000      -0.450058       -12.2467
 219   2.0000      -0.440666       -11.9911
 220   2.0000      -0.438980       -11.9453
 221   2.0000      -0.435356       -11.8466
 222   2.0000      -0.431695       -11.7470
 223   2.0000      -0.429260       -11.6808
 224   2.0000      -0.425419       -11.5762
 225   2.0000      -0.423794       -11.5320
 226   2.0000      -0.419747       -11.4219
 227   2.0000      -0.419241       -11.4081
 228   2.0000      -0.418353       -11.3840
 229   2.0000      -0.418014       -11.3747
 230   2.0000      -0.416387       -11.3305
 231   2.0000      -0.412796       -11.2328
 232   2.0000      -0.412582       -11.2269
 233   2.0000      -0.411493       -11.1973
 234   2.0000      -0.407503       -11.0887
 235   2.0000      -0.402701       -10.9580
 236   2.0000      -0.396444       -10.7878
 237   2.0000      -0.395388       -10.7590
 238   2.0000      -0.394896       -10.7457
 239   2.0000      -0.389168       -10.5898
 240   2.0000      -0.387825       -10.5533
 241   2.0000      -0.385573       -10.4920
 242   2.0000      -0.378872       -10.3096
 243   2.0000      -0.377938       -10.2842
 244   2.0000      -0.375374       -10.2145
 245   2.0000      -0.374657       -10.1949
 246   2.0000      -0.370784       -10.0896
 247   2.0000      -0.363317        -9.8864
 248   2.0000      -0.360596        -9.8123
 249   2.0000      -0.350684        -9.5426
 250   2.0000      -0.341976        -9.3056
 251   2.0000      -0.331509        -9.0208
 252   2.0000      -0.322787        -8.7835
 253   2.0000      -0.320175        -8.7124
 254   2.0000      -0.306735        -8.3467
 255   2.0000      -0.301004        -8.1907
 256   2.0000      -0.293502        -7.9866
 257   2.0000      -0.285281        -7.7629
 258   2.0000      -0.232894        -6.3374
 259   0.0000      -0.112104        -3.0505
 260   0.0000      -0.103054        -2.8042
 261   0.0000      -0.080755        -2.1975
 262   0.0000      -0.069658        -1.8955
 263   0.0000      -0.054373        -1.4796

MULLIKEN ATOMIC CHARGES
-----------------------
   0 C :   -0.111125
   1 C :    0.240933
   2 F :   -0.175339
   3 C :    0.236839
   4 F :   -0.175638
   5 C :   -0.108999
   6 C :    0.118770
   7 C :    0.115998
   8 C :   -0.093655
   9 C :    0.050751
  10 C :    0.003045
  11 C :   -0.091678
  12 C :    0.138712
  13 O :   -0.162952
  14 C :   -0.089046
  15 C :    0.339177
  16 C :   -0.370451
  17 C :   -0.184029
  18 N :    0.133781
  19 C :   -0.186783
  20 N :    0.123791
  21 C :   -0.046359
  22 C :   -0.024313
  23 C :    0.007830
  24 C :    0.024136
  25 C :    0.047996
  26 C :   -0.057264
  27 S :    0.100754
  28 C :   -0.029778
  29 C :    0.023508
  30 C :    0.056404
  31 C :   -0.074066
  32 S :    0.078507
  33 C :    0.046413
  34 N :   -0.016420
  35 C :   -0.113890
  36 S :    0.193640
  37 C :   -0.011269
  38 N :    0.279154
  39 O :   -0.244778
  40 O :   -0.259070
  41 C :    0.018989
  42 C :    0.061916
  43 C :   -0.026222
  44 C :    0.001054
  45 C :   -0.120860
  46 S :    0.174202
  47 C :   -0.157499
  48 C :    0.164785
  49 C :    0.129349
  50 N :    0.253984
  51 O :   -0.195571
  52 O :   -0.230324
  53 N :    0.242234
  54 O :   -0.221442
  55 O :   -0.215659
  56 C :   -0.114982
  57 S :    0.200092
  58 C :   -0.128600
  59 C :    0.036617
  60 C :    0.064139
  61 C :    0.021132
  62 C :   -0.014923
  63 S :    0.761805
  64 O :   -0.438873
  65 O :   -0.440490
  66 C :   -0.005973
  67 C :    0.018197
  68 H :    0.004835
  69 H :   -0.004931
  70 H :   -0.010239
  71 H :   -0.016242
  72 H :    0.014092
  73 H :    0.017403
  74 H :    0.001133
  75 H :   -0.004797
  76 H :   -0.004229
  77 H :    0.011269
  78 H :    0.051667
  79 H :    0.149988
  80 H :    0.015729
  81 H :    0.027157
  82 H :    0.024741
  83 H :    0.050831
  84 H :    0.003599
  85 H :    0.000037
  86 H :    0.055318
  87 H :    0.042327
Sum of atomic charges:   -0.0000000

LOEWDIN ATOMIC CHARGES
----------------------
   0 C :   -0.030498
   1 C :    0.063451
   2 F :   -0.052643
   3 C :    0.064598
   4 F :   -0.053223
   5 C :   -0.035343
   6 C :   -0.010221
   7 C :   -0.008211
   8 C :    0.012411
   9 C :   -0.019827
  10 C :   -0.049025
  11 C :    0.023101
  12 C :    0.080732
  13 O :   -0.158277
  14 C :   -0.109346
  15 C :    0.073120
  16 C :   -0.157439
  17 C :   -0.018616
  18 N :   -0.069274
  19 C :   -0.019129
  20 N :   -0.072498
  21 C :    0.050284
  22 C :   -0.075425
  23 C :   -0.100510
  24 C :   -0.043670
  25 C :   -0.005249
  26 C :   -0.200734
  27 S :    0.407857
  28 C :   -0.140096
  29 C :   -0.046758
  30 C :    0.000732
  31 C :   -0.192623
  32 S :    0.369467
  33 C :    0.028868
  34 N :    0.043813
  35 C :   -0.101270
  36 S :    0.468318
  37 C :   -0.207439
  38 N :    0.273452
  39 O :   -0.210863
  40 O :   -0.224297
  41 C :    0.007884
  42 C :   -0.112201
  43 C :    0.010595
  44 C :   -0.059676
  45 C :   -0.148621
  46 S :    0.503993
  47 C :   -0.145186
  48 C :   -0.068453
  49 C :   -0.059312
  50 N :    0.286361
  51 O :   -0.164295
  52 O :   -0.199737
  53 N :    0.275713
  54 O :   -0.191122
  55 O :   -0.181389
  56 C :   -0.205321
  57 S :    0.505407
  58 C :   -0.142425
  59 C :   -0.207043
  60 C :   -0.057916
  61 C :   -0.038126
  62 C :   -0.126731
  63 S :    1.168466
  64 O :   -0.484203
  65 O :   -0.486726
  66 C :   -0.046523
  67 C :    0.011294
  68 H :    0.046654
  69 H :    0.043127
  70 H :    0.038818
  71 H :    0.037773
  72 H :    0.030584
  73 H :    0.038919
  74 H :    0.039211
  75 H :    0.035623
  76 H :    0.036330
  77 H :    0.042995
  78 H :    0.040270
  79 H :    0.088497
  80 H :    0.048973
  81 H :    0.036854
  82 H :    0.037502
  83 H :    0.041666
  84 H :    0.022111
  85 H :    0.038645
  86 H :    0.027720
  87 H :    0.035318

  Mayer bond orders larger than 0.100000
B(  0-C ,  1-C ) :   1.4366 B(  0-C ,  5-C ) :   0.1092 B(  0-C ,  7-C ) :   1.1913
B(  0-C , 68-H ) :   1.0069 B(  1-C ,  2-F ) :   1.1297 B(  1-C ,  3-C ) :   1.1965
B(  3-C ,  4-F ) :   1.1292 B(  3-C ,  5-C ) :   1.4408 B(  5-C ,  6-C ) :   1.1931
B(  5-C , 69-H ) :   1.0070 B(  6-C ,  7-C ) :   1.2610 B(  6-C , 11-C ) :   1.1815
B(  7-C ,  8-C ) :   1.2069 B(  8-C ,  9-C ) :   1.4603 B(  8-C , 70-H ) :   0.9888
B(  9-C , 10-C ) :   1.2233 B(  9-C , 15-C ) :   0.9722 B( 10-C , 11-C ) :   1.4780
B( 10-C , 12-C ) :   0.9322 B( 11-C , 71-H ) :   1.0159 B( 12-C , 13-O ) :   2.1929
B( 12-C , 14-C ) :   0.9663 B( 14-C , 15-C ) :   1.1177 B( 14-C , 21-C ) :   1.4687
B( 15-C , 16-C ) :   1.5781 B( 16-C , 17-C ) :   1.1533 B( 16-C , 19-C ) :   1.1545
B( 17-C , 18-N ) :   2.9531 B( 19-C , 20-N ) :   2.9531 B( 21-C , 22-C ) :   1.2681
B( 21-C , 72-H ) :   0.9415 B( 22-C , 23-C ) :   1.4094 B( 22-C , 73-H ) :   0.9788
B( 23-C , 24-C ) :   1.1807 B( 23-C , 27-S ) :   1.0898 B( 24-C , 25-C ) :   1.5434
B( 24-C , 74-H ) :   1.0017 B( 25-C , 26-C ) :   1.2142 B( 25-C , 75-H ) :   0.9943
B( 26-C , 27-S ) :   1.0402 B( 26-C , 28-C ) :   1.4799 B( 28-C , 29-C ) :   1.1891
B( 28-C , 32-S ) :   1.0808 B( 29-C , 30-C ) :   1.5935 B( 29-C , 76-H ) :   0.9947
B( 30-C , 31-C ) :   1.1609 B( 30-C , 77-H ) :   0.9959 B( 31-C , 32-S ) :   1.0006
B( 31-C , 33-C ) :   1.6124 B( 33-C , 34-N ) :   1.1666 B( 33-C , 78-H ) :   0.9415
B( 34-N , 35-C ) :   1.1867 B( 34-N , 79-H ) :   0.8983 B( 35-C , 36-S ) :   1.1467
B( 35-C , 42-C ) :   1.3946 B( 36-S , 37-C ) :   1.0843 B( 37-C , 38-N ) :   0.9666
B( 37-C , 41-C ) :   1.4996 B( 38-N , 39-O ) :   1.5397 B( 38-N , 40-O ) :   1.5125
B( 39-O , 40-O ) :   0.2621 B( 41-C , 42-C ) :   1.2342 B( 41-C , 80-H ) :   1.0047
B( 42-C , 43-C ) :   1.0626 B( 43-C , 44-C ) :   1.7896 B( 43-C , 81-H ) :   0.9608
B( 44-C , 45-C ) :   1.0692 B( 44-C , 82-H ) :   0.9445 B( 45-C , 46-S ) :   1.1165
B( 45-C , 49-C ) :   1.5700 B( 46-S , 47-C ) :   1.1489 B( 47-C , 48-C ) :   1.5049
B( 47-C , 56-C ) :   1.1748 B( 48-C , 49-C ) :   1.2603 B( 48-C , 53-N ) :   0.8970
B( 49-C , 50-N ) :   0.8766 B( 50-N , 51-O ) :   1.5642 B( 50-N , 52-O ) :   1.4969
B( 51-O , 52-O ) :   0.2763 B( 53-N , 54-O ) :   1.4979 B( 53-N , 55-O ) :   1.5497
B( 54-O , 55-O ) :   0.2733 B( 56-C , 57-S ) :   1.1305 B( 56-C , 60-C ) :   1.4458
B( 57-S , 58-C ) :   1.1864 B( 58-C , 59-C ) :   1.6077 B( 58-C , 83-H ) :   0.9750
B( 59-C , 60-C ) :   1.2621 B( 59-C , 63-S ) :   0.7668 B( 60-C , 61-C ) :   1.0719
B( 61-C , 62-C ) :   1.6878 B( 61-C , 84-H ) :   0.9743 B( 62-C , 63-S ) :   0.8160
B( 62-C , 66-C ) :   1.1557 B( 63-S , 64-O ) :   1.7264 B( 63-S , 65-O ) :   1.7265
B( 66-C , 67-C ) :   1.8871 B( 66-C , 85-H ) :   0.9699 B( 67-C , 86-H ) :   0.9398
B( 67-C , 87-H ) :   0.9521

-----------------------------------------------------------------------------
         ABSORPTION SPECTRUM VIA TRANSITION ELECTRIC DIPOLE MOMENTS
-----------------------------------------------------------------------------
State   Energy  Wavelength   fosc         T2         TX        TY        TZ
        (cm-1)    (nm)                  (au**2)     (au)      (au)      (au)
-----------------------------------------------------------------------------
   0   12268.7    815.1   1.374696228  36.88802   5.60285   1.09150   2.07477
   1   17422.2    574.0   0.034605232   0.65390   0.17539   0.00242   0.78939
   2   20258.7    493.6   0.014780927   0.24020  -0.30836   0.32417   0.20006
   3   22197.5    450.5   0.241400703   3.58022   0.83702  -1.68516  -0.19966
   4   23770.1    420.7   0.400962191   5.55326   1.65920  -0.98135  -1.35546
   5   24289.5    411.7   0.114134113   1.54693  -0.93445  -0.49491   0.65482
   6   25172.6    397.3   0.655749558   8.57603  -0.15967   2.24063  -1.87886
   7   26297.4    380.3   0.135305965   1.69387   1.09433   0.70295  -0.04661
   8   26852.1    372.4   0.009292066   0.11392  -0.06707   0.11850   0.30884
   9   26859.9    372.3   0.001949935   0.02390   0.02686  -0.04542  -0.14531
  10   27743.9    360.4   0.170623091   2.02463   0.30656  -1.06226  -0.89569
  11   28279.4    353.6   0.126596040   1.47376  -0.25879  -1.03728  -0.57518
  12   28569.3    350.0   0.109338453   1.25994  -0.56068   0.57571   0.78367
  13   28724.7    348.1   0.062664939   0.71820   0.55432  -0.36889   0.52426
  14   29620.5    337.6   0.143447309   1.59432   0.10675  -1.10349  -0.60435
  15   30298.0    330.1   0.009600841   0.10432   0.26625   0.05407   0.17467
  16   30845.1    324.2   0.009052579   0.09662  -0.03442   0.20219   0.23357
  17   31573.1    316.7   0.045534299   0.47478  -0.28323  -0.50446  -0.37428
  18   31758.8    314.9   0.005389488   0.05587  -0.05551  -0.20696  -0.09977
  19   32044.3    312.1   0.006663780   0.06846  -0.15523   0.16237  -0.13417
  20   33035.7    302.7   0.052501603   0.52320  -0.31616  -0.64874   0.04875
  21   33272.3    300.6   0.340297998   3.36708   1.14544   1.30405   0.59539
  22   33636.8    297.3   0.278140619   2.72223   1.23453  -0.49071   0.97845
  23   33904.7    294.9   0.070560688   0.68514   0.44388  -0.69568  -0.06431
  24   34030.7    293.9   0.049857127   0.48232  -0.47758  -0.42377   0.27323
  25   34147.5    292.8   0.001003500   0.00967   0.01931  -0.06167   0.07415
  26   34260.4    291.9   0.290739162   2.79375   1.52582   0.62124  -0.28227
  27   35376.8    282.7   0.251733361   2.34260   0.53416  -1.32499   0.54924
  28   35865.9    278.8   0.064241491   0.58967   0.40242   0.58504  -0.29233
  29   35959.9    278.1   0.023232304   0.21269  -0.16181  -0.04751  -0.42924
  30   36024.7    277.6   0.141254427   1.29086   1.06231  -0.24080  -0.32306
  31   36538.3    273.7   0.039602902   0.35682   0.38243   0.45622   0.04928
  32   36887.1    271.1   0.008007969   0.07147   0.00036  -0.05966   0.26060
  33   37094.1    269.6   0.017740885   0.15745  -0.25545   0.30363  -0.00063
  34   37129.2    269.3   0.031688789   0.28097   0.10685   0.51133  -0.09000
  35   37796.2    264.6   0.081226589   0.70750  -0.72220   0.42401  -0.07830
  36   37860.5    264.1   0.092716583   0.80621  -0.48664  -0.18876  -0.73059
  37   38191.7    261.8   0.005858839   0.05050  -0.14509   0.05065  -0.16397
  38   38353.5    260.7   0.016553669   0.14209   0.11189  -0.24295  -0.26561
  39   38480.4    259.9   0.082183954   0.70311  -0.53292   0.60235   0.23724
  40   38673.7    258.6   0.028996182   0.24683   0.34973   0.33794   0.10158
  41   39139.0    255.5   0.064294021   0.54080   0.71111   0.14989   0.11251
  42   39215.0    255.0   0.034182168   0.28696  -0.19648  -0.06957   0.49347
  43   39451.9    253.5   0.204111316   1.70323   0.45091  -1.06810  -0.59924
  44   39699.9    251.9   0.014014248   0.11621   0.01848  -0.21443   0.26437
  45   39870.2    250.8   0.003620825   0.02990  -0.01233  -0.17120  -0.02091
  46   39877.4    250.8   0.109271799   0.90210  -0.00691  -0.94166  -0.12382
  47   40292.8    248.2   0.003837530   0.03135   0.00561   0.02721   0.17488

FINAL SINGLE POINT ENERGY     -5316.374288372537

DIPOLE MOMENT
-------------
                                X             Y             Z
Electronic contribution:     18.34572      15.14442      -0.53768
Nuclear contribution   :    -19.94213     -18.07664      -0.25698
                        -----------------------------------------
Total Dipole Moment    :     -1.59640      -2.93222      -0.79465
                        -----------------------------------------
Magnitude (a.u.)       :      3.43190
Magnitude (Debye)      :      8.72318

Rotational constants in cm-1:     0.001227     0.000247     0.000232
Rotational constants in MHz :    36.777610     7.406669     6.944305

                             ****ORCA TERMINATED NORMALLY****
TOTAL RUN TIME: 0 days 0 hours 7 minutes 52 seconds 129 msec
