                         Program Version 4.2.0 -  RELEASE  -
|  1> # ORCA input file
|  2> # SCF done       -160.486503561811          0.000599780425
|  3> ! CAM-B3LYP def2-SVP def2/J RIJCOSX Grid4 TightSCF
|  4> %maxcore 5000
|  5> %tddft
|  6>     Mode sTDDFT
|  7>     Ethresh 5.0
|  8>     maxcore 5000
|  9> end
| 10>
| 11> %pal
| 12>   nprocs 6
| 13>   end
| 14> * xyz 0 1
| 15>    C       -0.08717       -14.02044        -4.49456
| 16>    C       -0.40637       -13.69315        -3.23584
| 17>    C       -1.15416       -14.46741        -2.28550
| 18>    C       -1.32312       -13.86898        -1.08704
| 19>    C       -0.72773       -12.57810        -0.98452
| 20>    S        0.06467       -12.15877        -2.48813
| 21>    C       -0.73440       -11.73768         0.10096
| 22>    C       -1.33007       -11.96343         1.36902
| 23>    C       -1.15468       -10.94501         2.24837
| 24>    C       -0.40796        -9.85045         1.73385
| 25>    S        0.05348       -10.16784         0.07423
| 26>    C       -0.07015        -8.70659         2.40552
| 27>    C        0.68950        -7.66618         1.84403
| 28>    O        1.12709        -7.75763         0.55497
| 29>    C        1.13598        -6.46281         2.36633
| 30>    C        1.14148        -5.61599         3.55412
| 31>    O        0.64924        -5.76466         4.64456
| 32>    N        1.88729        -4.50289         3.15865
| 33>    C        2.36402        -4.53723         1.84995
| 34>    O        3.02513        -3.67444         1.33034
| 35>    C        1.86923        -5.81655         1.33893
| 36>    C        1.84315        -6.64361         0.23459
| 37>    C        2.39863        -6.48789        -1.06512
| 38>    C        2.23445        -7.40992        -2.03692
| 39>    C        2.79702        -7.28333        -3.36044
| 40>    C        3.98157        -6.61677        -3.52029
| 41>    S        4.53004        -6.48856        -5.13533
| 42>    C        3.10382        -7.31837        -5.67586
| 43>    C        2.25970        -7.72670        -4.63315
| 44>    C        1.05145        -8.38949        -4.97118
| 45>    C        0.20451        -8.94562        -3.85587
| 46>    C       -0.73835        -7.90292        -3.25655
| 47>    C        0.67223        -8.53650        -6.30198
| 48>    C       -0.71115        -9.02082        -6.65727
| 49>    C       -1.54423        -7.88520        -7.25700
| 50>    C        1.55655        -8.16056        -7.34761
| 51>    C        1.44883        -8.25060        -8.79158
| 52>    C        2.55020        -7.73136        -9.41387
| 53>    S        3.75915        -7.12915        -8.36264
| 54>    C        2.77625        -7.56109        -6.99869
| 55>    C        0.38185        -8.81491        -9.58439
| 56>    C        0.07634        -8.41286       -10.83336
| 57>    C       -0.97160        -8.97727       -11.61282
| 58>    S       -2.02669       -10.23553       -11.02760
| 59>    C       -2.94473       -10.26720       -12.51024
| 60>    C       -2.43732        -9.34399       -13.41607
| 61>    C       -1.32388        -8.61619       -12.90092
| 62>    C       -0.64002        -7.62983       -13.62876
| 63>    N       -0.06924        -6.82338       -14.21225
| 64>    C       -2.92098        -9.11359       -14.70991
| 65>    N       -3.29390        -8.90294       -15.77629
| 66>    C       -4.03096       -11.17657       -12.60985
| 67>    C       -4.87957       -11.23502       -13.66237
| 68>    N       -5.92530       -12.08342       -13.83005
| 69>    C       -6.31390       -13.16664       -13.05482
| 70>    C       -5.51490       -13.95678       -12.28057
| 71>    S       -6.39497       -15.19903       -11.48655
| 72>    C       -7.85976       -14.68867       -12.23238
| 73>    C       -7.68406       -13.60630       -13.03771
| 74>    N       -8.70428       -12.93119       -13.70245
| 75>    H       -0.39243       -14.96408        -4.91105
| 76>    H        0.48201       -13.36007        -5.12308
| 77>    H       -1.53074       -15.44031        -2.54712
| 78>    H       -1.85634       -14.30524        -0.26121
| 79>    H       -1.86527       -12.86894         1.59206
| 80>    H       -1.52907       -10.93303         3.25652
| 81>    H       -0.38587        -8.57384         3.42852
| 82>    H        2.06862        -3.72696         3.77892
| 83>    H        2.93137        -5.56289        -1.22547
| 84>    H        1.65902        -8.28675        -1.78854
| 85>    H        4.59286        -6.21245        -2.73744
| 86>    H       -0.37609        -9.79826        -4.20535
| 87>    H        0.86133        -9.34439        -3.08581
| 88>    H       -1.27000        -8.32531        -2.40699
| 89>    H       -1.46629        -7.57781        -3.99605
| 90>    H       -0.18375        -7.03102        -2.91829
| 91>    H       -1.23835        -9.38021        -5.77830
| 92>    H       -0.65404        -9.86022        -7.34974
| 93>    H       -2.54077        -8.24397        -7.50550
| 94>    H       -1.08757        -7.48591        -8.15839
| 95>    H       -1.63727        -7.07455        -6.53766
| 96>    H        2.73568        -7.70931       -10.46991
| 97>    H       -0.19605        -9.62312        -9.16367
| 98>    H        0.60819        -7.59695       -11.30451
| 99>    H       -4.18155       -11.81499       -11.75350
|100>    H       -4.76058       -10.53835       -14.47988
|101>    H       -6.57900       -11.82862       -14.55538
|102>    H       -4.45490       -13.90660       -12.14688
|103>    H       -8.77349       -15.20380       -12.01532
|104>    H       -9.58904       -13.41613       -13.65758
|105>    H       -8.48912       -12.65440       -14.65087
|106> *
|107>
|108>                          ****END OF INPUT****

CARTESIAN COORDINATES (ANGSTROEM)
---------------------------------
  C     -0.087170  -14.020440   -4.494560
  C     -0.406370  -13.693150   -3.235840
  C     -1.154160  -14.467410   -2.285500
  C     -1.323120  -13.868980   -1.087040
  C     -0.727730  -12.578100   -0.984520
  S      0.064670  -12.158770   -2.488130
  C     -0.734400  -11.737680    0.100960
  C     -1.330070  -11.963430    1.369020
  C     -1.154680  -10.945010    2.248370
  C     -0.407960   -9.850450    1.733850
  S      0.053480  -10.167840    0.074230
  C     -0.070150   -8.706590    2.405520
  C      0.689500   -7.666180    1.844030
  O      1.127090   -7.757630    0.554970
  C      1.135980   -6.462810    2.366330
  C      1.141480   -5.615990    3.554120
  O      0.649240   -5.764660    4.644560
  N      1.887290   -4.502890    3.158650
  C      2.364020   -4.537230    1.849950
  O      3.025130   -3.674440    1.330340
  C      1.869230   -5.816550    1.338930
  C      1.843150   -6.643610    0.234590
  C      2.398630   -6.487890   -1.065120
  C      2.234450   -7.409920   -2.036920
  C      2.797020   -7.283330   -3.360440
  C      3.981570   -6.616770   -3.520290
  S      4.530040   -6.488560   -5.135330
  C      3.103820   -7.318370   -5.675860
  C      2.259700   -7.726700   -4.633150
  C      1.051450   -8.389490   -4.971180
  C      0.204510   -8.945620   -3.855870
  C     -0.738350   -7.902920   -3.256550
  C      0.672230   -8.536500   -6.301980
  C     -0.711150   -9.020820   -6.657270
  C     -1.544230   -7.885200   -7.257000
  C      1.556550   -8.160560   -7.347610
  C      1.448830   -8.250600   -8.791580
  C      2.550200   -7.731360   -9.413870
  S      3.759150   -7.129150   -8.362640
  C      2.776250   -7.561090   -6.998690
  C      0.381850   -8.814910   -9.584390
  C      0.076340   -8.412860  -10.833360
  C     -0.971600   -8.977270  -11.612820
  S     -2.026690  -10.235530  -11.027600
  C     -2.944730  -10.267200  -12.510240
  C     -2.437320   -9.343990  -13.416070
  C     -1.323880   -8.616190  -12.900920
  C     -0.640020   -7.629830  -13.628760
  N     -0.069240   -6.823380  -14.212250
  C     -2.920980   -9.113590  -14.709910
  N     -3.293900   -8.902940  -15.776290
  C     -4.030960  -11.176570  -12.609850
  C     -4.879570  -11.235020  -13.662370
  N     -5.925300  -12.083420  -13.830050
  C     -6.313900  -13.166640  -13.054820
  C     -5.514900  -13.956780  -12.280570
  S     -6.394970  -15.199030  -11.486550
  C     -7.859760  -14.688670  -12.232380
  C     -7.684060  -13.606300  -13.037710
  N     -8.704280  -12.931190  -13.702450
  H     -0.392430  -14.964080   -4.911050
  H      0.482010  -13.360070   -5.123080
  H     -1.530740  -15.440310   -2.547120
  H     -1.856340  -14.305240   -0.261210
  H     -1.865270  -12.868940    1.592060
  H     -1.529070  -10.933030    3.256520
  H     -0.385870   -8.573840    3.428520
  H      2.068620   -3.726960    3.778920
  H      2.931370   -5.562890   -1.225470
  H      1.659020   -8.286750   -1.788540
  H      4.592860   -6.212450   -2.737440
  H     -0.376090   -9.798260   -4.205350
  H      0.861330   -9.344390   -3.085810
  H     -1.270000   -8.325310   -2.406990
  H     -1.466290   -7.577810   -3.996050
  H     -0.183750   -7.031020   -2.918290
  H     -1.238350   -9.380210   -5.778300
  H     -0.654040   -9.860220   -7.349740
  H     -2.540770   -8.243970   -7.505500
  H     -1.087570   -7.485910   -8.158390
  H     -1.637270   -7.074550   -6.537660
  H      2.735680   -7.709310  -10.469910
  H     -0.196050   -9.623120   -9.163670
  H      0.608190   -7.596950  -11.304510
  H     -4.181550  -11.814990  -11.753500
  H     -4.760580  -10.538350  -14.479880
  H     -6.579000  -11.828620  -14.555380
  H     -4.454900  -13.906600  -12.146880
  H     -8.773490  -15.203800  -12.015320
  H     -9.589040  -13.416130  -13.657580
  H     -8.489120  -12.654400  -14.650870

 Total Charge           Charge          ....    0
 Multiplicity           Mult            ....    1
 Number of Electrons    NEL             ....  462
 Basis Dimension        Dim             .... 1019

ORBITAL ENERGIES
----------------

  NO   OCC          E(Eh)            E(eV)
   0   2.0000     -88.972883     -2421.0752
   1   2.0000     -88.952694     -2420.5259
   2   2.0000     -88.952565     -2420.5224
   3   2.0000     -88.952416     -2420.5183
   4   2.0000     -88.952154     -2420.5112
   5   2.0000     -88.949386     -2420.4358
   6   2.0000     -19.302667      -525.2523
   7   2.0000     -19.198534      -522.4187
   8   2.0000     -19.197633      -522.3941
   9   2.0000     -14.467014      -393.6675
  10   2.0000     -14.442213      -392.9926
  11   2.0000     -14.427933      -392.6040
  12   2.0000     -14.403744      -391.9458
  13   2.0000     -14.401760      -391.8918
  14   2.0000     -10.388108      -282.6748
  15   2.0000     -10.387404      -282.6556
  16   2.0000     -10.353143      -281.7233
  17   2.0000     -10.351077      -281.6671
  18   2.0000     -10.333558      -281.1904
  19   2.0000     -10.332482      -281.1611
  20   2.0000     -10.322144      -280.8798
  21   2.0000     -10.321805      -280.8706
  22   2.0000     -10.321078      -280.8508
  23   2.0000     -10.319478      -280.8073
  24   2.0000     -10.317558      -280.7550
  25   2.0000     -10.315964      -280.7117
  26   2.0000     -10.315718      -280.7050
  27   2.0000     -10.312975      -280.6303
  28   2.0000     -10.309697      -280.5411
  29   2.0000     -10.305488      -280.4266
  30   2.0000     -10.301714      -280.3239
  31   2.0000     -10.298702      -280.2419
  32   2.0000     -10.297348      -280.2051
  33   2.0000     -10.296779      -280.1896
  34   2.0000     -10.296138      -280.1722
  35   2.0000     -10.295441      -280.1532
  36   2.0000     -10.295105      -280.1441
  37   2.0000     -10.294669      -280.1322
  38   2.0000     -10.292903      -280.0841
  39   2.0000     -10.290398      -280.0160
  40   2.0000     -10.288591      -279.9668
  41   2.0000     -10.287604      -279.9399
  42   2.0000     -10.285936      -279.8945
  43   2.0000     -10.285332      -279.8781
  44   2.0000     -10.285044      -279.8703
  45   2.0000     -10.284968      -279.8682
  46   2.0000     -10.283486      -279.8279
  47   2.0000     -10.281371      -279.7703
  48   2.0000     -10.280852      -279.7562
  49   2.0000     -10.280267      -279.7403
  50   2.0000     -10.279333      -279.7149
  51   2.0000     -10.278611      -279.6952
  52   2.0000     -10.277642      -279.6688
  53   2.0000     -10.277065      -279.6532
  54   2.0000     -10.275198      -279.6024
  55   2.0000     -10.273778      -279.5637
  56   2.0000     -10.265322      -279.3336
  57   2.0000     -10.258729      -279.1542
  58   2.0000     -10.252761      -278.9918
  59   2.0000     -10.249306      -278.8978
  60   2.0000      -8.068437      -219.5533
  61   2.0000      -8.048966      -219.0235
  62   2.0000      -8.048709      -219.0165
  63   2.0000      -8.048652      -219.0150
  64   2.0000      -8.047297      -218.9781
  65   2.0000      -8.045525      -218.9299
  66   2.0000      -6.037711      -164.2945
  67   2.0000      -6.033722      -164.1859
  68   2.0000      -6.030392      -164.0953
  69   2.0000      -6.018395      -163.7689
  70   2.0000      -6.018196      -163.7634
  71   2.0000      -6.018138      -163.7619
  72   2.0000      -6.017229      -163.7371
  73   2.0000      -6.015344      -163.6858
  74   2.0000      -6.014180      -163.6542
  75   2.0000      -6.013944      -163.6477
  76   2.0000      -6.013849      -163.6451
  77   2.0000      -6.012890      -163.6191
  78   2.0000      -6.011375      -163.5778
  79   2.0000      -6.010688      -163.5591
  80   2.0000      -6.010493      -163.5538
  81   2.0000      -6.010482      -163.5535
  82   2.0000      -6.008197      -163.4913
  83   2.0000      -6.006173      -163.4363
  84   2.0000      -1.218335       -33.1526
  85   2.0000      -1.142297       -31.0835
  86   2.0000      -1.121458       -30.5164
  87   2.0000      -1.068567       -29.0772
  88   2.0000      -1.029902       -28.0251
  89   2.0000      -1.016124       -27.6501
  90   2.0000      -1.011933       -27.5361
  91   2.0000      -1.002122       -27.2691
  92   2.0000      -1.000947       -27.2371
  93   2.0000      -0.985117       -26.8064
  94   2.0000      -0.979765       -26.6608
  95   2.0000      -0.978759       -26.6334
  96   2.0000      -0.972575       -26.4651
  97   2.0000      -0.959383       -26.1061
  98   2.0000      -0.925332       -25.1796
  99   2.0000      -0.923157       -25.1204
 100   2.0000      -0.917255       -24.9598
 101   2.0000      -0.912139       -24.8206
 102   2.0000      -0.898390       -24.4464
 103   2.0000      -0.890824       -24.2406
 104   2.0000      -0.877434       -23.8762
 105   2.0000      -0.871238       -23.7076
 106   2.0000      -0.863117       -23.4866
 107   2.0000      -0.857136       -23.3239
 108   2.0000      -0.853271       -23.2187
 109   2.0000      -0.845796       -23.0153
 110   2.0000      -0.840765       -22.8784
 111   2.0000      -0.828311       -22.5395
 112   2.0000      -0.821022       -22.3411
 113   2.0000      -0.814321       -22.1588
 114   2.0000      -0.808991       -22.0138
 115   2.0000      -0.802830       -21.8461
 116   2.0000      -0.793736       -21.5986
 117   2.0000      -0.781375       -21.2623
 118   2.0000      -0.773847       -21.0574
 119   2.0000      -0.757851       -20.6222
 120   2.0000      -0.751934       -20.4612
 121   2.0000      -0.740518       -20.1505
 122   2.0000      -0.730968       -19.8907
 123   2.0000      -0.723381       -19.6842
 124   2.0000      -0.715798       -19.4779
 125   2.0000      -0.706360       -19.2210
 126   2.0000      -0.696909       -18.9639
 127   2.0000      -0.694482       -18.8978
 128   2.0000      -0.690901       -18.8004
 129   2.0000      -0.686267       -18.6743
 130   2.0000      -0.685847       -18.6629
 131   2.0000      -0.683215       -18.5912
 132   2.0000      -0.676528       -18.4093
 133   2.0000      -0.652450       -17.7541
 134   2.0000      -0.645588       -17.5673
 135   2.0000      -0.641489       -17.4558
 136   2.0000      -0.635707       -17.2985
 137   2.0000      -0.633058       -17.2264
 138   2.0000      -0.629474       -17.1288
 139   2.0000      -0.621313       -16.9068
 140   2.0000      -0.615957       -16.7610
 141   2.0000      -0.610499       -16.6125
 142   2.0000      -0.607443       -16.5294
 143   2.0000      -0.605220       -16.4689
 144   2.0000      -0.598600       -16.2887
 145   2.0000      -0.591996       -16.1090
 146   2.0000      -0.588131       -16.0039
 147   2.0000      -0.581838       -15.8326
 148   2.0000      -0.575528       -15.6609
 149   2.0000      -0.573448       -15.6043
 150   2.0000      -0.569590       -15.4993
 151   2.0000      -0.561171       -15.2702
 152   2.0000      -0.552191       -15.0259
 153   2.0000      -0.549027       -14.9398
 154   2.0000      -0.546061       -14.8591
 155   2.0000      -0.538020       -14.6403
 156   2.0000      -0.535068       -14.5599
 157   2.0000      -0.533034       -14.5046
 158   2.0000      -0.531263       -14.4564
 159   2.0000      -0.529247       -14.4015
 160   2.0000      -0.524599       -14.2751
 161   2.0000      -0.519542       -14.1375
 162   2.0000      -0.518697       -14.1145
 163   2.0000      -0.516060       -14.0427
 164   2.0000      -0.514738       -14.0067
 165   2.0000      -0.511436       -13.9169
 166   2.0000      -0.504394       -13.7253
 167   2.0000      -0.503933       -13.7127
 168   2.0000      -0.502772       -13.6811
 169   2.0000      -0.502247       -13.6668
 170   2.0000      -0.499580       -13.5943
 171   2.0000      -0.497681       -13.5426
 172   2.0000      -0.494320       -13.4511
 173   2.0000      -0.493726       -13.4350
 174   2.0000      -0.490674       -13.3519
 175   2.0000      -0.487429       -13.2636
 176   2.0000      -0.483519       -13.1572
 177   2.0000      -0.480783       -13.0828
 178   2.0000      -0.473625       -12.8880
 179   2.0000      -0.471839       -12.8394
 180   2.0000      -0.469365       -12.7721
 181   2.0000      -0.467516       -12.7217
 182   2.0000      -0.466275       -12.6880
 183   2.0000      -0.465195       -12.6586
 184   2.0000      -0.463741       -12.6190
 185   2.0000      -0.459518       -12.5041
 186   2.0000      -0.456809       -12.4304
 187   2.0000      -0.452801       -12.3213
 188   2.0000      -0.449875       -12.2417
 189   2.0000      -0.447421       -12.1749
 190   2.0000      -0.443218       -12.0606
 191   2.0000      -0.441149       -12.0043
 192   2.0000      -0.439065       -11.9476
 193   2.0000      -0.436828       -11.8867
 194   2.0000      -0.434424       -11.8213
 195   2.0000      -0.432164       -11.7598
 196   2.0000      -0.431265       -11.7353
 197   2.0000      -0.429267       -11.6810
 198   2.0000      -0.428370       -11.6565
 199   2.0000      -0.427324       -11.6281
 200   2.0000      -0.424894       -11.5620
 201   2.0000      -0.420862       -11.4522
 202   2.0000      -0.412417       -11.2224
 203   2.0000      -0.408635       -11.1195
 204   2.0000      -0.406686       -11.0665
 205   2.0000      -0.403387       -10.9767
 206   2.0000      -0.401882       -10.9358
 207   2.0000      -0.400699       -10.9036
 208   2.0000      -0.397329       -10.8119
 209   2.0000      -0.395406       -10.7595
 210   2.0000      -0.390391       -10.6231
 211   2.0000      -0.384050       -10.4505
 212   2.0000      -0.373562       -10.1651
 213   2.0000      -0.369508       -10.0548
 214   2.0000      -0.362137        -9.8543
 215   2.0000      -0.357450        -9.7267
 216   2.0000      -0.351686        -9.5699
 217   2.0000      -0.348446        -9.4817
 218   2.0000      -0.345517        -9.4020
 219   2.0000      -0.334316        -9.0972
 220   2.0000      -0.333409        -9.0725
 221   2.0000      -0.327948        -8.9239
 222   2.0000      -0.326834        -8.8936
 223   2.0000      -0.319701        -8.6995
 224   2.0000      -0.300272        -8.1708
 225   2.0000      -0.290151        -7.8954
 226   2.0000      -0.280901        -7.6437
 227   2.0000      -0.267806        -7.2874
 228   2.0000      -0.260408        -7.0861
 229   2.0000      -0.240415        -6.5420
 230   2.0000      -0.224387        -6.1059
 231   0.0000      -0.079551        -2.1647
 232   0.0000      -0.048195        -1.3114
 233   0.0000      -0.037821        -1.0292
 234   0.0000      -0.017876        -0.4864
 235   0.0000      -0.013306        -0.3621

MULLIKEN ATOMIC CHARGES
-----------------------
   0 C :   -0.023225
   1 C :   -0.063120
   2 C :    0.058255
   3 C :    0.028362
   4 C :   -0.059660
   5 S :    0.082853
   6 C :   -0.042826
   7 C :    0.032443
   8 C :    0.030343
   9 C :   -0.000398
  10 S :    0.090830
  11 C :   -0.052151
  12 C :    0.093524
  13 O :   -0.243647
  14 C :   -0.033237
  15 C :    0.156005
  16 O :   -0.151331
  17 N :   -0.169589
  18 C :    0.158908
  19 O :   -0.150223
  20 C :   -0.032156
  21 C :    0.088076
  22 C :   -0.037757
  23 C :   -0.006094
  24 C :    0.075841
  25 C :   -0.115189
  26 S :    0.139107
  27 C :   -0.150587
  28 C :    0.122621
  29 C :   -0.114011
  30 C :    0.001514
  31 C :    0.042896
  32 C :   -0.123672
  33 C :    0.045532
  34 C :    0.015585
  35 C :    0.124578
  36 C :    0.069856
  37 C :   -0.118036
  38 S :    0.138982
  39 C :   -0.151272
  40 C :   -0.034894
  41 C :   -0.006693
  42 C :   -0.084347
  43 S :    0.122303
  44 C :   -0.073392
  45 C :   -0.033404
  46 C :   -0.002968
  47 C :   -0.272249
  48 N :    0.196600
  49 C :   -0.262118
  50 N :    0.165153
  51 C :   -0.014753
  52 C :    0.052557
  53 N :   -0.024921
  54 C :    0.094975
  55 C :   -0.192083
  56 S :    0.106521
  57 C :   -0.196947
  58 C :    0.066702
  59 N :   -0.080063
  60 H :    0.023433
  61 H :    0.027747
  62 H :   -0.008223
  63 H :   -0.008370
  64 H :   -0.012015
  65 H :   -0.006688
  66 H :    0.006208
  67 H :    0.134292
  68 H :    0.006164
  69 H :    0.016589
  70 H :    0.026757
  71 H :    0.005385
  72 H :    0.009157
  73 H :    0.011465
  74 H :   -0.000372
  75 H :    0.018539
  76 H :   -0.004869
  77 H :    0.000231
  78 H :    0.012210
  79 H :    0.029584
  80 H :    0.014770
  81 H :    0.029231
  82 H :   -0.001090
  83 H :    0.011561
  84 H :   -0.016523
  85 H :    0.025593
  86 H :    0.122007
  87 H :    0.023055
  88 H :    0.000091
  89 H :    0.113072
  90 H :    0.107100
Sum of atomic charges:    0.0000000

LOEWDIN ATOMIC CHARGES
----------------------
   0 C :   -0.067465
   1 C :   -0.140908
   2 C :   -0.024784
   3 C :   -0.026200
   4 C :   -0.168652
   5 S :    0.376809
   6 C :   -0.188780
   7 C :   -0.022869
   8 C :   -0.035247
   9 C :   -0.127890
  10 S :    0.391533
  11 C :   -0.081691
  12 C :    0.065907
  13 O :   -0.000555
  14 C :   -0.105133
  15 C :    0.082477
  16 O :   -0.169855
  17 N :   -0.009213
  18 C :    0.083430
  19 O :   -0.167261
  20 C :   -0.101093
  21 C :    0.070747
  22 C :   -0.045164
  23 C :    0.009175
  24 C :   -0.065263
  25 C :   -0.160152
  26 S :    0.424672
  27 C :   -0.178550
  28 C :   -0.039183
  29 C :   -0.018054
  30 C :   -0.035370
  31 C :   -0.051332
  32 C :   -0.021655
  33 C :   -0.030430
  34 C :   -0.050265
  35 C :   -0.040231
  36 C :   -0.067938
  37 C :   -0.160256
  38 S :    0.425248
  39 C :   -0.178040
  40 C :   -0.008009
  41 C :   -0.044183
  42 C :   -0.140509
  43 S :    0.449518
  44 C :   -0.107616
  45 C :   -0.123019
  46 C :   -0.087119
  47 C :   -0.032793
  48 N :   -0.047827
  49 C :   -0.030114
  50 N :   -0.065292
  51 C :   -0.142704
  52 C :    0.067612
  53 N :    0.041411
  54 C :   -0.036570
  55 C :   -0.218984
  56 S :    0.427559
  57 C :   -0.241666
  58 C :   -0.032423
  59 N :   -0.053425
  60 H :    0.030557
  61 H :    0.028656
  62 H :    0.035154
  63 H :    0.033654
  64 H :    0.032303
  65 H :    0.036109
  66 H :    0.049712
  67 H :    0.092187
  68 H :    0.042328
  69 H :    0.028451
  70 H :    0.025533
  71 H :    0.016548
  72 H :    0.015187
  73 H :    0.021318
  74 H :    0.021499
  75 H :    0.023977
  76 H :    0.026997
  77 H :    0.020623
  78 H :    0.024101
  79 H :    0.025078
  80 H :    0.025625
  81 H :    0.025878
  82 H :    0.020221
  83 H :    0.040281
  84 H :    0.026570
  85 H :    0.038267
  86 H :    0.087146
  87 H :    0.022547
  88 H :    0.018687
  89 H :    0.076728
  90 H :    0.063717

  Mayer bond orders larger than 0.100000
B(  0-C ,  1-C ) :   1.8668 B(  0-C , 60-H ) :   0.9503 B(  0-C , 61-H ) :   0.9417
B(  1-C ,  2-C ) :   1.0765 B(  1-C ,  5-S ) :   1.0087 B(  2-C ,  3-C ) :   1.6679
B(  2-C , 62-H ) :   0.9923 B(  3-C ,  4-C ) :   1.1489 B(  3-C , 63-H ) :   0.9908
B(  4-C ,  5-S ) :   1.0521 B(  4-C ,  6-C ) :   1.5572 B(  6-C ,  7-C ) :   1.1717
B(  6-C , 10-S ) :   1.0161 B(  7-C ,  8-C ) :   1.6092 B(  7-C , 64-H ) :   0.9930
B(  8-C ,  9-C ) :   1.1306 B(  8-C , 65-H ) :   1.0006 B(  9-C , 10-S ) :   1.0587
B(  9-C , 11-C ) :   1.5448 B( 11-C , 12-C ) :   1.2149 B( 11-C , 66-H ) :   0.9641
B( 12-C , 13-O ) :   1.1158 B( 12-C , 14-C ) :   1.3806 B( 13-O , 21-C ) :   1.1270
B( 14-C , 15-C ) :   0.8925 B( 14-C , 20-C ) :   1.2659 B( 15-C , 16-O ) :   2.2626
B( 15-C , 17-N ) :   1.0695 B( 17-N , 18-C ) :   1.0800 B( 17-N , 67-H ) :   0.9151
B( 18-C , 19-O ) :   2.2635 B( 18-C , 20-C ) :   0.8802 B( 20-C , 21-C ) :   1.4053
B( 21-C , 22-C ) :   1.1651 B( 22-C , 23-C ) :   1.6894 B( 22-C , 68-H ) :   0.9632
B( 23-C , 24-C ) :   1.0137 B( 23-C , 69-H ) :   0.9687 B( 24-C , 25-C ) :   1.5975
B( 24-C , 28-C ) :   1.1418 B( 25-C , 26-S ) :   1.1273 B( 25-C , 70-H ) :   0.9614
B( 26-S , 27-C ) :   1.0802 B( 27-C , 28-C ) :   1.3779 B( 27-C , 39-C ) :   1.3729
B( 28-C , 29-C ) :   1.2571 B( 29-C , 30-C ) :   1.0444 B( 29-C , 32-C ) :   1.5297
B( 30-C , 31-C ) :   1.1033 B( 30-C , 71-H ) :   0.9175 B( 30-C , 72-H ) :   0.9257
B( 31-C , 73-H ) :   0.9594 B( 31-C , 74-H ) :   0.9589 B( 31-C , 75-H ) :   0.9629
B( 32-C , 33-C ) :   1.0679 B( 32-C , 35-C ) :   1.2368 B( 33-C , 34-C ) :   1.1058
B( 33-C , 76-H ) :   0.9087 B( 33-C , 77-H ) :   0.9251 B( 34-C , 78-H ) :   0.9653
B( 34-C , 79-H ) :   0.9654 B( 34-C , 80-H ) :   0.9568 B( 35-C , 36-C ) :   1.1399
B( 35-C , 39-C ) :   1.3793 B( 36-C , 37-C ) :   1.6007 B( 36-C , 40-C ) :   1.0335
B( 37-C , 38-S ) :   1.1260 B( 37-C , 81-H ) :   0.9615 B( 38-S , 39-C ) :   1.0815
B( 40-C , 41-C ) :   1.7061 B( 40-C , 82-H ) :   0.9672 B( 41-C , 42-C ) :   1.1642
B( 41-C , 83-H ) :   0.9647 B( 42-C , 43-S ) :   1.0881 B( 42-C , 46-C ) :   1.5053
B( 43-S , 44-C ) :   1.1256 B( 44-C , 45-C ) :   1.4690 B( 44-C , 51-C ) :   1.1881
B( 45-C , 46-C ) :   1.2889 B( 45-C , 49-C ) :   1.1681 B( 46-C , 47-C ) :   1.1486
B( 47-C , 48-N ) :   3.0028 B( 49-C , 50-N ) :   2.9325 B( 51-C , 52-C ) :   1.6315
B( 51-C , 84-H ) :   0.9316 B( 52-C , 53-N ) :   1.2228 B( 52-C , 85-H ) :   0.9470
B( 53-N , 54-C ) :   1.0922 B( 53-N , 86-H ) :   0.9208 B( 54-C , 55-C ) :   1.5298
B( 54-C , 58-C ) :   1.2529 B( 55-C , 56-S ) :   1.1586 B( 55-C , 87-H ) :   0.9728
B( 56-S , 57-C ) :   1.1327 B( 57-C , 58-C ) :   1.5375 B( 57-C , 88-H ) :   0.9785
B( 58-C , 59-N ) :   1.1750 B( 59-N , 89-H ) :   0.9459 B( 59-N , 90-H ) :   0.9483

-----------------------------------------------------------------------------
         ABSORPTION SPECTRUM VIA TRANSITION ELECTRIC DIPOLE MOMENTS
-----------------------------------------------------------------------------
State   Energy  Wavelength   fosc         T2         TX        TY        TZ
        (cm-1)    (nm)                  (au**2)     (au)      (au)      (au)
-----------------------------------------------------------------------------
   0   17267.0    579.1   0.782218938  14.91377   1.07669   3.45647   1.34436
   1   24260.4    412.2   0.015785583   0.21421   0.18265   0.25914   0.33718
   2   24972.6    400.4   1.506310457  19.85756   2.53732   2.16262   2.95680
   3   25559.0    391.3   0.023426540   0.30174   0.43748   0.09899  -0.31711
   4   25752.0    388.3   0.538797072   6.88796   1.39195  -0.42886  -2.18324
   5   28678.1    348.7   0.003918282   0.04498   0.03019   0.06524   0.19953
   6   29089.6    343.8   0.041653827   0.47140  -0.21388   0.09700   0.64517
   7   30298.0    330.1   0.015599441   0.16950  -0.20451   0.02006   0.35676
   8   31374.0    318.7   0.273635919   2.87130   0.13691   0.86034  -1.45340
   9   31770.2    314.8   0.052860315   0.54775   0.20335   0.70385  -0.10486
  10   32124.4    311.3   0.058961514   0.60424  -0.25237   0.38424   0.62683
  11   32192.3    310.6   0.595949883   6.09444  -0.98453  -0.26249   2.24861
  12   32612.3    306.6   0.021500869   0.21704  -0.11232   0.31342   0.32588
  13   33303.6    300.3   0.018557376   0.18344  -0.01025  -0.18486  -0.38622
  14   33586.6    297.7   0.039122486   0.38347  -0.18443   0.17577   0.56442
  15   34515.1    289.7   0.041663076   0.39739   0.32499   0.15049   0.51878
  16   35581.8    281.0   0.002482643   0.02297   0.04835   0.01930   0.14234
  17   35638.2    280.6   0.003510022   0.03242  -0.05150  -0.06201  -0.16102
  18   35994.3    277.8   0.000174289   0.00159  -0.02899   0.02222  -0.01612
  19   36225.6    276.0   0.001000048   0.00909  -0.07224   0.04668  -0.04112
  20   36977.2    270.4   0.009481021   0.08441  -0.03840  -0.21232  -0.19456
  21   37252.0    268.4   0.118245061   1.04498  -0.63769  -0.37826   0.70375
  22   37637.7    265.7   0.061440695   0.53741   0.13647   0.71307  -0.10161
  23   37984.9    263.3   0.016283400   0.14113  -0.13664  -0.04870   0.34653
  24   38072.0    262.7   0.098981929   0.85591   0.40673   0.71967   0.41540
  25   38327.6    260.9   0.054674824   0.46963  -0.10096   0.22838   0.63818
  26   38546.8    259.4   0.111058931   0.94851  -0.19449  -0.36348  -0.88236
  27   39115.2    255.7   0.283533902   2.38635  -0.08462  -0.13547   1.53650
  28   39486.5    253.3   0.094259462   0.78587   0.15103  -0.53119  -0.69347
  29   39570.3    252.7   0.179794320   1.49583  -0.67856  -0.62754  -0.80098
  30   40079.4    249.5   0.000583987   0.00480   0.05737  -0.01253   0.03673
  31   40188.6    248.8   0.002390661   0.01958  -0.01394  -0.12224  -0.06668

FINAL SINGLE POINT ENERGY     -4656.469932672411

DIPOLE MOMENT
-------------
                                X             Y             Z
Electronic contribution:     28.40424      15.82507       4.88833
Nuclear contribution   :    -31.31798     -20.09525      -4.29524
                        -----------------------------------------
Total Dipole Moment    :     -2.91374      -4.27019       0.59309
                        -----------------------------------------
Magnitude (a.u.)       :      5.20347
Magnitude (Debye)      :     13.22618

Rotational constants in cm-1:     0.001517     0.000450     0.000374
Rotational constants in MHz :    45.470998    13.497672    11.206077

                             ****ORCA TERMINATED NORMALLY****
TOTAL RUN TIME: 0 days 0 hours 6 minutes 55 seconds 298 msec
