                         Program Version 4.2.0 -  RELEASE  -
|  1> # ORCA input file
|  2> # SCF done       -171.974272959009          0.000403498953
|  3> ! CAM-B3LYP def2-SVP def2/J RIJCOSX Grid4 TightSCF
|  4> %maxcore 5000
|  5> %tddft
|  6>     Mode sTDDFT
|  7>     Ethresh 5.0
|  8>     maxcore 5000
|  9> end
| 10>
| 11> %pal
| 12>   nprocs 6
| 13>   end
| 14> * xyz 0 1
| 15>    C       30.52405        -7.39327        -7.05990
| 16>    C       29.35280        -7.07660        -6.48740
| 17>    C       29.04315        -5.92204        -5.69746
| 18>    C       27.75592        -5.86093        -5.27854
| 19>    C       26.95583        -6.95569        -5.69862
| 20>    S       27.90251        -8.08591        -6.63474
| 21>    C       25.61252        -7.13539        -5.42109
| 22>    C       24.75817        -6.23761        -4.75200
| 23>    C       23.48451        -6.71234        -4.60640
| 24>    C       23.27339        -7.99190        -5.14749
| 25>    S       24.74346        -8.59025        -5.87442
| 26>    C       22.07383        -8.69404        -5.09746
| 27>    C       21.82397        -9.93851        -5.62548
| 28>    C       20.59672       -10.58838        -5.48533
| 29>    C       20.21022       -11.83598        -5.98529
| 30>    C       18.92763       -12.20643        -5.64632
| 31>    C       18.26150       -11.26168        -4.86013
| 32>    S       19.28460        -9.88061        -4.56925
| 33>    C       16.97874       -11.31204        -4.30591
| 34>    C       16.00588       -12.31204        -4.40441
| 35>    C       14.85906       -12.03892        -3.69549
| 36>    C       14.88470       -10.81551        -3.01002
| 37>    S       16.40951       -10.00518        -3.30094
| 38>    C       13.91154       -10.25819        -2.18782
| 39>    C       14.08773        -9.03921        -1.55451
| 40>    C       13.20155        -8.42377        -0.69520
| 41>    C       13.50012        -7.19382        -0.10419
| 42>    O       14.67022        -6.55882        -0.38251
| 43>    C       14.71688        -5.39488         0.32009
| 44>    C       13.54021        -5.28097         1.07575
| 45>    C       12.76832        -6.41342         0.80892
| 46>    O       11.55666        -6.72516         1.31460
| 47>    O       13.16152        -4.28563         1.92337
| 48>    C       15.82273        -4.53938         0.19868
| 49>    C       16.88686        -4.81728        -0.62026
| 50>    C       18.00183        -3.98722        -0.79449
| 51>    C       19.02255        -4.30918        -1.64970
| 52>    C       20.16326        -3.53165        -1.90955
| 53>    S       21.33286        -4.13434        -3.08744
| 54>    C       22.31432        -2.73756        -2.87309
| 55>    N       23.44329        -2.37434        -3.43782
| 56>    C       23.85438        -1.21215        -3.00454
| 57>    S       22.75336        -0.47433        -1.76880
| 58>    C       21.74103        -1.85244        -1.92054
| 59>    C       20.54539        -2.30083        -1.38570
| 60>    C       24.95652        -0.44812        -3.39211
| 61>    C       25.96103        -0.76363        -4.27886
| 62>    C       26.97111         0.15981        -4.74381
| 63>    C       27.11669         1.48545        -4.40374
| 64>    C       28.13408         2.32127        -4.90487
| 65>    N       28.93569         3.05808        -5.27211
| 66>    C       26.29559         2.21722        -3.52333
| 67>    N       25.68491         2.89927        -2.82806
| 68>    C       27.82433        -0.55014        -5.69457
| 69>    C       27.34740        -1.87556        -5.82335
| 70>    C       26.22049        -2.08292        -4.88633
| 71>    O       25.72022        -3.15749        -4.62428
| 72>    C       27.91657        -2.78945        -6.67376
| 73>    C       29.04048        -2.39082        -7.40463
| 74>    C       29.52441        -1.07161        -7.25562
| 75>    C       28.92680        -0.13573        -6.41868
| 76>    S       30.93615        -0.79729        -8.23341
| 77>    C       30.85962        -2.44145        -8.81068
| 78>    C       29.82759        -3.15800        -8.30673
| 79>   Br       32.15640        -3.06382       -10.01599
| 80>    H       31.37939        -6.74971        -6.95146
| 81>    H       30.64757        -8.29006        -7.63856
| 82>    H       29.79673        -5.18560        -5.48052
| 83>    H       27.34050        -5.06923        -4.68052
| 84>    H       25.07517        -5.26462        -4.42527
| 85>    H       22.69115        -6.16960        -4.12623
| 86>    H       21.26501        -8.19378        -4.57776
| 87>    H       22.60402       -10.45294        -6.17144
| 88>    H       20.87390       -12.43880        -6.57991
| 89>    H       18.46950       -13.13271        -5.94332
| 90>    H       16.15795       -13.20580        -4.98281
| 91>    H       14.00693       -12.69414        -3.65212
| 92>    H       12.99640       -10.81506        -2.04033
| 93>    H       15.01861        -8.51874        -1.74323
| 94>    H       12.25352        -8.87161        -0.44192
| 95>    H       11.28967        -6.01760         1.91595
| 96>    H       13.84631        -3.60950         1.95605
| 97>    H       15.81209        -3.62482         0.77712
| 98>    H       16.85677        -5.74154        -1.18027
| 99>    H       18.04016        -3.06111        -0.23751
|100>    H       18.95359        -5.24216        -2.19372
|101>    H       19.97101        -1.76457        -0.65418
|102>    H       24.97982         0.53490        -2.94086
|103>    H       27.51456        -3.78451        -6.77446
|104>    H       29.33001         0.86024        -6.34815
|105>    H       29.63153        -4.18639        -8.55097
|106> *
|107>
|108>                          ****END OF INPUT****

CARTESIAN COORDINATES (ANGSTROEM)
---------------------------------
  C     30.524050   -7.393270   -7.059900
  C     29.352800   -7.076600   -6.487400
  C     29.043150   -5.922040   -5.697460
  C     27.755920   -5.860930   -5.278540
  C     26.955830   -6.955690   -5.698620
  S     27.902510   -8.085910   -6.634740
  C     25.612520   -7.135390   -5.421090
  C     24.758170   -6.237610   -4.752000
  C     23.484510   -6.712340   -4.606400
  C     23.273390   -7.991900   -5.147490
  S     24.743460   -8.590250   -5.874420
  C     22.073830   -8.694040   -5.097460
  C     21.823970   -9.938510   -5.625480
  C     20.596720  -10.588380   -5.485330
  C     20.210220  -11.835980   -5.985290
  C     18.927630  -12.206430   -5.646320
  C     18.261500  -11.261680   -4.860130
  S     19.284600   -9.880610   -4.569250
  C     16.978740  -11.312040   -4.305910
  C     16.005880  -12.312040   -4.404410
  C     14.859060  -12.038920   -3.695490
  C     14.884700  -10.815510   -3.010020
  S     16.409510  -10.005180   -3.300940
  C     13.911540  -10.258190   -2.187820
  C     14.087730   -9.039210   -1.554510
  C     13.201550   -8.423770   -0.695200
  C     13.500120   -7.193820   -0.104190
  O     14.670220   -6.558820   -0.382510
  C     14.716880   -5.394880    0.320090
  C     13.540210   -5.280970    1.075750
  C     12.768320   -6.413420    0.808920
  O     11.556660   -6.725160    1.314600
  O     13.161520   -4.285630    1.923370
  C     15.822730   -4.539380    0.198680
  C     16.886860   -4.817280   -0.620260
  C     18.001830   -3.987220   -0.794490
  C     19.022550   -4.309180   -1.649700
  C     20.163260   -3.531650   -1.909550
  S     21.332860   -4.134340   -3.087440
  C     22.314320   -2.737560   -2.873090
  N     23.443290   -2.374340   -3.437820
  C     23.854380   -1.212150   -3.004540
  S     22.753360   -0.474330   -1.768800
  C     21.741030   -1.852440   -1.920540
  C     20.545390   -2.300830   -1.385700
  C     24.956520   -0.448120   -3.392110
  C     25.961030   -0.763630   -4.278860
  C     26.971110    0.159810   -4.743810
  C     27.116690    1.485450   -4.403740
  C     28.134080    2.321270   -4.904870
  N     28.935690    3.058080   -5.272110
  C     26.295590    2.217220   -3.523330
  N     25.684910    2.899270   -2.828060
  C     27.824330   -0.550140   -5.694570
  C     27.347400   -1.875560   -5.823350
  C     26.220490   -2.082920   -4.886330
  O     25.720220   -3.157490   -4.624280
  C     27.916570   -2.789450   -6.673760
  C     29.040480   -2.390820   -7.404630
  C     29.524410   -1.071610   -7.255620
  C     28.926800   -0.135730   -6.418680
  S     30.936150   -0.797290   -8.233410
  C     30.859620   -2.441450   -8.810680
  C     29.827590   -3.158000   -8.306730
  Br    32.156400   -3.063820  -10.015990
  H     31.379390   -6.749710   -6.951460
  H     30.647570   -8.290060   -7.638560
  H     29.796730   -5.185600   -5.480520
  H     27.340500   -5.069230   -4.680520
  H     25.075170   -5.264620   -4.425270
  H     22.691150   -6.169600   -4.126230
  H     21.265010   -8.193780   -4.577760
  H     22.604020  -10.452940   -6.171440
  H     20.873900  -12.438800   -6.579910
  H     18.469500  -13.132710   -5.943320
  H     16.157950  -13.205800   -4.982810
  H     14.006930  -12.694140   -3.652120
  H     12.996400  -10.815060   -2.040330
  H     15.018610   -8.518740   -1.743230
  H     12.253520   -8.871610   -0.441920
  H     11.289670   -6.017600    1.915950
  H     13.846310   -3.609500    1.956050
  H     15.812090   -3.624820    0.777120
  H     16.856770   -5.741540   -1.180270
  H     18.040160   -3.061110   -0.237510
  H     18.953590   -5.242160   -2.193720
  H     19.971010   -1.764570   -0.654180
  H     24.979820    0.534900   -2.940860
  H     27.514560   -3.784510   -6.774460
  H     29.330010    0.860240   -6.348150
  H     29.631530   -4.186390   -8.550970

 Total Charge           Charge          ....    0
 Multiplicity           Mult            ....    1
 Number of Electrons    NEL             ....  526
 Basis Dimension        Dim             .... 1086

ORBITAL ENERGIES
----------------

  NO   OCC          E(Eh)            E(eV)
   0   2.0000    -482.882251    -13139.8941
   1   2.0000     -88.971025     -2421.0247
   2   2.0000     -88.968659     -2420.9603
   3   2.0000     -88.965307     -2420.8691
   4   2.0000     -88.944456     -2420.3017
   5   2.0000     -88.944246     -2420.2960
   6   2.0000     -88.942089     -2420.2373
   7   2.0000     -88.940786     -2420.2018
   8   2.0000     -62.559975     -1702.3435
   9   2.0000     -56.393927     -1534.5568
  10   2.0000     -56.391211     -1534.4829
  11   2.0000     -56.391178     -1534.4820
  12   2.0000     -19.285302      -524.7798
  13   2.0000     -19.274201      -524.4777
  14   2.0000     -19.257918      -524.0346
  15   2.0000     -19.209879      -522.7274
  16   2.0000     -14.427043      -392.5798
  17   2.0000     -14.410577      -392.1317
  18   2.0000     -14.407714      -392.0538
  19   2.0000     -10.361802      -281.9590
  20   2.0000     -10.354625      -281.7637
  21   2.0000     -10.345454      -281.5141
  22   2.0000     -10.341318      -281.4016
  23   2.0000     -10.336539      -281.2715
  24   2.0000     -10.335533      -281.2441
  25   2.0000     -10.334350      -281.2120
  26   2.0000     -10.333952      -281.2011
  27   2.0000     -10.333842      -281.1981
  28   2.0000     -10.333551      -281.1902
  29   2.0000     -10.323125      -280.9065
  30   2.0000     -10.320327      -280.8304
  31   2.0000     -10.318221      -280.7731
  32   2.0000     -10.315187      -280.6905
  33   2.0000     -10.313781      -280.6523
  34   2.0000     -10.312299      -280.6119
  35   2.0000     -10.311422      -280.5881
  36   2.0000     -10.309629      -280.5393
  37   2.0000     -10.309195      -280.5275
  38   2.0000     -10.306437      -280.4524
  39   2.0000     -10.306260      -280.4476
  40   2.0000     -10.302473      -280.3445
  41   2.0000     -10.302243      -280.3383
  42   2.0000     -10.302212      -280.3374
  43   2.0000     -10.301896      -280.3288
  44   2.0000     -10.300895      -280.3016
  45   2.0000     -10.299647      -280.2676
  46   2.0000     -10.296091      -280.1709
  47   2.0000     -10.294323      -280.1228
  48   2.0000     -10.292972      -280.0860
  49   2.0000     -10.291942      -280.0580
  50   2.0000     -10.289400      -279.9888
  51   2.0000     -10.288354      -279.9604
  52   2.0000     -10.285499      -279.8827
  53   2.0000     -10.285322      -279.8778
  54   2.0000     -10.284084      -279.8442
  55   2.0000     -10.283235      -279.8210
  56   2.0000     -10.282663      -279.8055
  57   2.0000     -10.282409      -279.7986
  58   2.0000     -10.281983      -279.7870
  59   2.0000     -10.280639      -279.7504
  60   2.0000     -10.275777      -279.6181
  61   2.0000     -10.275699      -279.6160
  62   2.0000     -10.275517      -279.6110
  63   2.0000     -10.274839      -279.5926
  64   2.0000     -10.273534      -279.5571
  65   2.0000     -10.273030      -279.5434
  66   2.0000     -10.272586      -279.5313
  67   2.0000     -10.272521      -279.5295
  68   2.0000     -10.270075      -279.4630
  69   2.0000      -8.789402      -239.1718
  70   2.0000      -8.067008      -219.5144
  71   2.0000      -8.063980      -219.4321
  72   2.0000      -8.060655      -219.3416
  73   2.0000      -8.040697      -218.7985
  74   2.0000      -8.040544      -218.7943
  75   2.0000      -8.038750      -218.7455
  76   2.0000      -8.037151      -218.7020
  77   2.0000      -6.625694      -180.2943
  78   2.0000      -6.611154      -179.8986
  79   2.0000      -6.610935      -179.8927
  80   2.0000      -6.036706      -164.2671
  81   2.0000      -6.033101      -164.1690
  82   2.0000      -6.032433      -164.1508
  83   2.0000      -6.030073      -164.0866
  84   2.0000      -6.029426      -164.0690
  85   2.0000      -6.028207      -164.0359
  86   2.0000      -6.026279      -163.9834
  87   2.0000      -6.025936      -163.9741
  88   2.0000      -6.022138      -163.8707
  89   2.0000      -6.010293      -163.5484
  90   2.0000      -6.010099      -163.5431
  91   2.0000      -6.008495      -163.4994
  92   2.0000      -6.006731      -163.4515
  93   2.0000      -6.006352      -163.4411
  94   2.0000      -6.006098      -163.4342
  95   2.0000      -6.004585      -163.3931
  96   2.0000      -6.002743      -163.3429
  97   2.0000      -6.001844      -163.3185
  98   2.0000      -6.001816      -163.3177
  99   2.0000      -5.999451      -163.2534
 100   2.0000      -5.998343      -163.2232
 101   2.0000      -2.741525       -74.6007
 102   2.0000      -2.737475       -74.4905
 103   2.0000      -2.737373       -74.4877
 104   2.0000      -2.725790       -74.1725
 105   2.0000      -2.725762       -74.1717
 106   2.0000      -1.207412       -32.8553
 107   2.0000      -1.165162       -31.7057
 108   2.0000      -1.145890       -31.1813
 109   2.0000      -1.124608       -30.6021
 110   2.0000      -1.080766       -29.4091
 111   2.0000      -1.017433       -27.6858
 112   2.0000      -1.007969       -27.4282
 113   2.0000      -0.993022       -27.0215
 114   2.0000      -0.991062       -26.9682
 115   2.0000      -0.987865       -26.8812
 116   2.0000      -0.984715       -26.7955
 117   2.0000      -0.980893       -26.6914
 118   2.0000      -0.971597       -26.4385
 119   2.0000      -0.967835       -26.3361
 120   2.0000      -0.938036       -25.5253
 121   2.0000      -0.926179       -25.2026
 122   2.0000      -0.911016       -24.7900
 123   2.0000      -0.909090       -24.7376
 124   2.0000      -0.902993       -24.5717
 125   2.0000      -0.901644       -24.5350
 126   2.0000      -0.895650       -24.3719
 127   2.0000      -0.891352       -24.2549
 128   2.0000      -0.881972       -23.9997
 129   2.0000      -0.880206       -23.9516
 130   2.0000      -0.872751       -23.7488
 131   2.0000      -0.862955       -23.4822
 132   2.0000      -0.854911       -23.2633
 133   2.0000      -0.843359       -22.9490
 134   2.0000      -0.842369       -22.9220
 135   2.0000      -0.833557       -22.6822
 136   2.0000      -0.824721       -22.4418
 137   2.0000      -0.823655       -22.4128
 138   2.0000      -0.818694       -22.2778
 139   2.0000      -0.816633       -22.2217
 140   2.0000      -0.812408       -22.1068
 141   2.0000      -0.800391       -21.7798
 142   2.0000      -0.786976       -21.4147
 143   2.0000      -0.773763       -21.0552
 144   2.0000      -0.756116       -20.5750
 145   2.0000      -0.753461       -20.5027
 146   2.0000      -0.742070       -20.1927
 147   2.0000      -0.730229       -19.8705
 148   2.0000      -0.716527       -19.4977
 149   2.0000      -0.708023       -19.2663
 150   2.0000      -0.698472       -19.0064
 151   2.0000      -0.696468       -18.9519
 152   2.0000      -0.687544       -18.7090
 153   2.0000      -0.684779       -18.6338
 154   2.0000      -0.678267       -18.4566
 155   2.0000      -0.675605       -18.3841
 156   2.0000      -0.670223       -18.2377
 157   2.0000      -0.665401       -18.1065
 158   2.0000      -0.658231       -17.9114
 159   2.0000      -0.654237       -17.8027
 160   2.0000      -0.644872       -17.5478
 161   2.0000      -0.637907       -17.3583
 162   2.0000      -0.628865       -17.1123
 163   2.0000      -0.628297       -17.0968
 164   2.0000      -0.624921       -17.0050
 165   2.0000      -0.621766       -16.9191
 166   2.0000      -0.616739       -16.7823
 167   2.0000      -0.614945       -16.7335
 168   2.0000      -0.608552       -16.5596
 169   2.0000      -0.604459       -16.4482
 170   2.0000      -0.599101       -16.3024
 171   2.0000      -0.593060       -16.1380
 172   2.0000      -0.590783       -16.0760
 173   2.0000      -0.588722       -16.0199
 174   2.0000      -0.583575       -15.8799
 175   2.0000      -0.577750       -15.7214
 176   2.0000      -0.568377       -15.4663
 177   2.0000      -0.567193       -15.4341
 178   2.0000      -0.561911       -15.2904
 179   2.0000      -0.555453       -15.1147
 180   2.0000      -0.551484       -15.0067
 181   2.0000      -0.547458       -14.8971
 182   2.0000      -0.541430       -14.7331
 183   2.0000      -0.538179       -14.6446
 184   2.0000      -0.536426       -14.5969
 185   2.0000      -0.531366       -14.4592
 186   2.0000      -0.529310       -14.4033
 187   2.0000      -0.526950       -14.3390
 188   2.0000      -0.524088       -14.2612
 189   2.0000      -0.518594       -14.1117
 190   2.0000      -0.515966       -14.0401
 191   2.0000      -0.514063       -13.9884
 192   2.0000      -0.507509       -13.8100
 193   2.0000      -0.505911       -13.7665
 194   2.0000      -0.503550       -13.7023
 195   2.0000      -0.500407       -13.6168
 196   2.0000      -0.496712       -13.5162
 197   2.0000      -0.495365       -13.4796
 198   2.0000      -0.493735       -13.4352
 199   2.0000      -0.492751       -13.4084
 200   2.0000      -0.492224       -13.3941
 201   2.0000      -0.491551       -13.3758
 202   2.0000      -0.489868       -13.3300
 203   2.0000      -0.487508       -13.2658
 204   2.0000      -0.487205       -13.2575
 205   2.0000      -0.485245       -13.2042
 206   2.0000      -0.478321       -13.0158
 207   2.0000      -0.474653       -12.9160
 208   2.0000      -0.470773       -12.8104
 209   2.0000      -0.470419       -12.8007
 210   2.0000      -0.467694       -12.7266
 211   2.0000      -0.466846       -12.7035
 212   2.0000      -0.463323       -12.6077
 213   2.0000      -0.461578       -12.5602
 214   2.0000      -0.459683       -12.5086
 215   2.0000      -0.458293       -12.4708
 216   2.0000      -0.452365       -12.3095
 217   2.0000      -0.451016       -12.2728
 218   2.0000      -0.449766       -12.2388
 219   2.0000      -0.448784       -12.2120
 220   2.0000      -0.443385       -12.0651
 221   2.0000      -0.442428       -12.0391
 222   2.0000      -0.439615       -11.9625
 223   2.0000      -0.437696       -11.9103
 224   2.0000      -0.434152       -11.8139
 225   2.0000      -0.431990       -11.7551
 226   2.0000      -0.430891       -11.7251
 227   2.0000      -0.426641       -11.6095
 228   2.0000      -0.425462       -11.5774
 229   2.0000      -0.422074       -11.4852
 230   2.0000      -0.420664       -11.4468
 231   2.0000      -0.418152       -11.3785
 232   2.0000      -0.417687       -11.3658
 233   2.0000      -0.414684       -11.2841
 234   2.0000      -0.414178       -11.2704
 235   2.0000      -0.407970       -11.1014
 236   2.0000      -0.401174       -10.9165
 237   2.0000      -0.399504       -10.8710
 238   2.0000      -0.396566       -10.7911
 239   2.0000      -0.390324       -10.6213
 240   2.0000      -0.389557       -10.6004
 241   2.0000      -0.384827       -10.4717
 242   2.0000      -0.378301       -10.2941
 243   2.0000      -0.371850       -10.1185
 244   2.0000      -0.369627       -10.0581
 245   2.0000      -0.364777        -9.9261
 246   2.0000      -0.356452        -9.6995
 247   2.0000      -0.341002        -9.2791
 248   2.0000      -0.334893        -9.1129
 249   2.0000      -0.332394        -9.0449
 250   2.0000      -0.328345        -8.9347
 251   2.0000      -0.322714        -8.7815
 252   2.0000      -0.321754        -8.7554
 253   2.0000      -0.317305        -8.6343
 254   2.0000      -0.311124        -8.4661
 255   2.0000      -0.310150        -8.4396
 256   2.0000      -0.308027        -8.3818
 257   2.0000      -0.296899        -8.0790
 258   2.0000      -0.288151        -7.8410
 259   2.0000      -0.274158        -7.4602
 260   2.0000      -0.247753        -6.7417
 261   2.0000      -0.222126        -6.0443
 262   2.0000      -0.179844        -4.8938
 263   0.0000      -0.107219        -2.9176
 264   0.0000      -0.094258        -2.5649
 265   0.0000      -0.061553        -1.6749
 266   0.0000      -0.050348        -1.3701
 267   0.0000      -0.033581        -0.9138

MULLIKEN ATOMIC CHARGES
-----------------------
   0 C :   -0.029269
   1 C :   -0.068309
   2 C :    0.031369
   3 C :    0.028640
   4 C :   -0.072620
   5 S :    0.088712
   6 C :   -0.046494
   7 C :    0.035669
   8 C :    0.036115
   9 C :   -0.011882
  10 S :    0.088209
  11 C :   -0.032721
  12 C :    0.015559
  13 C :   -0.036757
  14 C :    0.029492
  15 C :    0.011487
  16 C :   -0.029943
  17 S :    0.071922
  18 C :   -0.045471
  19 C :    0.023962
  20 C :    0.021454
  21 C :   -0.020038
  22 S :    0.064410
  23 C :   -0.002742
  24 C :    0.024639
  25 C :   -0.064639
  26 C :    0.108762
  27 O :   -0.232618
  28 C :    0.111524
  29 C :    0.089367
  30 C :    0.082880
  31 O :   -0.174361
  32 O :   -0.196354
  33 C :   -0.061893
  34 C :    0.005823
  35 C :    0.037156
  36 C :    0.021354
  37 C :   -0.040845
  38 S :    0.115962
  39 C :   -0.083641
  40 N :    0.045407
  41 C :   -0.175485
  42 S :    0.128292
  43 C :    0.025887
  44 C :   -0.060105
  45 C :    0.069617
  46 C :   -0.077226
  47 C :    0.322400
  48 C :   -0.367685
  49 C :   -0.183948
  50 N :    0.141961
  51 C :   -0.180214
  52 N :    0.144120
  53 C :    0.015721
  54 C :   -0.006631
  55 C :    0.147622
  56 O :   -0.135314
  57 C :   -0.087730
  58 C :    0.112851
  59 C :   -0.094772
  60 C :   -0.022371
  61 S :    0.183377
  62 C :   -0.123891
  63 C :    0.033623
  64 Br:    0.019094
  65 H :    0.025125
  66 H :    0.024080
  67 H :   -0.005885
  68 H :    0.007569
  69 H :   -0.003057
  70 H :   -0.035513
  71 H :   -0.004708
  72 H :   -0.007435
  73 H :   -0.012600
  74 H :   -0.017234
  75 H :   -0.016174
  76 H :   -0.016411
  77 H :   -0.020737
  78 H :    0.012692
  79 H :   -0.004493
  80 H :    0.193575
  81 H :    0.192694
  82 H :   -0.030811
  83 H :    0.005285
  84 H :   -0.014980
  85 H :   -0.013178
  86 H :   -0.011541
  87 H :    0.001659
  88 H :   -0.007000
  89 H :   -0.009078
  90 H :   -0.000316
Sum of atomic charges:   -0.0000000

LOEWDIN ATOMIC CHARGES
----------------------
   0 C :   -0.075033
   1 C :   -0.141170
   2 C :   -0.038457
   3 C :   -0.021412
   4 C :   -0.170450
   5 S :    0.359006
   6 C :   -0.178379
   7 C :   -0.013907
   8 C :   -0.044473
   9 C :   -0.135555
  10 S :    0.377411
  11 C :   -0.074366
  12 C :   -0.040516
  13 C :   -0.159268
  14 C :   -0.032588
  15 C :   -0.047812
  16 C :   -0.168223
  17 S :    0.388117
  18 C :   -0.192318
  19 C :   -0.030832
  20 C :   -0.051506
  21 C :   -0.137907
  22 S :    0.384030
  23 C :   -0.068316
  24 C :   -0.017906
  25 C :   -0.056663
  26 C :    0.029013
  27 O :   -0.002389
  28 C :   -0.014860
  29 C :   -0.008457
  30 C :   -0.013938
  31 O :   -0.046980
  32 O :   -0.057715
  33 C :   -0.040439
  34 C :   -0.039304
  35 C :    0.004797
  36 C :   -0.073196
  37 C :   -0.122929
  38 S :    0.435282
  39 C :   -0.194385
  40 N :   -0.047205
  41 C :   -0.141653
  42 S :    0.409959
  43 C :   -0.191085
  44 C :   -0.089233
  45 C :    0.027696
  46 C :   -0.091022
  47 C :    0.074821
  48 C :   -0.148505
  49 C :   -0.017626
  50 N :   -0.060410
  51 C :   -0.022491
  52 N :   -0.057409
  53 C :   -0.020358
  54 C :   -0.051133
  55 C :    0.086700
  56 O :   -0.135170
  57 C :    0.016984
  58 C :   -0.034475
  59 C :   -0.145010
  60 C :   -0.011677
  61 S :    0.429131
  62 C :   -0.273066
  63 C :   -0.071685
  64 Br:    0.132863
  65 H :    0.030172
  66 H :    0.027067
  67 H :    0.033829
  68 H :    0.035664
  69 H :    0.036064
  70 H :    0.015511
  71 H :    0.026051
  72 H :    0.030876
  73 H :    0.033372
  74 H :    0.030502
  75 H :    0.031093
  76 H :    0.031416
  77 H :    0.030621
  78 H :    0.021175
  79 H :    0.038351
  80 H :    0.103987
  81 H :    0.099942
  82 H :    0.025451
  83 H :    0.033494
  84 H :    0.025994
  85 H :    0.029480
  86 H :    0.031755
  87 H :    0.043322
  88 H :    0.039716
  89 H :    0.040453
  90 H :    0.039690

  Mayer bond orders larger than 0.100000
B(  0-C ,  1-C ) :   1.8462 B(  0-C , 65-H ) :   0.9512 B(  0-C , 66-H ) :   0.9413
B(  1-C ,  2-C ) :   1.0819 B(  1-C ,  5-S ) :   1.0080 B(  2-C ,  3-C ) :   1.6181
B(  2-C , 67-H ) :   0.9963 B(  3-C ,  4-C ) :   1.1783 B(  3-C , 68-H ) :   0.9864
B(  4-C ,  5-S ) :   1.0578 B(  4-C ,  6-C ) :   1.4961 B(  6-C ,  7-C ) :   1.2078
B(  6-C , 10-S ) :   1.0404 B(  7-C ,  8-C ) :   1.5323 B(  7-C , 69-H ) :   0.9828
B(  8-C ,  9-C ) :   1.2006 B(  8-C , 70-H ) :   0.9961 B(  9-C , 10-S ) :   1.0598
B(  9-C , 11-C ) :   1.4603 B( 11-C , 12-C ) :   1.2795 B( 11-C , 71-H ) :   0.9652
B( 12-C , 13-C ) :   1.4395 B( 12-C , 72-H ) :   0.9769 B( 13-C , 14-C ) :   1.2392
B( 13-C , 17-S ) :   1.0491 B( 14-C , 15-C ) :   1.4800 B( 14-C , 73-H ) :   1.0002
B( 15-C , 16-C ) :   1.2774 B( 15-C , 74-H ) :   0.9964 B( 16-C , 17-S ) :   1.0777
B( 16-C , 18-C ) :   1.3741 B( 18-C , 19-C ) :   1.2798 B( 18-C , 22-S ) :   1.0582
B( 19-C , 20-C ) :   1.4888 B( 19-C , 75-H ) :   0.9948 B( 20-C , 21-C ) :   1.2243
B( 20-C , 76-H ) :   0.9995 B( 21-C , 22-S ) :   1.0612 B( 21-C , 23-C ) :   1.4331
B( 23-C , 24-C ) :   1.2537 B( 23-C , 77-H ) :   0.9861 B( 24-C , 25-C ) :   1.4711
B( 24-C , 78-H ) :   0.9718 B( 25-C , 26-C ) :   1.2564 B( 25-C , 79-H ) :   0.9796
B( 26-C , 27-O ) :   1.1159 B( 26-C , 30-C ) :   1.2926 B( 27-O , 28-C ) :   1.1011
B( 28-C , 29-C ) :   1.2239 B( 28-C , 33-C ) :   1.2292 B( 29-C , 30-C ) :   1.2964
B( 29-C , 32-O ) :   1.2371 B( 30-C , 31-O ) :   1.2753 B( 31-O , 80-H ) :   0.9538
B( 32-O , 81-H ) :   0.9577 B( 33-C , 34-C ) :   1.5075 B( 33-C , 82-H ) :   0.9642
B( 34-C , 35-C ) :   1.2211 B( 34-C , 83-H ) :   0.9973 B( 35-C , 36-C ) :   1.5578
B( 35-C , 84-H ) :   0.9784 B( 36-C , 37-C ) :   1.1861 B( 36-C , 85-H ) :   0.9647
B( 37-C , 38-S ) :   1.0945 B( 37-C , 44-C ) :   1.4287 B( 38-S , 39-C ) :   1.0781
B( 39-C , 40-N ) :   1.5037 B( 39-C , 43-C ) :   1.2318 B( 40-N , 41-C ) :   1.5926
B( 40-N , 42-S ) :   0.1081 B( 41-C , 42-S ) :   1.0272 B( 41-C , 45-C ) :   1.2455
B( 42-S , 43-C ) :   1.1228 B( 43-C , 44-C ) :   1.3185 B( 44-C , 86-H ) :   0.9983
B( 45-C , 46-C ) :   1.5366 B( 45-C , 87-H ) :   0.9030 B( 46-C , 47-C ) :   1.1082
B( 46-C , 55-C ) :   0.9632 B( 47-C , 48-C ) :   1.5945 B( 47-C , 53-C ) :   0.9931
B( 48-C , 49-C ) :   1.1520 B( 48-C , 51-C ) :   1.1475 B( 49-C , 50-N ) :   2.9605
B( 51-C , 52-N ) :   2.9542 B( 53-C , 54-C ) :   1.2734 B( 53-C , 60-C ) :   1.4111
B( 54-C , 55-C ) :   0.9387 B( 54-C , 57-C ) :   1.4174 B( 55-C , 56-O ) :   2.1441
B( 57-C , 58-C ) :   1.2534 B( 57-C , 88-H ) :   1.0135 B( 58-C , 59-C ) :   1.3083
B( 58-C , 63-C ) :   1.1623 B( 59-C , 60-C ) :   1.3277 B( 59-C , 61-S ) :   1.0841
B( 60-C , 89-H ) :   0.9796 B( 61-S , 62-C ) :   1.0852 B( 62-C , 63-C ) :   1.6154
B( 62-C , 64-Br) :   1.0164 B( 63-C , 90-H ) :   0.9996

-----------------------------------------------------------------------------
         ABSORPTION SPECTRUM VIA TRANSITION ELECTRIC DIPOLE MOMENTS
-----------------------------------------------------------------------------
State   Energy  Wavelength   fosc         T2         TX        TY        TZ
        (cm-1)    (nm)                  (au**2)     (au)      (au)      (au)
-----------------------------------------------------------------------------
   0    3782.4   2643.8   0.097321480   8.47073  -1.04375   2.50941   1.04124
   1    8073.3   1238.6   0.573492811  23.38575  -4.45298  -1.16500   1.48308
   2   12859.2    777.7   0.699157358  17.89928   3.68723   1.74545  -1.12118
   3   13881.9    720.4   1.854134317  43.97121  -5.79513  -2.84895   1.50704
   4   15643.5    639.2   0.005843760   0.12298   0.26843   0.13678   0.17949
   5   17348.0    576.4   0.422310929   8.01417  -2.09021  -1.90719  -0.08824
   6   17951.2    557.1   0.319048583   5.85113   0.32365  -1.56040  -1.81976
   7   19807.2    504.9   0.110447260   1.83573   0.76441  -0.27297  -1.08484
   8   21351.3    468.4   0.020552215   0.31689   0.40668   0.34504   0.18012
   9   23409.8    427.2   0.054083603   0.76058  -0.71770   0.04906   0.49303
  10   23595.1    423.8   0.027301573   0.38093  -0.29488   0.40240   0.36338
  11   24568.4    407.0   0.008567330   0.11480  -0.06569   0.31010   0.11967
  12   25130.1    397.9   0.055212166   0.72330  -0.67728  -0.47432   0.19902
  13   25484.1    392.4   0.179066062   2.31323  -1.22526   0.09483   0.89609
  14   26003.2    384.6   0.051436970   0.65121  -0.17344   0.66959   0.41568
  15   26362.0    379.3   0.102913795   1.28520   0.81336  -0.39180  -0.68567
  16   27204.2    367.6   0.031820149   0.38507  -0.24935   0.43300   0.36799
  17   27818.9    359.5   0.017324309   0.20502  -0.13015   0.43227   0.03498
  18   28320.2    353.1   0.203374434   2.36415  -0.97540   0.72631   0.94086
  19   28539.7    350.4   0.013364346   0.15416   0.22745   0.31576   0.05218
  20   28876.8    346.3   0.048916949   0.55768   0.42414  -0.40777  -0.45990
  21   29335.1    340.9   0.274974683   3.08589  -0.95397   1.10188   0.98066
  22   30048.4    332.8   0.010214202   0.11191  -0.29600  -0.03886   0.15094
  23   30286.6    330.2   0.091237264   0.99174  -0.59345   0.54329   0.58685
  24   30459.8    328.3   0.036391459   0.39332  -0.47834   0.18653   0.36017
  25   30601.2    326.8   0.000254852   0.00274  -0.03515  -0.03811  -0.00732
  26   30642.1    326.3   0.009994888   0.10738  -0.30483   0.01268   0.11958
  27   30924.3    323.4   0.159087464   1.69360  -0.33238   1.02619   0.72805
  28   31514.9    317.3   0.070716357   0.73872  -0.60921   0.32801   0.50990
  29   31728.0    315.2   0.001589256   0.01649  -0.06082   0.00208   0.11308
  30   32599.4    306.8   0.458575545   4.63102  -0.90719   1.47471   1.27799
  31   32920.6    303.8   0.003985799   0.03986   0.12026   0.15823  -0.01895
  32   33060.9    302.5   0.002066306   0.02058   0.01728   0.12651   0.06536
  33   33196.1    301.2   0.000196326   0.00195   0.01924  -0.00559  -0.03931
  34   33332.6    300.0   0.025769224   0.25451  -0.44044  -0.06169   0.23815
  35   33705.7    296.7   0.019806224   0.19345  -0.36516  -0.18910   0.15605
  36   33905.0    294.9   0.051492803   0.49999  -0.50258   0.31455   0.38531
  37   34079.2    293.4   0.012900978   0.12463   0.04810   0.33920   0.08518
  38   34263.6    291.9   0.037019657   0.35569   0.45245  -0.11382  -0.37152
  39   34310.3    291.5   0.020311343   0.19489   0.09324  -0.33134  -0.27642
  40   34443.1    290.3   0.008485040   0.08110  -0.03102   0.21238   0.18718
  41   34776.5    287.6   0.015243583   0.14430  -0.20672   0.20413   0.24475
  42   35021.2    285.5   0.095354003   0.89636  -0.49697   0.67763   0.43613
  43   35078.5    285.1   0.013117068   0.12310  -0.18571   0.21421   0.20671
  44   35300.3    283.3   0.002170790   0.02024  -0.12271  -0.06303   0.03487
  45   35385.6    282.6   0.031046008   0.28884  -0.44923  -0.28307   0.08311
  46   35480.5    281.8   0.001124613   0.01043   0.10067   0.00513  -0.01657
  47   35755.7    279.7   0.101072203   0.93060   0.29096  -0.73265  -0.55602
  48   35974.3    278.0   0.000315471   0.00289   0.02491  -0.03968  -0.02630
  49   36145.4    276.7   0.039787443   0.36238  -0.22474   0.46131   0.31474
  50   36445.8    274.4   0.015911091   0.14372   0.37298  -0.05499  -0.03979
  51   36873.0    271.2   0.030534461   0.27262   0.29386  -0.35544  -0.24480
  52   37813.6    264.5   0.044708150   0.38924   0.42617   0.41652  -0.18474
  53   37924.7    263.7   0.030687833   0.26639   0.38751   0.31768  -0.12371
  54   38275.1    261.3   0.020454236   0.17593   0.39562  -0.07394  -0.11809
  55   38451.1    260.1   0.040602568   0.34763  -0.41619  -0.38252   0.16763
  56   38595.4    259.1   0.057400786   0.48962  -0.34804  -0.60503   0.04924
  57   38722.1    258.3   0.025530750   0.21706  -0.31750   0.29807   0.16555
  58   38813.7    257.6   0.001064470   0.00903  -0.04525  -0.08324  -0.00719
  59   38924.5    256.9   0.030349311   0.25669   0.21572   0.44692  -0.10202
  60   39651.2    252.2   0.018395412   0.15273  -0.19771  -0.32583  -0.08646
  61   39947.0    250.3   0.038482658   0.31714  -0.28027  -0.48110  -0.08447
  62   40105.7    249.3   0.000171792   0.00141   0.03317  -0.01532   0.00866
  63   40135.7    249.2   0.050189229   0.41168   0.33384   0.54285   0.07444
  64   40272.5    248.3   0.017799902   0.14551  -0.29457  -0.08446   0.22716

FINAL SINGLE POINT ENERGY     -7743.387535926828

DIPOLE MOMENT
-------------
                                X             Y             Z
Electronic contribution:    131.94596      52.89961     -71.28276
Nuclear contribution   :   -134.16959     -55.24455      72.05547
                        -----------------------------------------
Total Dipole Moment    :     -2.22363      -2.34494       0.77271
                        -----------------------------------------
Magnitude (a.u.)       :      3.32270
Magnitude (Debye)      :      8.44564

Rotational constants in cm-1:     0.001245     0.000341     0.000273
Rotational constants in MHz :    37.311316    10.220754     8.172814

                             ****ORCA TERMINATED NORMALLY****
TOTAL RUN TIME: 0 days 0 hours 9 minutes 40 seconds 435 msec
