                         Program Version 4.2.0 -  RELEASE  -
|  1> # ORCA input file
|  2> # SCF done       -159.170504417048          0.000934477166
|  3> ! CAM-B3LYP def2-SVP def2/J RIJCOSX Grid4 TightSCF
|  4> %maxcore 5000
|  5> %tddft
|  6>     Mode sTDDFT
|  7>     Ethresh 5.0
|  8>     maxcore 5000
|  9> end
| 10>
| 11> %pal
| 12>   nprocs 6
| 13>   end
| 14> * xyz 0 1
| 15>    C        0.44702        -1.38802         1.16399
| 16>    C       -0.32182        -1.31038         2.30593
| 17>    C       -1.10911        -2.28321         2.96543
| 18>    C       -1.85183        -1.91026         4.04575
| 19>    C       -1.86619        -0.56998         4.49756
| 20>    C       -1.09622         0.39288         3.90347
| 21>    C       -0.27272         0.04251         2.82041
| 22>    C        0.52976         0.82387         1.96587
| 23>    C        1.02608        -0.09716         0.91383
| 24>    C        2.01126         0.15437         0.03352
| 25>    C        0.83757         2.18112         2.07563
| 26>    C        1.06987         2.92575         3.24925
| 27>    C        1.19494         2.51571         4.58740
| 28>    C        1.46462         3.44735         5.55205
| 29>    C        1.59609         4.81495         5.22941
| 30>    C        1.55252         5.24469         3.93429
| 31>    C        1.34342         4.30074         2.90592
| 32>    C        1.29327         4.42676         1.51837
| 33>    C        0.93250         3.13781         0.95033
| 34>    C        0.56789         2.90648        -0.31945
| 35>    N        1.47118         5.55334         0.75311
| 36>    C        2.37304         6.54029         0.96073
| 37>    S        3.76357         6.29872         1.97890
| 38>    C        4.36319         7.86076         1.49889
| 39>    N        5.55795         8.28957         2.06178
| 40>    O        5.98320         9.38900         1.73924
| 41>    O        6.10275         7.52588         2.84922
| 42>    C        3.54550         8.50617         0.60605
| 43>    C        2.38779         7.77668         0.29548
| 44>    C        1.36108         8.29116        -0.57761
| 45>    C        0.07359         7.91384        -0.61429
| 46>    C       -0.91596         8.47896        -1.52354
| 47>    C       -0.52308         8.89767        -2.79557
| 48>    C       -1.42931         9.42337        -3.70353
| 49>    C       -0.98570         9.85475        -5.06757
| 50>    C       -2.76002         9.50200        -3.33349
| 51>    C       -3.19487         9.07652        -2.07374
| 52>    C       -2.26171         8.58271        -1.14543
| 53>    C       -2.68803         8.23846         0.25314
| 54>    C       -4.60607         9.11364        -1.75945
| 55>    C       -5.50349         9.96934        -2.30185
| 56>    C       -6.87642         9.91471        -1.95768
| 57>    C       -7.83654        10.76674        -2.42307
| 58>    C       -9.24860        10.75300        -2.08582
| 59>    C       -9.90613         9.82637        -1.31712
| 60>    C      -11.28868         9.86452        -1.04010
| 61>    N      -12.40603         9.83801        -0.77767
| 62>    C       -9.31886         8.70102        -0.70313
| 63>    N       -8.92168         7.76108        -0.17511
| 64>    C       -9.86998        11.90238        -2.73364
| 65>    C       -8.88738        12.58943        -3.48748
| 66>    C       -7.58899        11.90172        -3.34521
| 67>    O       -6.54820        12.21847        -3.88273
| 68>    C       -9.16533        13.72274        -4.21189
| 69>    C      -10.47756        14.20586        -4.19016
| 70>    C      -11.45366        13.51396        -3.43389
| 71>    C      -11.17263        12.36668        -2.70315
| 72>    S      -13.00836        14.28285        -3.54169
| 73>    C      -12.33489        15.50628        -4.58615
| 74>    C      -11.01449        15.34908        -4.84254
| 75>   Br      -13.43775        16.87611        -5.23707
| 76>    H        0.63406        -2.26214         0.56965
| 77>    H       -1.12089        -3.29784         2.59599
| 78>    H       -2.46255        -2.63605         4.56278
| 79>    H       -2.50624        -0.31084         5.32794
| 80>    H       -1.13579         1.41610         4.24548
| 81>    H        2.49050         1.11492        -0.03857
| 82>    H        2.37399        -0.62203        -0.61957
| 83>    H        1.09607         1.47139         4.84059
| 84>    H        1.56959         3.14322         6.58257
| 85>    H        1.75219         5.52528         6.02731
| 86>    H        1.65718         6.29262         3.70092
| 87>    H        0.57090         3.68278        -1.06833
| 88>    H        0.24598         1.93458        -0.64696
| 89>    H        1.01105         5.56606        -0.15077
| 90>    H        3.77508         9.48128         0.21613
| 91>    H        1.68668         9.10883        -1.20673
| 92>    H       -0.29479         7.17909         0.08733
| 93>    H        0.51189         8.79271        -3.08630
| 94>    H        0.03752        10.22192        -5.04474
| 95>    H       -1.63420        10.63649        -5.45465
| 96>    H       -1.02594         9.01066        -5.75679
| 97>    H       -3.48464         9.86873        -4.04381
| 98>    H       -3.53136         8.84891         0.56396
| 99>    H       -1.87881         8.41299         0.95736
|100>    H       -2.98123         7.18878         0.31955
|101>    H       -4.96551         8.38686        -1.04135
|102>    H       -5.19174        10.73812        -2.99148
|103>    H       -7.16468         9.13701        -1.26184
|104>    H       -8.39310        14.22253        -4.77541
|105>    H      -11.95176        11.87889        -2.14203
|106>    H      -10.44078        16.01148        -5.46458
|107> *
|108>
|109>                          ****END OF INPUT****

CARTESIAN COORDINATES (ANGSTROEM)
---------------------------------
  C      0.447020   -1.388020    1.163990
  C     -0.321820   -1.310380    2.305930
  C     -1.109110   -2.283210    2.965430
  C     -1.851830   -1.910260    4.045750
  C     -1.866190   -0.569980    4.497560
  C     -1.096220    0.392880    3.903470
  C     -0.272720    0.042510    2.820410
  C      0.529760    0.823870    1.965870
  C      1.026080   -0.097160    0.913830
  C      2.011260    0.154370    0.033520
  C      0.837570    2.181120    2.075630
  C      1.069870    2.925750    3.249250
  C      1.194940    2.515710    4.587400
  C      1.464620    3.447350    5.552050
  C      1.596090    4.814950    5.229410
  C      1.552520    5.244690    3.934290
  C      1.343420    4.300740    2.905920
  C      1.293270    4.426760    1.518370
  C      0.932500    3.137810    0.950330
  C      0.567890    2.906480   -0.319450
  N      1.471180    5.553340    0.753110
  C      2.373040    6.540290    0.960730
  S      3.763570    6.298720    1.978900
  C      4.363190    7.860760    1.498890
  N      5.557950    8.289570    2.061780
  O      5.983200    9.389000    1.739240
  O      6.102750    7.525880    2.849220
  C      3.545500    8.506170    0.606050
  C      2.387790    7.776680    0.295480
  C      1.361080    8.291160   -0.577610
  C      0.073590    7.913840   -0.614290
  C     -0.915960    8.478960   -1.523540
  C     -0.523080    8.897670   -2.795570
  C     -1.429310    9.423370   -3.703530
  C     -0.985700    9.854750   -5.067570
  C     -2.760020    9.502000   -3.333490
  C     -3.194870    9.076520   -2.073740
  C     -2.261710    8.582710   -1.145430
  C     -2.688030    8.238460    0.253140
  C     -4.606070    9.113640   -1.759450
  C     -5.503490    9.969340   -2.301850
  C     -6.876420    9.914710   -1.957680
  C     -7.836540   10.766740   -2.423070
  C     -9.248600   10.753000   -2.085820
  C     -9.906130    9.826370   -1.317120
  C    -11.288680    9.864520   -1.040100
  N    -12.406030    9.838010   -0.777670
  C     -9.318860    8.701020   -0.703130
  N     -8.921680    7.761080   -0.175110
  C     -9.869980   11.902380   -2.733640
  C     -8.887380   12.589430   -3.487480
  C     -7.588990   11.901720   -3.345210
  O     -6.548200   12.218470   -3.882730
  C     -9.165330   13.722740   -4.211890
  C    -10.477560   14.205860   -4.190160
  C    -11.453660   13.513960   -3.433890
  C    -11.172630   12.366680   -2.703150
  S    -13.008360   14.282850   -3.541690
  C    -12.334890   15.506280   -4.586150
  C    -11.014490   15.349080   -4.842540
  Br   -13.437750   16.876110   -5.237070
  H      0.634060   -2.262140    0.569650
  H     -1.120890   -3.297840    2.595990
  H     -2.462550   -2.636050    4.562780
  H     -2.506240   -0.310840    5.327940
  H     -1.135790    1.416100    4.245480
  H      2.490500    1.114920   -0.038570
  H      2.373990   -0.622030   -0.619570
  H      1.096070    1.471390    4.840590
  H      1.569590    3.143220    6.582570
  H      1.752190    5.525280    6.027310
  H      1.657180    6.292620    3.700920
  H      0.570900    3.682780   -1.068330
  H      0.245980    1.934580   -0.646960
  H      1.011050    5.566060   -0.150770
  H      3.775080    9.481280    0.216130
  H      1.686680    9.108830   -1.206730
  H     -0.294790    7.179090    0.087330
  H      0.511890    8.792710   -3.086300
  H      0.037520   10.221920   -5.044740
  H     -1.634200   10.636490   -5.454650
  H     -1.025940    9.010660   -5.756790
  H     -3.484640    9.868730   -4.043810
  H     -3.531360    8.848910    0.563960
  H     -1.878810    8.412990    0.957360
  H     -2.981230    7.188780    0.319550
  H     -4.965510    8.386860   -1.041350
  H     -5.191740   10.738120   -2.991480
  H     -7.164680    9.137010   -1.261840
  H     -8.393100   14.222530   -4.775410
  H    -11.951760   11.878890   -2.142030
  H    -10.440780   16.011480   -5.464580

 Total Charge           Charge          ....    0
 Multiplicity           Mult            ....    1
 Number of Electrons    NEL             ....  456
 Basis Dimension        Dim             .... 1035

ORBITAL ENERGIES
----------------

  NO   OCC          E(Eh)            E(eV)
   0   2.0000    -482.886496    -13140.0096
   1   2.0000     -88.976185     -2421.1651
   2   2.0000     -88.970864     -2421.0203
   3   2.0000     -62.564220     -1702.4590
   4   2.0000     -56.398173     -1534.6723
   5   2.0000     -56.395451     -1534.5982
   6   2.0000     -56.395419     -1534.5974
   7   2.0000     -19.220394      -523.0135
   8   2.0000     -19.219776      -522.9967
   9   2.0000     -19.217428      -522.9328
  10   2.0000     -14.631951      -398.1556
  11   2.0000     -14.473124      -393.8337
  12   2.0000     -14.417007      -392.3067
  13   2.0000     -14.414863      -392.2484
  14   2.0000     -10.367984      -282.1272
  15   2.0000     -10.359962      -281.9089
  16   2.0000     -10.358863      -281.8790
  17   2.0000     -10.342093      -281.4227
  18   2.0000     -10.341524      -281.4072
  19   2.0000     -10.326361      -280.9946
  20   2.0000     -10.325629      -280.9746
  21   2.0000     -10.320024      -280.8221
  22   2.0000     -10.317974      -280.7663
  23   2.0000     -10.314398      -280.6690
  24   2.0000     -10.313919      -280.6560
  25   2.0000     -10.309352      -280.5317
  26   2.0000     -10.308774      -280.5160
  27   2.0000     -10.308662      -280.5130
  28   2.0000     -10.306251      -280.4473
  29   2.0000     -10.302314      -280.3402
  30   2.0000     -10.301749      -280.3248
  31   2.0000     -10.301702      -280.3236
  32   2.0000     -10.299388      -280.2606
  33   2.0000     -10.297651      -280.2133
  34   2.0000     -10.297644      -280.2131
  35   2.0000     -10.296286      -280.1762
  36   2.0000     -10.292566      -280.0750
  37   2.0000     -10.291089      -280.0348
  38   2.0000     -10.288583      -279.9666
  39   2.0000     -10.287537      -279.9381
  40   2.0000     -10.286661      -279.9143
  41   2.0000     -10.284464      -279.8545
  42   2.0000     -10.283117      -279.8178
  43   2.0000     -10.281667      -279.7784
  44   2.0000     -10.281476      -279.7732
  45   2.0000     -10.280564      -279.7484
  46   2.0000     -10.279971      -279.7322
  47   2.0000     -10.278657      -279.6965
  48   2.0000     -10.277321      -279.6601
  49   2.0000     -10.274303      -279.5780
  50   2.0000     -10.274255      -279.5767
  51   2.0000     -10.273629      -279.5597
  52   2.0000     -10.273576      -279.5582
  53   2.0000     -10.271821      -279.5105
  54   2.0000     -10.271492      -279.5015
  55   2.0000     -10.270997      -279.4880
  56   2.0000     -10.269713      -279.4531
  57   2.0000     -10.269496      -279.4472
  58   2.0000     -10.269342      -279.4430
  59   2.0000     -10.268721      -279.4261
  60   2.0000     -10.267680      -279.3978
  61   2.0000     -10.267463      -279.3919
  62   2.0000     -10.267054      -279.3807
  63   2.0000     -10.267033      -279.3802
  64   2.0000     -10.257870      -279.1308
  65   2.0000      -8.793658      -239.2876
  66   2.0000      -8.072263      -219.6574
  67   2.0000      -8.065790      -219.4813
  68   2.0000      -6.629984      -180.4110
  69   2.0000      -6.615381      -180.0137
  70   2.0000      -6.615179      -180.0082
  71   2.0000      -6.041937      -164.4095
  72   2.0000      -6.037684      -164.2937
  73   2.0000      -6.035506      -164.2345
  74   2.0000      -6.033462      -164.1788
  75   2.0000      -6.031032      -164.1127
  76   2.0000      -6.027224      -164.0091
  77   2.0000      -2.745809       -74.7173
  78   2.0000      -2.741784       -74.6077
  79   2.0000      -2.741608       -74.6030
  80   2.0000      -2.730010       -74.2874
  81   2.0000      -2.729990       -74.2868
  82   2.0000      -1.298676       -35.3388
  83   2.0000      -1.131781       -30.7973
  84   2.0000      -1.117374       -30.4053
  85   2.0000      -1.080190       -29.3935
  86   2.0000      -1.023423       -27.8488
  87   2.0000      -1.014077       -27.5944
  88   2.0000      -0.996309       -27.1110
  89   2.0000      -0.994634       -27.0654
  90   2.0000      -0.989789       -26.9335
  91   2.0000      -0.982158       -26.7259
  92   2.0000      -0.971762       -26.4430
  93   2.0000      -0.967926       -26.3386
  94   2.0000      -0.944610       -25.7041
  95   2.0000      -0.925784       -25.1919
  96   2.0000      -0.924238       -25.1498
  97   2.0000      -0.913716       -24.8635
  98   2.0000      -0.909543       -24.7499
  99   2.0000      -0.908993       -24.7350
 100   2.0000      -0.891717       -24.2648
 101   2.0000      -0.886691       -24.1281
 102   2.0000      -0.885757       -24.1027
 103   2.0000      -0.871500       -23.7147
 104   2.0000      -0.861828       -23.4515
 105   2.0000      -0.858874       -23.3712
 106   2.0000      -0.856193       -23.2982
 107   2.0000      -0.842587       -22.9280
 108   2.0000      -0.837625       -22.7929
 109   2.0000      -0.834530       -22.7087
 110   2.0000      -0.829628       -22.5753
 111   2.0000      -0.812218       -22.1016
 112   2.0000      -0.811167       -22.0730
 113   2.0000      -0.805757       -21.9258
 114   2.0000      -0.780394       -21.2356
 115   2.0000      -0.770783       -20.9741
 116   2.0000      -0.758992       -20.6532
 117   2.0000      -0.757919       -20.6240
 118   2.0000      -0.751970       -20.4621
 119   2.0000      -0.747342       -20.3362
 120   2.0000      -0.740231       -20.1427
 121   2.0000      -0.728819       -19.8322
 122   2.0000      -0.713656       -19.4196
 123   2.0000      -0.696827       -18.9616
 124   2.0000      -0.694402       -18.8956
 125   2.0000      -0.691395       -18.8138
 126   2.0000      -0.680569       -18.5192
 127   2.0000      -0.671580       -18.2746
 128   2.0000      -0.665966       -18.1219
 129   2.0000      -0.663763       -18.0619
 130   2.0000      -0.659986       -17.9591
 131   2.0000      -0.656849       -17.8738
 132   2.0000      -0.652378       -17.7521
 133   2.0000      -0.644086       -17.5265
 134   2.0000      -0.640829       -17.4378
 135   2.0000      -0.625063       -17.0088
 136   2.0000      -0.622013       -16.9258
 137   2.0000      -0.616482       -16.7753
 138   2.0000      -0.613209       -16.6863
 139   2.0000      -0.612597       -16.6696
 140   2.0000      -0.611980       -16.6528
 141   2.0000      -0.603056       -16.4100
 142   2.0000      -0.595646       -16.2084
 143   2.0000      -0.587834       -15.9958
 144   2.0000      -0.584105       -15.8943
 145   2.0000      -0.578829       -15.7507
 146   2.0000      -0.573436       -15.6040
 147   2.0000      -0.567946       -15.4546
 148   2.0000      -0.564770       -15.3682
 149   2.0000      -0.562550       -15.3078
 150   2.0000      -0.555979       -15.1290
 151   2.0000      -0.551170       -14.9981
 152   2.0000      -0.548893       -14.9361
 153   2.0000      -0.548103       -14.9146
 154   2.0000      -0.545671       -14.8485
 155   2.0000      -0.540624       -14.7111
 156   2.0000      -0.536774       -14.6064
 157   2.0000      -0.533357       -14.5134
 158   2.0000      -0.529882       -14.4188
 159   2.0000      -0.525490       -14.2993
 160   2.0000      -0.523687       -14.2502
 161   2.0000      -0.516432       -14.0528
 162   2.0000      -0.512495       -13.9457
 163   2.0000      -0.510465       -13.8905
 164   2.0000      -0.509536       -13.8652
 165   2.0000      -0.507326       -13.8050
 166   2.0000      -0.506203       -13.7745
 167   2.0000      -0.502696       -13.6790
 168   2.0000      -0.501418       -13.6443
 169   2.0000      -0.499864       -13.6020
 170   2.0000      -0.497107       -13.5270
 171   2.0000      -0.494522       -13.4566
 172   2.0000      -0.493693       -13.4341
 173   2.0000      -0.492002       -13.3881
 174   2.0000      -0.489025       -13.3070
 175   2.0000      -0.485956       -13.2235
 176   2.0000      -0.484385       -13.1808
 177   2.0000      -0.480867       -13.0851
 178   2.0000      -0.476464       -12.9653
 179   2.0000      -0.473682       -12.8895
 180   2.0000      -0.472613       -12.8605
 181   2.0000      -0.470549       -12.8043
 182   2.0000      -0.461760       -12.5651
 183   2.0000      -0.458336       -12.4719
 184   2.0000      -0.457178       -12.4404
 185   2.0000      -0.454918       -12.3790
 186   2.0000      -0.454118       -12.3572
 187   2.0000      -0.449762       -12.2386
 188   2.0000      -0.449401       -12.2288
 189   2.0000      -0.444594       -12.0980
 190   2.0000      -0.443957       -12.0807
 191   2.0000      -0.441340       -12.0095
 192   2.0000      -0.439589       -11.9618
 193   2.0000      -0.432756       -11.7759
 194   2.0000      -0.428707       -11.6657
 195   2.0000      -0.425910       -11.5896
 196   2.0000      -0.424809       -11.5597
 197   2.0000      -0.423891       -11.5347
 198   2.0000      -0.420639       -11.4462
 199   2.0000      -0.419623       -11.4185
 200   2.0000      -0.416918       -11.3449
 201   2.0000      -0.413428       -11.2499
 202   2.0000      -0.407914       -11.0999
 203   2.0000      -0.406023       -11.0484
 204   2.0000      -0.404724       -11.0131
 205   2.0000      -0.402615       -10.9557
 206   2.0000      -0.401272       -10.9192
 207   2.0000      -0.391915       -10.6645
 208   2.0000      -0.386602       -10.5200
 209   2.0000      -0.375916       -10.2292
 210   2.0000      -0.369924       -10.0661
 211   2.0000      -0.365815        -9.9543
 212   2.0000      -0.361044        -9.8245
 213   2.0000      -0.354295        -9.6408
 214   2.0000      -0.348997        -9.4967
 215   2.0000      -0.344080        -9.3629
 216   2.0000      -0.339932        -9.2500
 217   2.0000      -0.336320        -9.1517
 218   2.0000      -0.328693        -8.9442
 219   2.0000      -0.324276        -8.8240
 220   2.0000      -0.317327        -8.6349
 221   2.0000      -0.316343        -8.6081
 222   2.0000      -0.303206        -8.2507
 223   2.0000      -0.295445        -8.0395
 224   2.0000      -0.284089        -7.7304
 225   2.0000      -0.278867        -7.5884
 226   2.0000      -0.258047        -7.0218
 227   2.0000      -0.204294        -5.5591
 228   0.0000      -0.092883        -2.5275
 229   0.0000      -0.091528        -2.4906
 230   0.0000      -0.066971        -1.8224
 231   0.0000      -0.060564        -1.6480
 232   0.0000      -0.037980        -1.0335

MULLIKEN ATOMIC CHARGES
-----------------------
   0 C :   -0.084607
   1 C :    0.086160
   2 C :    0.001253
   3 C :    0.029589
   4 C :    0.009572
   5 C :   -0.025992
   6 C :    0.027833
   7 C :    0.011590
   8 C :    0.027659
   9 C :   -0.022563
  10 C :    0.028376
  11 C :    0.025147
  12 C :   -0.030301
  13 C :    0.020056
  14 C :    0.031855
  15 C :   -0.037837
  16 C :    0.029622
  17 C :   -0.029456
  18 C :    0.035111
  19 C :   -0.066732
  20 N :   -0.008193
  21 C :   -0.114672
  22 S :    0.176736
  23 C :   -0.025361
  24 N :    0.280681
  25 O :   -0.267410
  26 O :   -0.277779
  27 C :    0.006286
  28 C :    0.106257
  29 C :   -0.003688
  30 C :   -0.077708
  31 C :    0.087144
  32 C :   -0.074333
  33 C :   -0.022726
  34 C :    0.091427
  35 C :   -0.065910
  36 C :    0.091460
  37 C :   -0.135011
  38 C :    0.091576
  39 C :   -0.009744
  40 C :   -0.001303
  41 C :   -0.042300
  42 C :   -0.062794
  43 C :    0.332706
  44 C :   -0.353120
  45 C :   -0.186158
  46 N :    0.148129
  47 C :   -0.189594
  48 N :    0.144344
  49 C :    0.010024
  50 C :   -0.011901
  51 C :    0.142778
  52 O :   -0.152237
  53 C :   -0.071864
  54 C :    0.118952
  55 C :   -0.089084
  56 C :   -0.020823
  57 S :    0.186751
  58 C :   -0.123372
  59 C :    0.037130
  60 Br:    0.024537
  61 H :   -0.038925
  62 H :   -0.030922
  63 H :   -0.012997
  64 H :   -0.015290
  65 H :   -0.016252
  66 H :    0.042787
  67 H :    0.032694
  68 H :   -0.012490
  69 H :   -0.013604
  70 H :   -0.008574
  71 H :   -0.017945
  72 H :    0.021536
  73 H :    0.050494
  74 H :    0.136768
  75 H :    0.002921
  76 H :   -0.006807
  77 H :   -0.003115
  78 H :   -0.037738
  79 H :    0.015890
  80 H :    0.021769
  81 H :    0.035450
  82 H :   -0.028366
  83 H :    0.026944
  84 H :    0.032844
  85 H :    0.032247
  86 H :    0.014940
  87 H :    0.031760
  88 H :    0.008763
  89 H :   -0.010896
  90 H :   -0.007576
  91 H :   -0.002479
Sum of atomic charges:   -0.0000000

LOEWDIN ATOMIC CHARGES
----------------------
   0 C :   -0.054789
   1 C :   -0.010875
   2 C :   -0.019562
   3 C :   -0.019153
   4 C :   -0.031137
   5 C :   -0.013915
   6 C :   -0.024834
   7 C :   -0.024976
   8 C :   -0.015755
   9 C :    0.042835
  10 C :   -0.026121
  11 C :   -0.020092
  12 C :   -0.007455
  13 C :   -0.030291
  14 C :   -0.009636
  15 C :   -0.037737
  16 C :   -0.038753
  17 C :   -0.038045
  18 C :   -0.012092
  19 C :    0.030397
  20 N :    0.042505
  21 C :   -0.098411
  22 S :    0.476462
  23 C :   -0.223658
  24 N :    0.274079
  25 O :   -0.232835
  26 O :   -0.244615
  27 C :   -0.001215
  28 C :   -0.113452
  29 C :   -0.010806
  30 C :   -0.046397
  31 C :   -0.028292
  32 C :   -0.012789
  33 C :   -0.025407
  34 C :   -0.044262
  35 C :   -0.007308
  36 C :   -0.038800
  37 C :   -0.011746
  38 C :   -0.051040
  39 C :    0.045957
  40 C :   -0.034725
  41 C :    0.073586
  42 C :   -0.098685
  43 C :    0.077183
  44 C :   -0.142161
  45 C :   -0.018138
  46 N :   -0.054785
  47 C :   -0.019826
  48 N :   -0.055072
  49 C :   -0.021187
  50 C :   -0.050480
  51 C :    0.085430
  52 O :   -0.146550
  53 C :    0.021706
  54 C :   -0.032205
  55 C :   -0.143681
  56 C :   -0.009300
  57 S :    0.432823
  58 C :   -0.271102
  59 C :   -0.070566
  60 Br:    0.137513
  61 H :    0.019263
  62 H :    0.027780
  63 H :    0.028576
  64 H :    0.027638
  65 H :    0.031696
  66 H :    0.030340
  67 H :    0.032777
  68 H :    0.034268
  69 H :    0.028970
  70 H :    0.031347
  71 H :    0.020852
  72 H :    0.024627
  73 H :    0.036721
  74 H :    0.087468
  75 H :    0.042984
  76 H :    0.032256
  77 H :    0.021375
  78 H :    0.023362
  79 H :    0.031220
  80 H :    0.033447
  81 H :    0.038811
  82 H :    0.028799
  83 H :    0.034209
  84 H :    0.036311
  85 H :    0.038904
  86 H :    0.034632
  87 H :    0.033212
  88 H :    0.041677
  89 H :    0.040755
  90 H :    0.040961
  91 H :    0.039001

  Mayer bond orders larger than 0.100000
B(  0-C ,  1-C ) :   1.4692 B(  0-C ,  8-C ) :   1.0734 B(  0-C , 61-H ) :   1.0174
B(  1-C ,  2-C ) :   1.1302 B(  1-C ,  6-C ) :   1.1238 B(  2-C ,  3-C ) :   1.5943
B(  2-C , 62-H ) :   0.9985 B(  3-C ,  4-C ) :   1.1652 B(  3-C , 63-H ) :   0.9864
B(  4-C ,  5-C ) :   1.5711 B(  4-C , 64-H ) :   0.9853 B(  5-C ,  6-C ) :   1.1801
B(  5-C , 65-H ) :   0.9928 B(  6-C ,  7-C ) :   1.4176 B(  7-C ,  8-C ) :   1.0220
B(  7-C , 10-C ) :   1.1529 B(  8-C ,  9-C ) :   1.8182 B(  9-C , 66-H ) :   0.9353
B(  9-C , 67-H ) :   0.9410 B( 10-C , 11-C ) :   1.4179 B( 10-C , 18-C ) :   1.0119
B( 11-C , 12-C ) :   1.1891 B( 11-C , 16-C ) :   1.1320 B( 12-C , 13-C ) :   1.5633
B( 12-C , 68-H ) :   0.9932 B( 13-C , 14-C ) :   1.1712 B( 13-C , 69-H ) :   0.9859
B( 14-C , 15-C ) :   1.5895 B( 14-C , 70-H ) :   0.9836 B( 15-C , 16-C ) :   1.1346
B( 15-C , 71-H ) :   0.9929 B( 16-C , 17-C ) :   1.4383 B( 17-C , 18-C ) :   1.0616
B( 17-C , 20-N ) :   1.1156 B( 18-C , 19-C ) :   1.8637 B( 19-C , 72-H ) :   0.9419
B( 19-C , 73-H ) :   0.9206 B( 20-N , 21-C ) :   1.2205 B( 20-N , 74-H ) :   0.8918
B( 21-C , 22-S ) :   1.1391 B( 21-C , 28-C ) :   1.3378 B( 22-S , 23-C ) :   1.0645
B( 23-C , 24-N ) :   0.9941 B( 23-C , 27-C ) :   1.4600 B( 24-N , 25-O ) :   1.5179
B( 24-N , 26-O ) :   1.4981 B( 25-O , 26-O ) :   0.2485 B( 27-C , 28-C ) :   1.2395
B( 27-C , 75-H ) :   1.0058 B( 28-C , 29-C ) :   1.0866 B( 29-C , 30-C ) :   1.7366
B( 29-C , 76-H ) :   0.9680 B( 30-C , 31-C ) :   1.0317 B( 30-C , 77-H ) :   0.9568
B( 31-C , 32-C ) :   1.3465 B( 31-C , 37-C ) :   1.3773 B( 32-C , 33-C ) :   1.3644
B( 32-C , 78-H ) :   0.9960 B( 33-C , 34-C ) :   1.0448 B( 33-C , 35-C ) :   1.3826
B( 34-C , 79-H ) :   0.9592 B( 34-C , 80-H ) :   0.9597 B( 34-C , 81-H ) :   0.9545
B( 35-C , 36-C ) :   1.3364 B( 35-C , 82-H ) :   0.9972 B( 36-C , 37-C ) :   1.3570
B( 36-C , 39-C ) :   1.0215 B( 37-C , 38-C ) :   1.1035 B( 38-C , 83-H ) :   0.9437
B( 38-C , 84-H ) :   0.9423 B( 38-C , 85-H ) :   0.9355 B( 39-C , 40-C ) :   1.6309
B( 39-C , 86-H ) :   0.9720 B( 40-C , 41-C ) :   1.1459 B( 40-C , 87-H ) :   0.9764
B( 41-C , 42-C ) :   1.5477 B( 41-C , 88-H ) :   0.9616 B( 42-C , 43-C ) :   1.0612
B( 42-C , 51-C ) :   0.9455 B( 43-C , 44-C ) :   1.6274 B( 43-C , 49-C ) :   1.0034
B( 44-C , 45-C ) :   1.1413 B( 44-C , 47-C ) :   1.1478 B( 45-C , 46-N ) :   2.9684
B( 47-C , 48-N ) :   2.9623 B( 49-C , 50-C ) :   1.2751 B( 49-C , 56-C ) :   1.4073
B( 50-C , 51-C ) :   0.9453 B( 50-C , 53-C ) :   1.4194 B( 51-C , 52-O ) :   2.1991
B( 53-C , 54-C ) :   1.2473 B( 53-C , 89-H ) :   1.0172 B( 54-C , 55-C ) :   1.3038
B( 54-C , 59-C ) :   1.1619 B( 55-C , 56-C ) :   1.3324 B( 55-C , 57-S ) :   1.0859
B( 56-C , 90-H ) :   0.9801 B( 57-S , 58-C ) :   1.0868 B( 58-C , 59-C ) :   1.6175
B( 58-C , 60-Br) :   1.0192 B( 59-C , 91-H ) :   1.0009

-----------------------------------------------------------------------------
         ABSORPTION SPECTRUM VIA TRANSITION ELECTRIC DIPOLE MOMENTS
-----------------------------------------------------------------------------
State   Energy  Wavelength   fosc         T2         TX        TY        TZ
        (cm-1)    (nm)                  (au**2)     (au)      (au)      (au)
-----------------------------------------------------------------------------
   0    7119.4   1404.6   0.156990165   7.25944  -0.66173  -2.58427   0.37832
   1   10108.4    989.3   0.064437581   2.09862   0.21962   1.39957   0.30262
   2   15247.5    655.8   0.001656160   0.03576   0.17015  -0.01128  -0.08173
   3   18248.7    548.0   0.019749235   0.35628  -0.09745  -0.22398  -0.54463
   4   20739.9    482.2   0.204521100   3.24644  -1.17805  -1.32377   0.32600
   5   23316.9    428.9   0.017053448   0.24078  -0.35389   0.25711  -0.22235
   6   23508.2    425.4   0.011346130   0.15889   0.09810  -0.31829  -0.21900
   7   24055.5    415.7   0.685917808   9.38715  -2.48831   1.67444  -0.62588
   8   24332.4    411.0   0.537740877   7.27551  -2.67724  -0.11919  -0.30605
   9   25128.2    398.0   0.114476173   1.49979  -0.83174  -0.27935   0.85438
  10   25738.5    388.5   0.181518223   2.32174   1.51272  -0.17368  -0.05700
  11   27626.4    362.0   0.234913953   2.79936   0.65439  -1.35010   0.74051
  12   28952.3    345.4   0.001763437   0.02005  -0.07089   0.11427  -0.04437
  13   29231.3    342.1   0.033298649   0.37502  -0.42057   0.40837  -0.17714
  14   29716.3    336.5   0.122482599   1.35693  -0.85873   0.67064  -0.41202
  15   29747.6    336.2   0.030618558   0.33885  -0.52135   0.25885   0.00667
  16   30646.2    326.3   0.003506532   0.03767  -0.08572  -0.16317  -0.06079
  17   30786.8    324.8   0.482798777   5.16271   1.38947  -1.52383   0.95395
  18   30849.2    324.2   0.057720091   0.61597  -0.28335   0.19951   0.70418
  19   31036.4    322.2   0.007817801   0.08293  -0.24473   0.14468   0.04583
  20   32105.8    311.5   0.124863670   1.28035  -0.97543  -0.42743  -0.38234
  21   32224.6    310.3   0.000175896   0.00180   0.00628  -0.03274   0.02618
  22   32457.5    308.1   0.014042937   0.14244   0.33219  -0.02273  -0.17768
  23   32842.5    304.5   0.060133024   0.60277   0.06591   0.11165  -0.76548
  24   33023.0    302.8   0.057642693   0.57465  -0.66617  -0.22235  -0.28536
  25   33091.3    302.2   0.024013276   0.23890   0.32683  -0.07387   0.35584
  26   33424.8    299.2   0.559676344   5.51244  -0.21913   1.97371  -1.25255
  27   33975.2    294.3   0.011106513   0.10762   0.29593  -0.08865  -0.11038
  28   34337.8    291.2   0.043438688   0.41647  -0.51173   0.31060  -0.24109
  29   34842.8    287.0   0.017811544   0.16829   0.37603  -0.05888   0.15305
  30   35531.2    281.4   0.042593965   0.39465   0.06297   0.11554  -0.61428
  31   35939.1    278.2   0.189191695   1.73305  -0.93881   0.39773  -0.83276
  32   36780.0    271.9   0.034099040   0.30522   0.46144   0.30141   0.03797
  33   36959.0    270.6   0.043244485   0.38520  -0.61206   0.05112   0.08925
  34   37127.2    269.3   0.024841214   0.22027  -0.15203   0.38421  -0.22257
  35   37378.0    267.5   0.004291421   0.03780  -0.12607   0.06648   0.13223
  36   37597.8    266.0   0.069858953   0.61170  -0.48001   0.28583  -0.54734
  37   37787.7    264.6   0.016078631   0.14008   0.12651   0.34110  -0.08789
  38   37946.6    263.5   0.010310440   0.08945  -0.07894   0.27745   0.07900
  39   38230.7    261.6   0.003305291   0.02846   0.12009  -0.05367  -0.10564
  40   38287.4    261.2   0.014338015   0.12328   0.01913   0.03671   0.34867
  41   38734.3    258.2   0.035141622   0.29868  -0.35600  -0.31321   0.27173
  42   38978.6    256.6   0.098110242   0.82864   0.34311   0.26647  -0.79994
  43   39077.5    255.9   0.213959404   1.80252   1.34255  -0.00354   0.00892
  44   39209.7    255.0   0.109081768   0.91587   0.49776  -0.17585  -0.79824
  45   39296.0    254.5   0.005424775   0.04545  -0.18471   0.08772   0.06028
  46   39931.2    250.4   0.044522574   0.36707  -0.10459  -0.57093  -0.17369
  47   40102.6    249.4   0.073038811   0.59959   0.60962  -0.12348  -0.46120

FINAL SINGLE POINT ENERGY     -5773.557816333493

DIPOLE MOMENT
-------------
                                X             Y             Z
Electronic contribution:   -151.39188     139.82721     -59.28272
Nuclear contribution   :    150.91081    -140.29497      57.10414
                        -----------------------------------------
Total Dipole Moment    :     -0.48107      -0.46776      -2.17857
                        -----------------------------------------
Magnitude (a.u.)       :      2.27956
Magnitude (Debye)      :      5.79419

Rotational constants in cm-1:     0.001726     0.000289     0.000261
Rotational constants in MHz :    51.741453     8.664688     7.809611

                             ****ORCA TERMINATED NORMALLY****
TOTAL RUN TIME: 0 days 0 hours 8 minutes 58 seconds 248 msec
