                         Program Version 4.2.0 -  RELEASE  -
|  1> # ORCA input file
|  2> # SCF done       -165.545321392127          0.000391801067
|  3> ! CAM-B3LYP def2-SVP def2/J RIJCOSX Grid4 TightSCF
|  4> %maxcore 5000
|  5> %tddft
|  6>     Mode sTDDFT
|  7>     Ethresh 5.0
|  8>     maxcore 5000
|  9> end
| 10>
| 11> %pal
| 12>   nprocs 6
| 13>   end
| 14> * xyz 0 1
| 15>    C       -1.92659        -0.71341         0.38652
| 16>    C       -2.16575        -1.69053        -0.54051
| 17>    C       -3.44441        -2.19790        -0.85159
| 18>    N       -4.46359        -2.58564        -1.20932
| 19>    C       -1.17658        -2.20540        -1.40725
| 20>    N       -0.40821        -2.64793        -2.13524
| 21>    C       -0.68751         0.05060         0.52602
| 22>    C       -0.94776         1.21293         1.27806
| 23>    C        0.04878         2.13941         1.52357
| 24>    C        1.31572         1.89348         1.02039
| 25>    C        1.59612         0.73947         0.28951
| 26>    C        0.58560        -0.18800         0.04003
| 27>    C        2.98210         0.48144        -0.20798
| 28>    C       -2.34936         1.21148         1.72705
| 29>    O       -2.94068         2.05154         2.36565
| 30>    C       -2.89278        -0.10396         1.27838
| 31>    C       -4.01900        -0.60671         1.85225
| 32>    C       -4.43560        -1.91727         1.76662
| 33>    C       -4.73757        -3.10113         1.73625
| 34>    C       -4.96237        -4.41232         1.62169
| 35>    C       -5.11820        -5.61631         1.49163
| 36>    C       -5.11508        -6.97597         1.25747
| 37>    N       -6.15010        -7.83601         1.52820
| 38>    C       -7.44091        -7.44680         2.04004
| 39>    C       -8.27335        -6.73101         0.98015
| 40>    C       -5.82792        -9.15735         1.17612
| 41>    O       -6.58359       -10.09739         1.32815
| 42>    C       -4.47850        -9.07173         0.65648
| 43>    C       -4.06894        -7.71746         0.72243
| 44>    C       -2.71469        -7.61743         0.22168
| 45>    O       -1.95045        -6.68582         0.11129
| 46>    N       -2.39272        -8.94486        -0.13288
| 47>    C       -1.12173        -9.26610        -0.73652
| 48>    C       -1.23860        -9.45104        -2.24723
| 49>    C       -3.42614        -9.81569         0.12035
| 50>    C       -3.34770       -11.20687        -0.12312
| 51>    C       -4.36222       -12.06556         0.16280
| 52>    C       -4.30688       -13.46253        -0.05164
| 53>    S       -5.59829       -14.47022         0.53066
| 54>    C       -4.80837       -15.94229         0.01014
| 55>    C       -3.61335       -15.62934        -0.63144
| 56>    C       -3.34132       -14.24838        -0.67084
| 57>    S       -1.91099       -13.76099        -1.53327
| 58>    C       -1.47011       -15.38915        -2.11307
| 59>    O       -0.53385       -15.59035        -2.81951
| 60>    S       -2.52755       -16.67243        -1.48745
| 61>    C       -5.48231       -17.16391         0.22651
| 62>    C       -4.94283       -18.41173         0.36186
| 63>    C       -5.68260       -19.65969         0.44706
| 64>    C       -7.00182       -19.84701         0.13518
| 65>    C       -7.87395       -18.84054        -0.33321
| 66>    N       -8.63329       -18.07964        -0.73620
| 67>    C       -7.66416       -21.09117         0.21165
| 68>    N       -8.26039       -22.07070         0.25739
| 69>    C       -4.73919       -20.70311         0.84013
| 70>    C       -3.45589       -20.13699         0.94782
| 71>    C       -3.52303       -18.69879         0.65986
| 72>    O       -2.61602       -17.89087         0.73786
| 73>    C       -2.36086       -20.90373         1.29803
| 74>    C       -2.55440       -22.25419         1.53851
| 75>    C       -3.81870       -22.83407         1.44349
| 76>    C       -4.91882       -22.05223         1.09277
| 77>    C       -4.00173       -24.28775         1.74104
| 78>    H       -0.16790         3.02911         2.09453
| 79>    H        2.10793         2.60575         1.19902
| 80>    H        0.81087        -1.08246        -0.51864
| 81>    H        3.48072         1.41100        -0.47194
| 82>    H        2.96804        -0.17608        -1.07328
| 83>    H        3.56826        -0.00270         0.57402
| 84>    H       -4.58313         0.06209         2.49517
| 85>    H       -7.29883        -6.79934         2.91139
| 86>    H       -7.93810        -8.36911         2.35211
| 87>    H       -7.77460        -5.82172         0.65076
| 88>    H       -9.24353        -6.46728         1.39139
| 89>    H       -8.42424        -7.37920         0.12016
| 90>    H       -0.70625       -10.16137        -0.26540
| 91>    H       -0.46657        -8.41718        -0.52146
| 92>    H       -1.91399       -10.26777        -2.49180
| 93>    H       -0.26052        -9.67086        -2.66539
| 94>    H       -1.61481        -8.53908        -2.70406
| 95>    H       -2.42604       -11.58676        -0.53746
| 96>    H       -5.27709       -11.68629         0.60029
| 97>    H       -6.55465       -17.05867         0.33961
| 98>    H       -1.38435       -20.45068         1.37256
| 99>    H       -1.71195       -22.87468         1.80688
|100>    H       -5.89283       -22.50998         1.02774
|101>    H       -3.13918       -24.86312         1.41312
|102>    H       -4.89510       -24.67495         1.25828
|103>    H       -4.10987       -24.43140         2.81667
|104> *
|105>
|106>                          ****END OF INPUT****

CARTESIAN COORDINATES (ANGSTROEM)
---------------------------------
  C     -1.926590   -0.713410    0.386520
  C     -2.165750   -1.690530   -0.540510
  C     -3.444410   -2.197900   -0.851590
  N     -4.463590   -2.585640   -1.209320
  C     -1.176580   -2.205400   -1.407250
  N     -0.408210   -2.647930   -2.135240
  C     -0.687510    0.050600    0.526020
  C     -0.947760    1.212930    1.278060
  C      0.048780    2.139410    1.523570
  C      1.315720    1.893480    1.020390
  C      1.596120    0.739470    0.289510
  C      0.585600   -0.188000    0.040030
  C      2.982100    0.481440   -0.207980
  C     -2.349360    1.211480    1.727050
  O     -2.940680    2.051540    2.365650
  C     -2.892780   -0.103960    1.278380
  C     -4.019000   -0.606710    1.852250
  C     -4.435600   -1.917270    1.766620
  C     -4.737570   -3.101130    1.736250
  C     -4.962370   -4.412320    1.621690
  C     -5.118200   -5.616310    1.491630
  C     -5.115080   -6.975970    1.257470
  N     -6.150100   -7.836010    1.528200
  C     -7.440910   -7.446800    2.040040
  C     -8.273350   -6.731010    0.980150
  C     -5.827920   -9.157350    1.176120
  O     -6.583590  -10.097390    1.328150
  C     -4.478500   -9.071730    0.656480
  C     -4.068940   -7.717460    0.722430
  C     -2.714690   -7.617430    0.221680
  O     -1.950450   -6.685820    0.111290
  N     -2.392720   -8.944860   -0.132880
  C     -1.121730   -9.266100   -0.736520
  C     -1.238600   -9.451040   -2.247230
  C     -3.426140   -9.815690    0.120350
  C     -3.347700  -11.206870   -0.123120
  C     -4.362220  -12.065560    0.162800
  C     -4.306880  -13.462530   -0.051640
  S     -5.598290  -14.470220    0.530660
  C     -4.808370  -15.942290    0.010140
  C     -3.613350  -15.629340   -0.631440
  C     -3.341320  -14.248380   -0.670840
  S     -1.910990  -13.760990   -1.533270
  C     -1.470110  -15.389150   -2.113070
  O     -0.533850  -15.590350   -2.819510
  S     -2.527550  -16.672430   -1.487450
  C     -5.482310  -17.163910    0.226510
  C     -4.942830  -18.411730    0.361860
  C     -5.682600  -19.659690    0.447060
  C     -7.001820  -19.847010    0.135180
  C     -7.873950  -18.840540   -0.333210
  N     -8.633290  -18.079640   -0.736200
  C     -7.664160  -21.091170    0.211650
  N     -8.260390  -22.070700    0.257390
  C     -4.739190  -20.703110    0.840130
  C     -3.455890  -20.136990    0.947820
  C     -3.523030  -18.698790    0.659860
  O     -2.616020  -17.890870    0.737860
  C     -2.360860  -20.903730    1.298030
  C     -2.554400  -22.254190    1.538510
  C     -3.818700  -22.834070    1.443490
  C     -4.918820  -22.052230    1.092770
  C     -4.001730  -24.287750    1.741040
  H     -0.167900    3.029110    2.094530
  H      2.107930    2.605750    1.199020
  H      0.810870   -1.082460   -0.518640
  H      3.480720    1.411000   -0.471940
  H      2.968040   -0.176080   -1.073280
  H      3.568260   -0.002700    0.574020
  H     -4.583130    0.062090    2.495170
  H     -7.298830   -6.799340    2.911390
  H     -7.938100   -8.369110    2.352110
  H     -7.774600   -5.821720    0.650760
  H     -9.243530   -6.467280    1.391390
  H     -8.424240   -7.379200    0.120160
  H     -0.706250  -10.161370   -0.265400
  H     -0.466570   -8.417180   -0.521460
  H     -1.913990  -10.267770   -2.491800
  H     -0.260520   -9.670860   -2.665390
  H     -1.614810   -8.539080   -2.704060
  H     -2.426040  -11.586760   -0.537460
  H     -5.277090  -11.686290    0.600290
  H     -6.554650  -17.058670    0.339610
  H     -1.384350  -20.450680    1.372560
  H     -1.711950  -22.874680    1.806880
  H     -5.892830  -22.509980    1.027740
  H     -3.139180  -24.863120    1.413120
  H     -4.895100  -24.674950    1.258280
  H     -4.109870  -24.431400    2.816670

 Total Charge           Charge          ....    0
 Multiplicity           Mult            ....    1
 Number of Electrons    NEL             ....  450
 Basis Dimension        Dim             .... 1024

ORBITAL ENERGIES
----------------

  NO   OCC          E(Eh)            E(eV)
   0   2.0000     -88.984707     -2421.3970
   1   2.0000     -88.977902     -2421.2118
   2   2.0000     -88.975883     -2421.1569
   3   2.0000     -19.238423      -523.5041
   4   2.0000     -19.225190      -523.1440
   5   2.0000     -19.219917      -523.0005
   6   2.0000     -19.197715      -522.3964
   7   2.0000     -19.195580      -522.3383
   8   2.0000     -14.460469      -393.4894
   9   2.0000     -14.459463      -393.4620
  10   2.0000     -14.422952      -392.4685
  11   2.0000     -14.421279      -392.4230
  12   2.0000     -14.416799      -392.3010
  13   2.0000     -14.411993      -392.1703
  14   2.0000     -10.416437      -283.4457
  15   2.0000     -10.381683      -282.5000
  16   2.0000     -10.380397      -282.4650
  17   2.0000     -10.372271      -282.2438
  18   2.0000     -10.370195      -282.1874
  19   2.0000     -10.353629      -281.7366
  20   2.0000     -10.353064      -281.7212
  21   2.0000     -10.351655      -281.6829
  22   2.0000     -10.349207      -281.6162
  23   2.0000     -10.347569      -281.5717
  24   2.0000     -10.343076      -281.4494
  25   2.0000     -10.342430      -281.4318
  26   2.0000     -10.341075      -281.3950
  27   2.0000     -10.338939      -281.3368
  28   2.0000     -10.338309      -281.3197
  29   2.0000     -10.332438      -281.1599
  30   2.0000     -10.331123      -281.1242
  31   2.0000     -10.324961      -280.9565
  32   2.0000     -10.323595      -280.9193
  33   2.0000     -10.318438      -280.7790
  34   2.0000     -10.313997      -280.6581
  35   2.0000     -10.313661      -280.6490
  36   2.0000     -10.313476      -280.6439
  37   2.0000     -10.312229      -280.6100
  38   2.0000     -10.311575      -280.5922
  39   2.0000     -10.310344      -280.5587
  40   2.0000     -10.309973      -280.5486
  41   2.0000     -10.309649      -280.5398
  42   2.0000     -10.308166      -280.4994
  43   2.0000     -10.308078      -280.4971
  44   2.0000     -10.307487      -280.4810
  45   2.0000     -10.307028      -280.4685
  46   2.0000     -10.306343      -280.4498
  47   2.0000     -10.304367      -280.3961
  48   2.0000     -10.302491      -280.3450
  49   2.0000     -10.298334      -280.2319
  50   2.0000     -10.296328      -280.1773
  51   2.0000     -10.294709      -280.1333
  52   2.0000     -10.294457      -280.1264
  53   2.0000     -10.293661      -280.1047
  54   2.0000     -10.291374      -280.0425
  55   2.0000     -10.291344      -280.0417
  56   2.0000     -10.291181      -280.0373
  57   2.0000     -10.277960      -279.6775
  58   2.0000     -10.277256      -279.6583
  59   2.0000     -10.275979      -279.6236
  60   2.0000     -10.270943      -279.4866
  61   2.0000     -10.265492      -279.3383
  62   2.0000     -10.260275      -279.1963
  63   2.0000      -8.080243      -219.8746
  64   2.0000      -8.074221      -219.7107
  65   2.0000      -8.071958      -219.6491
  66   2.0000      -6.049581      -164.6175
  67   2.0000      -6.045500      -164.5064
  68   2.0000      -6.043905      -164.4630
  69   2.0000      -6.042044      -164.4124
  70   2.0000      -6.041610      -164.4006
  71   2.0000      -6.039925      -164.3547
  72   2.0000      -6.037385      -164.2856
  73   2.0000      -6.034965      -164.2197
  74   2.0000      -6.032845      -164.1621
  75   2.0000      -1.167613       -31.7724
  76   2.0000      -1.140044       -31.0222
  77   2.0000      -1.139883       -31.0178
  78   2.0000      -1.134154       -30.8619
  79   2.0000      -1.132639       -30.8207
  80   2.0000      -1.071702       -29.1625
  81   2.0000      -1.063088       -28.9281
  82   2.0000      -1.034488       -28.1498
  83   2.0000      -1.024632       -27.8817
  84   2.0000      -1.019163       -27.7328
  85   2.0000      -1.002561       -27.2811
  86   2.0000      -1.000075       -27.2134
  87   2.0000      -0.997607       -27.1463
  88   2.0000      -0.992172       -26.9984
  89   2.0000      -0.961852       -26.1733
  90   2.0000      -0.956613       -26.0308
  91   2.0000      -0.956209       -26.0198
  92   2.0000      -0.940160       -25.5831
  93   2.0000      -0.933614       -25.4049
  94   2.0000      -0.921288       -25.0695
  95   2.0000      -0.910706       -24.7816
  96   2.0000      -0.905933       -24.6517
  97   2.0000      -0.902966       -24.5710
  98   2.0000      -0.896806       -24.4033
  99   2.0000      -0.884530       -24.0693
 100   2.0000      -0.876203       -23.8427
 101   2.0000      -0.868140       -23.6233
 102   2.0000      -0.866480       -23.5781
 103   2.0000      -0.857442       -23.3322
 104   2.0000      -0.845633       -23.0108
 105   2.0000      -0.832991       -22.6668
 106   2.0000      -0.827478       -22.5168
 107   2.0000      -0.823462       -22.4075
 108   2.0000      -0.818892       -22.2832
 109   2.0000      -0.800936       -21.7946
 110   2.0000      -0.791752       -21.5447
 111   2.0000      -0.781852       -21.2753
 112   2.0000      -0.769973       -20.9520
 113   2.0000      -0.763442       -20.7743
 114   2.0000      -0.751595       -20.4519
 115   2.0000      -0.748165       -20.3586
 116   2.0000      -0.725892       -19.7525
 117   2.0000      -0.718323       -19.5466
 118   2.0000      -0.713746       -19.4220
 119   2.0000      -0.712021       -19.3751
 120   2.0000      -0.703514       -19.1436
 121   2.0000      -0.694847       -18.9078
 122   2.0000      -0.688759       -18.7421
 123   2.0000      -0.684415       -18.6239
 124   2.0000      -0.680930       -18.5290
 125   2.0000      -0.670731       -18.2515
 126   2.0000      -0.662979       -18.0406
 127   2.0000      -0.660349       -17.9690
 128   2.0000      -0.657104       -17.8807
 129   2.0000      -0.650206       -17.6930
 130   2.0000      -0.644814       -17.5463
 131   2.0000      -0.637716       -17.3531
 132   2.0000      -0.623180       -16.9576
 133   2.0000      -0.619757       -16.8644
 134   2.0000      -0.614856       -16.7311
 135   2.0000      -0.608282       -16.5522
 136   2.0000      -0.596863       -16.2415
 137   2.0000      -0.594664       -16.1816
 138   2.0000      -0.588209       -16.0060
 139   2.0000      -0.584072       -15.8934
 140   2.0000      -0.575452       -15.6588
 141   2.0000      -0.573192       -15.5973
 142   2.0000      -0.566608       -15.4182
 143   2.0000      -0.557005       -15.1569
 144   2.0000      -0.554769       -15.0960
 145   2.0000      -0.554284       -15.0828
 146   2.0000      -0.553588       -15.0639
 147   2.0000      -0.548007       -14.9120
 148   2.0000      -0.546595       -14.8736
 149   2.0000      -0.541016       -14.7218
 150   2.0000      -0.539833       -14.6896
 151   2.0000      -0.539576       -14.6826
 152   2.0000      -0.534958       -14.5569
 153   2.0000      -0.534665       -14.5490
 154   2.0000      -0.531865       -14.4728
 155   2.0000      -0.529363       -14.4047
 156   2.0000      -0.525535       -14.3005
 157   2.0000      -0.523019       -14.2321
 158   2.0000      -0.518560       -14.1107
 159   2.0000      -0.517412       -14.0795
 160   2.0000      -0.516117       -14.0442
 161   2.0000      -0.515394       -14.0246
 162   2.0000      -0.512352       -13.9418
 163   2.0000      -0.512147       -13.9362
 164   2.0000      -0.510439       -13.8898
 165   2.0000      -0.505590       -13.7578
 166   2.0000      -0.502583       -13.6760
 167   2.0000      -0.501986       -13.6597
 168   2.0000      -0.496954       -13.5228
 169   2.0000      -0.494722       -13.4621
 170   2.0000      -0.491623       -13.3778
 171   2.0000      -0.479789       -13.0557
 172   2.0000      -0.477804       -13.0017
 173   2.0000      -0.476342       -12.9619
 174   2.0000      -0.475485       -12.9386
 175   2.0000      -0.473972       -12.8974
 176   2.0000      -0.468839       -12.7578
 177   2.0000      -0.464400       -12.6370
 178   2.0000      -0.459908       -12.5147
 179   2.0000      -0.456844       -12.4313
 180   2.0000      -0.455555       -12.3963
 181   2.0000      -0.454895       -12.3783
 182   2.0000      -0.454013       -12.3543
 183   2.0000      -0.452129       -12.3031
 184   2.0000      -0.450684       -12.2637
 185   2.0000      -0.450030       -12.2459
 186   2.0000      -0.449596       -12.2341
 187   2.0000      -0.449273       -12.2253
 188   2.0000      -0.447067       -12.1653
 189   2.0000      -0.445249       -12.1158
 190   2.0000      -0.443416       -12.0660
 191   2.0000      -0.442276       -12.0349
 192   2.0000      -0.439733       -11.9657
 193   2.0000      -0.438666       -11.9367
 194   2.0000      -0.438065       -11.9203
 195   2.0000      -0.433744       -11.8028
 196   2.0000      -0.432128       -11.7588
 197   2.0000      -0.428476       -11.6594
 198   2.0000      -0.425752       -11.5853
 199   2.0000      -0.424272       -11.5450
 200   2.0000      -0.422949       -11.5090
 201   2.0000      -0.419636       -11.4189
 202   2.0000      -0.414203       -11.2710
 203   2.0000      -0.408176       -11.1070
 204   2.0000      -0.407995       -11.1021
 205   2.0000      -0.403577       -10.9819
 206   2.0000      -0.398374       -10.8403
 207   2.0000      -0.374582       -10.1929
 208   2.0000      -0.367544       -10.0014
 209   2.0000      -0.359598        -9.7852
 210   2.0000      -0.356748        -9.7076
 211   2.0000      -0.353596        -9.6218
 212   2.0000      -0.346081        -9.4174
 213   2.0000      -0.340582        -9.2677
 214   2.0000      -0.339172        -9.2293
 215   2.0000      -0.337377        -9.1805
 216   2.0000      -0.337008        -9.1705
 217   2.0000      -0.326065        -8.8727
 218   2.0000      -0.322898        -8.7865
 219   2.0000      -0.318847        -8.6763
 220   2.0000      -0.318209        -8.6589
 221   2.0000      -0.308033        -8.3820
 222   2.0000      -0.306540        -8.3414
 223   2.0000      -0.293380        -7.9833
 224   2.0000      -0.245425        -6.6783
 225   0.0000      -0.117490        -3.1971
 226   0.0000      -0.095286        -2.5929
 227   0.0000      -0.076403        -2.0790
 228   0.0000      -0.065581        -1.7846
 229   0.0000      -0.055095        -1.4992

MULLIKEN ATOMIC CHARGES
-----------------------
   0 C :    0.272065
   1 C :   -0.299522
   2 C :   -0.199215
   3 N :    0.179194
   4 C :   -0.176774
   5 N :    0.152970
   6 C :    0.039567
   7 C :   -0.014296
   8 C :   -0.017942
   9 C :    0.004863
  10 C :   -0.035989
  11 C :   -0.064491
  12 C :    0.083807
  13 C :    0.137137
  14 O :   -0.137245
  15 C :   -0.116270
  16 C :   -0.071341
  17 C :    0.034422
  18 C :    0.016796
  19 C :   -0.021217
  20 C :    0.087704
  21 C :    0.022891
  22 N :   -0.246470
  23 C :    0.112632
  24 C :   -0.005752
  25 C :    0.171410
  26 O :   -0.210572
  27 C :   -0.093935
  28 C :    0.006536
  29 C :    0.122074
  30 O :   -0.162018
  31 N :   -0.269327
  32 C :    0.096084
  33 C :    0.003671
  34 C :    0.145272
  35 C :   -0.028211
  36 C :    0.077797
  37 C :   -0.145812
  38 S :    0.201628
  39 C :   -0.170568
  40 C :    0.039394
  41 C :   -0.026758
  42 S :    0.074173
  43 C :    0.081383
  44 O :   -0.149667
  45 S :    0.162078
  46 C :    0.011123
  47 C :   -0.083175
  48 C :    0.299830
  49 C :   -0.335970
  50 C :   -0.201615
  51 N :    0.168883
  52 C :   -0.178732
  53 N :    0.153854
  54 C :    0.043880
  55 C :   -0.023518
  56 C :    0.134029
  57 O :   -0.157128
  58 C :   -0.018577
  59 C :    0.010686
  60 C :   -0.036506
  61 C :   -0.068245
  62 C :    0.084703
  63 H :   -0.003276
  64 H :   -0.013776
  65 H :   -0.006837
  66 H :    0.025485
  67 H :    0.033372
  68 H :    0.044600
  69 H :    0.051370
  70 H :    0.026983
  71 H :    0.043060
  72 H :    0.031724
  73 H :    0.023497
  74 H :    0.026979
  75 H :    0.027639
  76 H :    0.047617
  77 H :    0.013119
  78 H :    0.027915
  79 H :    0.034091
  80 H :   -0.013802
  81 H :    0.011059
  82 H :    0.029414
  83 H :   -0.004939
  84 H :   -0.013337
  85 H :   -0.010324
  86 H :    0.025776
  87 H :    0.031710
  88 H :    0.045206
Sum of atomic charges:   -0.0000000

LOEWDIN ATOMIC CHARGES
----------------------
   0 C :    0.063695
   1 C :   -0.112804
   2 C :   -0.015118
   3 N :   -0.035536
   4 C :   -0.014265
   5 N :   -0.042268
   6 C :   -0.004703
   7 C :   -0.056045
   8 C :    0.019307
   9 C :   -0.009585
  10 C :    0.004997
  11 C :   -0.008384
  12 C :   -0.043113
  13 C :    0.082380
  14 O :   -0.135732
  15 C :   -0.053412
  16 C :    0.035489
  17 C :    0.003709
  18 C :   -0.002710
  19 C :   -0.008676
  20 C :    0.005094
  21 C :    0.039688
  22 N :    0.008245
  23 C :    0.039234
  24 C :   -0.060299
  25 C :    0.078068
  26 O :   -0.203995
  27 C :   -0.124423
  28 C :   -0.082539
  29 C :    0.084647
  30 O :   -0.169028
  31 N :   -0.003711
  32 C :    0.035695
  33 C :   -0.060071
  34 C :    0.088715
  35 C :   -0.044374
  36 C :    0.012707
  37 C :   -0.174179
  38 S :    0.487499
  39 C :   -0.190044
  40 C :   -0.180275
  41 C :   -0.205091
  42 S :    0.363413
  43 C :   -0.204780
  44 O :   -0.144605
  45 S :    0.431332
  46 C :    0.035979
  47 C :   -0.089470
  48 C :    0.075385
  49 C :   -0.129751
  50 C :   -0.024398
  51 N :   -0.042449
  52 C :   -0.017366
  53 N :   -0.046230
  54 C :   -0.011472
  55 C :   -0.050013
  56 C :    0.067820
  57 O :   -0.154808
  58 C :    0.017529
  59 C :   -0.005673
  60 C :    0.002042
  61 C :   -0.005584
  62 C :   -0.042849
  63 H :    0.040340
  64 H :    0.031856
  65 H :    0.037196
  66 H :    0.035372
  67 H :    0.038239
  68 H :    0.044810
  69 H :    0.062652
  70 H :    0.027964
  71 H :    0.036791
  72 H :    0.028505
  73 H :    0.031291
  74 H :    0.030586
  75 H :    0.023537
  76 H :    0.039898
  77 H :    0.019910
  78 H :    0.033020
  79 H :    0.034410
  80 H :    0.015957
  81 H :    0.040597
  82 H :    0.047031
  83 H :    0.040022
  84 H :    0.032357
  85 H :    0.036853
  86 H :    0.035639
  87 H :    0.037440
  88 H :    0.044879

  Mayer bond orders larger than 0.100000
B(  0-C ,  1-C ) :   1.6682 B(  0-C ,  6-C ) :   0.9989 B(  0-C , 15-C ) :   1.0281
B(  1-C ,  2-C ) :   1.1661 B(  1-C ,  4-C ) :   1.1279 B(  2-C ,  3-N ) :   2.9851
B(  4-C ,  5-N ) :   2.9827 B(  6-C ,  7-C ) :   1.3273 B(  6-C , 11-C ) :   1.3735
B(  7-C ,  8-C ) :   1.3773 B(  7-C , 13-C ) :   0.9340 B(  8-C ,  9-C ) :   1.3588
B(  8-C , 63-H ) :   1.0061 B(  9-C , 10-C ) :   1.3801 B(  9-C , 64-H ) :   0.9930
B( 10-C , 11-C ) :   1.3570 B( 10-C , 12-C ) :   1.0530 B( 11-C , 65-H ) :   0.9857
B( 12-C , 66-H ) :   0.9578 B( 12-C , 67-H ) :   0.9589 B( 12-C , 68-H ) :   0.9508
B( 13-C , 14-O ) :   2.2714 B( 13-C , 15-C ) :   0.9306 B( 15-C , 16-C ) :   1.7014
B( 16-C , 17-C ) :   0.9633 B( 16-C , 69-H ) :   0.9508 B( 17-C , 18-C ) :   2.0763
B( 17-C , 20-C ) :   0.1760 B( 18-C , 19-C ) :   0.8985 B( 19-C , 20-C ) :   2.0717
B( 20-C , 21-C ) :   0.8497 B( 21-C , 22-N ) :   1.1885 B( 21-C , 28-C ) :   1.4494
B( 22-N , 23-C ) :   0.9418 B( 22-N , 25-C ) :   1.0620 B( 23-C , 24-C ) :   1.1210
B( 23-C , 70-H ) :   0.9486 B( 23-C , 71-H ) :   0.9329 B( 24-C , 72-H ) :   0.9692
B( 24-C , 73-H ) :   0.9670 B( 24-C , 74-H ) :   0.9653 B( 25-C , 26-O ) :   2.0280
B( 25-C , 27-C ) :   0.9909 B( 26-O , 81-H ) :   0.1146 B( 27-C , 28-C ) :   1.2453
B( 27-C , 34-C ) :   1.3231 B( 28-C , 29-C ) :   0.9334 B( 29-C , 30-O ) :   2.1961
B( 29-C , 31-N ) :   1.0232 B( 31-N , 32-C ) :   0.9396 B( 31-N , 34-C ) :   1.1758
B( 32-C , 33-C ) :   1.1216 B( 32-C , 75-H ) :   0.9486 B( 32-C , 76-H ) :   0.9255
B( 33-C , 77-H ) :   0.9674 B( 33-C , 78-H ) :   0.9678 B( 33-C , 79-H ) :   0.9630
B( 34-C , 35-C ) :   1.1914 B( 35-C , 36-C ) :   1.5892 B( 35-C , 80-H ) :   0.9460
B( 36-C , 37-C ) :   1.1520 B( 36-C , 81-H ) :   0.9339 B( 37-C , 38-S ) :   1.1421
B( 37-C , 41-C ) :   1.5069 B( 38-S , 39-C ) :   1.1135 B( 39-C , 40-C ) :   1.4926
B( 39-C , 46-C ) :   1.1876 B( 40-C , 41-C ) :   1.2889 B( 40-C , 45-S ) :   1.0410
B( 41-C , 42-S ) :   1.0121 B( 42-S , 43-C ) :   0.9619 B( 42-S , 44-O ) :   0.1010
B( 43-C , 44-O ) :   2.1195 B( 43-C , 45-S ) :   0.9997 B( 44-O , 45-S ) :   0.1054
B( 46-C , 47-C ) :   1.6046 B( 46-C , 82-H ) :   0.9289 B( 47-C , 48-C ) :   1.0554
B( 47-C , 56-C ) :   0.9605 B( 48-C , 49-C ) :   1.6563 B( 48-C , 54-C ) :   0.9883
B( 49-C , 50-C ) :   1.1381 B( 49-C , 52-C ) :   1.1402 B( 50-C , 51-N ) :   2.9908
B( 52-C , 53-N ) :   2.9702 B( 54-C , 55-C ) :   1.3294 B( 54-C , 61-C ) :   1.3633
B( 55-C , 56-C ) :   0.9524 B( 55-C , 58-C ) :   1.3768 B( 56-C , 57-O ) :   2.1753
B( 58-C , 59-C ) :   1.3499 B( 58-C , 83-H ) :   1.0078 B( 59-C , 60-C ) :   1.3814
B( 59-C , 84-H ) :   0.9921 B( 60-C , 61-C ) :   1.3588 B( 60-C , 62-C ) :   1.0517
B( 61-C , 85-H ) :   0.9856 B( 62-C , 86-H ) :   0.9581 B( 62-C , 87-H ) :   0.9592
B( 62-C , 88-H ) :   0.9507

-----------------------------------------------------------------------------
         ABSORPTION SPECTRUM VIA TRANSITION ELECTRIC DIPOLE MOMENTS
-----------------------------------------------------------------------------
State   Energy  Wavelength   fosc         T2         TX        TY        TZ
        (cm-1)    (nm)                  (au**2)     (au)      (au)      (au)
-----------------------------------------------------------------------------
   0   13191.7    758.1   1.098674827  27.41856   0.10084  -5.21054  -0.50864
   1   18912.5    528.8   0.018896785   0.32894   0.28877  -0.43213  -0.24251
   2   23043.9    434.0   0.734138914  10.48814   1.37524   2.90010  -0.43159
   3   23633.5    423.1   0.135245515   1.88396  -0.92795   0.84762   0.55174
   4   25056.0    399.1   0.084712655   1.11305  -0.63620   0.34856   0.76603
   5   25141.0    397.8   0.032918244   0.43105   0.47652   0.17159  -0.41777
   6   25527.4    391.7   0.021491652   0.27717   0.14138   0.48124  -0.15995
   7   26172.5    382.1   0.003420365   0.04302   0.06622   0.12307   0.15327
   8   26653.6    375.2   0.205881498   2.54295  -0.87273  -1.06070   0.81006
   9   27331.6    365.9   0.028927839   0.34844   0.13524  -0.57431  -0.01776
  10   27427.7    364.6   0.030743404   0.36901   0.59312  -0.03208  -0.12724
  11   27830.5    359.3   0.046215899   0.54670  -0.02212  -0.61394   0.41144
  12   28466.1    351.3   0.333912669   3.86171   1.23260   1.52777  -0.09131
  13   29258.4    341.8   0.075229768   0.84648  -0.89701   0.12363  -0.16296
  14   29923.5    334.2   0.030675650   0.33749  -0.41836  -0.38252  -0.12706
  15   30181.1    331.3   0.070244209   0.76622  -0.71421   0.50384   0.04758
  16   30480.6    328.1   0.000111191   0.00120  -0.02254  -0.01370   0.02247
  17   30941.9    323.2   0.007456973   0.07934  -0.08512  -0.19280   0.18688
  18   31883.2    313.6   0.098545141   1.01753  -0.50298  -0.85116   0.20017
  19   32405.5    308.6   0.029589370   0.30060  -0.40603  -0.12294  -0.34732
  20   32569.0    307.0   0.068191223   0.68929  -0.14214   0.48498   0.65869
  21   32921.0    303.8   0.027665020   0.27665  -0.09769   0.51264   0.06564
  22   32965.4    303.3   0.006997045   0.06988  -0.00642  -0.16403   0.20719
  23   33024.5    302.8   0.016042575   0.15992   0.27692  -0.06875   0.28021
  24   33547.8    298.1   0.025590095   0.25112   0.21278  -0.27710  -0.35925
  25   34018.3    294.0   0.068593167   0.66381   0.39704   0.61094  -0.36459
  26   34741.6    287.8   0.105128582   0.99620  -0.42647  -0.89452  -0.11901
  27   35246.8    283.7   0.091809725   0.85752  -0.87826  -0.13910   0.25850
  28   35355.8    282.8   0.019191026   0.17870  -0.04181   0.39440   0.14628
  29   35525.2    281.5   0.026400106   0.24465   0.41508  -0.26895   0.00492
  30   35634.4    280.6   0.019227440   0.17763  -0.18991  -0.37568   0.02081
  31   36167.3    276.5   0.063966326   0.58225  -0.13621  -0.74132   0.11894
  32   36707.4    272.4   0.474268822   4.25350   1.86558  -0.39550   0.78531
  33   37123.5    269.4   0.157720448   1.39867   0.47460   1.08285  -0.02942
  34   37291.2    268.2   0.438124442   3.86782  -1.17989  -1.37593  -0.76322
  35   37707.8    265.2   0.073361744   0.64049  -0.59187   0.52869   0.10332
  36   37828.7    264.3   0.230146338   2.00289  -0.88359  -0.96275  -0.54339
  37   37962.0    263.4   0.100547545   0.87196   0.35346   0.76226   0.40741
  38   38429.1    260.2   0.052326549   0.44827   0.15044  -0.62446   0.18890
  39   39291.2    254.5   0.103945167   0.87093   0.81471  -0.29910  -0.34310
  40   39475.2    253.3   0.021324807   0.17784  -0.15174  -0.38103   0.09814
  41   39543.7    252.9   0.001430703   0.01191  -0.06330  -0.02780  -0.08445
  42   39903.2    250.6   0.031195527   0.25737  -0.38255   0.08424   0.32238
  43   39934.9    250.4   0.079141823   0.65242  -0.72112  -0.36275   0.02866
  44   40213.3    248.7   0.039510747   0.32346   0.34103  -0.25686  -0.37575

FINAL SINGLE POINT ENERGY     -3778.289062425226

DIPOLE MOMENT
-------------
                                X             Y             Z
Electronic contribution:    -15.15052     -15.25594      -4.23611
Nuclear contribution   :     17.70383      14.98863       6.13081
                        -----------------------------------------
Total Dipole Moment    :      2.55331      -0.26731       1.89469
                        -----------------------------------------
Magnitude (a.u.)       :      3.19072
Magnitude (Debye)      :      8.11017

Rotational constants in cm-1:     0.003105     0.000305     0.000286
Rotational constants in MHz :    93.077876     9.131590     8.586316

                             ****ORCA TERMINATED NORMALLY****
TOTAL RUN TIME: 0 days 0 hours 7 minutes 59 seconds 663 msec
