                         Program Version 4.2.0 -  RELEASE  -
|  1> # ORCA input file
|  2> # SCF done       -179.455520249572          0.000699040173
|  3> ! CAM-B3LYP def2-SVP def2/J RIJCOSX Grid4 TightSCF
|  4> %maxcore 5000
|  5> %tddft
|  6>     Mode sTDDFT
|  7>     Ethresh 5.0
|  8>     maxcore 5000
|  9> end
| 10>
| 11> %pal
| 12>   nprocs 6
| 13>   end
| 14> * xyz 0 1
| 15>    C        1.21945         0.18085        -6.27232
| 16>    C        0.28891         0.81233        -7.03910
| 17>    S       -0.23611        -0.19451        -8.33745
| 18>    C        0.81936        -1.49681        -7.84172
| 19>   Cl        0.88239        -2.95670        -8.69726
| 20>    C        1.52530        -1.14074        -6.73088
| 21>    C        2.53373        -1.75818        -5.86341
| 22>    O        2.99915        -2.86926        -5.95205
| 23>    C        2.80373        -0.72815        -4.80603
| 24>    C        2.01718         0.46864        -5.09983
| 25>    C        2.04281         1.67291        -4.45165
| 26>    C        1.22603         2.74672        -4.86839
| 27>    N        0.56667         3.62814        -5.19013
| 28>    C        2.86026         2.00545        -3.35198
| 29>    N        3.50352         2.34733        -2.46485
| 30>    C        3.50565        -0.91921        -3.66240
| 31>    C        4.35092        -2.02740        -3.29315
| 32>    C        4.42741        -2.37459        -1.94276
| 33>    C        5.23187        -3.40827        -1.49571
| 34>    N        5.18699        -3.59832        -0.06441
| 35>    O        4.09396        -3.55835         0.45660
| 36>    O        6.23056        -3.73805         0.53752
| 37>    C        6.00820        -4.17519        -2.39322
| 38>    C        5.93385        -3.78342        -3.74559
| 39>    C        5.15409        -2.74445        -4.19023
| 40>    C        6.80762        -5.34534        -2.13743
| 41>    C        7.18162        -5.92270        -0.97046
| 42>    C        7.96951        -7.10517        -0.94027
| 43>    N        8.35563        -7.71218         0.23056
| 44>    C        7.99047        -7.31467         1.57032
| 45>    C        6.56865        -7.74550         1.92100
| 46>    C        9.13471        -8.85684        -0.00109
| 47>    O        9.59439        -9.54977         0.88482
| 48>    C        9.22929        -8.93929        -1.44319
| 49>    C        8.50554        -7.85051        -1.99007
| 50>    C        8.60908        -7.93079        -3.43130
| 51>    O        8.16697        -7.22683        -4.31893
| 52>    N        9.38027        -9.08061        -3.66250
| 53>    C        9.75084        -9.48030        -4.99887
| 54>    C       11.18614        -9.08121        -5.33203
| 55>    C        9.76067        -9.69104        -2.48967
| 56>    C       10.52823       -10.88110        -2.43179
| 57>    C       10.90999       -11.44556        -1.25843
| 58>    C       11.65819       -12.64980        -1.21164
| 59>    S       12.15329       -13.38428         0.30477
| 60>    C       12.87257       -14.64204        -0.69083
| 61>    N       12.70420       -14.42367        -1.96876
| 62>    N       12.04893       -13.34273        -2.25175
| 63>    C       13.54262       -15.76507        -0.13625
| 64>    C       13.92697       -16.82016        -0.89258
| 65>    C       14.59873       -17.94982        -0.36107
| 66>    C       14.78056       -19.14758        -0.97886
| 67>    C       15.83285       -20.09307        -0.48957
| 68>    O       16.41702       -20.03509         0.56487
| 69>    C       16.01017       -21.03920        -1.59859
| 70>    C       16.82672       -22.08819        -1.89922
| 71>    S       16.42666       -22.74646        -3.46858
| 72>    C       15.15330       -21.60273        -3.69520
| 73>    C       15.05177       -20.76414        -2.63045
| 74>    C       14.19686       -19.67369        -2.19885
| 75>    C       12.97599       -19.37284        -2.74143
| 76>    C       12.52848       -20.00048        -3.92327
| 77>    N       12.16608       -20.49353        -4.89355
| 78>    C       12.00951       -18.54110        -2.13819
| 79>    N       11.16273       -17.93633        -1.65449
| 80>   Cl       18.07607       -22.74286        -0.96164
| 81>    H       -0.12908         1.79356        -6.93177
| 82>    H        3.40530        -0.16708        -2.88813
| 83>    H        3.83425        -1.83642        -1.21669
| 84>    H        6.52215        -4.33857        -4.46061
| 85>    H        5.16932        -2.47723        -5.23300
| 86>    H        7.15249        -5.82491        -3.04588
| 87>    H        6.93493        -5.49628        -0.01245
| 88>    H        8.10565        -6.23309         1.67774
| 89>    H        8.69962        -7.81384         2.23634
| 90>    H        5.84424        -7.28859         1.25058
| 91>    H        6.33666        -7.44504         2.93860
| 92>    H        6.47624        -8.82646         1.84666
| 93>    H        9.05964        -8.96388        -5.67079
| 94>    H        9.61208       -10.55898        -5.10961
| 95>    H       11.30111        -8.00298        -5.25082
| 96>    H       11.42324        -9.38026        -6.34907
| 97>    H       11.89054        -9.55790        -4.65419
| 98>    H       10.81450       -11.36472        -3.35413
| 99>    H       10.64570       -10.99184        -0.31324
|100>    H       13.68841       -15.76948         0.93477
|101>    H       13.72243       -16.78279        -1.95310
|102>    H       15.07783       -17.84049         0.60623
|103>    H       14.57800       -21.62615        -4.59941
|104> *
|105>
|106>                          ****END OF INPUT****

CARTESIAN COORDINATES (ANGSTROEM)
---------------------------------
  C      1.219450    0.180850   -6.272320
  C      0.288910    0.812330   -7.039100
  S     -0.236110   -0.194510   -8.337450
  C      0.819360   -1.496810   -7.841720
  Cl     0.882390   -2.956700   -8.697260
  C      1.525300   -1.140740   -6.730880
  C      2.533730   -1.758180   -5.863410
  O      2.999150   -2.869260   -5.952050
  C      2.803730   -0.728150   -4.806030
  C      2.017180    0.468640   -5.099830
  C      2.042810    1.672910   -4.451650
  C      1.226030    2.746720   -4.868390
  N      0.566670    3.628140   -5.190130
  C      2.860260    2.005450   -3.351980
  N      3.503520    2.347330   -2.464850
  C      3.505650   -0.919210   -3.662400
  C      4.350920   -2.027400   -3.293150
  C      4.427410   -2.374590   -1.942760
  C      5.231870   -3.408270   -1.495710
  N      5.186990   -3.598320   -0.064410
  O      4.093960   -3.558350    0.456600
  O      6.230560   -3.738050    0.537520
  C      6.008200   -4.175190   -2.393220
  C      5.933850   -3.783420   -3.745590
  C      5.154090   -2.744450   -4.190230
  C      6.807620   -5.345340   -2.137430
  C      7.181620   -5.922700   -0.970460
  C      7.969510   -7.105170   -0.940270
  N      8.355630   -7.712180    0.230560
  C      7.990470   -7.314670    1.570320
  C      6.568650   -7.745500    1.921000
  C      9.134710   -8.856840   -0.001090
  O      9.594390   -9.549770    0.884820
  C      9.229290   -8.939290   -1.443190
  C      8.505540   -7.850510   -1.990070
  C      8.609080   -7.930790   -3.431300
  O      8.166970   -7.226830   -4.318930
  N      9.380270   -9.080610   -3.662500
  C      9.750840   -9.480300   -4.998870
  C     11.186140   -9.081210   -5.332030
  C      9.760670   -9.691040   -2.489670
  C     10.528230  -10.881100   -2.431790
  C     10.909990  -11.445560   -1.258430
  C     11.658190  -12.649800   -1.211640
  S     12.153290  -13.384280    0.304770
  C     12.872570  -14.642040   -0.690830
  N     12.704200  -14.423670   -1.968760
  N     12.048930  -13.342730   -2.251750
  C     13.542620  -15.765070   -0.136250
  C     13.926970  -16.820160   -0.892580
  C     14.598730  -17.949820   -0.361070
  C     14.780560  -19.147580   -0.978860
  C     15.832850  -20.093070   -0.489570
  O     16.417020  -20.035090    0.564870
  C     16.010170  -21.039200   -1.598590
  C     16.826720  -22.088190   -1.899220
  S     16.426660  -22.746460   -3.468580
  C     15.153300  -21.602730   -3.695200
  C     15.051770  -20.764140   -2.630450
  C     14.196860  -19.673690   -2.198850
  C     12.975990  -19.372840   -2.741430
  C     12.528480  -20.000480   -3.923270
  N     12.166080  -20.493530   -4.893550
  C     12.009510  -18.541100   -2.138190
  N     11.162730  -17.936330   -1.654490
  Cl    18.076070  -22.742860   -0.961640
  H     -0.129080    1.793560   -6.931770
  H      3.405300   -0.167080   -2.888130
  H      3.834250   -1.836420   -1.216690
  H      6.522150   -4.338570   -4.460610
  H      5.169320   -2.477230   -5.233000
  H      7.152490   -5.824910   -3.045880
  H      6.934930   -5.496280   -0.012450
  H      8.105650   -6.233090    1.677740
  H      8.699620   -7.813840    2.236340
  H      5.844240   -7.288590    1.250580
  H      6.336660   -7.445040    2.938600
  H      6.476240   -8.826460    1.846660
  H      9.059640   -8.963880   -5.670790
  H      9.612080  -10.558980   -5.109610
  H     11.301110   -8.002980   -5.250820
  H     11.423240   -9.380260   -6.349070
  H     11.890540   -9.557900   -4.654190
  H     10.814500  -11.364720   -3.354130
  H     10.645700  -10.991840   -0.313240
  H     13.688410  -15.769480    0.934770
  H     13.722430  -16.782790   -1.953100
  H     15.077830  -17.840490    0.606230
  H     14.578000  -21.626150   -4.599410

 Total Charge           Charge          ....    0
 Multiplicity           Mult            ....    1
 Number of Electrons    NEL             ....  492
 Basis Dimension        Dim             .... 1059

ORBITAL ENERGIES
----------------

  NO   OCC          E(Eh)            E(eV)
   0   2.0000    -101.623516     -2765.3165
   1   2.0000    -101.617632     -2765.1563
   2   2.0000     -89.000577     -2421.8288
   3   2.0000     -88.993644     -2421.6402
   4   2.0000     -88.981206     -2421.3017
   5   2.0000     -19.259503      -524.0777
   6   2.0000     -19.258862      -524.0603
   7   2.0000     -19.230387      -523.2854
   8   2.0000     -19.220510      -523.0167
   9   2.0000     -19.198036      -522.4051
  10   2.0000     -19.197332      -522.3860
  11   2.0000     -14.662659      -398.9912
  12   2.0000     -14.458706      -393.4414
  13   2.0000     -14.458204      -393.4277
  14   2.0000     -14.447736      -393.1429
  15   2.0000     -14.445705      -393.0876
  16   2.0000     -14.428244      -392.6125
  17   2.0000     -14.426858      -392.5748
  18   2.0000     -14.421644      -392.4329
  19   2.0000     -14.417533      -392.3210
  20   2.0000     -10.388165      -282.6763
  21   2.0000     -10.383261      -282.5429
  22   2.0000     -10.379877      -282.4508
  23   2.0000     -10.379779      -282.4482
  24   2.0000     -10.376925      -282.3705
  25   2.0000     -10.376633      -282.3625
  26   2.0000     -10.356794      -281.8227
  27   2.0000     -10.356205      -281.8067
  28   2.0000     -10.351468      -281.6778
  29   2.0000     -10.349609      -281.6272
  30   2.0000     -10.348793      -281.6050
  31   2.0000     -10.348744      -281.6036
  32   2.0000     -10.345773      -281.5228
  33   2.0000     -10.343958      -281.4734
  34   2.0000     -10.343394      -281.4581
  35   2.0000     -10.336587      -281.2728
  36   2.0000     -10.332356      -281.1577
  37   2.0000     -10.330124      -281.0970
  38   2.0000     -10.329438      -281.0783
  39   2.0000     -10.328633      -281.0564
  40   2.0000     -10.325780      -280.9788
  41   2.0000     -10.323199      -280.9085
  42   2.0000     -10.321025      -280.8494
  43   2.0000     -10.319803      -280.8161
  44   2.0000     -10.319424      -280.8058
  45   2.0000     -10.318424      -280.7786
  46   2.0000     -10.315261      -280.6925
  47   2.0000     -10.314278      -280.6658
  48   2.0000     -10.313904      -280.6556
  49   2.0000     -10.313760      -280.6517
  50   2.0000     -10.310967      -280.5757
  51   2.0000     -10.308947      -280.5207
  52   2.0000     -10.307212      -280.4735
  53   2.0000     -10.307030      -280.4686
  54   2.0000     -10.302970      -280.3581
  55   2.0000     -10.302660      -280.3496
  56   2.0000     -10.301006      -280.3046
  57   2.0000     -10.300608      -280.2938
  58   2.0000     -10.299987      -280.2769
  59   2.0000     -10.297909      -280.2204
  60   2.0000     -10.297763      -280.2164
  61   2.0000     -10.294640      -280.1314
  62   2.0000     -10.268034      -279.4074
  63   2.0000     -10.267361      -279.3891
  64   2.0000     -10.265585      -279.3408
  65   2.0000     -10.263265      -279.2776
  66   2.0000      -9.578284      -260.6384
  67   2.0000      -9.572437      -260.4793
  68   2.0000      -8.096376      -220.3136
  69   2.0000      -8.089278      -220.1204
  70   2.0000      -8.077511      -219.8003
  71   2.0000      -7.348942      -199.9749
  72   2.0000      -7.343080      -199.8154
  73   2.0000      -7.338316      -199.6857
  74   2.0000      -7.337756      -199.6705
  75   2.0000      -7.332461      -199.5264
  76   2.0000      -7.331933      -199.5120
  77   2.0000      -6.065735      -165.0571
  78   2.0000      -6.061113      -164.9313
  79   2.0000      -6.058658      -164.8645
  80   2.0000      -6.058643      -164.8641
  81   2.0000      -6.054073      -164.7397
  82   2.0000      -6.051544      -164.6709
  83   2.0000      -6.046055      -164.5215
  84   2.0000      -6.042760      -164.4318
  85   2.0000      -6.040032      -164.3576
  86   2.0000      -1.339687       -36.4547
  87   2.0000      -1.158032       -31.5117
  88   2.0000      -1.151026       -31.3210
  89   2.0000      -1.148331       -31.2477
  90   2.0000      -1.139684       -31.0124
  91   2.0000      -1.137346       -30.9488
  92   2.0000      -1.133125       -30.8339
  93   2.0000      -1.069665       -29.1071
  94   2.0000      -1.061187       -28.8764
  95   2.0000      -1.045472       -28.4487
  96   2.0000      -1.038599       -28.2617
  97   2.0000      -1.024928       -27.8897
  98   2.0000      -1.017242       -27.6806
  99   2.0000      -1.006072       -27.3766
 100   2.0000      -1.002878       -27.2897
 101   2.0000      -0.997968       -27.1561
 102   2.0000      -0.994595       -27.0643
 103   2.0000      -0.988753       -26.9053
 104   2.0000      -0.962531       -26.1918
 105   2.0000      -0.960823       -26.1453
 106   2.0000      -0.953550       -25.9474
 107   2.0000      -0.938689       -25.5430
 108   2.0000      -0.935446       -25.4548
 109   2.0000      -0.930802       -25.3284
 110   2.0000      -0.914981       -24.8979
 111   2.0000      -0.913057       -24.8455
 112   2.0000      -0.912378       -24.8271
 113   2.0000      -0.902462       -24.5572
 114   2.0000      -0.894296       -24.3350
 115   2.0000      -0.888121       -24.1670
 116   2.0000      -0.873210       -23.7613
 117   2.0000      -0.860513       -23.4157
 118   2.0000      -0.851364       -23.1668
 119   2.0000      -0.839923       -22.8555
 120   2.0000      -0.832943       -22.6655
 121   2.0000      -0.823115       -22.3981
 122   2.0000      -0.817623       -22.2487
 123   2.0000      -0.804602       -21.8943
 124   2.0000      -0.797296       -21.6955
 125   2.0000      -0.789936       -21.4953
 126   2.0000      -0.771484       -20.9932
 127   2.0000      -0.763184       -20.7673
 128   2.0000      -0.762511       -20.7490
 129   2.0000      -0.757523       -20.6132
 130   2.0000      -0.733650       -19.9636
 131   2.0000      -0.728105       -19.8128
 132   2.0000      -0.725130       -19.7318
 133   2.0000      -0.717999       -19.5377
 134   2.0000      -0.710985       -19.3469
 135   2.0000      -0.704135       -19.1605
 136   2.0000      -0.696596       -18.9553
 137   2.0000      -0.692419       -18.8417
 138   2.0000      -0.685635       -18.6571
 139   2.0000      -0.684343       -18.6219
 140   2.0000      -0.676302       -18.4031
 141   2.0000      -0.671217       -18.2647
 142   2.0000      -0.660342       -17.9688
 143   2.0000      -0.653867       -17.7926
 144   2.0000      -0.646886       -17.6027
 145   2.0000      -0.645204       -17.5569
 146   2.0000      -0.632609       -17.2142
 147   2.0000      -0.628608       -17.1053
 148   2.0000      -0.621645       -16.9158
 149   2.0000      -0.618920       -16.8417
 150   2.0000      -0.617361       -16.7992
 151   2.0000      -0.611810       -16.6482
 152   2.0000      -0.608676       -16.5629
 153   2.0000      -0.607543       -16.5321
 154   2.0000      -0.596612       -16.2346
 155   2.0000      -0.593742       -16.1565
 156   2.0000      -0.591409       -16.0931
 157   2.0000      -0.584322       -15.9002
 158   2.0000      -0.576601       -15.6901
 159   2.0000      -0.572437       -15.5768
 160   2.0000      -0.569720       -15.5029
 161   2.0000      -0.566978       -15.4283
 162   2.0000      -0.565058       -15.3760
 163   2.0000      -0.558166       -15.1885
 164   2.0000      -0.549344       -14.9484
 165   2.0000      -0.548556       -14.9270
 166   2.0000      -0.543797       -14.7975
 167   2.0000      -0.540924       -14.7193
 168   2.0000      -0.538754       -14.6602
 169   2.0000      -0.536549       -14.6002
 170   2.0000      -0.534696       -14.5498
 171   2.0000      -0.534245       -14.5376
 172   2.0000      -0.532833       -14.4991
 173   2.0000      -0.532086       -14.4788
 174   2.0000      -0.529476       -14.4078
 175   2.0000      -0.527112       -14.3435
 176   2.0000      -0.522040       -14.2054
 177   2.0000      -0.520282       -14.1576
 178   2.0000      -0.519931       -14.1480
 179   2.0000      -0.513676       -13.9778
 180   2.0000      -0.512876       -13.9561
 181   2.0000      -0.506833       -13.7916
 182   2.0000      -0.506729       -13.7888
 183   2.0000      -0.504224       -13.7206
 184   2.0000      -0.503927       -13.7125
 185   2.0000      -0.499892       -13.6027
 186   2.0000      -0.497702       -13.5432
 187   2.0000      -0.492785       -13.4094
 188   2.0000      -0.490932       -13.3589
 189   2.0000      -0.487400       -13.2628
 190   2.0000      -0.482097       -13.1185
 191   2.0000      -0.478918       -13.0320
 192   2.0000      -0.474419       -12.9096
 193   2.0000      -0.470733       -12.8093
 194   2.0000      -0.469379       -12.7725
 195   2.0000      -0.467806       -12.7297
 196   2.0000      -0.463164       -12.6033
 197   2.0000      -0.460467       -12.5300
 198   2.0000      -0.459790       -12.5115
 199   2.0000      -0.458480       -12.4759
 200   2.0000      -0.457040       -12.4367
 201   2.0000      -0.454682       -12.3725
 202   2.0000      -0.453665       -12.3448
 203   2.0000      -0.453448       -12.3389
 204   2.0000      -0.451580       -12.2881
 205   2.0000      -0.451112       -12.2754
 206   2.0000      -0.447526       -12.1778
 207   2.0000      -0.446102       -12.1391
 208   2.0000      -0.444296       -12.0899
 209   2.0000      -0.441806       -12.0221
 210   2.0000      -0.439997       -11.9729
 211   2.0000      -0.439709       -11.9651
 212   2.0000      -0.438059       -11.9202
 213   2.0000      -0.432097       -11.7580
 214   2.0000      -0.428839       -11.6693
 215   2.0000      -0.428262       -11.6536
 216   2.0000      -0.427600       -11.6356
 217   2.0000      -0.424214       -11.5435
 218   2.0000      -0.420731       -11.4487
 219   2.0000      -0.413411       -11.2495
 220   2.0000      -0.409546       -11.1443
 221   2.0000      -0.408430       -11.1139
 222   2.0000      -0.403695       -10.9851
 223   2.0000      -0.401313       -10.9203
 224   2.0000      -0.400216       -10.8904
 225   2.0000      -0.399331       -10.8664
 226   2.0000      -0.394652       -10.7390
 227   2.0000      -0.390222       -10.6185
 228   2.0000      -0.388486       -10.5712
 229   2.0000      -0.375325       -10.2131
 230   2.0000      -0.361696        -9.8423
 231   2.0000      -0.357245        -9.7211
 232   2.0000      -0.354584        -9.6487
 233   2.0000      -0.345088        -9.3903
 234   2.0000      -0.343785        -9.3549
 235   2.0000      -0.343488        -9.3468
 236   2.0000      -0.340550        -9.2668
 237   2.0000      -0.338178        -9.2023
 238   2.0000      -0.333398        -9.0722
 239   2.0000      -0.330588        -8.9958
 240   2.0000      -0.323207        -8.7949
 241   2.0000      -0.320432        -8.7194
 242   2.0000      -0.314720        -8.5640
 243   2.0000      -0.307353        -8.3635
 244   2.0000      -0.293553        -7.9880
 245   2.0000      -0.243459        -6.6249
 246   0.0000      -0.114650        -3.1198
 247   0.0000      -0.103229        -2.8090
 248   0.0000      -0.083181        -2.2635
 249   0.0000      -0.061405        -1.6709
 250   0.0000      -0.055633        -1.5139

MULLIKEN ATOMIC CHARGES
-----------------------
   0 C :    0.031091
   1 C :   -0.126367
   2 S :    0.193466
   3 C :   -0.169116
   4 Cl:    0.004241
   5 C :    0.071058
   6 C :    0.146686
   7 O :   -0.124174
   8 C :   -0.081907
   9 C :    0.285852
  10 C :   -0.318357
  11 C :   -0.193621
  12 N :    0.159555
  13 C :   -0.194720
  14 N :    0.165406
  15 C :   -0.040439
  16 C :    0.065883
  17 C :   -0.025047
  18 C :    0.096719
  19 N :    0.244189
  20 O :   -0.219812
  21 O :   -0.230374
  22 C :    0.127607
  23 C :   -0.058460
  24 C :    0.102447
  25 C :   -0.028873
  26 C :    0.012416
  27 C :    0.108722
  28 N :   -0.255890
  29 C :    0.090262
  30 C :    0.007818
  31 C :    0.170355
  32 O :   -0.208213
  33 C :   -0.063873
  34 C :   -0.063871
  35 C :    0.171386
  36 O :   -0.214891
  37 N :   -0.254298
  38 C :    0.093278
  39 C :    0.004019
  40 C :    0.138430
  41 C :   -0.022373
  42 C :    0.076249
  43 C :   -0.107416
  44 S :    0.137661
  45 C :   -0.097593
  46 N :   -0.037483
  47 N :   -0.044708
  48 C :    0.070684
  49 C :    0.025443
  50 C :    0.027182
  51 C :   -0.118004
  52 C :    0.141538
  53 O :   -0.126232
  54 C :    0.082240
  55 C :   -0.170125
  56 S :    0.184247
  57 C :   -0.129174
  58 C :    0.023887
  59 C :    0.263308
  60 C :   -0.304934
  61 C :   -0.189172
  62 N :    0.157740
  63 C :   -0.210151
  64 N :    0.179181
  65 Cl:   -0.000182
  66 H :    0.056156
  67 H :    0.033926
  68 H :    0.006910
  69 H :    0.017585
  70 H :   -0.001678
  71 H :    0.010391
  72 H :   -0.011516
  73 H :    0.040555
  74 H :    0.042245
  75 H :    0.016442
  76 H :    0.028354
  77 H :    0.027245
  78 H :    0.044019
  79 H :    0.031641
  80 H :    0.027391
  81 H :    0.026357
  82 H :    0.020570
  83 H :    0.004949
  84 H :    0.012397
  85 H :    0.007259
  86 H :    0.050829
  87 H :    0.023215
  88 H :    0.054358
Sum of atomic charges:    0.0000000

LOEWDIN ATOMIC CHARGES
----------------------
   0 C :   -0.060380
   1 C :   -0.147621
   2 S :    0.481999
   3 C :   -0.271079
   4 Cl:    0.195631
   5 C :   -0.117977
   6 C :    0.080599
   7 O :   -0.122757
   8 C :   -0.079621
   9 C :    0.073879
  10 C :   -0.130947
  11 C :   -0.015294
  12 N :   -0.046119
  13 C :   -0.026137
  14 N :   -0.040095
  15 C :    0.077091
  16 C :   -0.036438
  17 C :    0.022883
  18 C :   -0.022015
  19 N :    0.285434
  20 O :   -0.186081
  21 O :   -0.192520
  22 C :    0.003465
  23 C :    0.003781
  24 C :    0.038216
  25 C :    0.013923
  26 C :   -0.027746
  27 C :    0.077553
  28 N :    0.004547
  29 C :    0.036459
  30 C :   -0.059440
  31 C :    0.081523
  32 O :   -0.197393
  33 C :   -0.114326
  34 C :   -0.118608
  35 C :    0.081109
  36 O :   -0.202715
  37 N :    0.003127
  38 C :    0.036787
  39 C :   -0.060285
  40 C :    0.072367
  41 C :   -0.008969
  42 C :   -0.010827
  43 C :   -0.146144
  44 S :    0.418523
  45 C :   -0.153620
  46 N :   -0.059590
  47 N :   -0.070876
  48 C :   -0.006343
  49 C :    0.003723
  50 C :    0.064525
  51 C :   -0.078158
  52 C :    0.079684
  53 O :   -0.131552
  54 C :   -0.118316
  55 C :   -0.272225
  56 S :    0.473955
  57 C :   -0.151894
  58 C :   -0.056730
  59 C :    0.066982
  60 C :   -0.127984
  61 C :   -0.015627
  62 N :   -0.046830
  63 C :   -0.025625
  64 N :   -0.038143
  65 Cl:    0.191994
  66 H :    0.038657
  67 H :    0.048747
  68 H :    0.042918
  69 H :    0.045952
  70 H :    0.037789
  71 H :    0.040488
  72 H :    0.022833
  73 H :    0.029187
  74 H :    0.037557
  75 H :    0.022593
  76 H :    0.033278
  77 H :    0.031048
  78 H :    0.037649
  79 H :    0.026624
  80 H :    0.031136
  81 H :    0.032181
  82 H :    0.024271
  83 H :    0.038445
  84 H :    0.037598
  85 H :    0.038460
  86 H :    0.042858
  87 H :    0.047057
  88 H :    0.037961

  Mayer bond orders larger than 0.100000
B(  0-C ,  1-C ) :   1.5415 B(  0-C ,  5-C ) :   1.2177 B(  0-C ,  9-C ) :   1.0048
B(  1-C ,  2-S ) :   1.1658 B(  1-C , 66-H ) :   0.9539 B(  2-S ,  3-C ) :   1.1544
B(  3-C ,  4-Cl) :   1.1322 B(  3-C ,  5-C ) :   1.4746 B(  5-C ,  6-C ) :   0.9530
B(  6-C ,  7-O ) :   2.2458 B(  6-C ,  8-C ) :   0.9190 B(  8-C ,  9-C ) :   1.0472
B(  8-C , 15-C ) :   1.6840 B(  9-C , 10-C ) :   1.6676 B( 10-C , 11-C ) :   1.1449
B( 10-C , 13-C ) :   1.1319 B( 11-C , 12-N ) :   2.9919 B( 13-C , 14-N ) :   2.9832
B( 15-C , 16-C ) :   1.0670 B( 15-C , 67-H ) :   0.9470 B( 16-C , 17-C ) :   1.2894
B( 16-C , 24-C ) :   1.3237 B( 17-C , 18-C ) :   1.4106 B( 17-C , 68-H ) :   0.9946
B( 18-C , 19-N ) :   0.8587 B( 18-C , 22-C ) :   1.3093 B( 19-N , 20-O ) :   1.5607
B( 19-N , 21-O ) :   1.4992 B( 20-O , 21-O ) :   0.2657 B( 22-C , 23-C ) :   1.3064
B( 22-C , 25-C ) :   1.1143 B( 23-C , 24-C ) :   1.4141 B( 23-C , 69-H ) :   0.9954
B( 24-C , 70-H ) :   0.9818 B( 25-C , 26-C ) :   1.5982 B( 25-C , 71-H ) :   0.9477
B( 26-C , 27-C ) :   1.1653 B( 26-C , 72-H ) :   0.9371 B( 27-C , 28-N ) :   1.1667
B( 27-C , 34-C ) :   1.3339 B( 28-N , 29-C ) :   0.9397 B( 28-N , 31-C ) :   1.0638
B( 29-C , 30-C ) :   1.1226 B( 29-C , 73-H ) :   0.9492 B( 29-C , 74-H ) :   0.9270
B( 30-C , 75-H ) :   0.9674 B( 30-C , 76-H ) :   0.9679 B( 30-C , 77-H ) :   0.9633
B( 31-C , 32-O ) :   2.0270 B( 31-C , 33-C ) :   0.9818 B( 32-O , 84-H ) :   0.1127
B( 33-C , 34-C ) :   1.2596 B( 33-C , 40-C ) :   1.3451 B( 34-C , 35-C ) :   0.9854
B( 35-C , 36-O ) :   2.0170 B( 35-C , 37-N ) :   1.0673 B( 36-O , 71-H ) :   0.1139
B( 37-N , 38-C ) :   0.9433 B( 37-N , 40-C ) :   1.1593 B( 38-C , 39-C ) :   1.1215
B( 38-C , 78-H ) :   0.9288 B( 38-C , 79-H ) :   0.9502 B( 39-C , 80-H ) :   0.9638
B( 39-C , 81-H ) :   0.9680 B( 39-C , 82-H ) :   0.9683 B( 40-C , 41-C ) :   1.1343
B( 41-C , 42-C ) :   1.6502 B( 41-C , 83-H ) :   0.9720 B( 42-C , 43-C ) :   1.1148
B( 42-C , 84-H ) :   0.9234 B( 43-C , 44-S ) :   1.1150 B( 43-C , 47-N ) :   1.6378
B( 44-S , 45-C ) :   1.0964 B( 45-C , 46-N ) :   1.6457 B( 45-C , 48-C ) :   1.1029
B( 46-N , 47-N ) :   1.2586 B( 48-C , 49-C ) :   1.7118 B( 48-C , 85-H ) :   0.9592
B( 49-C , 50-C ) :   1.1030 B( 49-C , 86-H ) :   0.9504 B( 50-C , 51-C ) :   1.6500
B( 50-C , 87-H ) :   0.9568 B( 51-C , 52-C ) :   0.9331 B( 51-C , 59-C ) :   1.0396
B( 52-C , 53-O ) :   2.2837 B( 52-C , 54-C ) :   0.9267 B( 54-C , 55-C ) :   1.4847
B( 54-C , 58-C ) :   1.2218 B( 55-C , 56-S ) :   1.1521 B( 55-C , 65-Cl) :   1.1280
B( 56-S , 57-C ) :   1.1568 B( 57-C , 58-C ) :   1.5545 B( 57-C , 88-H ) :   0.9553
B( 58-C , 59-C ) :   1.0118 B( 59-C , 60-C ) :   1.6630 B( 60-C , 61-C ) :   1.1388
B( 60-C , 63-C ) :   1.1461 B( 61-C , 62-N ) :   2.9997 B( 63-C , 64-N ) :   3.0173

-----------------------------------------------------------------------------
         ABSORPTION SPECTRUM VIA TRANSITION ELECTRIC DIPOLE MOMENTS
-----------------------------------------------------------------------------
State   Energy  Wavelength   fosc         T2         TX        TY        TZ
        (cm-1)    (nm)                  (au**2)     (au)      (au)      (au)
-----------------------------------------------------------------------------
   0   13869.4    721.0   1.213263454  28.79879   2.91317  -4.50669  -0.04406
   1   18655.5    536.0   0.055661225   0.98225   0.10754   0.82430   0.53965
   2   22095.5    452.6   0.120620993   1.79719   0.24196  -0.96274   0.90099
   3   24409.3    409.7   0.224643683   3.02980  -0.15145   1.63471   0.57843
   4   25089.6    398.6   0.347963003   4.56578  -0.77350   1.99179  -0.01585
   5   25920.1    385.8   0.233278618   2.96288   0.90549  -1.34146   0.58604
   6   26027.5    384.2   0.015905120   0.20118  -0.21342   0.38626  -0.08021
   7   26084.7    383.4   0.061403963   0.77497  -0.56708   0.55257  -0.38478
   8   27683.0    361.2   0.105482791   1.25442   0.72495  -0.84930  -0.08696
   9   28083.5    356.1   0.019416927   0.22762  -0.34508   0.24276  -0.22272
  10   28522.7    350.6   0.259998362   3.00092   0.85231  -1.37709   0.61491
  11   28771.8    347.6   0.002857216   0.03269  -0.17290   0.00989  -0.05197
  12   28868.2    346.4   0.012567441   0.14332   0.06725  -0.20516  -0.31097
  13   29392.6    340.2   0.192741291   2.15880   0.97651  -0.48509   0.98485
  14   29954.1    333.8   0.284316773   3.12479   1.04852  -0.72890   1.22234
  15   30122.3    332.0   0.031785571   0.34739   0.30242  -0.39305   0.31851
  16   31549.5    317.0   0.000526274   0.00549  -0.06384   0.01002  -0.03627
  17   31729.5    315.2   0.101793558   1.05617   0.52212  -0.85897   0.21384
  18   32374.8    308.9   0.122953836   1.25029   0.81980  -0.70196   0.29234
  19   32582.3    306.9   0.010275992   0.10383   0.24776   0.19856   0.05495
  20   32717.6    305.6   0.012300187   0.12377  -0.05915   0.34238  -0.05516
  21   33120.9    301.9   0.037904947   0.37676   0.56063  -0.22247   0.11385
  22   33232.0    300.9   0.062429869   0.61846   0.11273   0.20054   0.75202
  23   34748.0    287.8   0.138483530   1.31203   0.83277  -0.64095   0.45576
  24   34903.7    286.5   0.029356886   0.27689  -0.13957  -0.33505  -0.38099
  25   35238.0    283.8   0.001143639   0.01068   0.10024  -0.00439   0.02485
  26   35569.2    281.1   0.019349745   0.17909   0.15105   0.15234   0.36478
  27   35833.7    279.1   0.076270075   0.70071   0.65799  -0.45020   0.25511
  28   36312.5    275.4   0.020207379   0.18320  -0.00817  -0.42071  -0.07835
  29   36530.2    273.7   0.115773542   1.04336  -0.73760   0.40110   0.58174
  30   37116.8    269.4   0.293493336   2.60317   0.96022  -1.20258   0.48471
  31   37242.6    268.5   0.550025793   4.86204   1.05558   0.58935   1.84403
  32   37519.8    266.5   0.201952169   1.77200  -0.49209   0.07085  -1.23484
  33   38075.6    262.6   0.042046975   0.36355  -0.14405   0.57922   0.08543
  34   38162.1    262.0   0.269113369   2.32155  -0.04648  -1.29887  -0.79519
  35   38445.3    260.1   0.044016084   0.37692  -0.44256   0.33685   0.25998
  36   38533.6    259.5   0.274848899   2.34817   1.21827  -0.89541  -0.24945
  37   38612.4    259.0   0.033270413   0.28367   0.03399  -0.43136   0.31054
  38   38994.2    256.4   0.010573216   0.08927  -0.16005   0.18629  -0.17013
  39   39289.3    254.5   0.084484739   0.70791   0.23044  -0.51787   0.62179
  40   39474.9    253.3   0.090003048   0.75061  -0.25925   0.39608  -0.72561
  41   39826.0    251.1   0.151356972   1.25116   0.30833   0.73876   0.78122

FINAL SINGLE POINT ENERGY     -4821.572054448228

DIPOLE MOMENT
-------------
                                X             Y             Z
Electronic contribution:      0.12387     -29.51649     -21.16698
Nuclear contribution   :      0.54770      29.09797      19.85503
                        -----------------------------------------
Total Dipole Moment    :      0.67157      -0.41852      -1.31195
                        -----------------------------------------
Magnitude (a.u.)       :      1.53212
Magnitude (Debye)      :      3.89433

Rotational constants in cm-1:     0.002515     0.000186     0.000177
Rotational constants in MHz :    75.409488     5.583781     5.291790

                             ****ORCA TERMINATED NORMALLY****
TOTAL RUN TIME: 0 days 0 hours 7 minutes 28 seconds 655 msec
