                         Program Version 4.2.0 -  RELEASE  -
|  1> # ORCA input file
|  2> # SCF done       -183.003106063577          0.000818255992
|  3> ! CAM-B3LYP def2-SVP def2/J RIJCOSX Grid4 TightSCF
|  4> %maxcore 5000
|  5> %tddft
|  6>     Mode sTDDFT
|  7>     Ethresh 5.0
|  8>     maxcore 5000
|  9> end
| 10>
| 11> %pal
| 12>   nprocs 6
| 13>   end
| 14> * xyz 0 1
| 15>    C        5.25650         2.48421         4.62782
| 16>    C        5.06904         3.01213         5.86821
| 17>    S        6.23057         2.39972         6.98892
| 18>    C        6.99714         1.41589         5.76208
| 19>   Cl        8.31478         0.41879         6.10681
| 20>    C        6.35885         1.57304         4.56796
| 21>    C        6.51734         1.06165         3.20592
| 22>    O        7.44044         0.42048         2.76678
| 23>    C        5.34505         1.63004         2.45038
| 24>    C        4.63775         2.56402         3.31938
| 25>    C        3.55849         3.35163         3.02192
| 26>    C        2.97400         4.18690         3.99903
| 27>    N        2.48614         4.87216         4.77889
| 28>    C        2.90029         3.44189         1.77846
| 29>    N        2.30370         3.56412         0.80594
| 30>    C        5.01727         1.35470         1.15765
| 31>    C        5.55312         0.30808         0.36272
| 32>    O        6.24951        -0.71360         0.91123
| 33>    C        5.45794         0.07526        -1.00177
| 34>    C        4.94418         0.60718        -2.27616
| 35>    O        4.31714         1.59947        -2.52262
| 36>    N        5.36610        -0.33529        -3.21299
| 37>    C        6.09881        -1.40472        -2.70204
| 38>    O        6.55158        -2.31252        -3.34725
| 39>    C        6.15293        -1.12486        -1.26252
| 40>    C        6.63485        -1.58343        -0.04407
| 41>    C        7.41808        -2.71806         0.29325
| 42>    C        7.82936        -2.91621         1.57298
| 43>    C        8.61260        -3.95248         2.13784
| 44>    N        9.25098        -5.01369         1.53537
| 45>    C        9.35522        -5.32192         0.12858
| 46>    C       10.32388        -4.38668        -0.59029
| 47>    C        9.93656        -5.80858         2.47290
| 48>    O       10.57810        -6.79595         2.17153
| 49>    C        9.67117        -5.18370         3.74937
| 50>    C        8.86035        -4.05168         3.50695
| 51>    C        8.56626        -3.42534         4.77877
| 52>    O        7.90507        -2.45757         5.08494
| 53>    N        9.25494        -4.22307         5.71775
| 54>    C        9.16441        -3.95379         7.13225
| 55>    C        8.16177        -4.87445         7.82376
| 56>    C        9.90652        -5.27632         5.12169
| 57>    C       10.66957        -6.23722         5.83194
| 58>    C       11.26945        -7.28398         5.21015
| 59>    C       12.02794        -8.28828         5.86939
| 60>    S       12.65474        -9.61366         4.94909
| 61>    C       13.32463       -10.35425         6.36252
| 62>    C       14.09105       -11.56290         6.20157
| 63>    O       14.57658       -12.23195         7.08839
| 64>    C       13.08167        -9.57878         7.50298
| 65>    C       12.37540        -8.40749         7.20295
| 66>    C       13.53929        -9.88087         8.84118
| 67>    C       13.51275       -11.06044         9.48579
| 68>    C       14.35685       -11.25509        10.71377
| 69>    O       14.84189       -10.38517        11.39279
| 70>    C       14.47969       -12.71064        10.82851
| 71>    C       15.17606       -13.59899        11.59393
| 72>    S       14.81515       -15.23835        11.10936
| 73>    C       13.72104       -14.70843         9.88649
| 74>    C       13.64687       -13.35154         9.85062
| 75>    C       12.92877       -12.34212         9.10432
| 76>    C       11.80492       -12.55494         8.35814
| 77>    C       11.32638       -13.85784         8.10334
| 78>    N       10.93156       -14.91112         7.88055
| 79>    C       10.99641       -11.52962         7.83099
| 80>    N       10.28381       -10.72494         7.42676
| 81>   Cl       16.25762       -13.26944        12.85409
| 82>    H        4.33379         3.71489         6.20623
| 83>    H        4.26533         1.94678         0.65246
| 84>    H        5.15863        -0.24404        -4.19764
| 85>    H        7.65202        -3.36961        -0.53201
| 86>    H        7.52792        -2.17627         2.30605
| 87>    H        8.36343        -5.30065        -0.32831
| 88>    H        9.73641        -6.34657         0.07964
| 89>    H       10.02828        -3.34687        -0.47299
| 90>    H       10.34636        -4.62636        -1.64952
| 91>    H       11.32519        -4.50916        -0.18452
| 92>    H        8.82945        -2.91653         7.22178
| 93>    H       10.15534        -4.04165         7.58671
| 94>    H        7.17389        -4.73689         7.39119
| 95>    H        8.11294        -4.63636         8.88272
| 96>    H        8.44530        -5.91847         7.71069
| 97>    H       10.75730        -6.11856         6.90142
| 98>    H       11.16214        -7.39371         4.13869
| 99>    H       14.20792       -11.85602         5.14139
|100>    H       12.09886        -7.69120         7.95513
|101>    H       13.99285        -9.05398         9.37911
|102>    H       13.22382       -15.43125         9.27061
|103> *
|104>
|105>                          ****END OF INPUT****

CARTESIAN COORDINATES (ANGSTROEM)
---------------------------------
  C      5.256500    2.484210    4.627820
  C      5.069040    3.012130    5.868210
  S      6.230570    2.399720    6.988920
  C      6.997140    1.415890    5.762080
  Cl     8.314780    0.418790    6.106810
  C      6.358850    1.573040    4.567960
  C      6.517340    1.061650    3.205920
  O      7.440440    0.420480    2.766780
  C      5.345050    1.630040    2.450380
  C      4.637750    2.564020    3.319380
  C      3.558490    3.351630    3.021920
  C      2.974000    4.186900    3.999030
  N      2.486140    4.872160    4.778890
  C      2.900290    3.441890    1.778460
  N      2.303700    3.564120    0.805940
  C      5.017270    1.354700    1.157650
  C      5.553120    0.308080    0.362720
  O      6.249510   -0.713600    0.911230
  C      5.457940    0.075260   -1.001770
  C      4.944180    0.607180   -2.276160
  O      4.317140    1.599470   -2.522620
  N      5.366100   -0.335290   -3.212990
  C      6.098810   -1.404720   -2.702040
  O      6.551580   -2.312520   -3.347250
  C      6.152930   -1.124860   -1.262520
  C      6.634850   -1.583430   -0.044070
  C      7.418080   -2.718060    0.293250
  C      7.829360   -2.916210    1.572980
  C      8.612600   -3.952480    2.137840
  N      9.250980   -5.013690    1.535370
  C      9.355220   -5.321920    0.128580
  C     10.323880   -4.386680   -0.590290
  C      9.936560   -5.808580    2.472900
  O     10.578100   -6.795950    2.171530
  C      9.671170   -5.183700    3.749370
  C      8.860350   -4.051680    3.506950
  C      8.566260   -3.425340    4.778770
  O      7.905070   -2.457570    5.084940
  N      9.254940   -4.223070    5.717750
  C      9.164410   -3.953790    7.132250
  C      8.161770   -4.874450    7.823760
  C      9.906520   -5.276320    5.121690
  C     10.669570   -6.237220    5.831940
  C     11.269450   -7.283980    5.210150
  C     12.027940   -8.288280    5.869390
  S     12.654740   -9.613660    4.949090
  C     13.324630  -10.354250    6.362520
  C     14.091050  -11.562900    6.201570
  O     14.576580  -12.231950    7.088390
  C     13.081670   -9.578780    7.502980
  C     12.375400   -8.407490    7.202950
  C     13.539290   -9.880870    8.841180
  C     13.512750  -11.060440    9.485790
  C     14.356850  -11.255090   10.713770
  O     14.841890  -10.385170   11.392790
  C     14.479690  -12.710640   10.828510
  C     15.176060  -13.598990   11.593930
  S     14.815150  -15.238350   11.109360
  C     13.721040  -14.708430    9.886490
  C     13.646870  -13.351540    9.850620
  C     12.928770  -12.342120    9.104320
  C     11.804920  -12.554940    8.358140
  C     11.326380  -13.857840    8.103340
  N     10.931560  -14.911120    7.880550
  C     10.996410  -11.529620    7.830990
  N     10.283810  -10.724940    7.426760
  Cl    16.257620  -13.269440   12.854090
  H      4.333790    3.714890    6.206230
  H      4.265330    1.946780    0.652460
  H      5.158630   -0.244040   -4.197640
  H      7.652020   -3.369610   -0.532010
  H      7.527920   -2.176270    2.306050
  H      8.363430   -5.300650   -0.328310
  H      9.736410   -6.346570    0.079640
  H     10.028280   -3.346870   -0.472990
  H     10.346360   -4.626360   -1.649520
  H     11.325190   -4.509160   -0.184520
  H      8.829450   -2.916530    7.221780
  H     10.155340   -4.041650    7.586710
  H      7.173890   -4.736890    7.391190
  H      8.112940   -4.636360    8.882720
  H      8.445300   -5.918470    7.710690
  H     10.757300   -6.118560    6.901420
  H     11.162140   -7.393710    4.138690
  H     14.207920  -11.856020    5.141390
  H     12.098860   -7.691200    7.955130
  H     13.992850   -9.053980    9.379110
  H     13.223820  -15.431250    9.270610

 Total Charge           Charge          ....    0
 Multiplicity           Mult            ....    1
 Number of Electrons    NEL             ....  498
 Basis Dimension        Dim             .... 1063

ORBITAL ENERGIES
----------------

  NO   OCC          E(Eh)            E(eV)
   0   2.0000    -101.618531     -2765.1808
   1   2.0000    -101.612518     -2765.0172
   2   2.0000     -88.994590     -2421.6659
   3   2.0000     -88.991694     -2421.5871
   4   2.0000     -88.987944     -2421.4851
   5   2.0000     -19.317834      -525.6650
   6   2.0000     -19.229341      -523.2570
   7   2.0000     -19.223912      -523.1092
   8   2.0000     -19.221189      -523.0351
   9   2.0000     -19.219652      -522.9933
  10   2.0000     -19.218676      -522.9667
  11   2.0000     -19.204198      -522.5728
  12   2.0000     -19.199888      -522.4555
  13   2.0000     -14.465724      -393.6324
  14   2.0000     -14.462530      -393.5455
  15   2.0000     -14.462048      -393.5323
  16   2.0000     -14.422064      -392.4443
  17   2.0000     -14.421541      -392.4301
  18   2.0000     -14.421254      -392.4223
  19   2.0000     -14.420550      -392.4031
  20   2.0000     -10.410292      -283.2784
  21   2.0000     -10.409112      -283.2463
  22   2.0000     -10.386999      -282.6446
  23   2.0000     -10.382883      -282.5326
  24   2.0000     -10.379954      -282.4529
  25   2.0000     -10.377975      -282.3991
  26   2.0000     -10.377523      -282.3868
  27   2.0000     -10.377415      -282.3838
  28   2.0000     -10.377171      -282.3772
  29   2.0000     -10.373880      -282.2876
  30   2.0000     -10.373406      -282.2747
  31   2.0000     -10.356727      -281.8209
  32   2.0000     -10.351641      -281.6825
  33   2.0000     -10.350428      -281.6495
  34   2.0000     -10.349728      -281.6304
  35   2.0000     -10.349413      -281.6218
  36   2.0000     -10.345900      -281.5263
  37   2.0000     -10.335823      -281.2520
  38   2.0000     -10.330421      -281.1050
  39   2.0000     -10.329197      -281.0717
  40   2.0000     -10.328139      -281.0429
  41   2.0000     -10.324642      -280.9478
  42   2.0000     -10.324372      -280.9404
  43   2.0000     -10.323773      -280.9241
  44   2.0000     -10.323464      -280.9157
  45   2.0000     -10.322553      -280.8909
  46   2.0000     -10.322436      -280.8878
  47   2.0000     -10.322135      -280.8796
  48   2.0000     -10.320215      -280.8273
  49   2.0000     -10.315906      -280.7101
  50   2.0000     -10.313630      -280.6481
  51   2.0000     -10.313077      -280.6331
  52   2.0000     -10.312510      -280.6177
  53   2.0000     -10.311921      -280.6016
  54   2.0000     -10.311743      -280.5968
  55   2.0000     -10.311677      -280.5950
  56   2.0000     -10.309206      -280.5277
  57   2.0000     -10.309072      -280.5241
  58   2.0000     -10.308169      -280.4995
  59   2.0000     -10.305398      -280.4241
  60   2.0000     -10.302885      -280.3557
  61   2.0000     -10.301878      -280.3283
  62   2.0000     -10.296971      -280.1948
  63   2.0000     -10.277061      -279.6530
  64   2.0000     -10.273204      -279.5481
  65   2.0000     -10.272287      -279.5231
  66   2.0000     -10.266725      -279.3718
  67   2.0000      -9.573296      -260.5026
  68   2.0000      -9.567153      -260.3355
  69   2.0000      -8.090285      -220.1479
  70   2.0000      -8.087424      -220.0700
  71   2.0000      -8.083477      -219.9626
  72   2.0000      -7.343934      -199.8386
  73   2.0000      -7.337811      -199.6720
  74   2.0000      -7.333340      -199.5503
  75   2.0000      -7.332791      -199.5354
  76   2.0000      -7.327178      -199.3827
  77   2.0000      -7.326593      -199.3667
  78   2.0000      -6.059639      -164.8912
  79   2.0000      -6.056810      -164.8142
  80   2.0000      -6.055033      -164.7658
  81   2.0000      -6.052596      -164.6995
  82   2.0000      -6.052388      -164.6938
  83   2.0000      -6.052195      -164.6886
  84   2.0000      -6.049676      -164.6200
  85   2.0000      -6.048387      -164.5850
  86   2.0000      -6.046137      -164.5238
  87   2.0000      -1.242827       -33.8190
  88   2.0000      -1.165206       -31.7069
  89   2.0000      -1.145098       -31.1597
  90   2.0000      -1.145010       -31.1573
  91   2.0000      -1.141907       -31.0729
  92   2.0000      -1.140644       -31.0385
  93   2.0000      -1.137486       -30.9526
  94   2.0000      -1.137099       -30.9420
  95   2.0000      -1.075247       -29.2590
  96   2.0000      -1.064483       -28.9661
  97   2.0000      -1.052212       -28.6321
  98   2.0000      -1.039396       -28.2834
  99   2.0000      -1.036701       -28.2101
 100   2.0000      -1.021895       -27.8072
 101   2.0000      -1.017755       -27.6945
 102   2.0000      -1.014335       -27.6015
 103   2.0000      -0.999817       -27.2064
 104   2.0000      -0.999331       -27.1932
 105   2.0000      -0.989721       -26.9317
 106   2.0000      -0.987840       -26.8805
 107   2.0000      -0.956482       -26.0272
 108   2.0000      -0.956352       -26.0237
 109   2.0000      -0.942231       -25.6394
 110   2.0000      -0.940242       -25.5853
 111   2.0000      -0.935482       -25.4558
 112   2.0000      -0.930137       -25.3103
 113   2.0000      -0.913165       -24.8485
 114   2.0000      -0.911019       -24.7901
 115   2.0000      -0.900606       -24.5067
 116   2.0000      -0.898592       -24.4519
 117   2.0000      -0.883487       -24.0409
 118   2.0000      -0.867373       -23.6024
 119   2.0000      -0.856788       -23.3144
 120   2.0000      -0.849997       -23.1296
 121   2.0000      -0.833717       -22.6866
 122   2.0000      -0.831106       -22.6155
 123   2.0000      -0.829198       -22.5636
 124   2.0000      -0.818355       -22.2686
 125   2.0000      -0.801965       -21.8226
 126   2.0000      -0.786783       -21.4094
 127   2.0000      -0.784226       -21.3399
 128   2.0000      -0.774925       -21.0868
 129   2.0000      -0.769160       -20.9299
 130   2.0000      -0.764419       -20.8009
 131   2.0000      -0.757077       -20.6011
 132   2.0000      -0.754215       -20.5232
 133   2.0000      -0.736795       -20.0492
 134   2.0000      -0.724818       -19.7233
 135   2.0000      -0.720621       -19.6091
 136   2.0000      -0.714711       -19.4483
 137   2.0000      -0.707987       -19.2653
 138   2.0000      -0.700914       -19.0729
 139   2.0000      -0.694125       -18.8881
 140   2.0000      -0.690869       -18.7995
 141   2.0000      -0.680391       -18.5144
 142   2.0000      -0.677267       -18.4294
 143   2.0000      -0.676423       -18.4064
 144   2.0000      -0.672692       -18.3049
 145   2.0000      -0.660409       -17.9706
 146   2.0000      -0.640054       -17.4168
 147   2.0000      -0.630141       -17.1470
 148   2.0000      -0.623383       -16.9631
 149   2.0000      -0.620801       -16.8929
 150   2.0000      -0.617313       -16.7980
 151   2.0000      -0.615345       -16.7444
 152   2.0000      -0.610751       -16.6194
 153   2.0000      -0.607282       -16.5250
 154   2.0000      -0.602826       -16.4037
 155   2.0000      -0.601084       -16.3563
 156   2.0000      -0.598603       -16.2888
 157   2.0000      -0.592603       -16.1255
 158   2.0000      -0.588749       -16.0207
 159   2.0000      -0.585636       -15.9360
 160   2.0000      -0.580427       -15.7942
 161   2.0000      -0.575794       -15.6681
 162   2.0000      -0.573852       -15.6153
 163   2.0000      -0.566608       -15.4182
 164   2.0000      -0.561861       -15.2890
 165   2.0000      -0.554452       -15.0874
 166   2.0000      -0.554066       -15.0769
 167   2.0000      -0.548669       -14.9300
 168   2.0000      -0.546994       -14.8845
 169   2.0000      -0.543432       -14.7875
 170   2.0000      -0.543201       -14.7813
 171   2.0000      -0.540418       -14.7055
 172   2.0000      -0.538534       -14.6543
 173   2.0000      -0.535529       -14.5725
 174   2.0000      -0.534987       -14.5577
 175   2.0000      -0.532268       -14.4838
 176   2.0000      -0.531176       -14.4540
 177   2.0000      -0.528028       -14.3684
 178   2.0000      -0.525047       -14.2872
 179   2.0000      -0.524638       -14.2761
 180   2.0000      -0.522320       -14.2130
 181   2.0000      -0.521090       -14.1796
 182   2.0000      -0.516780       -14.0623
 183   2.0000      -0.516208       -14.0467
 184   2.0000      -0.514404       -13.9976
 185   2.0000      -0.507741       -13.8163
 186   2.0000      -0.506987       -13.7958
 187   2.0000      -0.504913       -13.7394
 188   2.0000      -0.503640       -13.7047
 189   2.0000      -0.497158       -13.5284
 190   2.0000      -0.495061       -13.4713
 191   2.0000      -0.491957       -13.3868
 192   2.0000      -0.488010       -13.2794
 193   2.0000      -0.486978       -13.2514
 194   2.0000      -0.485080       -13.1997
 195   2.0000      -0.481772       -13.1097
 196   2.0000      -0.480033       -13.0624
 197   2.0000      -0.478850       -13.0302
 198   2.0000      -0.475922       -12.9505
 199   2.0000      -0.474934       -12.9236
 200   2.0000      -0.470395       -12.8001
 201   2.0000      -0.463059       -12.6005
 202   2.0000      -0.459886       -12.5141
 203   2.0000      -0.458110       -12.4658
 204   2.0000      -0.456523       -12.4226
 205   2.0000      -0.456070       -12.4103
 206   2.0000      -0.454265       -12.3612
 207   2.0000      -0.452279       -12.3071
 208   2.0000      -0.451903       -12.2969
 209   2.0000      -0.449772       -12.2389
 210   2.0000      -0.448208       -12.1964
 211   2.0000      -0.446726       -12.1560
 212   2.0000      -0.444580       -12.0976
 213   2.0000      -0.442677       -12.0458
 214   2.0000      -0.441086       -12.0026
 215   2.0000      -0.437737       -11.9114
 216   2.0000      -0.435267       -11.8442
 217   2.0000      -0.433578       -11.7983
 218   2.0000      -0.432452       -11.7676
 219   2.0000      -0.430763       -11.7217
 220   2.0000      -0.428504       -11.6602
 221   2.0000      -0.423281       -11.5181
 222   2.0000      -0.420472       -11.4416
 223   2.0000      -0.416913       -11.3448
 224   2.0000      -0.412558       -11.2263
 225   2.0000      -0.404726       -11.0132
 226   2.0000      -0.400098       -10.8872
 227   2.0000      -0.395638       -10.7659
 228   2.0000      -0.390910       -10.6372
 229   2.0000      -0.384746       -10.4695
 230   2.0000      -0.379030       -10.3139
 231   2.0000      -0.372549       -10.1376
 232   2.0000      -0.370858       -10.0916
 233   2.0000      -0.360211        -9.8018
 234   2.0000      -0.358999        -9.7689
 235   2.0000      -0.354365        -9.6428
 236   2.0000      -0.353667        -9.6238
 237   2.0000      -0.344727        -9.3805
 238   2.0000      -0.343012        -9.3338
 239   2.0000      -0.338584        -9.2133
 240   2.0000      -0.335836        -9.1386
 241   2.0000      -0.333303        -9.0696
 242   2.0000      -0.328842        -8.9482
 243   2.0000      -0.326796        -8.8926
 244   2.0000      -0.316968        -8.6251
 245   2.0000      -0.313711        -8.5365
 246   2.0000      -0.308364        -8.3910
 247   2.0000      -0.296329        -8.0635
 248   2.0000      -0.247300        -6.7294
 249   0.0000      -0.116336        -3.1657
 250   0.0000      -0.101113        -2.7514
 251   0.0000      -0.091367        -2.4862
 252   0.0000      -0.057166        -1.5556
 253   0.0000      -0.051953        -1.4137

MULLIKEN ATOMIC CHARGES
-----------------------
   0 C :    0.037490
   1 C :   -0.133579
   2 S :    0.181112
   3 C :   -0.165135
   4 Cl:    0.018204
   5 C :    0.080488
   6 C :    0.149030
   7 O :   -0.120893
   8 C :   -0.083439
   9 C :    0.294913
  10 C :   -0.330739
  11 C :   -0.195436
  12 N :    0.157162
  13 C :   -0.187675
  14 N :    0.172820
  15 C :   -0.042729
  16 C :    0.074347
  17 O :   -0.171874
  18 C :   -0.017848
  19 C :    0.172857
  20 O :   -0.119352
  21 N :   -0.168729
  22 C :    0.168136
  23 O :   -0.137658
  24 C :   -0.040104
  25 C :    0.098005
  26 C :   -0.033948
  27 C :   -0.011424
  28 C :    0.117717
  29 N :   -0.262219
  30 C :    0.099661
  31 C :   -0.000950
  32 C :    0.165766
  33 O :   -0.214737
  34 C :   -0.069373
  35 C :   -0.023198
  36 C :    0.150782
  37 O :   -0.179122
  38 N :   -0.266326
  39 C :    0.100075
  40 C :    0.001066
  41 C :    0.143885
  42 C :   -0.019224
  43 C :    0.094523
  44 C :   -0.063994
  45 S :    0.203463
  46 C :   -0.190703
  47 C :    0.204337
  48 O :   -0.197652
  49 C :    0.082484
  50 C :    0.006861
  51 C :    0.000055
  52 C :   -0.102519
  53 C :    0.130740
  54 O :   -0.123742
  55 C :    0.096109
  56 C :   -0.175480
  57 S :    0.187577
  58 C :   -0.120991
  59 C :    0.024703
  60 C :    0.304554
  61 C :   -0.330046
  62 C :   -0.189392
  63 N :    0.162103
  64 C :   -0.193638
  65 N :    0.171360
  66 Cl:   -0.000218
  67 H :    0.053812
  68 H :    0.037103
  69 H :    0.142841
  70 H :    0.007971
  71 H :    0.036129
  72 H :    0.029000
  73 H :    0.045025
  74 H :    0.023961
  75 H :    0.029472
  76 H :    0.026093
  77 H :    0.036015
  78 H :    0.022667
  79 H :    0.031840
  80 H :    0.026455
  81 H :    0.023049
  82 H :   -0.023353
  83 H :    0.014528
  84 H :   -0.005934
  85 H :   -0.009604
  86 H :    0.031251
  87 H :    0.053378
Sum of atomic charges:   -0.0000000

LOEWDIN ATOMIC CHARGES
----------------------
   0 C :   -0.059814
   1 C :   -0.150745
   2 S :    0.472428
   3 C :   -0.271441
   4 Cl:    0.210430
   5 C :   -0.116255
   6 C :    0.076304
   7 O :   -0.122943
   8 C :   -0.068007
   9 C :    0.070861
  10 C :   -0.130267
  11 C :   -0.014105
  12 N :   -0.049276
  13 C :   -0.027786
  14 N :   -0.032764
  15 C :    0.043195
  16 C :    0.047860
  17 O :    0.050794
  18 C :   -0.061165
  19 C :    0.084869
  20 O :   -0.136636
  21 N :   -0.005641
  22 C :    0.084602
  23 O :   -0.155687
  24 C :   -0.100472
  25 C :    0.086378
  26 C :   -0.038647
  27 C :    0.011065
  28 C :    0.058496
  29 N :    0.000187
  30 C :    0.036077
  31 C :   -0.061804
  32 C :    0.080844
  33 O :   -0.202291
  34 C :   -0.126272
  35 C :   -0.094481
  36 C :    0.083347
  37 O :   -0.183135
  38 N :   -0.004087
  39 C :    0.035440
  40 C :   -0.060405
  41 C :    0.089022
  42 C :   -0.036488
  43 C :    0.020822
  44 C :   -0.146713
  45 S :    0.511222
  46 C :   -0.229663
  47 C :    0.086422
  48 O :   -0.140434
  49 C :   -0.031412
  50 C :   -0.023993
  51 C :    0.057869
  52 C :   -0.054691
  53 C :    0.084877
  54 O :   -0.128214
  55 C :   -0.115080
  56 C :   -0.272688
  57 S :    0.479985
  58 C :   -0.146675
  59 C :   -0.048443
  60 C :    0.081753
  61 C :   -0.132170
  62 C :   -0.016235
  63 N :   -0.047640
  64 C :   -0.020501
  65 N :   -0.051350
  66 Cl:    0.192342
  67 H :    0.037177
  68 H :    0.058744
  69 H :    0.097324
  70 H :    0.042248
  71 H :    0.053658
  72 H :    0.023056
  73 H :    0.038428
  74 H :    0.023142
  75 H :    0.033861
  76 H :    0.031653
  77 H :    0.034841
  78 H :    0.022505
  79 H :    0.033552
  80 H :    0.031972
  81 H :    0.024349
  82 H :    0.030088
  83 H :    0.038884
  84 H :    0.000978
  85 H :    0.033660
  86 H :    0.050215
  87 H :    0.038686

  Mayer bond orders larger than 0.100000
B(  0-C ,  1-C ) :   1.5417 B(  0-C ,  5-C ) :   1.2224 B(  0-C ,  9-C ) :   1.0002
B(  1-C ,  2-S ) :   1.1615 B(  1-C , 67-H ) :   0.9542 B(  2-S ,  3-C ) :   1.1464
B(  3-C ,  4-Cl) :   1.1448 B(  3-C ,  5-C ) :   1.4780 B(  5-C ,  6-C ) :   0.9476
B(  6-C ,  7-O ) :   2.2377 B(  6-C ,  8-C ) :   0.9133 B(  8-C ,  9-C ) :   1.0641
B(  8-C , 15-C ) :   1.6008 B(  9-C , 10-C ) :   1.6549 B( 10-C , 11-C ) :   1.1496
B( 10-C , 13-C ) :   1.1342 B( 11-C , 12-N ) :   2.9895 B( 13-C , 14-N ) :   2.9717
B( 15-C , 16-C ) :   1.1883 B( 15-C , 68-H ) :   0.9341 B( 16-C , 17-O ) :   1.1495
B( 16-C , 18-C ) :   1.3776 B( 17-O , 25-C ) :   1.1941 B( 18-C , 19-C ) :   0.8617
B( 18-C , 24-C ) :   1.3184 B( 19-C , 20-O ) :   2.2790 B( 19-C , 21-N ) :   1.0798
B( 21-N , 22-C ) :   1.0763 B( 21-N , 69-H ) :   0.9132 B( 22-C , 23-O ) :   2.2733
B( 22-C , 24-C ) :   0.8778 B( 24-C , 25-C ) :   1.3319 B( 25-C , 26-C ) :   1.1901
B( 26-C , 27-C ) :   1.5477 B( 26-C , 70-H ) :   0.9606 B( 27-C , 28-C ) :   1.1513
B( 27-C , 71-H ) :   0.9515 B( 28-C , 29-N ) :   1.1612 B( 28-C , 35-C ) :   1.3549
B( 29-N , 30-C ) :   0.9404 B( 29-N , 32-C ) :   1.0699 B( 30-C , 31-C ) :   1.1168
B( 30-C , 72-H ) :   0.9507 B( 30-C , 73-H ) :   0.9241 B( 31-C , 74-H ) :   0.9686
B( 31-C , 75-H ) :   0.9679 B( 31-C , 76-H ) :   0.9619 B( 32-C , 33-O ) :   2.0110
B( 32-C , 34-C ) :   0.9910 B( 33-O , 83-H ) :   0.1193 B( 34-C , 35-C ) :   1.2570
B( 34-C , 41-C ) :   1.3196 B( 35-C , 36-C ) :   0.9655 B( 36-C , 37-O ) :   2.1353
B( 36-C , 38-N ) :   1.0278 B( 38-N , 39-C ) :   0.9444 B( 38-N , 41-C ) :   1.1713
B( 39-C , 40-C ) :   1.1186 B( 39-C , 77-H ) :   0.9270 B( 39-C , 78-H ) :   0.9500
B( 40-C , 79-H ) :   0.9635 B( 40-C , 80-H ) :   0.9679 B( 40-C , 81-H ) :   0.9690
B( 41-C , 42-C ) :   1.1663 B( 42-C , 43-C ) :   1.6287 B( 42-C , 82-H ) :   0.9630
B( 43-C , 44-C ) :   1.1182 B( 43-C , 83-H ) :   0.9328 B( 44-C , 45-S ) :   1.1722
B( 44-C , 50-C ) :   1.4341 B( 45-S , 46-C ) :   1.1263 B( 46-C , 47-C ) :   1.0364
B( 46-C , 49-C ) :   1.4172 B( 47-C , 48-O ) :   2.0863 B( 47-C , 84-H ) :   0.9557
B( 49-C , 50-C ) :   1.3184 B( 49-C , 51-C ) :   1.0008 B( 50-C , 85-H ) :   0.9980
B( 51-C , 52-C ) :   1.8161 B( 51-C , 86-H ) :   0.9425 B( 52-C , 53-C ) :   0.9267
B( 52-C , 60-C ) :   0.9839 B( 53-C , 54-O ) :   2.2891 B( 53-C , 55-C ) :   0.9261
B( 55-C , 56-C ) :   1.4742 B( 55-C , 59-C ) :   1.2240 B( 56-C , 57-S ) :   1.1574
B( 56-C , 66-Cl) :   1.1287 B( 57-S , 58-C ) :   1.1592 B( 58-C , 59-C ) :   1.5504
B( 58-C , 87-H ) :   0.9568 B( 59-C , 60-C ) :   1.0210 B( 60-C , 61-C ) :   1.6924
B( 61-C , 62-C ) :   1.1314 B( 61-C , 64-C ) :   1.1635 B( 62-C , 63-N ) :   3.0086
B( 64-C , 65-N ) :   3.0094

-----------------------------------------------------------------------------
         ABSORPTION SPECTRUM VIA TRANSITION ELECTRIC DIPOLE MOMENTS
-----------------------------------------------------------------------------
State   Energy  Wavelength   fosc         T2         TX        TY        TZ
        (cm-1)    (nm)                  (au**2)     (au)      (au)      (au)
-----------------------------------------------------------------------------
   0   13390.5    746.8   0.757072795  18.61297   2.21441  -3.22484   1.81927
   1   18396.3    543.6   0.223269381   3.99552   0.35576  -0.08605   1.96508
   2   20774.0    481.4   0.156256228   2.47624   0.14366  -0.00411   1.56703
   3   23562.5    424.4   0.279739604   3.90849  -0.82228   1.43316   1.08553
   4   24882.5    401.9   0.048192648   0.63762  -0.32094   0.65196   0.33101
   5   25052.5    399.2   0.030867098   0.40562   0.36875  -0.18496   0.48522
   6   26115.6    382.9   0.019299048   0.24328  -0.29254  -0.21988   0.33069
   7   26376.5    379.1   0.084660941   1.05667  -0.38219   0.75913   0.57821
   8   26782.2    373.4   0.037166280   0.45685  -0.35781   0.37415  -0.43456
   9   27082.1    369.2   0.037479304   0.45560   0.64002   0.14015  -0.16226
  10   27649.3    361.7   0.015988787   0.19037  -0.33922   0.19163  -0.19642
  11   27819.8    359.5   0.020326188   0.24053   0.29509  -0.29413   0.25873
  12   28682.4    348.6   0.327686399   3.76113   0.87047  -1.26496   1.18460
  13   28946.8    345.5   0.100303436   1.14075   0.02439   0.07484   1.06516
  14   29223.6    342.2   0.432760467   4.87516  -0.98728   1.96810   0.16439
  15   29870.3    334.8   0.016807927   0.18525   0.18676   0.33801  -0.19005
  16   30398.2    329.0   0.085556313   0.92657   0.55432  -0.02305   0.78662
  17   30574.8    327.1   0.138484243   1.49112  -0.33124   0.91612  -0.73628
  18   31059.2    322.0   0.003811810   0.04040  -0.11145   0.16290  -0.03800
  19   32403.6    308.6   0.078669164   0.79926  -0.59042   0.67094   0.02252
  20   32572.8    307.0   0.035716498   0.36099  -0.53426  -0.22164   0.16258
  21   33254.3    300.7   0.057443911   0.56868  -0.13921  -0.12610  -0.73035
  22   33346.8    299.9   0.094212376   0.93010   0.32586  -0.28355   0.86227
  23   33545.6    298.1   0.320505574   3.14540   1.07539  -1.31443   0.51109
  24   33776.3    296.1   0.004524536   0.04410  -0.10261  -0.11741  -0.14066
  25   34196.9    292.4   0.030941274   0.29787  -0.01579  -0.21027  -0.50340
  26   34356.2    291.1   0.000412335   0.00395  -0.03384   0.05282   0.00404
  27   34786.9    287.5   0.019477928   0.18433   0.01143   0.28877   0.31751
  28   34868.8    286.8   0.031217887   0.29474  -0.33495   0.31269  -0.29117
  29   35214.1    284.0   0.076457130   0.71479   0.61336  -0.13803   0.56526
  30   35361.0    282.8   0.027392216   0.25502   0.40038  -0.30762   0.00963
  31   35632.6    280.6   0.036890756   0.34084   0.06131  -0.45693  -0.35818
  32   35732.1    279.9   0.090782457   0.83641  -0.75889   0.47777  -0.17953
  33   35992.3    277.8   0.122973177   1.12480   0.50920  -0.92815  -0.06374
  34   36843.4    271.4   0.028675962   0.25623  -0.10661  -0.49319  -0.04031
  35   37324.5    267.9   0.093351852   0.82339   0.61493  -0.46338   0.48012
  36   37418.8    267.2   0.142156968   1.25070  -0.58857  -0.00782  -0.95091
  37   37665.0    265.5   0.705129569   6.16320   1.06461  -0.44354   2.19843
  38   37678.5    265.4   0.005075909   0.04435  -0.06377   0.10271  -0.17244
  39   37999.6    263.2   0.354427201   3.07061  -1.25214   0.68304  -1.01795
  40   38240.4    261.5   0.187496225   1.61416   0.83958  -0.38729   0.87136
  41   38375.5    260.6   0.045912035   0.39387  -0.42506   0.19769  -0.41726
  42   38522.3    259.6   0.194245300   1.66002   0.96497  -0.52284   0.67490
  43   39196.7    255.1   0.110219205   0.92573   0.51714  -0.58352   0.56374
  44   39322.2    254.3   0.088631697   0.74204  -0.16487   0.22060  -0.81621
  45   39668.4    252.1   0.093783409   0.77832  -0.45225   0.75697   0.02786
  46   39795.5    251.3   0.014010858   0.11591  -0.03888   0.15798   0.29906
  47   40073.2    249.5   0.048723519   0.40028   0.16513  -0.57977  -0.19203
  48   40172.2    248.9   0.080613580   0.66063  -0.01900  -0.15085   0.79844

FINAL SINGLE POINT ENERGY     -4899.481115300012

DIPOLE MOMENT
-------------
                                X             Y             Z
Electronic contribution:     10.36455      -6.65530      33.50993
Nuclear contribution   :     -7.93420       5.42155     -32.18265
                        -----------------------------------------
Total Dipole Moment    :      2.43035      -1.23375       1.32728
                        -----------------------------------------
Magnitude (a.u.)       :      3.03157
Magnitude (Debye)      :      7.70564

Rotational constants in cm-1:     0.002050     0.000289     0.000261
Rotational constants in MHz :    61.467034     8.661592     7.830840

                             ****ORCA TERMINATED NORMALLY****
TOTAL RUN TIME: 0 days 0 hours 11 minutes 2 seconds 751 msec
