                         Program Version 4.2.0 -  RELEASE  -
|  1> # ORCA input file
|  2> # SCF done       -207.597440187000          0.000799187213
|  3> ! CAM-B3LYP def2-SVP def2/J RIJCOSX Grid4 TightSCF
|  4> %maxcore 5000
|  5> %tddft
|  6>     Mode sTDDFT
|  7>     Ethresh 5.0
|  8>     maxcore 5000
|  9> end
| 10>
| 11> %pal
| 12>   nprocs 6
| 13>   end
| 14> * xyz 0 1
| 15>    C        2.37281         3.12399        -0.34779
| 16>    C        1.21104         2.68371        -0.90879
| 17>    C        1.02386         2.56093        -2.30185
| 18>    N        0.83335         2.46837        -3.42918
| 19>    C        0.12993         2.18212        -0.14848
| 20>    N       -0.70748         1.64139         0.41899
| 21>    C        3.64600         3.30449        -1.03200
| 22>    C        4.69630         3.17591        -0.07379
| 23>    C        6.01110         3.24071        -0.44108
| 24>    C        6.33733         3.45325        -1.79831
| 25>    C        5.29133         3.60438        -2.75571
| 26>    C        3.93983         3.52466        -2.35081
| 27>    C        5.63332         3.82362        -4.10574
| 28>    C        6.94362         3.88578        -4.49439
| 29>    C        7.97248         3.73408        -3.55215
| 30>    C        7.67612         3.52263        -2.23326
| 31>    C        4.12440         2.99652         1.26940
| 32>    O        4.68959         2.78707         2.31247
| 33>    C        2.64677         3.22976         1.08237
| 34>    C        1.93294         3.69148         2.11391
| 35>    C        0.61027         4.41223         2.13135
| 36>    C       -0.40426         3.62067         2.97076
| 37>    N        0.06929         4.54954         0.78311
| 38>    N        0.08486         5.53959         0.09077
| 39>    C        0.73866         6.81095         0.43335
| 40>    C        0.90482         6.92203         1.90408
| 41>    C        0.85560         5.75634         2.72334
| 42>    N        0.97721         6.13838         3.96209
| 43>    O        1.09870         7.47210         3.93354
| 44>    N        1.04523         7.95428         2.68509
| 45>    C        2.11055         6.72187        -0.26336
| 46>    C       -0.03451         7.99397        -0.07143
| 47>    N       -1.39473         8.04995        -0.16287
| 48>    C       -2.36255         7.01826         0.12662
| 49>    C       -2.71006         6.96620         1.61196
| 50>    C       -1.83402         9.34379        -0.55435
| 51>    O       -3.00095         9.63116        -0.71116
| 52>    C       -0.61534        10.09393        -0.69765
| 53>    C        0.47890         9.22895        -0.40089
| 54>    C        1.68473        10.01870        -0.52221
| 55>    O        2.85942         9.73646        -0.39087
| 56>    N        1.23875        11.31084        -0.86065
| 57>    C        2.20972        12.34288        -1.13626
| 58>    C        2.31312        12.64850        -2.62814
| 59>    C       -0.13431        11.36517        -0.96602
| 60>    C       -1.00360        12.45869        -1.25253
| 61>    C       -0.72774        13.77379        -1.37719
| 62>    C       -1.70467        14.80205        -1.64397
| 63>    C       -1.30152        16.13807        -1.59589
| 64>    C       -2.19051        17.17123        -1.83309
| 65>    N       -1.67131        18.50782        -1.67938
| 66>    O       -0.47804        18.65732        -1.83904
| 67>    O       -2.44294        19.39569        -1.38538
| 68>    C       -3.53836        16.92437        -2.16640
| 69>    C       -3.92497        15.57435        -2.21867
| 70>    C       -3.04973        14.54841        -1.95737
| 71>    C       -4.46411        17.97190        -2.51501
| 72>    C       -5.81103        17.84871        -2.46703
| 73>    C       -6.66997        18.90630        -2.86733
| 74>    C       -8.02985        18.82457        -2.89106
| 75>    C       -8.96183        19.87083        -3.28298
| 76>    C       -8.64845        21.08886        -3.82546
| 77>    C       -9.60418        22.06346        -4.18489
| 78>    N      -10.32832        22.89885        -4.49417
| 79>    C       -7.34909        21.54348        -4.13745
| 80>    N       -6.33278        21.98255        -4.44206
| 81>    C      -10.31220        19.37760        -3.03774
| 82>    C      -10.23034        18.03734        -2.56290
| 83>    C       -8.81928        17.63207        -2.47250
| 84>    O       -8.39906        16.54568        -2.13203
| 85>    C      -11.34444        17.30599        -2.26540
| 86>    C      -12.61824        17.89297        -2.43065
| 87>    C      -12.70979        19.23593        -2.89855
| 88>    C      -11.53847        19.96830        -3.19783
| 89>    C      -13.98620        19.81252        -3.06073
| 90>    C      -15.11810        19.09777        -2.77761
| 91>    C      -15.02661        17.77529        -2.31784
| 92>    C      -13.80336        17.18594        -2.14723
| 93>    H        6.79207         3.13094         0.29646
| 94>    H        3.16444         3.64814        -3.09097
| 95>    H        4.83823         3.93573        -4.82802
| 96>    H        7.19522         4.05155        -5.53107
| 97>    H        9.00067         3.78607        -3.87699
| 98>    H        8.46351         3.40540        -1.50337
| 99>    H        2.40579         3.65900         3.08959
|100>    H       -0.60389         2.66488         2.49518
|101>    H       -1.33582         4.17731         3.04240
|102>    H       -0.00395         3.46935         3.96910
|103>    H        2.71622         5.94350         0.19903
|104>    H        2.63225         7.67265        -0.18089
|105>    H        1.96159         6.47990        -1.31334
|106>    H       -1.97951         6.05642        -0.22210
|107>    H       -3.25951         7.27781        -0.44282
|108>    H       -1.83080         6.74989         2.21571
|109>    H       -3.44950         6.19002         1.78753
|110>    H       -3.11950         7.92053         1.93424
|111>    H        3.16511        11.94636        -0.77891
|112>    H        1.97483        13.23957        -0.55760
|113>    H        2.62445        11.75662        -3.16642
|114>    H        3.05223        13.42758        -2.79267
|115>    H        1.35880        12.97897        -3.03167
|116>    H       -2.03011        12.12555        -1.33419
|117>    H        0.27988        14.14074        -1.25725
|118>    H       -0.28051        16.39266        -1.34881
|119>    H       -4.93954        15.33802        -2.49701
|120>    H       -3.40693        13.53249        -2.01229
|121>    H       -4.04965        18.92144        -2.82803
|122>    H       -6.27862        16.94532        -2.10596
|123>    H       -6.18976        19.82937        -3.16591
|124>    H      -11.25335        16.29041        -1.90949
|125>    H      -11.64362        20.98275        -3.54778
|126>    H      -14.05167        20.83055        -3.41567
|127>    H      -16.09110        19.54751        -2.90683
|128>    H      -15.93028        17.22605        -2.09978
|129>    H      -13.72644        16.16821        -1.79348
|130> *
|131>
|132>                          ****END OF INPUT****

CARTESIAN COORDINATES (ANGSTROEM)
---------------------------------
  C      2.372810    3.123990   -0.347790
  C      1.211040    2.683710   -0.908790
  C      1.023860    2.560930   -2.301850
  N      0.833350    2.468370   -3.429180
  C      0.129930    2.182120   -0.148480
  N     -0.707480    1.641390    0.418990
  C      3.646000    3.304490   -1.032000
  C      4.696300    3.175910   -0.073790
  C      6.011100    3.240710   -0.441080
  C      6.337330    3.453250   -1.798310
  C      5.291330    3.604380   -2.755710
  C      3.939830    3.524660   -2.350810
  C      5.633320    3.823620   -4.105740
  C      6.943620    3.885780   -4.494390
  C      7.972480    3.734080   -3.552150
  C      7.676120    3.522630   -2.233260
  C      4.124400    2.996520    1.269400
  O      4.689590    2.787070    2.312470
  C      2.646770    3.229760    1.082370
  C      1.932940    3.691480    2.113910
  C      0.610270    4.412230    2.131350
  C     -0.404260    3.620670    2.970760
  N      0.069290    4.549540    0.783110
  N      0.084860    5.539590    0.090770
  C      0.738660    6.810950    0.433350
  C      0.904820    6.922030    1.904080
  C      0.855600    5.756340    2.723340
  N      0.977210    6.138380    3.962090
  O      1.098700    7.472100    3.933540
  N      1.045230    7.954280    2.685090
  C      2.110550    6.721870   -0.263360
  C     -0.034510    7.993970   -0.071430
  N     -1.394730    8.049950   -0.162870
  C     -2.362550    7.018260    0.126620
  C     -2.710060    6.966200    1.611960
  C     -1.834020    9.343790   -0.554350
  O     -3.000950    9.631160   -0.711160
  C     -0.615340   10.093930   -0.697650
  C      0.478900    9.228950   -0.400890
  C      1.684730   10.018700   -0.522210
  O      2.859420    9.736460   -0.390870
  N      1.238750   11.310840   -0.860650
  C      2.209720   12.342880   -1.136260
  C      2.313120   12.648500   -2.628140
  C     -0.134310   11.365170   -0.966020
  C     -1.003600   12.458690   -1.252530
  C     -0.727740   13.773790   -1.377190
  C     -1.704670   14.802050   -1.643970
  C     -1.301520   16.138070   -1.595890
  C     -2.190510   17.171230   -1.833090
  N     -1.671310   18.507820   -1.679380
  O     -0.478040   18.657320   -1.839040
  O     -2.442940   19.395690   -1.385380
  C     -3.538360   16.924370   -2.166400
  C     -3.924970   15.574350   -2.218670
  C     -3.049730   14.548410   -1.957370
  C     -4.464110   17.971900   -2.515010
  C     -5.811030   17.848710   -2.467030
  C     -6.669970   18.906300   -2.867330
  C     -8.029850   18.824570   -2.891060
  C     -8.961830   19.870830   -3.282980
  C     -8.648450   21.088860   -3.825460
  C     -9.604180   22.063460   -4.184890
  N    -10.328320   22.898850   -4.494170
  C     -7.349090   21.543480   -4.137450
  N     -6.332780   21.982550   -4.442060
  C    -10.312200   19.377600   -3.037740
  C    -10.230340   18.037340   -2.562900
  C     -8.819280   17.632070   -2.472500
  O     -8.399060   16.545680   -2.132030
  C    -11.344440   17.305990   -2.265400
  C    -12.618240   17.892970   -2.430650
  C    -12.709790   19.235930   -2.898550
  C    -11.538470   19.968300   -3.197830
  C    -13.986200   19.812520   -3.060730
  C    -15.118100   19.097770   -2.777610
  C    -15.026610   17.775290   -2.317840
  C    -13.803360   17.185940   -2.147230
  H      6.792070    3.130940    0.296460
  H      3.164440    3.648140   -3.090970
  H      4.838230    3.935730   -4.828020
  H      7.195220    4.051550   -5.531070
  H      9.000670    3.786070   -3.876990
  H      8.463510    3.405400   -1.503370
  H      2.405790    3.659000    3.089590
  H     -0.603890    2.664880    2.495180
  H     -1.335820    4.177310    3.042400
  H     -0.003950    3.469350    3.969100
  H      2.716220    5.943500    0.199030
  H      2.632250    7.672650   -0.180890
  H      1.961590    6.479900   -1.313340
  H     -1.979510    6.056420   -0.222100
  H     -3.259510    7.277810   -0.442820
  H     -1.830800    6.749890    2.215710
  H     -3.449500    6.190020    1.787530
  H     -3.119500    7.920530    1.934240
  H      3.165110   11.946360   -0.778910
  H      1.974830   13.239570   -0.557600
  H      2.624450   11.756620   -3.166420
  H      3.052230   13.427580   -2.792670
  H      1.358800   12.978970   -3.031670
  H     -2.030110   12.125550   -1.334190
  H      0.279880   14.140740   -1.257250
  H     -0.280510   16.392660   -1.348810
  H     -4.939540   15.338020   -2.497010
  H     -3.406930   13.532490   -2.012290
  H     -4.049650   18.921440   -2.828030
  H     -6.278620   16.945320   -2.105960
  H     -6.189760   19.829370   -3.165910
  H    -11.253350   16.290410   -1.909490
  H    -11.643620   20.982750   -3.547780
  H    -14.051670   20.830550   -3.415670
  H    -16.091100   19.547510   -2.906830
  H    -15.930280   17.226050   -2.099780
  H    -13.726440   16.168210   -1.793480

 Total Charge           Charge          ....    0
 Multiplicity           Mult            ....    1
 Number of Electrons    NEL             ....  530
 Basis Dimension        Dim             .... 1277

ORBITAL ENERGIES
----------------

  NO   OCC          E(Eh)            E(eV)
   0   2.0000     -19.357261      -526.7378
   1   2.0000     -19.253296      -523.9088
   2   2.0000     -19.251304      -523.8546
   3   2.0000     -19.228768      -523.2414
   4   2.0000     -19.219556      -522.9907
   5   2.0000     -19.202071      -522.5149
   6   2.0000     -19.200453      -522.4709
   7   2.0000     -14.657949      -398.8631
   8   2.0000     -14.496518      -394.4703
   9   2.0000     -14.496301      -394.4644
  10   2.0000     -14.495097      -394.4316
  11   2.0000     -14.490340      -394.3022
  12   2.0000     -14.466193      -393.6451
  13   2.0000     -14.463506      -393.5720
  14   2.0000     -14.425359      -392.5340
  15   2.0000     -14.416628      -392.2964
  16   2.0000     -14.415373      -392.2622
  17   2.0000     -14.413209      -392.2034
  18   2.0000     -10.386008      -282.6176
  19   2.0000     -10.383382      -282.5462
  20   2.0000     -10.380348      -282.4636
  21   2.0000     -10.370107      -282.1850
  22   2.0000     -10.363609      -282.0081
  23   2.0000     -10.362152      -281.9685
  24   2.0000     -10.357940      -281.8539
  25   2.0000     -10.355143      -281.7778
  26   2.0000     -10.350158      -281.6421
  27   2.0000     -10.349532      -281.6251
  28   2.0000     -10.344467      -281.4873
  29   2.0000     -10.343621      -281.4642
  30   2.0000     -10.343499      -281.4609
  31   2.0000     -10.343350      -281.4569
  32   2.0000     -10.341450      -281.4052
  33   2.0000     -10.333941      -281.2008
  34   2.0000     -10.326248      -280.9915
  35   2.0000     -10.323154      -280.9073
  36   2.0000     -10.320421      -280.8329
  37   2.0000     -10.318947      -280.7928
  38   2.0000     -10.318101      -280.7698
  39   2.0000     -10.317845      -280.7628
  40   2.0000     -10.316723      -280.7323
  41   2.0000     -10.314838      -280.6810
  42   2.0000     -10.314471      -280.6710
  43   2.0000     -10.313908      -280.6557
  44   2.0000     -10.309475      -280.5351
  45   2.0000     -10.308684      -280.5135
  46   2.0000     -10.308270      -280.5023
  47   2.0000     -10.307825      -280.4902
  48   2.0000     -10.307494      -280.4812
  49   2.0000     -10.306739      -280.4606
  50   2.0000     -10.305890      -280.4375
  51   2.0000     -10.305670      -280.4315
  52   2.0000     -10.305325      -280.4222
  53   2.0000     -10.305018      -280.4138
  54   2.0000     -10.304062      -280.3878
  55   2.0000     -10.304035      -280.3871
  56   2.0000     -10.301382      -280.3148
  57   2.0000     -10.300511      -280.2911
  58   2.0000     -10.299033      -280.2509
  59   2.0000     -10.298773      -280.2439
  60   2.0000     -10.298096      -280.2254
  61   2.0000     -10.297612      -280.2123
  62   2.0000     -10.293724      -280.1065
  63   2.0000     -10.293395      -280.0975
  64   2.0000     -10.292930      -280.0849
  65   2.0000     -10.292573      -280.0751
  66   2.0000     -10.290488      -280.0184
  67   2.0000     -10.289742      -279.9981
  68   2.0000     -10.287813      -279.9456
  69   2.0000     -10.287270      -279.9309
  70   2.0000     -10.286978      -279.9229
  71   2.0000     -10.286431      -279.9080
  72   2.0000     -10.286071      -279.8982
  73   2.0000     -10.282978      -279.8141
  74   2.0000     -10.271690      -279.5069
  75   2.0000     -10.271021      -279.4887
  76   2.0000     -10.270795      -279.4825
  77   2.0000     -10.269154      -279.4379
  78   2.0000      -1.333667       -36.2909
  79   2.0000      -1.314833       -35.7784
  80   2.0000      -1.179152       -32.0864
  81   2.0000      -1.152250       -31.3543
  82   2.0000      -1.145305       -31.1653
  83   2.0000      -1.143984       -31.1294
  84   2.0000      -1.137255       -30.9463
  85   2.0000      -1.133927       -30.8557
  86   2.0000      -1.075258       -29.2592
  87   2.0000      -1.065398       -28.9910
  88   2.0000      -1.029003       -28.0006
  89   2.0000      -1.025582       -27.9075
  90   2.0000      -1.018753       -27.7217
  91   2.0000      -1.007371       -27.4120
  92   2.0000      -1.002647       -27.2834
  93   2.0000      -1.002475       -27.2787
  94   2.0000      -0.999387       -27.1947
  95   2.0000      -0.997931       -27.1551
  96   2.0000      -0.994228       -27.0543
  97   2.0000      -0.981453       -26.7067
  98   2.0000      -0.972615       -26.4662
  99   2.0000      -0.967369       -26.3235
 100   2.0000      -0.942961       -25.6593
 101   2.0000      -0.938087       -25.5267
 102   2.0000      -0.931819       -25.3561
 103   2.0000      -0.929397       -25.2902
 104   2.0000      -0.919810       -25.0293
 105   2.0000      -0.919023       -25.0079
 106   2.0000      -0.902871       -24.5684
 107   2.0000      -0.899575       -24.4787
 108   2.0000      -0.894261       -24.3341
 109   2.0000      -0.889682       -24.2095
 110   2.0000      -0.883076       -24.0297
 111   2.0000      -0.881133       -23.9768
 112   2.0000      -0.873539       -23.7702
 113   2.0000      -0.861938       -23.4545
 114   2.0000      -0.844801       -22.9882
 115   2.0000      -0.836887       -22.7728
 116   2.0000      -0.829391       -22.5689
 117   2.0000      -0.828787       -22.5524
 118   2.0000      -0.818521       -22.2731
 119   2.0000      -0.807279       -21.9672
 120   2.0000      -0.801868       -21.8199
 121   2.0000      -0.798646       -21.7323
 122   2.0000      -0.792127       -21.5549
 123   2.0000      -0.785622       -21.3779
 124   2.0000      -0.775905       -21.1134
 125   2.0000      -0.770655       -20.9706
 126   2.0000      -0.768609       -20.9149
 127   2.0000      -0.767370       -20.8812
 128   2.0000      -0.762922       -20.7602
 129   2.0000      -0.739082       -20.1115
 130   2.0000      -0.726091       -19.7579
 131   2.0000      -0.721360       -19.6292
 132   2.0000      -0.716113       -19.4864
 133   2.0000      -0.713494       -19.4152
 134   2.0000      -0.710722       -19.3397
 135   2.0000      -0.708063       -19.2674
 136   2.0000      -0.704778       -19.1780
 137   2.0000      -0.700673       -19.0663
 138   2.0000      -0.695180       -18.9168
 139   2.0000      -0.686149       -18.6711
 140   2.0000      -0.683801       -18.6072
 141   2.0000      -0.680302       -18.5120
 142   2.0000      -0.674307       -18.3488
 143   2.0000      -0.667205       -18.1556
 144   2.0000      -0.665380       -18.1059
 145   2.0000      -0.663543       -18.0559
 146   2.0000      -0.655923       -17.8486
 147   2.0000      -0.646300       -17.5867
 148   2.0000      -0.644212       -17.5299
 149   2.0000      -0.641286       -17.4503
 150   2.0000      -0.633117       -17.2280
 151   2.0000      -0.627933       -17.0869
 152   2.0000      -0.623250       -16.9595
 153   2.0000      -0.617479       -16.8025
 154   2.0000      -0.616629       -16.7793
 155   2.0000      -0.612714       -16.6728
 156   2.0000      -0.608977       -16.5711
 157   2.0000      -0.607746       -16.5376
 158   2.0000      -0.603520       -16.4226
 159   2.0000      -0.602984       -16.4080
 160   2.0000      -0.597867       -16.2688
 161   2.0000      -0.590832       -16.0774
 162   2.0000      -0.585407       -15.9297
 163   2.0000      -0.582199       -15.8424
 164   2.0000      -0.576099       -15.6764
 165   2.0000      -0.571878       -15.5616
 166   2.0000      -0.568288       -15.4639
 167   2.0000      -0.566597       -15.4179
 168   2.0000      -0.562528       -15.3072
 169   2.0000      -0.557540       -15.1714
 170   2.0000      -0.554897       -15.0995
 171   2.0000      -0.548142       -14.9157
 172   2.0000      -0.547593       -14.9008
 173   2.0000      -0.546180       -14.8623
 174   2.0000      -0.545545       -14.8450
 175   2.0000      -0.544495       -14.8164
 176   2.0000      -0.542014       -14.7489
 177   2.0000      -0.539183       -14.6719
 178   2.0000      -0.538003       -14.6398
 179   2.0000      -0.535789       -14.5795
 180   2.0000      -0.535034       -14.5590
 181   2.0000      -0.532162       -14.4809
 182   2.0000      -0.530856       -14.4453
 183   2.0000      -0.529325       -14.4037
 184   2.0000      -0.526227       -14.3194
 185   2.0000      -0.521689       -14.1959
 186   2.0000      -0.521522       -14.1913
 187   2.0000      -0.520336       -14.1591
 188   2.0000      -0.518573       -14.1111
 189   2.0000      -0.516907       -14.0658
 190   2.0000      -0.515251       -14.0207
 191   2.0000      -0.513094       -13.9620
 192   2.0000      -0.507282       -13.8038
 193   2.0000      -0.505816       -13.7639
 194   2.0000      -0.501907       -13.6576
 195   2.0000      -0.500763       -13.6264
 196   2.0000      -0.498021       -13.5518
 197   2.0000      -0.497380       -13.5344
 198   2.0000      -0.496473       -13.5097
 199   2.0000      -0.492074       -13.3900
 200   2.0000      -0.490849       -13.3567
 201   2.0000      -0.488136       -13.2829
 202   2.0000      -0.485241       -13.2041
 203   2.0000      -0.483610       -13.1597
 204   2.0000      -0.481846       -13.1117
 205   2.0000      -0.478962       -13.0332
 206   2.0000      -0.475279       -12.9330
 207   2.0000      -0.474267       -12.9055
 208   2.0000      -0.473757       -12.8916
 209   2.0000      -0.470587       -12.8053
 210   2.0000      -0.468688       -12.7536
 211   2.0000      -0.462487       -12.5849
 212   2.0000      -0.461374       -12.5546
 213   2.0000      -0.459275       -12.4975
 214   2.0000      -0.457481       -12.4487
 215   2.0000      -0.454589       -12.3700
 216   2.0000      -0.452002       -12.2996
 217   2.0000      -0.451038       -12.2734
 218   2.0000      -0.449833       -12.2406
 219   2.0000      -0.448493       -12.2041
 220   2.0000      -0.448023       -12.1913
 221   2.0000      -0.446120       -12.1395
 222   2.0000      -0.444848       -12.1049
 223   2.0000      -0.440972       -11.9995
 224   2.0000      -0.439123       -11.9491
 225   2.0000      -0.437919       -11.9164
 226   2.0000      -0.435880       -11.8609
 227   2.0000      -0.434462       -11.8223
 228   2.0000      -0.433374       -11.7927
 229   2.0000      -0.430203       -11.7064
 230   2.0000      -0.428683       -11.6651
 231   2.0000      -0.427828       -11.6418
 232   2.0000      -0.425867       -11.5884
 233   2.0000      -0.425365       -11.5748
 234   2.0000      -0.420648       -11.4464
 235   2.0000      -0.420187       -11.4339
 236   2.0000      -0.417831       -11.3697
 237   2.0000      -0.410321       -11.1654
 238   2.0000      -0.407874       -11.0988
 239   2.0000      -0.406592       -11.0639
 240   2.0000      -0.405018       -11.0211
 241   2.0000      -0.403035       -10.9672
 242   2.0000      -0.402045       -10.9402
 243   2.0000      -0.394672       -10.7396
 244   2.0000      -0.391038       -10.6407
 245   2.0000      -0.389640       -10.6026
 246   2.0000      -0.384215       -10.4550
 247   2.0000      -0.383964       -10.4482
 248   2.0000      -0.379714       -10.3326
 249   2.0000      -0.371683       -10.1140
 250   2.0000      -0.357416        -9.7258
 251   2.0000      -0.356832        -9.7099
 252   2.0000      -0.356163        -9.6917
 253   2.0000      -0.341667        -9.2972
 254   2.0000      -0.341553        -9.2941
 255   2.0000      -0.338983        -9.2242
 256   2.0000      -0.336668        -9.1612
 257   2.0000      -0.324424        -8.8280
 258   2.0000      -0.323147        -8.7933
 259   2.0000      -0.318534        -8.6678
 260   2.0000      -0.312863        -8.5134
 261   2.0000      -0.301996        -8.2177
 262   2.0000      -0.300797        -8.1851
 263   2.0000      -0.289668        -7.8823
 264   2.0000      -0.257184        -6.9983
 265   0.0000      -0.106853        -2.9076
 266   0.0000      -0.090872        -2.4728
 267   0.0000      -0.078299        -2.1306
 268   0.0000      -0.062080        -1.6893
 269   0.0000      -0.060432        -1.6444

MULLIKEN ATOMIC CHARGES
-----------------------
   0 C :    0.206396
   1 C :   -0.270458
   2 C :   -0.186991
   3 N :    0.160663
   4 C :   -0.118587
   5 N :    0.132251
   6 C :    0.045360
   7 C :    0.003665
   8 C :   -0.074062
   9 C :    0.093780
  10 C :    0.096250
  11 C :   -0.079542
  12 C :   -0.018170
  13 C :    0.038591
  14 C :    0.035105
  15 C :   -0.013229
  16 C :    0.150194
  17 O :   -0.125111
  18 C :   -0.110821
  19 C :    0.045469
  20 C :   -0.068436
  21 C :    0.131734
  22 N :   -0.105182
  23 N :   -0.076878
  24 C :   -0.168002
  25 C :   -0.045490
  26 C :   -0.095897
  27 N :    0.054725
  28 O :   -0.118750
  29 N :    0.078247
  30 C :    0.134599
  31 C :    0.108293
  32 N :   -0.267989
  33 C :    0.090496
  34 C :   -0.000186
  35 C :    0.156050
  36 O :   -0.188071
  37 C :   -0.045383
  38 C :   -0.039796
  39 C :    0.173803
  40 O :   -0.206486
  41 N :   -0.268616
  42 C :    0.098997
  43 C :   -0.003001
  44 C :    0.119443
  45 C :   -0.011047
  46 C :    0.012072
  47 C :    0.107177
  48 C :   -0.073033
  49 C :    0.149713
  50 N :    0.244403
  51 O :   -0.229017
  52 O :   -0.228038
  53 C :    0.069537
  54 C :   -0.025732
  55 C :    0.020631
  56 C :    0.022566
  57 C :   -0.002968
  58 C :   -0.042405
  59 C :   -0.064899
  60 C :    0.333700
  61 C :   -0.348271
  62 C :   -0.182466
  63 N :    0.148923
  64 C :   -0.194178
  65 N :    0.154029
  66 C :    0.045214
  67 C :   -0.004756
  68 C :    0.150498
  69 O :   -0.153375
  70 C :   -0.075734
  71 C :    0.094923
  72 C :    0.093691
  73 C :   -0.078973
  74 C :   -0.015778
  75 C :    0.035842
  76 C :    0.036313
  77 C :   -0.013557
  78 H :   -0.005882
  79 H :   -0.003072
  80 H :   -0.008223
  81 H :   -0.001417
  82 H :   -0.002030
  83 H :   -0.013283
  84 H :    0.034821
  85 H :    0.054398
  86 H :    0.020679
  87 H :    0.036156
  88 H :    0.010415
  89 H :    0.065753
  90 H :    0.035287
  91 H :    0.057561
  92 H :    0.041368
  93 H :    0.007976
  94 H :    0.031489
  95 H :    0.033035
  96 H :    0.047952
  97 H :    0.028557
  98 H :    0.026251
  99 H :    0.026633
 100 H :    0.022929
 101 H :    0.008289
 102 H :   -0.022060
 103 H :    0.004753
 104 H :    0.003746
 105 H :    0.004003
 106 H :    0.025287
 107 H :    0.034631
 108 H :    0.018577
 109 H :   -0.014047
 110 H :   -0.009296
 111 H :   -0.008343
 112 H :   -0.004376
 113 H :   -0.004688
 114 H :   -0.017809
Sum of atomic charges:   -0.0000000

LOEWDIN ATOMIC CHARGES
----------------------
   0 C :    0.051950
   1 C :   -0.107770
   2 C :   -0.015703
   3 N :   -0.040149
   4 C :   -0.015227
   5 N :   -0.054244
   6 C :   -0.022829
   7 C :   -0.062679
   8 C :    0.038823
   9 C :   -0.009036
  10 C :   -0.002520
  11 C :    0.014600
  12 C :   -0.006356
  13 C :   -0.008667
  14 C :   -0.010848
  15 C :   -0.006687
  16 C :    0.088603
  17 O :   -0.126596
  18 C :   -0.072186
  19 C :    0.068103
  20 C :   -0.039162
  21 C :   -0.019659
  22 N :    0.015113
  23 N :    0.003920
  24 C :   -0.039920
  25 C :   -0.066281
  26 C :   -0.067879
  27 N :   -0.006312
  28 O :    0.055504
  29 N :    0.000673
  30 C :   -0.022366
  31 C :    0.092592
  32 N :    0.007353
  33 C :    0.030280
  34 C :   -0.063008
  35 C :    0.083092
  36 O :   -0.187451
  37 C :   -0.111316
  38 C :   -0.132029
  39 C :    0.091522
  40 O :   -0.192701
  41 N :   -0.003083
  42 C :    0.035360
  43 C :   -0.062782
  44 C :    0.077363
  45 C :   -0.020807
  46 C :   -0.000652
  47 C :   -0.019242
  48 C :    0.009100
  49 C :   -0.019324
  50 N :    0.284376
  51 O :   -0.197171
  52 O :   -0.188151
  53 C :   -0.009461
  54 C :    0.008924
  55 C :    0.016342
  56 C :    0.031282
  57 C :   -0.020927
  58 C :    0.072004
  59 C :   -0.085962
  60 C :    0.074722
  61 C :   -0.134436
  62 C :   -0.016384
  63 N :   -0.051830
  64 C :   -0.021936
  65 N :   -0.047084
  66 C :   -0.025628
  67 C :   -0.056577
  68 C :    0.086608
  69 O :   -0.146664
  70 C :    0.033371
  71 C :   -0.008284
  72 C :   -0.005721
  73 C :    0.020232
  74 C :   -0.004802
  75 C :   -0.012608
  76 C :   -0.011639
  77 C :   -0.009236
  78 H :    0.041487
  79 H :    0.039209
  80 H :    0.035117
  81 H :    0.034539
  82 H :    0.034114
  83 H :    0.033270
  84 H :    0.052036
  85 H :    0.039477
  86 H :    0.033803
  87 H :    0.037234
  88 H :    0.024555
  89 H :    0.042162
  90 H :    0.035518
  91 H :    0.028267
  92 H :    0.037360
  93 H :    0.014194
  94 H :    0.033616
  95 H :    0.033831
  96 H :    0.039090
  97 H :    0.020819
  98 H :    0.031923
  99 H :    0.032575
 100 H :    0.022175
 101 H :    0.044810
 102 H :    0.030771
 103 H :    0.040317
 104 H :    0.042068
 105 H :    0.039808
 106 H :    0.035927
 107 H :    0.032028
 108 H :    0.044626
 109 H :    0.038820
 110 H :    0.039056
 111 H :    0.035136
 112 H :    0.033453
 113 H :    0.033050
 114 H :    0.031916

  Mayer bond orders larger than 0.100000
B(  0-C ,  1-C ) :   1.7301 B(  0-C ,  6-C ) :   0.9988 B(  0-C , 18-C ) :   0.9656
B(  1-C ,  2-C ) :   1.1381 B(  1-C ,  4-C ) :   1.1322 B(  2-C ,  3-N ) :   2.9939
B(  4-C ,  5-N ) :   2.9396 B(  6-C ,  7-C ) :   1.2132 B(  6-C , 11-C ) :   1.4553
B(  7-C ,  8-C ) :   1.4685 B(  7-C , 16-C ) :   0.9210 B(  8-C ,  9-C ) :   1.1953
B(  8-C , 78-H ) :   1.0148 B(  9-C , 10-C ) :   1.2499 B(  9-C , 15-C ) :   1.2423
B( 10-C , 11-C ) :   1.2092 B( 10-C , 12-C ) :   1.2393 B( 11-C , 79-H ) :   0.9963
B( 12-C , 13-C ) :   1.4930 B( 12-C , 80-H ) :   0.9977 B( 13-C , 14-C ) :   1.2564
B( 13-C , 81-H ) :   0.9889 B( 14-C , 15-C ) :   1.4933 B( 14-C , 82-H ) :   0.9895
B( 15-C , 83-H ) :   0.9978 B( 16-C , 17-O ) :   2.2910 B( 16-C , 18-C ) :   0.9072
B( 18-C , 19-C ) :   1.8576 B( 19-C , 20-C ) :   0.9603 B( 19-C , 84-H ) :   0.9313
B( 20-C , 21-C ) :   1.0633 B( 20-C , 22-N ) :   0.9276 B( 20-C , 26-C ) :   0.9163
B( 21-C , 85-H ) :   0.9458 B( 21-C , 86-H ) :   0.9470 B( 21-C , 87-H ) :   0.9511
B( 22-N , 23-N ) :   1.8243 B( 23-N , 24-C ) :   0.9620 B( 24-C , 25-C ) :   0.9259
B( 24-C , 30-C ) :   1.0592 B( 24-C , 31-C ) :   0.9252 B( 25-C , 26-C ) :   1.2240
B( 25-C , 29-N ) :   1.7336 B( 26-C , 27-N ) :   1.7138 B( 27-N , 28-O ) :   1.0452
B( 27-N , 29-N ) :   0.1507 B( 28-O , 29-N ) :   1.0427 B( 30-C , 88-H ) :   0.9405
B( 30-C , 89-H ) :   0.9112 B( 30-C , 90-H ) :   0.9527 B( 31-C , 32-N ) :   1.2530
B( 31-C , 38-C ) :   1.4473 B( 32-N , 33-C ) :   0.9349 B( 32-N , 35-C ) :   1.0133
B( 33-C , 34-C ) :   1.1199 B( 33-C , 91-H ) :   0.9369 B( 33-C , 92-H ) :   0.9232
B( 34-C , 93-H ) :   0.9646 B( 34-C , 94-H ) :   0.9664 B( 34-C , 95-H ) :   0.9608
B( 35-C , 36-O ) :   2.1230 B( 35-C , 37-C ) :   0.9886 B( 37-C , 38-C ) :   1.2022
B( 37-C , 44-C ) :   1.3825 B( 38-C , 39-C ) :   0.9597 B( 39-C , 40-O ) :   2.0399
B( 39-C , 41-N ) :   1.0640 B( 40-O , 89-H ) :   0.1104 B( 41-N , 42-C ) :   0.9409
B( 41-N , 44-C ) :   1.1581 B( 42-C , 43-C ) :   1.1144 B( 42-C , 96-H ) :   0.9226
B( 42-C , 97-H ) :   0.9512 B( 43-C , 98-H ) :   0.9623 B( 43-C , 99-H ) :   0.9682
B( 43-C ,100-H ) :   0.9685 B( 44-C , 45-C ) :   1.1616 B( 45-C , 46-C ) :   1.6069
B( 45-C ,101-H ) :   0.9425 B( 46-C , 47-C ) :   1.0747 B( 46-C ,102-H ) :   0.9919
B( 47-C , 48-C ) :   1.2842 B( 47-C , 55-C ) :   1.3083 B( 48-C , 49-C ) :   1.3788
B( 48-C ,103-H ) :   0.9977 B( 49-C , 50-N ) :   0.8770 B( 49-C , 53-C ) :   1.3406
B( 50-N , 51-O ) :   1.5551 B( 50-N , 52-O ) :   1.5212 B( 51-O , 52-O ) :   0.2677
B( 53-C , 54-C ) :   1.3234 B( 53-C , 56-C ) :   1.0562 B( 54-C , 55-C ) :   1.4323
B( 54-C ,104-H ) :   0.9874 B( 55-C ,105-H ) :   0.9904 B( 56-C , 57-C ) :   1.6325
B( 56-C ,106-H ) :   0.9632 B( 57-C , 58-C ) :   1.1388 B( 57-C ,107-H ) :   0.9711
B( 58-C , 59-C ) :   1.5727 B( 58-C ,108-H ) :   0.9631 B( 59-C , 60-C ) :   1.0493
B( 59-C , 68-C ) :   0.9376 B( 60-C , 61-C ) :   1.6385 B( 60-C , 66-C ) :   0.9902
B( 61-C , 62-C ) :   1.1458 B( 61-C , 64-C ) :   1.1417 B( 62-C , 63-N ) :   2.9630
B( 64-C , 65-N ) :   2.9704 B( 66-C , 67-C ) :   1.2132 B( 66-C , 73-C ) :   1.4485
B( 67-C , 68-C ) :   0.9489 B( 67-C , 70-C ) :   1.4697 B( 68-C , 69-O ) :   2.1946
B( 70-C , 71-C ) :   1.1820 B( 70-C ,109-H ) :   1.0149 B( 71-C , 72-C ) :   1.2535
B( 71-C , 77-C ) :   1.2440 B( 72-C , 73-C ) :   1.2092 B( 72-C , 74-C ) :   1.2393
B( 73-C ,110-H ) :   0.9878 B( 74-C , 75-C ) :   1.4902 B( 74-C ,111-H ) :   0.9966
B( 75-C , 76-C ) :   1.2575 B( 75-C ,112-H ) :   0.9890 B( 76-C , 77-C ) :   1.4898
B( 76-C ,113-H ) :   0.9892 B( 77-C ,114-H ) :   0.9968

-----------------------------------------------------------------------------
         ABSORPTION SPECTRUM VIA TRANSITION ELECTRIC DIPOLE MOMENTS
-----------------------------------------------------------------------------
State   Energy  Wavelength   fosc         T2         TX        TY        TZ
        (cm-1)    (nm)                  (au**2)     (au)      (au)      (au)
-----------------------------------------------------------------------------
   0   19276.4    518.8   0.901850379  15.40227  -1.88451   3.34202  -0.82570
   1   23090.1    433.1   0.000255831   0.00365   0.03287   0.04962   0.01022
   2   24536.6    407.6   0.488861788   6.55916   2.52021  -0.24891   0.38178
   3   25525.5    391.8   0.160974800   2.07615   0.94090   1.06542  -0.23609
   4   25822.7    387.3   0.014055376   0.17919  -0.38834   0.14210   0.09052
   5   26641.5    375.4   0.045320649   0.56003   0.57762  -0.41037   0.24080
   6   26747.4    373.9   0.479337141   5.89976   1.96996  -1.38414   0.32121
   7   27287.1    366.5   0.003457114   0.04171  -0.16923   0.11122  -0.02646
   8   28277.2    353.6   0.085524309   0.99570   0.82834   0.37921  -0.40713
   9   28667.7    348.8   0.026845162   0.30828   0.18474  -0.51850   0.07286
  10   28688.9    348.6   0.021024883   0.24127   0.42147  -0.24495   0.06021
  11   29245.7    341.9   0.055752724   0.62759  -0.52690  -0.58537   0.08553
  12   29503.8    338.9   0.020085400   0.22412   0.39863   0.20999   0.14532
  13   30252.1    330.6   0.000285267   0.00310   0.04796  -0.02712   0.00827
  14   30778.7    324.9   0.002139202   0.02288  -0.09662   0.06196  -0.09852
  15   30806.5    324.6   0.000218567   0.00234   0.00757   0.03928  -0.02712
  16   31052.4    322.0   0.010720880   0.11366   0.13174   0.07634  -0.30079
  17   31429.3    318.2   0.432611767   4.53147   2.09745   0.19911  -0.30419
  18   31912.0    313.4   0.010432093   0.10762  -0.28746   0.15416  -0.03499
  19   32757.0    305.3   0.013211636   0.13278  -0.29031  -0.18701   0.11630
  20   32857.2    304.3   0.034189713   0.34256  -0.46906   0.34215   0.07403
  21   33411.1    299.3   0.520581674   5.12949   1.82258   1.27222  -0.43494
  22   33492.3    298.6   0.031181479   0.30650  -0.46743  -0.20563   0.21382
  23   34111.9    293.2   0.520751839   5.02574   2.16623   0.53293  -0.22175
  24   34143.9    292.9   0.000159297   0.00154   0.00659  -0.03512   0.01611
  25   34599.1    289.0   0.081514148   0.77561  -0.57220   0.66835  -0.03881
  26   34635.0    288.7   0.005654261   0.05374   0.03909  -0.22701  -0.02616
  27   35152.0    284.5   0.159456644   1.49337  -1.02866  -0.65576  -0.07222
  28   35265.1    283.6   0.073552764   0.68664  -0.72583  -0.10040   0.38695
  29   35521.0    281.5   0.566632078   5.25159  -2.10405  -0.42373   0.80312
  30   36259.8    275.8   0.004229560   0.03840   0.04042   0.18327  -0.05639
  31   36332.3    275.2   0.001154198   0.01046   0.09393   0.03817  -0.01337
  32   36522.4    273.8   0.163701612   1.47560  -0.55827  -1.02813   0.32692
  33   36971.1    270.5   0.040349452   0.35929  -0.57155   0.09744  -0.15209
  34   37378.7    267.5   0.136149615   1.19914   0.51503  -0.95748   0.13082
  35   37493.3    266.7   0.000179715   0.00158  -0.03887   0.00813  -0.00107
  36   37664.0    265.5   0.017249844   0.15078   0.02274  -0.38763  -0.00156
  37   38439.8    260.1   0.130797625   1.12020   0.45283  -0.48690  -0.82345
  38   38846.9    257.4   0.078676744   0.66675   0.35929   0.64677  -0.34548
  39   38903.4    257.0   0.103467598   0.87557   0.20831  -0.83728   0.36213
  40   39058.4    256.0   0.004853061   0.04091  -0.00618  -0.04740   0.19652
  41   39198.9    255.1   0.007582158   0.06368  -0.16751  -0.18458   0.03936
  42   39719.6    251.8   0.000147761   0.00122  -0.02231   0.02551  -0.00873
  43   39879.2    250.8   0.018197458   0.15022  -0.09360   0.29076  -0.23858
  44   39987.7    250.1   0.000382437   0.00315   0.00225  -0.05605   0.00149

FINAL SINGLE POINT ENERGY     -3432.903593708949

DIPOLE MOMENT
-------------
                                X             Y             Z
Electronic contribution:     -8.41399      14.93572       0.95490
Nuclear contribution   :      9.02704     -16.85991      -1.24753
                        -----------------------------------------
Total Dipole Moment    :      0.61304      -1.92419      -0.29263
                        -----------------------------------------
Magnitude (a.u.)       :      2.04058
Magnitude (Debye)      :      5.18674

Rotational constants in cm-1:     0.001622     0.000223     0.000209
Rotational constants in MHz :    48.633504     6.680090     6.255607

                             ****ORCA TERMINATED NORMALLY****
TOTAL RUN TIME: 0 days 0 hours 11 minutes 33 seconds 150 msec
