                         Program Version 4.2.0 -  RELEASE  -
|  1> # ORCA input file
|  2> # SCF done       -145.878451795502          0.000278959820
|  3> ! CAM-B3LYP def2-SVP def2/J RIJCOSX Grid4 TightSCF
|  4> %maxcore 5000
|  5> %tddft
|  6>     Mode sTDDFT
|  7>     Ethresh 5.0
|  8>     maxcore 5000
|  9> end
| 10>
| 11> %pal
| 12>   nprocs 6
| 13>   end
| 14> * xyz 0 1
| 15>    C        2.60519         4.82072         6.46518
| 16>    N        3.28669         5.24513         5.36971
| 17>    C        4.71857         5.22237         5.20330
| 18>    C        5.39110         6.35352         5.97655
| 19>    C        2.41344         5.79230         4.39706
| 20>    O        2.78705         6.23796         3.33196
| 21>    C        1.10864         5.65718         4.99756
| 22>    C        1.26890         5.04908         6.27983
| 23>    C       -0.04909         4.91997         6.86447
| 24>    O       -0.43416         4.48718         7.92626
| 25>    N       -0.92196         5.45732         5.88661
| 26>    C       -2.34182         5.46690         6.14075
| 27>    C       -3.04065         4.26346         5.51082
| 28>    C       -0.23926         5.89095         4.77178
| 29>    C       -0.71333         6.49462         3.57259
| 30>    C       -1.97930         6.69507         3.13939
| 31>    C       -2.29663         7.32367         1.89894
| 32>    S       -3.95417         7.42642         1.40146
| 33>    C       -3.52128         8.22648        -0.07888
| 34>    C       -4.60185         8.63156        -0.94239
| 35>    O       -4.51438         9.14125        -2.03674
| 36>    C       -2.14119         8.41699        -0.15806
| 37>    C       -1.46791         7.90804         0.96138
| 38>    C       -1.44766         9.11266        -1.23909
| 39>    C       -1.76967         8.91654        -2.57563
| 40>    C       -1.10755         9.65286        -3.55671
| 41>    C       -0.08744        10.51304        -3.13948
| 42>    N        0.24515        10.67720        -1.87561
| 43>    C       -0.41833        10.01454        -0.94963
| 44>    C       -1.49943         9.53665        -4.94538
| 45>    S       -0.38704         9.77064        -6.24699
| 46>    C       -1.63482         9.48177        -7.41183
| 47>    C       -1.28233         9.42038        -8.81097
| 48>    O       -0.17623         9.62667        -9.24724
| 49>    C       -2.85875         9.22639        -6.80207
| 50>    C       -2.76516         9.25687        -5.39708
| 51>    C       -4.08612         9.02593        -7.54051
| 52>    N       -5.02150         8.06291        -7.25340
| 53>    C       -4.90950         6.98896        -6.29616
| 54>    C       -3.75823         6.04311        -6.62353
| 55>    C       -6.12163         8.12919        -8.13792
| 56>    O       -7.06015         7.35826        -8.08304
| 57>    C       -5.82324         9.24590        -8.99832
| 58>    C       -4.55025         9.76590        -8.60513
| 59>    C       -4.26674        10.92234        -9.42472
| 60>    O       -3.33516        11.69691        -9.45638
| 61>    N       -5.38106        11.00788       -10.28700
| 62>    C       -5.49052        12.08087       -11.24445
| 63>    C       -6.40965        13.19417       -10.74698
| 64>    C       -6.30895        10.02528       -10.03403
| 65>    C       -7.53399         9.88847       -10.77180
| 66>    C       -8.44008         8.94762       -10.50100
| 67>    H        3.11902         4.37751         7.29838
| 68>    H        4.90822         5.33878         4.13292
| 69>    H        5.10237         4.25279         5.53371
| 70>    H        5.02225         7.31494         5.62782
| 71>    H        6.46583         6.31667         5.82333
| 72>    H        5.18615         6.26674         7.04143
| 73>    H       -2.76955         6.41125         5.79622
| 74>    H       -2.45055         5.41153         7.22854
| 75>    H       -2.86752         4.22128         4.43762
| 76>    H       -4.11014         4.31882         5.69438
| 77>    H       -2.65949         3.34753         5.95515
| 78>    H        0.10442         6.80474         2.93497
| 79>    H       -2.83345         6.36934         3.71131
| 80>    H       -5.59370         8.42043        -0.49553
| 81>    H       -0.39926         7.95398         1.06756
| 82>    H       -2.51192         8.18788        -2.85658
| 83>    H        0.47262        11.09456        -3.85989
| 84>    H       -0.12644        10.21748         0.07208
| 85>    H       -2.12089         9.12535        -9.46799
| 86>    H       -3.60424         9.15365        -4.73273
| 87>    H       -5.86162         6.45250        -6.35325
| 88>    H       -4.79889         7.39250        -5.28642
| 89>    H       -3.87634         5.64086        -7.62701
| 90>    H       -3.75135         5.21738        -5.91732
| 91>    H       -2.80155         6.55770        -6.56545
| 92>    H       -5.83827        11.68609       -12.20332
| 93>    H       -4.47736        12.47319       -11.37191
| 94>    H       -7.41504        12.81959       -10.56632
| 95>    H       -6.45845        13.98951       -11.48555
| 96>    H       -6.02189        13.60528        -9.81819
| 97>    H       -7.69894        10.58947       -11.57834
| 98>    H       -8.29650         8.23949        -9.70212
| 99>    H       -9.34782         8.86736       -11.07390
|100> *
|101>
|102>                          ****END OF INPUT****

CARTESIAN COORDINATES (ANGSTROEM)
---------------------------------
  C      2.605190    4.820720    6.465180
  N      3.286690    5.245130    5.369710
  C      4.718570    5.222370    5.203300
  C      5.391100    6.353520    5.976550
  C      2.413440    5.792300    4.397060
  O      2.787050    6.237960    3.331960
  C      1.108640    5.657180    4.997560
  C      1.268900    5.049080    6.279830
  C     -0.049090    4.919970    6.864470
  O     -0.434160    4.487180    7.926260
  N     -0.921960    5.457320    5.886610
  C     -2.341820    5.466900    6.140750
  C     -3.040650    4.263460    5.510820
  C     -0.239260    5.890950    4.771780
  C     -0.713330    6.494620    3.572590
  C     -1.979300    6.695070    3.139390
  C     -2.296630    7.323670    1.898940
  S     -3.954170    7.426420    1.401460
  C     -3.521280    8.226480   -0.078880
  C     -4.601850    8.631560   -0.942390
  O     -4.514380    9.141250   -2.036740
  C     -2.141190    8.416990   -0.158060
  C     -1.467910    7.908040    0.961380
  C     -1.447660    9.112660   -1.239090
  C     -1.769670    8.916540   -2.575630
  C     -1.107550    9.652860   -3.556710
  C     -0.087440   10.513040   -3.139480
  N      0.245150   10.677200   -1.875610
  C     -0.418330   10.014540   -0.949630
  C     -1.499430    9.536650   -4.945380
  S     -0.387040    9.770640   -6.246990
  C     -1.634820    9.481770   -7.411830
  C     -1.282330    9.420380   -8.810970
  O     -0.176230    9.626670   -9.247240
  C     -2.858750    9.226390   -6.802070
  C     -2.765160    9.256870   -5.397080
  C     -4.086120    9.025930   -7.540510
  N     -5.021500    8.062910   -7.253400
  C     -4.909500    6.988960   -6.296160
  C     -3.758230    6.043110   -6.623530
  C     -6.121630    8.129190   -8.137920
  O     -7.060150    7.358260   -8.083040
  C     -5.823240    9.245900   -8.998320
  C     -4.550250    9.765900   -8.605130
  C     -4.266740   10.922340   -9.424720
  O     -3.335160   11.696910   -9.456380
  N     -5.381060   11.007880  -10.287000
  C     -5.490520   12.080870  -11.244450
  C     -6.409650   13.194170  -10.746980
  C     -6.308950   10.025280  -10.034030
  C     -7.533990    9.888470  -10.771800
  C     -8.440080    8.947620  -10.501000
  H      3.119020    4.377510    7.298380
  H      4.908220    5.338780    4.132920
  H      5.102370    4.252790    5.533710
  H      5.022250    7.314940    5.627820
  H      6.465830    6.316670    5.823330
  H      5.186150    6.266740    7.041430
  H     -2.769550    6.411250    5.796220
  H     -2.450550    5.411530    7.228540
  H     -2.867520    4.221280    4.437620
  H     -4.110140    4.318820    5.694380
  H     -2.659490    3.347530    5.955150
  H      0.104420    6.804740    2.934970
  H     -2.833450    6.369340    3.711310
  H     -5.593700    8.420430   -0.495530
  H     -0.399260    7.953980    1.067560
  H     -2.511920    8.187880   -2.856580
  H      0.472620   11.094560   -3.859890
  H     -0.126440   10.217480    0.072080
  H     -2.120890    9.125350   -9.467990
  H     -3.604240    9.153650   -4.732730
  H     -5.861620    6.452500   -6.353250
  H     -4.798890    7.392500   -5.286420
  H     -3.876340    5.640860   -7.627010
  H     -3.751350    5.217380   -5.917320
  H     -2.801550    6.557700   -6.565450
  H     -5.838270   11.686090  -12.203320
  H     -4.477360   12.473190  -11.371910
  H     -7.415040   12.819590  -10.566320
  H     -6.458450   13.989510  -11.485550
  H     -6.021890   13.605280   -9.818190
  H     -7.698940   10.589470  -11.578340
  H     -8.296500    8.239490   -9.702120
  H     -9.347820    8.867360  -11.073900

 Total Charge           Charge          ....    0
 Multiplicity           Mult            ....    1
 Number of Electrons    NEL             ....  382
 Basis Dimension        Dim             ....  901

ORBITAL ENERGIES
----------------

  NO   OCC          E(Eh)            E(eV)
   0   2.0000     -88.981752     -2421.3166
   1   2.0000     -88.963676     -2420.8247
   2   2.0000     -19.221802      -523.0518
   3   2.0000     -19.197088      -522.3793
   4   2.0000     -19.195842      -522.3454
   5   2.0000     -19.191083      -522.2159
   6   2.0000     -19.186104      -522.0804
   7   2.0000     -19.184999      -522.0504
   8   2.0000     -14.459697      -393.4684
   9   2.0000     -14.457021      -393.3955
  10   2.0000     -14.449693      -393.1961
  11   2.0000     -14.449370      -393.1874
  12   2.0000     -14.404238      -391.9592
  13   2.0000     -10.379411      -282.4381
  14   2.0000     -10.377551      -282.3875
  15   2.0000     -10.373045      -282.2649
  16   2.0000     -10.370005      -282.1822
  17   2.0000     -10.368267      -282.1349
  18   2.0000     -10.347257      -281.5632
  19   2.0000     -10.345349      -281.5113
  20   2.0000     -10.339857      -281.3618
  21   2.0000     -10.337328      -281.2930
  22   2.0000     -10.336359      -281.2666
  23   2.0000     -10.332620      -281.1649
  24   2.0000     -10.315525      -280.6997
  25   2.0000     -10.313949      -280.6568
  26   2.0000     -10.313680      -280.6495
  27   2.0000     -10.313452      -280.6433
  28   2.0000     -10.312902      -280.6283
  29   2.0000     -10.312750      -280.6242
  30   2.0000     -10.309217      -280.5281
  31   2.0000     -10.308551      -280.5099
  32   2.0000     -10.306551      -280.4555
  33   2.0000     -10.304712      -280.4055
  34   2.0000     -10.301884      -280.3285
  35   2.0000     -10.301491      -280.3178
  36   2.0000     -10.299685      -280.2687
  37   2.0000     -10.296145      -280.1723
  38   2.0000     -10.295126      -280.1446
  39   2.0000     -10.295049      -280.1425
  40   2.0000     -10.293462      -280.0993
  41   2.0000     -10.286090      -279.8987
  42   2.0000     -10.281132      -279.7638
  43   2.0000     -10.278463      -279.6912
  44   2.0000     -10.269044      -279.4349
  45   2.0000     -10.268886      -279.4306
  46   2.0000     -10.267254      -279.3862
  47   2.0000     -10.265019      -279.3254
  48   2.0000     -10.260738      -279.2089
  49   2.0000     -10.259202      -279.1671
  50   2.0000     -10.257975      -279.1337
  51   2.0000     -10.253823      -279.0207
  52   2.0000      -8.077602      -219.8027
  53   2.0000      -8.059012      -219.2969
  54   2.0000      -6.046576      -164.5357
  55   2.0000      -6.042664      -164.4292
  56   2.0000      -6.040079      -164.3589
  57   2.0000      -6.028087      -164.0326
  58   2.0000      -6.023875      -163.9180
  59   2.0000      -6.021584      -163.8556
  60   2.0000      -1.137171       -30.9440
  61   2.0000      -1.134510       -30.8716
  62   2.0000      -1.130184       -30.7539
  63   2.0000      -1.128730       -30.7143
  64   2.0000      -1.121824       -30.5264
  65   2.0000      -1.110495       -30.2181
  66   2.0000      -1.068007       -29.0619
  67   2.0000      -1.059508       -28.8307
  68   2.0000      -1.058305       -28.7980
  69   2.0000      -1.051293       -28.6071
  70   2.0000      -1.042458       -28.3667
  71   2.0000      -1.009766       -27.4771
  72   2.0000      -0.991847       -26.9895
  73   2.0000      -0.933885       -25.4123
  74   2.0000      -0.928099       -25.2549
  75   2.0000      -0.924097       -25.1460
  76   2.0000      -0.913620       -24.8609
  77   2.0000      -0.898383       -24.4462
  78   2.0000      -0.890374       -24.2283
  79   2.0000      -0.881003       -23.9733
  80   2.0000      -0.868967       -23.6458
  81   2.0000      -0.860816       -23.4240
  82   2.0000      -0.858882       -23.3714
  83   2.0000      -0.839425       -22.8419
  84   2.0000      -0.828728       -22.5508
  85   2.0000      -0.825529       -22.4638
  86   2.0000      -0.815875       -22.2011
  87   2.0000      -0.813448       -22.1350
  88   2.0000      -0.792130       -21.5550
  89   2.0000      -0.785314       -21.3695
  90   2.0000      -0.767134       -20.8748
  91   2.0000      -0.765936       -20.8422
  92   2.0000      -0.756830       -20.5944
  93   2.0000      -0.751404       -20.4467
  94   2.0000      -0.735347       -20.0098
  95   2.0000      -0.724783       -19.7224
  96   2.0000      -0.719103       -19.5678
  97   2.0000      -0.711934       -19.3727
  98   2.0000      -0.705552       -19.1990
  99   2.0000      -0.698303       -19.0018
 100   2.0000      -0.688037       -18.7224
 101   2.0000      -0.685229       -18.6460
 102   2.0000      -0.658467       -17.9178
 103   2.0000      -0.656185       -17.8557
 104   2.0000      -0.651571       -17.7301
 105   2.0000      -0.650123       -17.6907
 106   2.0000      -0.645548       -17.5662
 107   2.0000      -0.626532       -17.0488
 108   2.0000      -0.623884       -16.9767
 109   2.0000      -0.618162       -16.8210
 110   2.0000      -0.603718       -16.4280
 111   2.0000      -0.601551       -16.3690
 112   2.0000      -0.594482       -16.1767
 113   2.0000      -0.591285       -16.0897
 114   2.0000      -0.587473       -15.9859
 115   2.0000      -0.585028       -15.9194
 116   2.0000      -0.581177       -15.8146
 117   2.0000      -0.579109       -15.7584
 118   2.0000      -0.574045       -15.6205
 119   2.0000      -0.568012       -15.4564
 120   2.0000      -0.567059       -15.4305
 121   2.0000      -0.561459       -15.2781
 122   2.0000      -0.551109       -14.9964
 123   2.0000      -0.539647       -14.6845
 124   2.0000      -0.535702       -14.5772
 125   2.0000      -0.533179       -14.5085
 126   2.0000      -0.532366       -14.4864
 127   2.0000      -0.528118       -14.3708
 128   2.0000      -0.525993       -14.3130
 129   2.0000      -0.523289       -14.2394
 130   2.0000      -0.523065       -14.2333
 131   2.0000      -0.522964       -14.2306
 132   2.0000      -0.519659       -14.1406
 133   2.0000      -0.518753       -14.1160
 134   2.0000      -0.515262       -14.0210
 135   2.0000      -0.514115       -13.9898
 136   2.0000      -0.509719       -13.8702
 137   2.0000      -0.506969       -13.7953
 138   2.0000      -0.505689       -13.7605
 139   2.0000      -0.502303       -13.6684
 140   2.0000      -0.498347       -13.5607
 141   2.0000      -0.494054       -13.4439
 142   2.0000      -0.490256       -13.3405
 143   2.0000      -0.487790       -13.2734
 144   2.0000      -0.487598       -13.2682
 145   2.0000      -0.480765       -13.0823
 146   2.0000      -0.477524       -12.9941
 147   2.0000      -0.474107       -12.9011
 148   2.0000      -0.473581       -12.8868
 149   2.0000      -0.470766       -12.8102
 150   2.0000      -0.469711       -12.7815
 151   2.0000      -0.468587       -12.7509
 152   2.0000      -0.463582       -12.6147
 153   2.0000      -0.462514       -12.5856
 154   2.0000      -0.459567       -12.5055
 155   2.0000      -0.457828       -12.4581
 156   2.0000      -0.457166       -12.4401
 157   2.0000      -0.452921       -12.3246
 158   2.0000      -0.451941       -12.2979
 159   2.0000      -0.448887       -12.2148
 160   2.0000      -0.443057       -12.0562
 161   2.0000      -0.441283       -12.0079
 162   2.0000      -0.439889       -11.9700
 163   2.0000      -0.438331       -11.9276
 164   2.0000      -0.436092       -11.8667
 165   2.0000      -0.430957       -11.7269
 166   2.0000      -0.428470       -11.6593
 167   2.0000      -0.426706       -11.6113
 168   2.0000      -0.422367       -11.4932
 169   2.0000      -0.418290       -11.3822
 170   2.0000      -0.410633       -11.1739
 171   2.0000      -0.402718       -10.9585
 172   2.0000      -0.391489       -10.6530
 173   2.0000      -0.374693       -10.1959
 174   2.0000      -0.364576        -9.9206
 175   2.0000      -0.351774        -9.5723
 176   2.0000      -0.347561        -9.4576
 177   2.0000      -0.344995        -9.3878
 178   2.0000      -0.342677        -9.3247
 179   2.0000      -0.334754        -9.1091
 180   2.0000      -0.331008        -9.0072
 181   2.0000      -0.329658        -8.9704
 182   2.0000      -0.325971        -8.8701
 183   2.0000      -0.322926        -8.7873
 184   2.0000      -0.321052        -8.7363
 185   2.0000      -0.319515        -8.6944
 186   2.0000      -0.309244        -8.4150
 187   2.0000      -0.307153        -8.3580
 188   2.0000      -0.289904        -7.8887
 189   2.0000      -0.253275        -6.8920
 190   2.0000      -0.245478        -6.6798
 191   0.0000      -0.089890        -2.4460
 192   0.0000      -0.064455        -1.7539
 193   0.0000      -0.042424        -1.1544
 194   0.0000      -0.033515        -0.9120
 195   0.0000       0.000040         0.0011

MULLIKEN ATOMIC CHARGES
-----------------------
   0 C :    0.053440
   1 N :   -0.266109
   2 C :    0.110930
   3 C :   -0.004229
   4 C :    0.162982
   5 O :   -0.190718
   6 C :   -0.081776
   7 C :    0.003660
   8 C :    0.164577
   9 O :   -0.184405
  10 N :   -0.279362
  11 C :    0.099259
  12 C :    0.000472
  13 C :    0.134803
  14 C :   -0.031951
  15 C :    0.081915
  16 C :   -0.079680
  17 S :    0.150256
  18 C :   -0.210546
  19 C :    0.188948
  20 O :   -0.193155
  21 C :    0.140948
  22 C :   -0.032653
  23 C :   -0.006710
  24 C :    0.053261
  25 C :    0.049913
  26 C :   -0.009834
  27 N :   -0.051357
  28 C :   -0.003196
  29 C :   -0.074454
  30 S :    0.196283
  31 C :   -0.191171
  32 C :    0.184900
  33 O :   -0.193497
  34 C :    0.079579
  35 C :   -0.039312
  36 C :    0.061290
  37 N :   -0.256519
  38 C :    0.107711
  39 C :   -0.007237
  40 C :    0.166119
  41 O :   -0.206927
  42 C :   -0.090122
  43 C :   -0.021321
  44 C :    0.127940
  45 O :   -0.183718
  46 N :   -0.266971
  47 C :    0.098954
  48 C :    0.002155
  49 C :    0.123471
  50 C :   -0.037758
  51 C :    0.017184
  52 H :    0.019933
  53 H :    0.044163
  54 H :    0.019496
  55 H :    0.031913
  56 H :    0.027167
  57 H :    0.016079
  58 H :    0.022171
  59 H :    0.044688
  60 H :    0.018141
  61 H :    0.023436
  62 H :    0.032280
  63 H :    0.010835
  64 H :   -0.019239
  65 H :   -0.014483
  66 H :    0.009616
  67 H :   -0.009435
  68 H :    0.007609
  69 H :   -0.000711
  70 H :   -0.009352
  71 H :    0.009666
  72 H :    0.044422
  73 H :    0.019792
  74 H :    0.023625
  75 H :    0.020674
  76 H :    0.032088
  77 H :    0.022957
  78 H :    0.045422
  79 H :    0.015146
  80 H :    0.023755
  81 H :    0.030531
  82 H :   -0.016992
  83 H :    0.057976
  84 H :    0.030368
Sum of atomic charges:    0.0000000

LOEWDIN ATOMIC CHARGES
----------------------
   0 C :    0.103142
   1 N :   -0.002104
   2 C :    0.038583
   3 C :   -0.060433
   4 C :    0.077930
   5 O :   -0.193544
   6 C :   -0.115874
   7 C :   -0.133882
   8 C :    0.083911
   9 O :   -0.188010
  10 N :   -0.011741
  11 C :    0.033963
  12 C :   -0.063964
  13 C :    0.073260
  14 C :   -0.012716
  15 C :   -0.029311
  16 C :   -0.150152
  17 S :    0.465345
  18 C :   -0.238331
  19 C :    0.083548
  20 O :   -0.148672
  21 C :   -0.007733
  22 C :   -0.042100
  23 C :   -0.047125
  24 C :    0.042592
  25 C :   -0.061210
  26 C :    0.026708
  27 N :   -0.062071
  28 C :    0.027409
  29 C :   -0.150499
  30 S :    0.500007
  31 C :   -0.212136
  32 C :    0.085399
  33 O :   -0.145234
  34 C :   -0.046431
  35 C :   -0.051525
  36 C :    0.072188
  37 N :    0.000948
  38 C :    0.035516
  39 C :   -0.062171
  40 C :    0.081256
  41 O :   -0.200566
  42 C :   -0.132606
  43 C :   -0.122313
  44 C :    0.078993
  45 O :   -0.187413
  46 N :   -0.003878
  47 C :    0.035777
  48 C :   -0.061357
  49 C :    0.088653
  50 C :   -0.054870
  51 C :    0.028761
  52 H :    0.034807
  53 H :    0.037295
  54 H :    0.025285
  55 H :    0.032161
  56 H :    0.031592
  57 H :    0.022761
  58 H :    0.020692
  59 H :    0.038374
  60 H :    0.020282
  61 H :    0.030639
  62 H :    0.034483
  63 H :    0.047515
  64 H :    0.029008
  65 H :   -0.003727
  66 H :    0.038211
  67 H :    0.031605
  68 H :    0.020396
  69 H :    0.021953
  70 H :    0.003583
  71 H :    0.036408
  72 H :    0.036609
  73 H :    0.021240
  74 H :    0.029566
  75 H :    0.030429
  76 H :    0.025410
  77 H :    0.022578
  78 H :    0.038558
  79 H :    0.021795
  80 H :    0.030550
  81 H :    0.032708
  82 H :    0.029966
  83 H :    0.033391
  84 H :    0.029959

  Mayer bond orders larger than 0.100000
B(  0-C ,  1-N ) :   1.2028 B(  0-C ,  7-C ) :   1.4459 B(  0-C , 52-H ) :   0.9891
B(  1-N ,  2-C ) :   0.9395 B(  1-N ,  4-C ) :   1.0297 B(  2-C ,  3-C ) :   1.1167
B(  2-C , 53-H ) :   0.9351 B(  2-C , 54-H ) :   0.9543 B(  3-C , 55-H ) :   0.9678
B(  3-C , 56-H ) :   0.9691 B(  3-C , 57-H ) :   0.9693 B(  4-C ,  5-O ) :   2.1244
B(  4-C ,  6-C ) :   0.9891 B(  6-C ,  7-C ) :   1.1966 B(  6-C , 13-C ) :   1.3886
B(  7-C ,  8-C ) :   0.9539 B(  8-C ,  9-O ) :   2.1697 B(  8-C , 10-N ) :   1.0152
B( 10-N , 11-C ) :   0.9455 B( 10-N , 13-C ) :   1.1606 B( 11-C , 12-C ) :   1.1146
B( 11-C , 58-H ) :   0.9515 B( 11-C , 59-H ) :   0.9250 B( 12-C , 60-H ) :   0.9678
B( 12-C , 61-H ) :   0.9688 B( 12-C , 62-H ) :   0.9613 B( 13-C , 14-C ) :   1.1719
B( 14-C , 15-C ) :   1.6299 B( 14-C , 63-H ) :   0.9477 B( 15-C , 16-C ) :   1.0992
B( 15-C , 64-H ) :   0.9642 B( 16-C , 17-S ) :   1.1671 B( 16-C , 22-C ) :   1.4520
B( 17-S , 18-C ) :   1.0994 B( 18-C , 19-C ) :   1.0265 B( 18-C , 21-C ) :   1.4583
B( 19-C , 20-O ) :   2.1063 B( 19-C , 65-H ) :   0.9529 B( 21-C , 22-C ) :   1.3172
B( 21-C , 23-C ) :   0.9653 B( 22-C , 66-H ) :   0.9963 B( 23-C , 24-C ) :   1.4090
B( 23-C , 28-C ) :   1.3511 B( 24-C , 25-C ) :   1.4038 B( 24-C , 67-H ) :   0.9759
B( 25-C , 26-C ) :   1.3360 B( 25-C , 29-C ) :   0.9989 B( 26-C , 27-N ) :   1.5692
B( 26-C , 68-H ) :   0.9873 B( 27-N , 28-C ) :   1.5600 B( 28-C , 69-H ) :   0.9870
B( 29-C , 30-S ) :   1.1741 B( 29-C , 35-C ) :   1.5142 B( 30-S , 31-C ) :   1.1127
B( 31-C , 32-C ) :   1.0247 B( 31-C , 34-C ) :   1.4553 B( 32-C , 33-O ) :   2.1678
B( 32-C , 70-H ) :   0.9511 B( 34-C , 35-C ) :   1.2468 B( 34-C , 36-C ) :   0.9784
B( 35-C , 71-H ) :   1.0022 B( 36-C , 37-N ) :   1.2120 B( 36-C , 43-C ) :   1.4678
B( 37-N , 38-C ) :   0.9478 B( 37-N , 40-C ) :   1.0360 B( 38-C , 39-C ) :   1.1157
B( 38-C , 72-H ) :   0.9267 B( 38-C , 73-H ) :   0.9487 B( 39-C , 74-H ) :   0.9651
B( 39-C , 75-H ) :   0.9664 B( 39-C , 76-H ) :   0.9682 B( 40-C , 41-O ) :   2.0444
B( 40-C , 42-C ) :   1.0002 B( 42-C , 43-C ) :   1.1882 B( 42-C , 49-C ) :   1.3918
B( 43-C , 44-C ) :   0.9543 B( 44-C , 45-O ) :   2.1481 B( 44-C , 46-N ) :   1.0298
B( 46-N , 47-C ) :   0.9474 B( 46-N , 49-C ) :   1.1682 B( 47-C , 48-C ) :   1.1190
B( 47-C , 77-H ) :   0.9507 B( 47-C , 78-H ) :   0.9277 B( 48-C , 79-H ) :   0.9689
B( 48-C , 80-H ) :   0.9681 B( 48-C , 81-H ) :   0.9640 B( 49-C , 50-C ) :   1.1223
B( 50-C , 51-C ) :   1.8915 B( 50-C , 82-H ) :   0.9541 B( 51-C , 83-H ) :   0.9270
B( 51-C , 84-H ) :   0.9441

-----------------------------------------------------------------------------
         ABSORPTION SPECTRUM VIA TRANSITION ELECTRIC DIPOLE MOMENTS
-----------------------------------------------------------------------------
State   Energy  Wavelength   fosc         T2         TX        TY        TZ
        (cm-1)    (nm)                  (au**2)     (au)      (au)      (au)
-----------------------------------------------------------------------------
   0   20071.7    498.2   0.611878301  10.03593  -2.62498   0.92079  -1.51577
   1   21500.1    465.1   0.251423842   3.84983  -1.09430   0.88199  -1.36910
   2   24455.0    408.9   0.000846382   0.01139   0.07947  -0.00720   0.07090
   3   27958.2    357.7   0.094889782   1.11734  -0.07768   0.63169  -0.84396
   4   28134.2    355.4   0.018029238   0.21097  -0.43507   0.06987  -0.12963
   5   29008.9    344.7   0.001518215   0.01723  -0.04380   0.02458  -0.12127
   6   29306.7    341.2   0.115464848   1.29705  -1.09240   0.09553  -0.30754
   7   29567.2    338.2   0.002550761   0.02840   0.01702  -0.12816   0.10811
   8   29722.5    336.4   0.011248550   0.12459   0.00843  -0.06832   0.34620
   9   30574.0    327.1   0.005396415   0.05811  -0.00285   0.15765  -0.18234
  10   30676.5    326.0   0.045833061   0.49187  -0.49839   0.30054  -0.39134
  11   30904.2    323.6   0.062178359   0.66236   0.13445   0.32803  -0.73259
  12   31504.3    317.4   0.731627310   7.64533  -0.63953   1.07412  -2.46629
  13   32231.6    310.3   0.074626571   0.76223   0.68975   0.00236  -0.53523
  14   33194.6    301.3   0.018835843   0.18681  -0.11838  -0.15953   0.38385
  15   33760.5    296.2   0.003966875   0.03868  -0.16117  -0.10076   0.05055
  16   33839.8    295.5   0.000739217   0.00719  -0.05992   0.02369  -0.05514
  17   34446.0    290.3   0.083053173   0.79377   0.04564  -0.32739   0.82735
  18   34806.5    287.3   0.007955551   0.07525  -0.26082   0.01753   0.08313
  19   36075.6    277.2   0.001442328   0.01316   0.05690  -0.07579   0.06465
  20   37035.5    270.0   0.025066954   0.22282  -0.13156  -0.24332   0.38251
  21   37398.9    267.4   0.218954159   1.92739  -0.24775   0.15683  -1.35699
  22   38167.7    262.0   0.511390859   4.41096  -0.01326  -0.30754   2.07755
  23   38369.3    260.6   0.139063555   1.19318   0.53744   0.22727   0.92341
  24   38421.0    260.3   0.297556390   2.54962  -0.69520  -0.26943  -1.41200
  25   39096.2    255.8   0.272446628   2.29415   1.28369   0.54076  -0.59488
  26   39589.8    252.6   0.060668406   0.50449  -0.18824  -0.43524  -0.52880
  27   39858.1    250.9   0.090395247   0.74663  -0.81627  -0.24049  -0.14996
  28   40196.3    248.8   0.000489585   0.00401   0.00237  -0.00203  -0.06325

FINAL SINGLE POINT ENERGY     -3024.506515052761

DIPOLE MOMENT
-------------
                                X             Y             Z
Electronic contribution:      5.55706       8.51644      -4.99918
Nuclear contribution   :     -6.54778      -9.57416       6.92213
                        -----------------------------------------
Total Dipole Moment    :     -0.99072      -1.05772       1.92295
                        -----------------------------------------
Magnitude (a.u.)       :      2.40791
Magnitude (Debye)      :      6.12041

Rotational constants in cm-1:     0.003832     0.000495     0.000461
Rotational constants in MHz :   114.885770    14.852371    13.808440

                             ****ORCA TERMINATED NORMALLY****
TOTAL RUN TIME: 0 days 0 hours 5 minutes 19 seconds 23 msec
