                         Program Version 4.2.0 -  RELEASE  -
|  1> # ORCA input file
|  2> # SCF done       -120.583088276724          0.000382541585
|  3> ! CAM-B3LYP def2-SVP def2/J RIJCOSX Grid4 TightSCF
|  4> %maxcore 5000
|  5> %tddft
|  6>     Mode sTDDFT
|  7>     Ethresh 5.0
|  8>     maxcore 5000
|  9> end
| 10>
| 11> %pal
| 12>   nprocs 6
| 13>   end
| 14> * xyz 0 1
| 15>    C        2.50452         1.47073         5.84924
| 16>    O        3.73953         1.33759         5.16318
| 17>    C        3.96189         0.14581         4.58749
| 18>    O        3.18196        -0.77346         4.63613
| 19>    C        5.26049         0.10780         3.89429
| 20>    C        5.69461        -1.00372         3.21506
| 21>    S        7.21846        -0.76558         2.49612
| 22>    C        7.30974         0.86989         3.10760
| 23>    C        8.44809         1.67198         2.79807
| 24>    C        8.64584         2.93235         3.23583
| 25>    C        9.78300         3.69959         2.85354
| 26>    N       10.76175         3.33426         2.05545
| 27>    C       11.57188         4.40367         1.96692
| 28>    C       11.05967         5.43481         2.73752
| 29>    C       11.51172         6.76450         2.94989
| 30>    C       10.89902         7.63594         3.78414
| 31>    C       11.27184         8.99371         3.98419
| 32>    C       12.20277         9.75821         3.33125
| 33>    C       12.18639        11.09290         3.84720
| 34>    C       11.19261        11.16157         4.87942
| 35>    C       11.05117        12.39203         5.42406
| 36>    S       12.12557        13.52534         4.68837
| 37>    C       12.80141        12.30361         3.60730
| 38>    C       13.79546        12.70379         2.67683
| 39>    C       14.52441        11.87696         1.89422
| 40>    C       15.47012        12.38476         0.95750
| 41>    N       16.35081        11.69319         0.27133
| 42>    C       17.02869        12.60042        -0.46007
| 43>    C       16.52536        13.85903        -0.19855
| 44>    C       16.85794        15.15957        -0.71394
| 45>    C       17.70771        15.34975        -1.77112
| 46>    S       17.86214        16.99772        -2.20774
| 47>    C       16.76496        17.46240        -0.98091
| 48>    C       16.31160        16.40273        -0.25095
| 49>    C       15.41279        16.59110         0.91059
| 50>    O       15.44971        15.97887         1.94561
| 51>    O       14.55106        17.59442         0.67719
| 52>    C       13.65659        17.89903         1.73790
| 53>    O       15.52900        13.70527         0.69717
| 54>    C       10.57041         9.82870         5.01391
| 55>    O        9.69109         9.47603         5.76341
| 56>    O        9.91696         4.96646         3.30221
| 57>    C        6.18461         1.17380         3.83249
| 58>    H        2.49583         2.47366         6.26788
| 59>    H        2.42706         0.72247         6.64063
| 60>    H        1.67021         1.33593         5.15775
| 61>    H        5.17560        -1.93625         3.11514
| 62>    H        9.19898         1.23249         2.15689
| 63>    H        7.94406         3.43163         3.88622
| 64>    H       12.46169         4.38798         1.37169
| 65>    H       12.38964         7.04696         2.38790
| 66>    H       10.04536         7.30349         4.36097
| 67>    H       12.83493         9.41778         2.53196
| 68>    H       10.38845        12.71440         6.20298
| 69>    H       13.98579        13.76765         2.60971
| 70>    H       14.45570        10.80395         1.94934
| 71>    H       17.82550        12.30885        -1.11212
| 72>    H       18.24345        14.60139        -2.31859
| 73>    H       16.52230        18.49630        -0.83897
| 74>    H       13.08651        18.76562         1.41463
| 75>    H       14.21175        18.12031         2.65148
| 76>    H       12.99159        17.05407         1.92786
| 77>    H        6.00915         2.12176         4.30432
| 78> *
| 79>
| 80>                          ****END OF INPUT****

CARTESIAN COORDINATES (ANGSTROEM)
---------------------------------
  C      2.504520    1.470730    5.849240
  O      3.739530    1.337590    5.163180
  C      3.961890    0.145810    4.587490
  O      3.181960   -0.773460    4.636130
  C      5.260490    0.107800    3.894290
  C      5.694610   -1.003720    3.215060
  S      7.218460   -0.765580    2.496120
  C      7.309740    0.869890    3.107600
  C      8.448090    1.671980    2.798070
  C      8.645840    2.932350    3.235830
  C      9.783000    3.699590    2.853540
  N     10.761750    3.334260    2.055450
  C     11.571880    4.403670    1.966920
  C     11.059670    5.434810    2.737520
  C     11.511720    6.764500    2.949890
  C     10.899020    7.635940    3.784140
  C     11.271840    8.993710    3.984190
  C     12.202770    9.758210    3.331250
  C     12.186390   11.092900    3.847200
  C     11.192610   11.161570    4.879420
  C     11.051170   12.392030    5.424060
  S     12.125570   13.525340    4.688370
  C     12.801410   12.303610    3.607300
  C     13.795460   12.703790    2.676830
  C     14.524410   11.876960    1.894220
  C     15.470120   12.384760    0.957500
  N     16.350810   11.693190    0.271330
  C     17.028690   12.600420   -0.460070
  C     16.525360   13.859030   -0.198550
  C     16.857940   15.159570   -0.713940
  C     17.707710   15.349750   -1.771120
  S     17.862140   16.997720   -2.207740
  C     16.764960   17.462400   -0.980910
  C     16.311600   16.402730   -0.250950
  C     15.412790   16.591100    0.910590
  O     15.449710   15.978870    1.945610
  O     14.551060   17.594420    0.677190
  C     13.656590   17.899030    1.737900
  O     15.529000   13.705270    0.697170
  C     10.570410    9.828700    5.013910
  O      9.691090    9.476030    5.763410
  O      9.916960    4.966460    3.302210
  C      6.184610    1.173800    3.832490
  H      2.495830    2.473660    6.267880
  H      2.427060    0.722470    6.640630
  H      1.670210    1.335930    5.157750
  H      5.175600   -1.936250    3.115140
  H      9.198980    1.232490    2.156890
  H      7.944060    3.431630    3.886220
  H     12.461690    4.387980    1.371690
  H     12.389640    7.046960    2.387900
  H     10.045360    7.303490    4.360970
  H     12.834930    9.417780    2.531960
  H     10.388450   12.714400    6.202980
  H     13.985790   13.767650    2.609710
  H     14.455700   10.803950    1.949340
  H     17.825500   12.308850   -1.112120
  H     18.243450   14.601390   -2.318590
  H     16.522300   18.496300   -0.838970
  H     13.086510   18.765620    1.414630
  H     14.211750   18.120310    2.651480
  H     12.991590   17.054070    1.927860
  H      6.009150    2.121760    4.304320

 Total Charge           Charge          ....    0
 Multiplicity           Mult            ....    1
 Number of Electrons    NEL             ....  324
 Basis Dimension        Dim             ....  714

ORBITAL ENERGIES
----------------

  NO   OCC          E(Eh)            E(eV)
   0   2.0000     -88.970199     -2421.0022
   1   2.0000     -88.962120     -2420.7824
   2   2.0000     -88.957720     -2420.6626
   3   2.0000     -19.293886      -525.0133
   4   2.0000     -19.292278      -524.9696
   5   2.0000     -19.260452      -524.1036
   6   2.0000     -19.254486      -523.9412
   7   2.0000     -19.209927      -522.7287
   8   2.0000     -19.204195      -522.5727
   9   2.0000     -19.194941      -522.3209
  10   2.0000     -14.397790      -391.7838
  11   2.0000     -14.397765      -391.7831
  12   2.0000     -10.402854      -283.0760
  13   2.0000     -10.393807      -282.8299
  14   2.0000     -10.356432      -281.8129
  15   2.0000     -10.355797      -281.7956
  16   2.0000     -10.352004      -281.6924
  17   2.0000     -10.333286      -281.1830
  18   2.0000     -10.327344      -281.0213
  19   2.0000     -10.323452      -280.9154
  20   2.0000     -10.317551      -280.7548
  21   2.0000     -10.309800      -280.5439
  22   2.0000     -10.308918      -280.5199
  23   2.0000     -10.308684      -280.5136
  24   2.0000     -10.303531      -280.3733
  25   2.0000     -10.302308      -280.3401
  26   2.0000     -10.302091      -280.3341
  27   2.0000     -10.300764      -280.2980
  28   2.0000     -10.294101      -280.1167
  29   2.0000     -10.293321      -280.0955
  30   2.0000     -10.292540      -280.0742
  31   2.0000     -10.291829      -280.0549
  32   2.0000     -10.289264      -279.9851
  33   2.0000     -10.287731      -279.9434
  34   2.0000     -10.284894      -279.8662
  35   2.0000     -10.283902      -279.8392
  36   2.0000     -10.283017      -279.8151
  37   2.0000     -10.281341      -279.7695
  38   2.0000     -10.281181      -279.7651
  39   2.0000     -10.280319      -279.7417
  40   2.0000     -10.277041      -279.6525
  41   2.0000     -10.273392      -279.5532
  42   2.0000     -10.271792      -279.5097
  43   2.0000      -8.066519      -219.5011
  44   2.0000      -8.058187      -219.2744
  45   2.0000      -8.053541      -219.1480
  46   2.0000      -6.035633      -164.2379
  47   2.0000      -6.031231      -164.1182
  48   2.0000      -6.029142      -164.0613
  49   2.0000      -6.027247      -164.0097
  50   2.0000      -6.023065      -163.8959
  51   2.0000      -6.022991      -163.8939
  52   2.0000      -6.020821      -163.8349
  53   2.0000      -6.018600      -163.7744
  54   2.0000      -6.015460      -163.6890
  55   2.0000      -1.226181       -33.3661
  56   2.0000      -1.222521       -33.2665
  57   2.0000      -1.192118       -32.4392
  58   2.0000      -1.184616       -32.2350
  59   2.0000      -1.122127       -30.5346
  60   2.0000      -1.097528       -29.8652
  61   2.0000      -1.088835       -29.6287
  62   2.0000      -1.006462       -27.3872
  63   2.0000      -1.005109       -27.3504
  64   2.0000      -0.996451       -27.1148
  65   2.0000      -0.996128       -27.1060
  66   2.0000      -0.987327       -26.8665
  67   2.0000      -0.936806       -25.4918
  68   2.0000      -0.915634       -24.9157
  69   2.0000      -0.912292       -24.8247
  70   2.0000      -0.889530       -24.2054
  71   2.0000      -0.878396       -23.9024
  72   2.0000      -0.864239       -23.5171
  73   2.0000      -0.858835       -23.3701
  74   2.0000      -0.844160       -22.9708
  75   2.0000      -0.835733       -22.7415
  76   2.0000      -0.812776       -22.1168
  77   2.0000      -0.801639       -21.8137
  78   2.0000      -0.800945       -21.7948
  79   2.0000      -0.792721       -21.5710
  80   2.0000      -0.779139       -21.2014
  81   2.0000      -0.750682       -20.4271
  82   2.0000      -0.737153       -20.0590
  83   2.0000      -0.723723       -19.6935
  84   2.0000      -0.718156       -19.5420
  85   2.0000      -0.715202       -19.4616
  86   2.0000      -0.694058       -18.8863
  87   2.0000      -0.691698       -18.8221
  88   2.0000      -0.676998       -18.4220
  89   2.0000      -0.666575       -18.1384
  90   2.0000      -0.659882       -17.9563
  91   2.0000      -0.654326       -17.8051
  92   2.0000      -0.638717       -17.3804
  93   2.0000      -0.633556       -17.2399
  94   2.0000      -0.629724       -17.1357
  95   2.0000      -0.625706       -17.0263
  96   2.0000      -0.618118       -16.8199
  97   2.0000      -0.616783       -16.7835
  98   2.0000      -0.611242       -16.6327
  99   2.0000      -0.609829       -16.5943
 100   2.0000      -0.592765       -16.1300
 101   2.0000      -0.582005       -15.8372
 102   2.0000      -0.570997       -15.5376
 103   2.0000      -0.569302       -15.4915
 104   2.0000      -0.567313       -15.4374
 105   2.0000      -0.564855       -15.3705
 106   2.0000      -0.559948       -15.2370
 107   2.0000      -0.555798       -15.1240
 108   2.0000      -0.553262       -15.0550
 109   2.0000      -0.543273       -14.7832
 110   2.0000      -0.539661       -14.6849
 111   2.0000      -0.538278       -14.6473
 112   2.0000      -0.527732       -14.3603
 113   2.0000      -0.521637       -14.1945
 114   2.0000      -0.516102       -14.0438
 115   2.0000      -0.515697       -14.0328
 116   2.0000      -0.511373       -13.9152
 117   2.0000      -0.505464       -13.7544
 118   2.0000      -0.499737       -13.5985
 119   2.0000      -0.498378       -13.5615
 120   2.0000      -0.493944       -13.4409
 121   2.0000      -0.492167       -13.3925
 122   2.0000      -0.490482       -13.3467
 123   2.0000      -0.486385       -13.2352
 124   2.0000      -0.478565       -13.0224
 125   2.0000      -0.478097       -13.0097
 126   2.0000      -0.475200       -12.9309
 127   2.0000      -0.469903       -12.7867
 128   2.0000      -0.467881       -12.7317
 129   2.0000      -0.466520       -12.6947
 130   2.0000      -0.461683       -12.5630
 131   2.0000      -0.460190       -12.5224
 132   2.0000      -0.453420       -12.3382
 133   2.0000      -0.451905       -12.2970
 134   2.0000      -0.448537       -12.2053
 135   2.0000      -0.443870       -12.0783
 136   2.0000      -0.438818       -11.9408
 137   2.0000      -0.433112       -11.7856
 138   2.0000      -0.432326       -11.7642
 139   2.0000      -0.421974       -11.4825
 140   2.0000      -0.419241       -11.4081
 141   2.0000      -0.416870       -11.3436
 142   2.0000      -0.408653       -11.1200
 143   2.0000      -0.404136       -10.9971
 144   2.0000      -0.390829       -10.6350
 145   2.0000      -0.389204       -10.5908
 146   2.0000      -0.378288       -10.2937
 147   2.0000      -0.372718       -10.1422
 148   2.0000      -0.367966       -10.0129
 149   2.0000      -0.361237        -9.8298
 150   2.0000      -0.359745        -9.7891
 151   2.0000      -0.358266        -9.7489
 152   2.0000      -0.351925        -9.5764
 153   2.0000      -0.348626        -9.4866
 154   2.0000      -0.326592        -8.8870
 155   2.0000      -0.326090        -8.8733
 156   2.0000      -0.325066        -8.8455
 157   2.0000      -0.322039        -8.7631
 158   2.0000      -0.309549        -8.4233
 159   2.0000      -0.285834        -7.7779
 160   2.0000      -0.257255        -7.0003
 161   2.0000      -0.233463        -6.3529
 162   0.0000      -0.073415        -1.9977
 163   0.0000      -0.036289        -0.9875
 164   0.0000      -0.027008        -0.7349
 165   0.0000      -0.003872        -0.1054
 166   0.0000       0.001445         0.0393

MULLIKEN ATOMIC CHARGES
-----------------------
   0 C :    0.190888
   1 O :   -0.302913
   2 C :    0.188966
   3 O :   -0.205597
   4 C :   -0.007364
   5 C :   -0.083498
   6 S :    0.148548
   7 C :   -0.098733
   8 C :    0.074688
   9 C :   -0.020358
  10 C :    0.106885
  11 N :   -0.086310
  12 C :   -0.021784
  13 C :    0.156168
  14 C :    0.005259
  15 C :    0.007789
  16 C :   -0.044055
  17 C :   -0.020896
  18 C :    0.102774
  19 C :    0.012336
  20 C :   -0.121912
  21 S :    0.120348
  22 C :   -0.139937
  23 C :    0.051000
  24 C :   -0.023219
  25 C :    0.091361
  26 N :   -0.069966
  27 C :   -0.054095
  28 C :    0.132853
  29 C :    0.127789
  30 C :   -0.147388
  31 S :    0.142457
  32 C :   -0.099505
  33 C :    0.032901
  34 C :    0.167958
  35 O :   -0.199486
  36 O :   -0.300843
  37 C :    0.189987
  38 O :   -0.181234
  39 C :    0.154808
  40 O :   -0.130219
  41 O :   -0.192088
  42 C :    0.029489
  43 H :    0.032580
  44 H :    0.033002
  45 H :    0.032267
  46 H :    0.039752
  47 H :    0.009198
  48 H :    0.000818
  49 H :   -0.001539
  50 H :   -0.007533
  51 H :    0.007177
  52 H :   -0.011340
  53 H :    0.033282
  54 H :    0.008601
  55 H :   -0.003414
  56 H :   -0.009304
  57 H :    0.025527
  58 H :    0.034817
  59 H :    0.033752
  60 H :    0.031993
  61 H :    0.031738
  62 H :   -0.005227
Sum of atomic charges:   -0.0000000

LOEWDIN ATOMIC CHARGES
----------------------
   0 C :    0.081327
   1 O :   -0.094732
   2 C :    0.086555
   3 O :   -0.180511
   4 C :   -0.111801
   5 C :   -0.145095
   6 S :    0.465805
   7 C :   -0.177764
   8 C :   -0.000500
   9 C :   -0.048836
  10 C :    0.045605
  11 N :   -0.106365
  12 C :   -0.026717
  13 C :    0.005517
  14 C :   -0.024642
  15 C :   -0.019550
  16 C :   -0.058052
  17 C :    0.019415
  18 C :   -0.050266
  19 C :   -0.099476
  20 C :   -0.128849
  21 S :    0.427370
  22 C :   -0.162878
  23 C :   -0.020938
  24 C :   -0.037167
  25 C :    0.036876
  26 N :   -0.102057
  27 C :   -0.036246
  28 C :    0.012906
  29 C :   -0.059014
  30 C :   -0.182840
  31 S :    0.470205
  32 C :   -0.155951
  33 C :   -0.095336
  34 C :    0.085738
  35 O :   -0.166480
  36 O :   -0.092271
  37 C :    0.079894
  38 O :    0.031267
  39 C :    0.087542
  40 O :   -0.125622
  41 O :    0.012720
  42 C :   -0.029107
  43 H :    0.025190
  44 H :    0.023477
  45 H :    0.023402
  46 H :    0.033420
  47 H :    0.037717
  48 H :    0.036636
  49 H :    0.024245
  50 H :    0.035472
  51 H :    0.036364
  52 H :    0.025720
  53 H :    0.033209
  54 H :    0.036272
  55 H :    0.038384
  56 H :    0.021062
  57 H :    0.025428
  58 H :    0.029707
  59 H :    0.025789
  60 H :    0.022872
  61 H :    0.022996
  62 H :    0.032957

  Mayer bond orders larger than 0.100000
B(  0-C ,  1-O ) :   0.9243 B(  0-C , 43-H ) :   0.9813 B(  0-C , 44-H ) :   0.9758
B(  0-C , 45-H ) :   0.9767 B(  1-O ,  2-C ) :   1.2393 B(  2-C ,  3-O ) :   2.1380
B(  2-C ,  4-C ) :   0.9389 B(  4-C ,  5-C ) :   1.5312 B(  4-C , 42-C ) :   1.2453
B(  5-C ,  6-S ) :   1.2076 B(  5-C , 46-H ) :   0.9685 B(  6-S ,  7-C ) :   1.1255
B(  7-C ,  8-C ) :   1.0877 B(  7-C , 42-C ) :   1.5070 B(  8-C ,  9-C ) :   1.7212
B(  8-C , 47-H ) :   0.9670 B(  9-C , 10-C ) :   1.1143 B(  9-C , 48-H ) :   0.9547
B( 10-C , 11-N ) :   1.6731 B( 10-C , 41-O ) :   1.1750 B( 11-N , 12-C ) :   1.3850
B( 12-C , 13-C ) :   1.4401 B( 12-C , 49-H ) :   0.9953 B( 13-C , 14-C ) :   1.1442
B( 13-C , 41-O ) :   1.1203 B( 14-C , 15-C ) :   1.6293 B( 14-C , 50-H ) :   0.9603
B( 15-C , 16-C ) :   1.1098 B( 15-C , 51-H ) :   0.9803 B( 16-C , 17-C ) :   1.6152
B( 16-C , 39-C ) :   0.9398 B( 17-C , 18-C ) :   1.0581 B( 17-C , 52-H ) :   1.0028
B( 18-C , 19-C ) :   1.2090 B( 18-C , 22-C ) :   1.4675 B( 19-C , 20-C ) :   1.5926
B( 19-C , 39-C ) :   0.9083 B( 20-C , 21-S ) :   1.1497 B( 20-C , 53-H ) :   0.9701
B( 21-S , 22-C ) :   1.0928 B( 22-C , 23-C ) :   1.1143 B( 23-C , 24-C ) :   1.6694
B( 23-C , 54-H ) :   0.9566 B( 24-C , 25-C ) :   1.1287 B( 24-C , 55-H ) :   0.9615
B( 25-C , 26-N ) :   1.6671 B( 25-C , 28-C ) :   0.1059 B( 25-C , 38-O ) :   1.1822
B( 26-N , 27-C ) :   1.3801 B( 27-C , 28-C ) :   1.5093 B( 27-C , 56-H ) :   0.9946
B( 28-C , 29-C ) :   1.0254 B( 28-C , 38-O ) :   1.1464 B( 29-C , 30-C ) :   1.5508
B( 29-C , 33-C ) :   1.2500 B( 30-C , 31-S ) :   1.1701 B( 30-C , 57-H ) :   0.9603
B( 31-S , 32-C ) :   1.2032 B( 32-C , 33-C ) :   1.5459 B( 32-C , 58-H ) :   0.9685
B( 33-C , 34-C ) :   0.9151 B( 34-C , 35-O ) :   2.0829 B( 34-C , 36-O ) :   1.2285
B( 36-O , 37-C ) :   0.9262 B( 37-C , 59-H ) :   0.9807 B( 37-C , 60-H ) :   0.9736
B( 37-C , 61-H ) :   0.9782 B( 39-C , 40-O ) :   2.2625 B( 42-C , 62-H ) :   0.9969

-----------------------------------------------------------------------------
         ABSORPTION SPECTRUM VIA TRANSITION ELECTRIC DIPOLE MOMENTS
-----------------------------------------------------------------------------
State   Energy  Wavelength   fosc         T2         TX        TY        TZ
        (cm-1)    (nm)                  (au**2)     (au)      (au)      (au)
-----------------------------------------------------------------------------
   0   18886.9    529.5   1.165348025  20.31287   2.24782   3.85869  -0.60884
   1   24707.9    404.7   0.210816077   2.80895   0.95166  -0.09045  -1.37663
   2   26962.7    370.9   0.877004592  10.70812  -1.85923  -2.66106   0.41245
   3   28588.8    349.8   0.000159404   0.00184  -0.01875   0.01153   0.03676
   4   28996.5    344.9   0.136952570   1.55489  -0.15731   0.47854   1.14068
   5   30288.6    330.2   0.018922995   0.20568  -0.30843  -0.27971  -0.17975
   6   34744.1    287.8   0.066573979   0.63081  -0.59103  -0.32242   0.42135
   7   35162.9    284.4   0.324540694   3.03850  -1.07535  -0.02657   1.37165
   8   36055.0    277.4   0.034307141   0.31325   0.04387   0.47027   0.30028
   9   36170.1    276.5   0.066749883   0.60754  -0.59842  -0.16148   0.47262
  10   36412.1    274.6   0.245259643   2.21746  -1.02014  -0.97439   0.47680
  11   38694.9    258.4   0.058594634   0.49852  -0.23584   0.50212   0.43678
  12   39223.6    254.9   0.016057219   0.13477   0.25440  -0.06939  -0.25541

FINAL SINGLE POINT ENERGY     -3021.343586514069

DIPOLE MOMENT
-------------
                                X             Y             Z
Electronic contribution:     15.80699       6.62242      -6.15708
Nuclear contribution   :    -15.25637      -4.34806       5.23172
                        -----------------------------------------
Total Dipole Moment    :      0.55063       2.27435      -0.92536
                        -----------------------------------------
Magnitude (a.u.)       :      2.51638
Magnitude (Debye)      :      6.39613

Rotational constants in cm-1:     0.005060     0.000462     0.000433
Rotational constants in MHz :   151.700464    13.838087    12.992290

                             ****ORCA TERMINATED NORMALLY****
TOTAL RUN TIME: 0 days 0 hours 3 minutes 31 seconds 166 msec
