                         Program Version 4.2.0 -  RELEASE  -
|  1> # ORCA input file
|  2> # SCF done       -120.187612740564          0.000872246263
|  3> ! CAM-B3LYP def2-SVP def2/J RIJCOSX Grid4 TightSCF
|  4> %maxcore 5000
|  5> %tddft
|  6>     Mode sTDDFT
|  7>     Ethresh 5.0
|  8>     maxcore 5000
|  9> end
| 10>
| 11> %pal
| 12>   nprocs 6
| 13>   end
| 14> * xyz 0 1
| 15>    C       -7.61703         1.96412         6.56435
| 16>    S       -8.57080         3.35936         6.95551
| 17>    C       -8.76897         3.77413         5.28759
| 18>    C       -8.13420         2.88291         4.49116
| 19>    C       -7.47055         1.84047         5.22042
| 20>    C       -6.83544         0.96997         4.27200
| 21>    C       -7.06516         1.41555         2.99911
| 22>    C       -7.91283         2.66181         3.04990
| 23>    O       -8.32152         3.32802         2.13143
| 24>    C       -6.56624         0.80231         1.81648
| 25>    S       -5.57292        -0.65793         1.98279
| 26>    C       -5.33260        -0.78277         0.27846
| 27>    C       -5.96462         0.21531        -0.37675
| 28>    C       -6.67482         1.12336         0.48055
| 29>    C       -7.28975         2.11438        -0.34451
| 30>    C       -6.99226         1.88056        -1.66519
| 31>    C       -6.12962         0.65959        -1.77576
| 32>    O       -5.66779         0.15208        -2.77177
| 33>    C       -7.42334         2.67728        -2.75726
| 34>    C       -7.07303         2.46100        -4.05060
| 35>    C       -7.47845         3.26957        -5.13387
| 36>    S       -8.56198         4.65344        -4.94441
| 37>    C       -8.48815         5.03528        -6.62974
| 38>    C       -7.69299         4.16986        -7.29886
| 39>    C       -7.11616         3.15912        -6.46185
| 40>    C       -6.29344         2.31405        -7.26120
| 41>    C       -6.31718         2.74734        -8.56478
| 42>    C       -7.20704         3.95163        -8.67650
| 43>    O       -7.44983         4.58337        -9.67698
| 44>    C       -5.65041         2.25101        -9.71466
| 45>    C       -4.84770         1.15793        -9.74360
| 46>    C       -4.16480         0.67636       -10.88761
| 47>    S       -3.25731        -0.83327       -10.73901
| 48>    C       -2.74266        -0.77964       -12.38607
| 49>    C       -3.22631         0.31860       -13.00969
| 50>    C       -4.03480         1.15782       -12.17498
| 51>    C       -4.45253         2.27971       -12.96159
| 52>    C       -3.95290         2.17497       -14.22929
| 53>    C       -3.14480         0.92726       -14.35722
| 54>    O       -2.55412         0.50252       -15.32378
| 55>    C       -4.17586         3.13994       -15.28331
| 56>    C       -3.68568         2.97911       -16.58823
| 57>    N       -3.90270         3.88012       -17.52797
| 58>    C       -4.60899         4.95173       -17.19802
| 59>    C       -5.10429         5.11916       -15.90977
| 60>    N       -4.89003         4.22725       -14.96341
| 61>    H       -7.24037         1.34651         7.35458
| 62>    H       -9.33619         4.64308         5.01930
| 63>    H       -6.26068         0.09859         4.53234
| 64>    H       -4.74003        -1.58535        -0.11503
| 65>    H       -7.89218         2.92330         0.02508
| 66>    H       -8.06329         3.51884        -2.51570
| 67>    H       -6.42864         1.62825        -4.29579
| 68>    H       -9.03966         5.87633        -7.00204
| 69>    H       -5.74112         1.47300        -6.88200
| 70>    H       -5.82769         2.81788       -10.61718
| 71>    H       -4.70260         0.58231        -8.83928
| 72>    H       -2.11866        -1.56004       -12.77519
| 73>    H       -5.06254         3.10025       -12.63143
| 74>    H       -3.11089         2.11050       -16.87298
| 75>    H       -4.77478         5.68019       -17.97940
| 76>    H       -5.68347         5.98758       -15.62530
| 77> *
| 78>
| 79>                          ****END OF INPUT****

CARTESIAN COORDINATES (ANGSTROEM)
---------------------------------
  C     -7.617030    1.964120    6.564350
  S     -8.570800    3.359360    6.955510
  C     -8.768970    3.774130    5.287590
  C     -8.134200    2.882910    4.491160
  C     -7.470550    1.840470    5.220420
  C     -6.835440    0.969970    4.272000
  C     -7.065160    1.415550    2.999110
  C     -7.912830    2.661810    3.049900
  O     -8.321520    3.328020    2.131430
  C     -6.566240    0.802310    1.816480
  S     -5.572920   -0.657930    1.982790
  C     -5.332600   -0.782770    0.278460
  C     -5.964620    0.215310   -0.376750
  C     -6.674820    1.123360    0.480550
  C     -7.289750    2.114380   -0.344510
  C     -6.992260    1.880560   -1.665190
  C     -6.129620    0.659590   -1.775760
  O     -5.667790    0.152080   -2.771770
  C     -7.423340    2.677280   -2.757260
  C     -7.073030    2.461000   -4.050600
  C     -7.478450    3.269570   -5.133870
  S     -8.561980    4.653440   -4.944410
  C     -8.488150    5.035280   -6.629740
  C     -7.692990    4.169860   -7.298860
  C     -7.116160    3.159120   -6.461850
  C     -6.293440    2.314050   -7.261200
  C     -6.317180    2.747340   -8.564780
  C     -7.207040    3.951630   -8.676500
  O     -7.449830    4.583370   -9.676980
  C     -5.650410    2.251010   -9.714660
  C     -4.847700    1.157930   -9.743600
  C     -4.164800    0.676360  -10.887610
  S     -3.257310   -0.833270  -10.739010
  C     -2.742660   -0.779640  -12.386070
  C     -3.226310    0.318600  -13.009690
  C     -4.034800    1.157820  -12.174980
  C     -4.452530    2.279710  -12.961590
  C     -3.952900    2.174970  -14.229290
  C     -3.144800    0.927260  -14.357220
  O     -2.554120    0.502520  -15.323780
  C     -4.175860    3.139940  -15.283310
  C     -3.685680    2.979110  -16.588230
  N     -3.902700    3.880120  -17.527970
  C     -4.608990    4.951730  -17.198020
  C     -5.104290    5.119160  -15.909770
  N     -4.890030    4.227250  -14.963410
  H     -7.240370    1.346510    7.354580
  H     -9.336190    4.643080    5.019300
  H     -6.260680    0.098590    4.532340
  H     -4.740030   -1.585350   -0.115030
  H     -7.892180    2.923300    0.025080
  H     -8.063290    3.518840   -2.515700
  H     -6.428640    1.628250   -4.295790
  H     -9.039660    5.876330   -7.002040
  H     -5.741120    1.473000   -6.882000
  H     -5.827690    2.817880  -10.617180
  H     -4.702600    0.582310   -8.839280
  H     -2.118660   -1.560040  -12.775190
  H     -5.062540    3.100250  -12.631430
  H     -3.110890    2.110500  -16.872980
  H     -4.774780    5.680190  -17.979400
  H     -5.683470    5.987580  -15.625300

 Total Charge           Charge          ....    0
 Multiplicity           Mult            ....    1
 Number of Electrons    NEL             ....  342
 Basis Dimension        Dim             ....  740

ORBITAL ENERGIES
----------------

  NO   OCC          E(Eh)            E(eV)
   0   2.0000     -88.973214     -2421.0842
   1   2.0000     -88.965838     -2420.8835
   2   2.0000     -88.958172     -2420.6749
   3   2.0000     -88.957927     -2420.6683
   4   2.0000     -19.230141      -523.2787
   5   2.0000     -19.217434      -522.9330
   6   2.0000     -19.210530      -522.7451
   7   2.0000     -19.209021      -522.7040
   8   2.0000     -14.408393      -392.0723
   9   2.0000     -14.404755      -391.9733
  10   2.0000     -10.380777      -282.4753
  11   2.0000     -10.365602      -282.0624
  12   2.0000     -10.358163      -281.8600
  13   2.0000     -10.357526      -281.8426
  14   2.0000     -10.323167      -280.9077
  15   2.0000     -10.321395      -280.8594
  16   2.0000     -10.318656      -280.7849
  17   2.0000     -10.315564      -280.7008
  18   2.0000     -10.312335      -280.6129
  19   2.0000     -10.312231      -280.6101
  20   2.0000     -10.310799      -280.5711
  21   2.0000     -10.309778      -280.5433
  22   2.0000     -10.309512      -280.5361
  23   2.0000     -10.308470      -280.5077
  24   2.0000     -10.305663      -280.4313
  25   2.0000     -10.300384      -280.2877
  26   2.0000     -10.297326      -280.2045
  27   2.0000     -10.296362      -280.1783
  28   2.0000     -10.295776      -280.1623
  29   2.0000     -10.293158      -280.0911
  30   2.0000     -10.292978      -280.0862
  31   2.0000     -10.292056      -280.0611
  32   2.0000     -10.290475      -280.0181
  33   2.0000     -10.287318      -279.9322
  34   2.0000     -10.285779      -279.8903
  35   2.0000     -10.284364      -279.8518
  36   2.0000     -10.282696      -279.8064
  37   2.0000     -10.281946      -279.7860
  38   2.0000     -10.281789      -279.7817
  39   2.0000     -10.281209      -279.7659
  40   2.0000     -10.280417      -279.7444
  41   2.0000     -10.280321      -279.7418
  42   2.0000     -10.279094      -279.7084
  43   2.0000     -10.275815      -279.6191
  44   2.0000     -10.272539      -279.5300
  45   2.0000     -10.271043      -279.4893
  46   2.0000      -8.069246      -219.5753
  47   2.0000      -8.061450      -219.3632
  48   2.0000      -8.053853      -219.1565
  49   2.0000      -8.053794      -219.1549
  50   2.0000      -6.038786      -164.3237
  51   2.0000      -6.034059      -164.1951
  52   2.0000      -6.031342      -164.1212
  53   2.0000      -6.031098      -164.1145
  54   2.0000      -6.026549      -163.9907
  55   2.0000      -6.023367      -163.9041
  56   2.0000      -6.023295      -163.9022
  57   2.0000      -6.023236      -163.9006
  58   2.0000      -6.018928      -163.7834
  59   2.0000      -6.018907      -163.7828
  60   2.0000      -6.015731      -163.6964
  61   2.0000      -6.015688      -163.6952
  62   2.0000      -1.144865       -31.1534
  63   2.0000      -1.130246       -30.7555
  64   2.0000      -1.123040       -30.5595
  65   2.0000      -1.121988       -30.5308
  66   2.0000      -1.062191       -28.9037
  67   2.0000      -1.012116       -27.5411
  68   2.0000      -1.002030       -27.2666
  69   2.0000      -0.997629       -27.1469
  70   2.0000      -0.996111       -27.1056
  71   2.0000      -0.982195       -26.7269
  72   2.0000      -0.950967       -25.8771
  73   2.0000      -0.939222       -25.5575
  74   2.0000      -0.933234       -25.3946
  75   2.0000      -0.929259       -25.2864
  76   2.0000      -0.894601       -24.3433
  77   2.0000      -0.887117       -24.1397
  78   2.0000      -0.862925       -23.4814
  79   2.0000      -0.861668       -23.4472
  80   2.0000      -0.842808       -22.9340
  81   2.0000      -0.836862       -22.7722
  82   2.0000      -0.832727       -22.6597
  83   2.0000      -0.803696       -21.8697
  84   2.0000      -0.800328       -21.7780
  85   2.0000      -0.793120       -21.5819
  86   2.0000      -0.785902       -21.3855
  87   2.0000      -0.755180       -20.5495
  88   2.0000      -0.751109       -20.4387
  89   2.0000      -0.743731       -20.2379
  90   2.0000      -0.739031       -20.1100
  91   2.0000      -0.734726       -19.9929
  92   2.0000      -0.725446       -19.7404
  93   2.0000      -0.718911       -19.5626
  94   2.0000      -0.708455       -19.2781
  95   2.0000      -0.702548       -19.1173
  96   2.0000      -0.661762       -18.0075
  97   2.0000      -0.655517       -17.8375
  98   2.0000      -0.649961       -17.6863
  99   2.0000      -0.642741       -17.4899
 100   2.0000      -0.635409       -17.2903
 101   2.0000      -0.629610       -17.1326
 102   2.0000      -0.626745       -17.0546
 103   2.0000      -0.618869       -16.8403
 104   2.0000      -0.610237       -16.6054
 105   2.0000      -0.602471       -16.3941
 106   2.0000      -0.594236       -16.1700
 107   2.0000      -0.586364       -15.9558
 108   2.0000      -0.585104       -15.9215
 109   2.0000      -0.582547       -15.8519
 110   2.0000      -0.572040       -15.5660
 111   2.0000      -0.567147       -15.4329
 112   2.0000      -0.559741       -15.2313
 113   2.0000      -0.544563       -14.8183
 114   2.0000      -0.543599       -14.7921
 115   2.0000      -0.537689       -14.6312
 116   2.0000      -0.536300       -14.5935
 117   2.0000      -0.533013       -14.5040
 118   2.0000      -0.529011       -14.3951
 119   2.0000      -0.522538       -14.2190
 120   2.0000      -0.521048       -14.1784
 121   2.0000      -0.520073       -14.1519
 122   2.0000      -0.517951       -14.0942
 123   2.0000      -0.516568       -14.0565
 124   2.0000      -0.507947       -13.8219
 125   2.0000      -0.503628       -13.7044
 126   2.0000      -0.498305       -13.5596
 127   2.0000      -0.497680       -13.5426
 128   2.0000      -0.495161       -13.4740
 129   2.0000      -0.493188       -13.4203
 130   2.0000      -0.489401       -13.3173
 131   2.0000      -0.488298       -13.2873
 132   2.0000      -0.485879       -13.2214
 133   2.0000      -0.473839       -12.8938
 134   2.0000      -0.470472       -12.8022
 135   2.0000      -0.468388       -12.7455
 136   2.0000      -0.467035       -12.7087
 137   2.0000      -0.466965       -12.7068
 138   2.0000      -0.465968       -12.6796
 139   2.0000      -0.463504       -12.6126
 140   2.0000      -0.459892       -12.5143
 141   2.0000      -0.458967       -12.4891
 142   2.0000      -0.457561       -12.4509
 143   2.0000      -0.454321       -12.3627
 144   2.0000      -0.438225       -11.9247
 145   2.0000      -0.436354       -11.8738
 146   2.0000      -0.427788       -11.6407
 147   2.0000      -0.420435       -11.4406
 148   2.0000      -0.415203       -11.2982
 149   2.0000      -0.413405       -11.2493
 150   2.0000      -0.412100       -11.2138
 151   2.0000      -0.408794       -11.1239
 152   2.0000      -0.404742       -11.0136
 153   2.0000      -0.379407       -10.3242
 154   2.0000      -0.375363       -10.2141
 155   2.0000      -0.370938       -10.0937
 156   2.0000      -0.368753       -10.0343
 157   2.0000      -0.346789        -9.4366
 158   2.0000      -0.345503        -9.4016
 159   2.0000      -0.339682        -9.2432
 160   2.0000      -0.333829        -9.0839
 161   2.0000      -0.330169        -8.9844
 162   2.0000      -0.327025        -8.8988
 163   2.0000      -0.325247        -8.8504
 164   2.0000      -0.321722        -8.7545
 165   2.0000      -0.318386        -8.6637
 166   2.0000      -0.304604        -8.2887
 167   2.0000      -0.288250        -7.8437
 168   2.0000      -0.281696        -7.6653
 169   2.0000      -0.261613        -7.1188
 170   2.0000      -0.237090        -6.4515
 171   0.0000      -0.088997        -2.4217
 172   0.0000      -0.070636        -1.9221
 173   0.0000      -0.051072        -1.3897
 174   0.0000      -0.042981        -1.1696
 175   0.0000      -0.026786        -0.7289

MULLIKEN ATOMIC CHARGES
-----------------------
   0 C :   -0.140196
   1 S :    0.116570
   2 C :   -0.118393
   3 C :   -0.001531
   4 C :    0.122064
   5 C :   -0.029375
   6 C :   -0.034113
   7 C :    0.183864
   8 O :   -0.127382
   9 C :   -0.132862
  10 S :    0.097914
  11 C :   -0.108882
  12 C :    0.012242
  13 C :    0.101055
  14 C :   -0.037864
  15 C :    0.005103
  16 C :    0.166083
  17 O :   -0.140216
  18 C :   -0.038407
  19 C :   -0.013825
  20 C :   -0.085643
  21 S :    0.105601
  22 C :   -0.114979
  23 C :    0.024882
  24 C :    0.086242
  25 C :   -0.010446
  26 C :   -0.047777
  27 C :    0.154195
  28 O :   -0.134133
  29 C :    0.012638
  30 C :    0.067168
  31 C :   -0.137528
  32 S :    0.115560
  33 C :   -0.120092
  34 C :    0.009258
  35 C :    0.111119
  36 C :   -0.031826
  37 C :    0.011593
  38 C :    0.158157
  39 O :   -0.136326
  40 C :   -0.075800
  41 C :    0.007726
  42 N :   -0.042456
  43 C :    0.018296
  44 C :    0.034237
  45 N :   -0.050984
  46 H :    0.024821
  47 H :    0.037771
  48 H :    0.004570
  49 H :    0.035270
  50 H :    0.010966
  51 H :   -0.013387
  52 H :    0.013015
  53 H :    0.034321
  54 H :   -0.001339
  55 H :   -0.016789
  56 H :   -0.023844
  57 H :    0.033606
  58 H :    0.018088
  59 H :    0.016643
  60 H :    0.008939
  61 H :    0.006818
Sum of atomic charges:   -0.0000000

LOEWDIN ATOMIC CHARGES
----------------------
   0 C :   -0.170626
   1 S :    0.441011
   2 C :   -0.125952
   3 C :   -0.101630
   4 C :   -0.064272
   5 C :    0.023419
   6 C :   -0.076008
   7 C :    0.100568
   8 O :   -0.118627
   9 C :   -0.153777
  10 S :    0.417856
  11 C :   -0.121511
  12 C :   -0.097328
  13 C :   -0.044175
  14 C :    0.033831
  15 C :   -0.061770
  16 C :    0.093116
  17 O :   -0.130610
  18 C :   -0.024462
  19 C :   -0.027096
  20 C :   -0.152043
  21 S :    0.419973
  22 C :   -0.121240
  23 C :   -0.100292
  24 C :   -0.054446
  25 C :    0.034279
  26 C :   -0.065060
  27 C :    0.086587
  28 O :   -0.128178
  29 C :   -0.005791
  30 C :   -0.033797
  31 C :   -0.148063
  32 S :    0.424996
  33 C :   -0.129942
  34 C :   -0.093563
  35 C :   -0.060733
  36 C :    0.061663
  37 C :   -0.074762
  38 C :    0.088448
  39 O :   -0.128173
  40 C :   -0.011315
  41 C :    0.011405
  42 N :   -0.043731
  43 C :   -0.006165
  44 C :   -0.000480
  45 N :   -0.050860
  46 H :    0.027590
  47 H :    0.034719
  48 H :    0.027970
  49 H :    0.034904
  50 H :    0.031333
  51 H :    0.025270
  52 H :    0.037502
  53 H :    0.033780
  54 H :    0.031443
  55 H :    0.033614
  56 H :    0.026429
  57 H :    0.033695
  58 H :    0.036243
  59 H :    0.026190
  60 H :    0.023796
  61 H :    0.024851

  Mayer bond orders larger than 0.100000
B(  0-C ,  1-S ) :   1.1335 B(  0-C ,  4-C ) :   1.5465 B(  0-C , 46-H ) :   0.9681
B(  1-S ,  2-C ) :   1.1690 B(  2-C ,  3-C ) :   1.5869 B(  2-C , 47-H ) :   0.9700
B(  3-C ,  4-C ) :   1.2207 B(  3-C ,  7-C ) :   0.9446 B(  4-C ,  5-C ) :   1.0194
B(  5-C ,  6-C ) :   1.6253 B(  5-C , 48-H ) :   1.0075 B(  6-C ,  7-C ) :   0.9290
B(  6-C ,  9-C ) :   1.1250 B(  7-C ,  8-O ) :   2.2213 B(  9-C , 10-S ) :   1.0936
B(  9-C , 13-C ) :   1.4957 B( 10-S , 11-C ) :   1.1380 B( 11-C , 12-C ) :   1.6093
B( 11-C , 49-H ) :   0.9698 B( 12-C , 13-C ) :   1.1813 B( 12-C , 16-C ) :   0.9243
B( 13-C , 14-C ) :   1.0692 B( 14-C , 15-C ) :   1.5276 B( 14-C , 50-H ) :   1.0141
B( 15-C , 16-C ) :   0.9420 B( 15-C , 18-C ) :   1.1393 B( 16-C , 17-O ) :   2.2039
B( 18-C , 19-C ) :   1.6260 B( 18-C , 51-H ) :   0.9799 B( 19-C , 20-C ) :   1.1487
B( 19-C , 52-H ) :   0.9657 B( 20-C , 21-S ) :   1.0711 B( 20-C , 24-C ) :   1.4486
B( 21-S , 22-C ) :   1.1440 B( 22-C , 23-C ) :   1.6053 B( 22-C , 53-H ) :   0.9691
B( 23-C , 24-C ) :   1.1902 B( 23-C , 27-C ) :   0.9100 B( 24-C , 25-C ) :   1.0807
B( 25-C , 26-C ) :   1.5870 B( 25-C , 54-H ) :   1.0040 B( 26-C , 27-C ) :   0.9412
B( 26-C , 29-C ) :   1.1436 B( 27-C , 28-O ) :   2.2427 B( 29-C , 30-C ) :   1.6358
B( 29-C , 55-H ) :   0.9711 B( 30-C , 31-C ) :   1.1352 B( 30-C , 56-H ) :   0.9573
B( 31-C , 32-S ) :   1.1010 B( 31-C , 35-C ) :   1.4520 B( 32-S , 33-C ) :   1.1402
B( 33-C , 34-C ) :   1.6004 B( 33-C , 57-H ) :   0.9691 B( 34-C , 35-C ) :   1.2176
B( 34-C , 38-C ) :   0.9257 B( 35-C , 36-C ) :   1.0148 B( 36-C , 37-C ) :   1.6502
B( 36-C , 58-H ) :   1.0116 B( 37-C , 38-C ) :   0.9640 B( 37-C , 40-C ) :   1.0079
B( 38-C , 39-O ) :   2.2103 B( 40-C , 41-C ) :   1.3535 B( 40-C , 45-N ) :   1.5623
B( 41-C , 42-N ) :   1.5627 B( 41-C , 59-H ) :   0.9613 B( 42-N , 43-C ) :   1.5440
B( 43-C , 44-C ) :   1.3442 B( 43-C , 60-H ) :   0.9781 B( 44-C , 45-N ) :   1.5584
B( 44-C , 61-H ) :   0.9761

-----------------------------------------------------------------------------
         ABSORPTION SPECTRUM VIA TRANSITION ELECTRIC DIPOLE MOMENTS
-----------------------------------------------------------------------------
State   Energy  Wavelength   fosc         T2         TX        TY        TZ
        (cm-1)    (nm)                  (au**2)     (au)      (au)      (au)
-----------------------------------------------------------------------------
   0   17599.4    568.2   1.807127283  33.80394  -1.07184  -0.11945   5.71322
   1   21219.0    471.3   0.043709452   0.67815   0.70469  -0.29084  -0.31141
   2   23519.3    425.2   0.066829291   0.93545  -0.07800   0.12169  -0.95632
   3   23848.3    419.3   0.006288766   0.08681  -0.23490   0.08267   0.15747
   4   24382.8    410.1   0.054140875   0.73100  -0.08872   0.53828  -0.65832
   5   25640.9    390.0   0.038274312   0.49142  -0.25337   0.30300   0.57915
   6   26496.2    377.4   0.149429634   1.85664   0.76698  -1.11153  -0.18136
   7   27858.6    359.0   0.340740196   4.02661   0.12433   0.24465  -1.98779
   8   28628.7    349.3   0.001031152   0.01186   0.09018   0.05043   0.03436
   9   28720.0    348.2   0.000034845   0.00040  -0.00551  -0.00048   0.01920
  10   29168.4    342.8   0.000205344   0.00232  -0.00236  -0.01291   0.04632
  11   30083.9    332.4   0.193595755   2.11854  -0.46777   0.12865   1.37229
  12   30214.8    331.0   0.001705286   0.01858  -0.12570  -0.05062  -0.01478
  13   30705.6    325.7   0.000064287   0.00069  -0.00833   0.00106  -0.02487
  14   30866.9    324.0   0.177572032   1.89390   0.08951  -0.10241   1.36945
  15   31318.6    319.3   0.049770034   0.52317  -0.24156   0.31757  -0.60329
  16   32137.9    311.2   0.043330898   0.44387  -0.12132  -0.01991   0.65479
  17   33130.2    301.8   0.209541979   2.08220  -0.31435  -0.04752   1.40752
  18   33581.1    297.8   0.047558990   0.46624  -0.40308   0.13768   0.53368
  19   33824.8    295.6   0.002923558   0.02845   0.02236  -0.05191  -0.15893
  20   34641.8    288.7   0.018288815   0.17380   0.13581   0.02002  -0.39365
  21   35685.5    280.2   0.027032708   0.24939  -0.12942   0.05867  -0.47874
  22   36227.0    276.0   0.020477096   0.18609   0.21578  -0.36593   0.07494
  23   36991.9    270.3   0.083268209   0.74105   0.06246  -0.27180   0.81442
  24   37183.0    268.9   0.000178317   0.00158   0.03778  -0.00347   0.01180
  25   37226.6    268.6   0.124878988   1.10436  -0.30218   0.39632  -0.92519
  26   37275.3    268.3   0.024086721   0.21273  -0.12084  -0.25331   0.36601
  27   37449.6    267.0   0.064503820   0.56704  -0.45108   0.59524  -0.09621
  28   38206.7    261.7   0.039273794   0.33841  -0.15742   0.21837   0.51570
  29   39145.4    255.5   0.454897528   3.82568   0.93614  -1.69480   0.27746
  30   39326.9    254.3   0.210881748   1.76533   0.69811  -0.72768  -0.86513
  31   39624.5    252.4   0.001779232   0.01478   0.01161   0.11948   0.01930
  32   39819.8    251.1   0.116282690   0.96137  -0.27615   0.17223   0.92491
  33   40324.2    248.0   0.017270209   0.14100  -0.21057   0.07910   0.30066

FINAL SINGLE POINT ENERGY     -3381.800276660546

DIPOLE MOMENT
-------------
                                X             Y             Z
Electronic contribution:     -1.49815      -4.53953      17.93579
Nuclear contribution   :      0.89392       4.20376     -12.99018
                        -----------------------------------------
Total Dipole Moment    :     -0.60423      -0.33577       4.94561
                        -----------------------------------------
Magnitude (a.u.)       :      4.99369
Magnitude (Debye)      :     12.69294

Rotational constants in cm-1:     0.005361     0.000440     0.000408
Rotational constants in MHz :   160.728446    13.177558    12.244825

                             ****ORCA TERMINATED NORMALLY****
TOTAL RUN TIME: 0 days 0 hours 6 minutes 2 seconds 50 msec
