                         Program Version 4.2.0 -  RELEASE  -
|  1> # ORCA input file
|  2> # SCF done       -133.808515588769          0.000798049926
|  3> ! CAM-B3LYP def2-SVP def2/J RIJCOSX Grid4 TightSCF
|  4> %maxcore 5000
|  5> %tddft
|  6>     Mode sTDDFT
|  7>     Ethresh 5.0
|  8>     maxcore 5000
|  9> end
| 10>
| 11> %pal
| 12>   nprocs 6
| 13>   end
| 14> * xyz 0 2
| 15>    N       -1.30424         2.00158         6.21736
| 16>    C        0.00925         1.43484         5.95238
| 17>    C        0.46719         0.62572         7.16554
| 18>    C        1.78823        -0.07026         6.85701
| 19>    C        2.78401         0.90988         6.32042
| 20>    C        4.13049         0.69839         6.28356
| 21>    S        4.98246         2.00769         5.58731
| 22>    C        3.49691         2.89956         5.34356
| 23>    C        3.62169         4.19664         4.76198
| 24>    C        2.66682         5.14230         4.65776
| 25>    C        2.85043         6.44304         4.06597
| 26>    C        4.05587         6.93241         3.52481
| 27>    C        4.07131         8.20807         3.01671
| 28>    C        2.86887         8.93831         3.07671
| 29>    C        2.69368        10.29530         2.62513
| 30>    S        1.12520        10.99810         2.71176
| 31>    C        1.72629        12.49626         2.09166
| 32>    C        0.76328        13.59335         1.91514
| 33>    O       -0.40855        13.46843         2.14172
| 34>    O        1.26612        14.76506         1.47987
| 35>    C        3.07728        12.45434         1.82841
| 36>    C        3.63020        11.19978         2.13272
| 37>    O        4.91151        10.77888         1.98132
| 38>    C        6.00894        11.50705         1.85669
| 39>    S        6.16357        13.21863         1.63698
| 40>    C        7.90552        13.16213         1.60075
| 41>    C        8.71758        14.32753         1.45018
| 42>    C        8.29762        15.64669         1.30818
| 43>    C        9.44547        16.61415         1.17828
| 44>    C       10.59454        15.67046         1.26259
| 45>    C       10.12187        14.34701         1.42160
| 46>    C       11.54480        13.81735         1.45849
| 47>    C       11.91109        15.29307         1.28406
| 48>    C        8.34097        11.85529         1.74965
| 49>    N        9.61764        11.43946         1.76222
| 50>    C        9.82473        10.15665         1.94363
| 51>    C        8.74490         9.22171         2.12757
| 52>    N        7.49103         9.60252         2.09355
| 53>    C        7.26542        10.90861         1.90244
| 54>    C        9.00253         7.78028         2.36544
| 55>    O        8.10683         6.98373         2.58209
| 56>    C       10.41382         7.39118         2.32716
| 57>    C       11.42019         8.25885         2.13611
| 58>    C       11.23387         9.69860         1.94428
| 59>    O       12.17081        10.46562         1.79488
| 60>    N        1.75879         8.39753         3.59013
| 61>    N        1.74706         7.20715         4.06275
| 62>    C        2.41008         2.16458         5.77966
| 63>    C        0.98142         2.59370         5.70457
| 64>    H       -1.98785         1.26794         6.36706
| 65>    H       -1.61575         2.56328         5.43261
| 66>    H        0.01693         0.76815         5.06770
| 67>    H       -0.29124        -0.11483         7.42620
| 68>    H        0.58232         1.30277         8.01283
| 69>    H        1.62243        -0.85319         6.10921
| 70>    H        2.18614        -0.55337         7.75177
| 71>    H        4.66922        -0.16113         6.63123
| 72>    H        4.61725         4.41246         4.39463
| 73>    H        1.67263         4.98650         5.04221
| 74>    H        4.95244         6.33361         3.50428
| 75>    H        4.97201         8.62060         2.59333
| 76>    H        2.22127        14.73774         1.34512
| 77>    H        3.65276        13.26704         1.42003
| 78>    H        7.27036        15.96364         1.29232
| 79>    H        9.43829        17.35520         1.98191
| 80>    H        9.40497        17.16208         0.23346
| 81>    H       11.81157        13.15156         0.64190
| 82>    H       11.84060        13.35355         2.39596
| 83>    H       12.85142        15.80372         1.21169
| 84>    H       10.60587         6.33677         2.47278
| 85>    H       12.44863         7.92377         2.12227
| 86>    H        0.77815         3.03889         4.72734
| 87>    H        0.78453         3.35455         6.46628
| 88> *
| 89>
| 90>                          ****END OF INPUT****

CARTESIAN COORDINATES (ANGSTROEM)
---------------------------------
  N     -1.304240    2.001580    6.217360
  C      0.009250    1.434840    5.952380
  C      0.467190    0.625720    7.165540
  C      1.788230   -0.070260    6.857010
  C      2.784010    0.909880    6.320420
  C      4.130490    0.698390    6.283560
  S      4.982460    2.007690    5.587310
  C      3.496910    2.899560    5.343560
  C      3.621690    4.196640    4.761980
  C      2.666820    5.142300    4.657760
  C      2.850430    6.443040    4.065970
  C      4.055870    6.932410    3.524810
  C      4.071310    8.208070    3.016710
  C      2.868870    8.938310    3.076710
  C      2.693680   10.295300    2.625130
  S      1.125200   10.998100    2.711760
  C      1.726290   12.496260    2.091660
  C      0.763280   13.593350    1.915140
  O     -0.408550   13.468430    2.141720
  O      1.266120   14.765060    1.479870
  C      3.077280   12.454340    1.828410
  C      3.630200   11.199780    2.132720
  O      4.911510   10.778880    1.981320
  C      6.008940   11.507050    1.856690
  S      6.163570   13.218630    1.636980
  C      7.905520   13.162130    1.600750
  C      8.717580   14.327530    1.450180
  C      8.297620   15.646690    1.308180
  C      9.445470   16.614150    1.178280
  C     10.594540   15.670460    1.262590
  C     10.121870   14.347010    1.421600
  C     11.544800   13.817350    1.458490
  C     11.911090   15.293070    1.284060
  C      8.340970   11.855290    1.749650
  N      9.617640   11.439460    1.762220
  C      9.824730   10.156650    1.943630
  C      8.744900    9.221710    2.127570
  N      7.491030    9.602520    2.093550
  C      7.265420   10.908610    1.902440
  C      9.002530    7.780280    2.365440
  O      8.106830    6.983730    2.582090
  C     10.413820    7.391180    2.327160
  C     11.420190    8.258850    2.136110
  C     11.233870    9.698600    1.944280
  O     12.170810   10.465620    1.794880
  N      1.758790    8.397530    3.590130
  N      1.747060    7.207150    4.062750
  C      2.410080    2.164580    5.779660
  C      0.981420    2.593700    5.704570
  H     -1.987850    1.267940    6.367060
  H     -1.615750    2.563280    5.432610
  H      0.016930    0.768150    5.067700
  H     -0.291240   -0.114830    7.426200
  H      0.582320    1.302770    8.012830
  H      1.622430   -0.853190    6.109210
  H      2.186140   -0.553370    7.751770
  H      4.669220   -0.161130    6.631230
  H      4.617250    4.412460    4.394630
  H      1.672630    4.986500    5.042210
  H      4.952440    6.333610    3.504280
  H      4.972010    8.620600    2.593330
  H      2.221270   14.737740    1.345120
  H      3.652760   13.267040    1.420030
  H      7.270360   15.963640    1.292320
  H      9.438290   17.355200    1.981910
  H      9.404970   17.162080    0.233460
  H     11.811570   13.151560    0.641900
  H     11.840600   13.353550    2.395960
  H     12.851420   15.803720    1.211690
  H     10.605870    6.336770    2.472780
  H     12.448630    7.923770    2.122270
  H      0.778150    3.038890    4.727340
  H      0.784530    3.354550    6.466280

 Total Charge           Charge          ....    0
 Multiplicity           Mult            ....    2
 Number of Electrons    NEL             ....  363
 Basis Dimension        Dim             ....  818

ORBITAL ENERGIES
----------------
                 SPIN UP ORBITALS
  NO   OCC          E(Eh)            E(eV)
   0   1.0000     -89.004363     -2421.9319
   1   1.0000     -88.972545     -2421.0660
   2   1.0000     -88.942734     -2420.2548
   3   1.0000     -19.314520      -525.5748
   4   1.0000     -19.262170      -524.1503
   5   1.0000     -19.230077      -523.2770
   6   1.0000     -19.229464      -523.2603
   7   1.0000     -19.197963      -522.4031
   8   1.0000     -14.451050      -393.2331
   9   1.0000     -14.447574      -393.1385
  10   1.0000     -14.433862      -392.7654
  11   1.0000     -14.427051      -392.5800
  12   1.0000     -14.375430      -391.1753
  13   1.0000     -10.407645      -283.2064
  14   1.0000     -10.395214      -282.8681
  15   1.0000     -10.378826      -282.4222
  16   1.0000     -10.378573      -282.4153
  17   1.0000     -10.366157      -282.0775
  18   1.0000     -10.340708      -281.3850
  19   1.0000     -10.339887      -281.3626
  20   1.0000     -10.330639      -281.1110
  21   1.0000     -10.330294      -281.1016
  22   1.0000     -10.326255      -280.9917
  23   1.0000     -10.319930      -280.8196
  24   1.0000     -10.316984      -280.7394
  25   1.0000     -10.316112      -280.7157
  26   1.0000     -10.313711      -280.6503
  27   1.0000     -10.313042      -280.6321
  28   1.0000     -10.310454      -280.5617
  29   1.0000     -10.309928      -280.5474
  30   1.0000     -10.291059      -280.0339
  31   1.0000     -10.288655      -279.9685
  32   1.0000     -10.288183      -279.9557
  33   1.0000     -10.287275      -279.9310
  34   1.0000     -10.285633      -279.8863
  35   1.0000     -10.282792      -279.8090
  36   1.0000     -10.280334      -279.7421
  37   1.0000     -10.280142      -279.7369
  38   1.0000     -10.277756      -279.6720
  39   1.0000     -10.268983      -279.4332
  40   1.0000     -10.268855      -279.4297
  41   1.0000     -10.265128      -279.3283
  42   1.0000     -10.264808      -279.3196
  43   1.0000     -10.263522      -279.2846
  44   1.0000     -10.263503      -279.2841
  45   1.0000     -10.262961      -279.2694
  46   1.0000     -10.259381      -279.1720
  47   1.0000     -10.256420      -279.0914
  48   1.0000     -10.254128      -279.0290
  49   1.0000      -8.098704      -220.3769
  50   1.0000      -8.066507      -219.5008
  51   1.0000      -8.038842      -218.7480
  52   1.0000      -6.067918      -165.1164
  53   1.0000      -6.063691      -165.0014
  54   1.0000      -6.061216      -164.9341
  55   1.0000      -6.035729      -164.2405
  56   1.0000      -6.031425      -164.1234
  57   1.0000      -6.028952      -164.0561
  58   1.0000      -6.008000      -163.4860
  59   1.0000      -6.003912      -163.3748
  60   1.0000      -6.001147      -163.2995
  61   1.0000      -1.226693       -33.3800
  62   1.0000      -1.183721       -32.2107
  63   1.0000      -1.143841       -31.1255
  64   1.0000      -1.138842       -30.9895
  65   1.0000      -1.114551       -30.3285
  66   1.0000      -1.098794       -29.8997
  67   1.0000      -1.097659       -29.8688
  68   1.0000      -1.025859       -27.9150
  69   1.0000      -1.010626       -27.5005
  70   1.0000      -0.998985       -27.1838
  71   1.0000      -0.982288       -26.7294
  72   1.0000      -0.980074       -26.6692
  73   1.0000      -0.961573       -26.1657
  74   1.0000      -0.942610       -25.6497
  75   1.0000      -0.933652       -25.4060
  76   1.0000      -0.913738       -24.8641
  77   1.0000      -0.905382       -24.6367
  78   1.0000      -0.887322       -24.1453
  79   1.0000      -0.882797       -24.0221
  80   1.0000      -0.874398       -23.7936
  81   1.0000      -0.870620       -23.6908
  82   1.0000      -0.849330       -23.1114
  83   1.0000      -0.843070       -22.9411
  84   1.0000      -0.829698       -22.5772
  85   1.0000      -0.808206       -21.9924
  86   1.0000      -0.800473       -21.7820
  87   1.0000      -0.794365       -21.6158
  88   1.0000      -0.789581       -21.4856
  89   1.0000      -0.778560       -21.1857
  90   1.0000      -0.761870       -20.7315
  91   1.0000      -0.752657       -20.4808
  92   1.0000      -0.736633       -20.0448
  93   1.0000      -0.732429       -19.9304
  94   1.0000      -0.723264       -19.6810
  95   1.0000      -0.712783       -19.3958
  96   1.0000      -0.706215       -19.2171
  97   1.0000      -0.701994       -19.1022
  98   1.0000      -0.689104       -18.7515
  99   1.0000      -0.680954       -18.5297
 100   1.0000      -0.678397       -18.4601
 101   1.0000      -0.666209       -18.1285
 102   1.0000      -0.654806       -17.8182
 103   1.0000      -0.650661       -17.7054
 104   1.0000      -0.645312       -17.5598
 105   1.0000      -0.643949       -17.5228
 106   1.0000      -0.626067       -17.0362
 107   1.0000      -0.613554       -16.6956
 108   1.0000      -0.608891       -16.5688
 109   1.0000      -0.603264       -16.4156
 110   1.0000      -0.594759       -16.1842
 111   1.0000      -0.591156       -16.0862
 112   1.0000      -0.587205       -15.9787
 113   1.0000      -0.580230       -15.7889
 114   1.0000      -0.577548       -15.7159
 115   1.0000      -0.571518       -15.5518
 116   1.0000      -0.563864       -15.3435
 117   1.0000      -0.560104       -15.2412
 118   1.0000      -0.559700       -15.2302
 119   1.0000      -0.558755       -15.2045
 120   1.0000      -0.549808       -14.9610
 121   1.0000      -0.542885       -14.7727
 122   1.0000      -0.542173       -14.7533
 123   1.0000      -0.539056       -14.6685
 124   1.0000      -0.538386       -14.6502
 125   1.0000      -0.531541       -14.4640
 126   1.0000      -0.525284       -14.2937
 127   1.0000      -0.524149       -14.2628
 128   1.0000      -0.515580       -14.0296
 129   1.0000      -0.511834       -13.9277
 130   1.0000      -0.510079       -13.8800
 131   1.0000      -0.508687       -13.8421
 132   1.0000      -0.507077       -13.7983
 133   1.0000      -0.500473       -13.6186
 134   1.0000      -0.499502       -13.5921
 135   1.0000      -0.494483       -13.4556
 136   1.0000      -0.494311       -13.4509
 137   1.0000      -0.492395       -13.3988
 138   1.0000      -0.488192       -13.2844
 139   1.0000      -0.483610       -13.1597
 140   1.0000      -0.476351       -12.9622
 141   1.0000      -0.473980       -12.8976
 142   1.0000      -0.470779       -12.8105
 143   1.0000      -0.468419       -12.7463
 144   1.0000      -0.464301       -12.6343
 145   1.0000      -0.458185       -12.4679
 146   1.0000      -0.455603       -12.3976
 147   1.0000      -0.453415       -12.3381
 148   1.0000      -0.449259       -12.2250
 149   1.0000      -0.440993       -12.0000
 150   1.0000      -0.437991       -11.9183
 151   1.0000      -0.434555       -11.8248
 152   1.0000      -0.429612       -11.6903
 153   1.0000      -0.427372       -11.6294
 154   1.0000      -0.425559       -11.5800
 155   1.0000      -0.416479       -11.3330
 156   1.0000      -0.407178       -11.0799
 157   1.0000      -0.405705       -11.0398
 158   1.0000      -0.402335       -10.9481
 159   1.0000      -0.399164       -10.8618
 160   1.0000      -0.394633       -10.7385
 161   1.0000      -0.393653       -10.7118
 162   1.0000      -0.389533       -10.5997
 163   1.0000      -0.378718       -10.3054
 164   1.0000      -0.375845       -10.2273
 165   1.0000      -0.375345       -10.2136
 166   1.0000      -0.374026       -10.1778
 167   1.0000      -0.364694        -9.9238
 168   1.0000      -0.355549        -9.6750
 169   1.0000      -0.353956        -9.6316
 170   1.0000      -0.350439        -9.5359
 171   1.0000      -0.350090        -9.5264
 172   1.0000      -0.338386        -9.2080
 173   1.0000      -0.337754        -9.1908
 174   1.0000      -0.330917        -9.0047
 175   1.0000      -0.306581        -8.3425
 176   1.0000      -0.302047        -8.2191
 177   1.0000      -0.297143        -8.0857
 178   1.0000      -0.289051        -7.8655
 179   1.0000      -0.275437        -7.4950
 180   1.0000      -0.252081        -6.8595
 181   1.0000      -0.230728        -6.2784
 182   0.0000      -0.094211        -2.5636
 183   0.0000      -0.085699        -2.3320
 184   0.0000      -0.054793        -1.4910
 185   0.0000      -0.014727        -0.4007
 186   0.0000      -0.005368        -0.1461

                 SPIN DOWN ORBITALS
  NO   OCC          E(Eh)            E(eV)
   0   1.0000     -89.004418     -2421.9333
   1   1.0000     -88.972554     -2421.0663
   2   1.0000     -88.942736     -2420.2549
   3   1.0000     -19.315445      -525.6000
   4   1.0000     -19.262167      -524.1502
   5   1.0000     -19.230433      -523.2867
   6   1.0000     -19.229554      -523.2628
   7   1.0000     -19.197934      -522.4024
   8   1.0000     -14.452414      -393.2702
   9   1.0000     -14.445744      -393.0887
  10   1.0000     -14.433952      -392.7678
  11   1.0000     -14.426998      -392.5786
  12   1.0000     -14.375430      -391.1753
  13   1.0000     -10.407657      -283.2068
  14   1.0000     -10.397816      -282.9389
  15   1.0000     -10.379039      -282.4280
  16   1.0000     -10.378242      -282.4063
  17   1.0000     -10.365965      -282.0723
  18   1.0000     -10.342271      -281.4275
  19   1.0000     -10.338723      -281.3310
  20   1.0000     -10.332246      -281.1547
  21   1.0000     -10.329651      -281.0841
  22   1.0000     -10.323248      -280.9099
  23   1.0000     -10.319855      -280.8175
  24   1.0000     -10.316877      -280.7365
  25   1.0000     -10.316373      -280.7228
  26   1.0000     -10.313699      -280.6500
  27   1.0000     -10.313031      -280.6318
  28   1.0000     -10.310568      -280.5648
  29   1.0000     -10.309995      -280.5492
  30   1.0000     -10.295104      -280.1440
  31   1.0000     -10.288663      -279.9688
  32   1.0000     -10.288184      -279.9557
  33   1.0000     -10.287255      -279.9305
  34   1.0000     -10.285634      -279.8863
  35   1.0000     -10.282842      -279.8104
  36   1.0000     -10.280490      -279.7464
  37   1.0000     -10.280355      -279.7427
  38   1.0000     -10.268878      -279.4304
  39   1.0000     -10.268768      -279.4274
  40   1.0000     -10.265087      -279.3272
  41   1.0000     -10.264798      -279.3194
  42   1.0000     -10.263870      -279.2941
  43   1.0000     -10.263504      -279.2841
  44   1.0000     -10.261598      -279.2323
  45   1.0000     -10.259963      -279.1878
  46   1.0000     -10.259380      -279.1719
  47   1.0000     -10.255072      -279.0547
  48   1.0000     -10.254128      -279.0290
  49   1.0000      -8.098760      -220.3785
  50   1.0000      -8.066517      -219.5011
  51   1.0000      -8.038844      -218.7481
  52   1.0000      -6.067934      -165.1169
  53   1.0000      -6.063762      -165.0034
  54   1.0000      -6.061366      -164.9382
  55   1.0000      -6.035732      -164.2406
  56   1.0000      -6.031427      -164.1235
  57   1.0000      -6.028988      -164.0571
  58   1.0000      -6.008000      -163.4860
  59   1.0000      -6.003913      -163.3748
  60   1.0000      -6.001151      -163.2996
  61   1.0000      -1.228727       -33.4354
  62   1.0000      -1.183706       -32.2103
  63   1.0000      -1.143936       -31.1281
  64   1.0000      -1.139419       -31.0052
  65   1.0000      -1.114600       -30.3298
  66   1.0000      -1.098756       -29.8987
  67   1.0000      -1.097856       -29.8742
  68   1.0000      -1.025739       -27.9118
  69   1.0000      -1.010855       -27.5067
  70   1.0000      -0.998277       -27.1645
  71   1.0000      -0.980087       -26.6695
  72   1.0000      -0.976251       -26.5651
  73   1.0000      -0.961577       -26.1658
  74   1.0000      -0.942601       -25.6495
  75   1.0000      -0.933697       -25.4072
  76   1.0000      -0.913702       -24.8631
  77   1.0000      -0.901595       -24.5337
  78   1.0000      -0.887282       -24.1442
  79   1.0000      -0.879970       -23.9452
  80   1.0000      -0.875031       -23.8108
  81   1.0000      -0.870666       -23.6920
  82   1.0000      -0.849282       -23.1101
  83   1.0000      -0.842141       -22.9158
  84   1.0000      -0.829739       -22.5783
  85   1.0000      -0.808816       -22.0090
  86   1.0000      -0.800484       -21.7823
  87   1.0000      -0.794543       -21.6206
  88   1.0000      -0.789581       -21.4856
  89   1.0000      -0.778510       -21.1843
  90   1.0000      -0.761856       -20.7312
  91   1.0000      -0.752740       -20.4831
  92   1.0000      -0.732683       -19.9373
  93   1.0000      -0.729839       -19.8599
  94   1.0000      -0.716288       -19.4912
  95   1.0000      -0.712626       -19.3915
  96   1.0000      -0.706224       -19.2173
  97   1.0000      -0.692530       -18.8447
  98   1.0000      -0.689198       -18.7540
  99   1.0000      -0.680596       -18.5200
 100   1.0000      -0.678466       -18.4620
 101   1.0000      -0.666283       -18.1305
 102   1.0000      -0.654811       -17.8183
 103   1.0000      -0.649690       -17.6790
 104   1.0000      -0.644036       -17.5251
 105   1.0000      -0.642702       -17.4888
 106   1.0000      -0.626071       -17.0363
 107   1.0000      -0.610415       -16.6102
 108   1.0000      -0.608699       -16.5635
 109   1.0000      -0.603133       -16.4121
 110   1.0000      -0.593954       -16.1623
 111   1.0000      -0.592050       -16.1105
 112   1.0000      -0.591154       -16.0861
 113   1.0000      -0.580289       -15.7905
 114   1.0000      -0.576717       -15.6933
 115   1.0000      -0.570682       -15.5290
 116   1.0000      -0.563274       -15.3275
 117   1.0000      -0.560236       -15.2448
 118   1.0000      -0.559718       -15.2307
 119   1.0000      -0.557451       -15.1690
 120   1.0000      -0.549785       -14.9604
 121   1.0000      -0.542841       -14.7714
 122   1.0000      -0.541835       -14.7441
 123   1.0000      -0.539066       -14.6687
 124   1.0000      -0.531552       -14.4643
 125   1.0000      -0.528276       -14.3751
 126   1.0000      -0.525107       -14.2889
 127   1.0000      -0.524207       -14.2644
 128   1.0000      -0.515610       -14.0305
 129   1.0000      -0.511660       -13.9230
 130   1.0000      -0.509912       -13.8754
 131   1.0000      -0.508636       -13.8407
 132   1.0000      -0.507063       -13.7979
 133   1.0000      -0.500190       -13.6109
 134   1.0000      -0.498002       -13.5513
 135   1.0000      -0.494057       -13.4440
 136   1.0000      -0.492413       -13.3992
 137   1.0000      -0.488217       -13.2851
 138   1.0000      -0.484687       -13.1890
 139   1.0000      -0.483625       -13.1601
 140   1.0000      -0.474745       -12.9185
 141   1.0000      -0.473538       -12.8856
 142   1.0000      -0.471950       -12.8424
 143   1.0000      -0.467088       -12.7101
 144   1.0000      -0.464194       -12.6314
 145   1.0000      -0.456121       -12.4117
 146   1.0000      -0.455557       -12.3963
 147   1.0000      -0.453456       -12.3392
 148   1.0000      -0.449489       -12.2312
 149   1.0000      -0.440862       -11.9965
 150   1.0000      -0.435039       -11.8380
 151   1.0000      -0.433727       -11.8023
 152   1.0000      -0.429886       -11.6978
 153   1.0000      -0.427908       -11.6440
 154   1.0000      -0.422151       -11.4873
 155   1.0000      -0.416490       -11.3333
 156   1.0000      -0.407263       -11.0822
 157   1.0000      -0.404921       -11.0185
 158   1.0000      -0.402357       -10.9487
 159   1.0000      -0.399166       -10.8618
 160   1.0000      -0.394604       -10.7377
 161   1.0000      -0.393050       -10.6954
 162   1.0000      -0.382474       -10.4077
 163   1.0000      -0.378714       -10.3053
 164   1.0000      -0.376092       -10.2340
 165   1.0000      -0.375661       -10.2223
 166   1.0000      -0.371560       -10.1107
 167   1.0000      -0.364082        -9.9072
 168   1.0000      -0.355543        -9.6748
 169   1.0000      -0.354741        -9.6530
 170   1.0000      -0.351947        -9.5770
 171   1.0000      -0.350307        -9.5323
 172   1.0000      -0.337534        -9.1848
 173   1.0000      -0.334767        -9.1095
 174   1.0000      -0.318664        -8.6713
 175   1.0000      -0.303405        -8.2561
 176   1.0000      -0.301959        -8.2167
 177   1.0000      -0.297162        -8.0862
 178   1.0000      -0.289068        -7.8660
 179   1.0000      -0.261911        -7.1270
 180   1.0000      -0.249097        -6.7783
 181   0.0000      -0.091962        -2.5024
 182   0.0000      -0.086786        -2.3616
 183   0.0000      -0.055302        -1.5048
 184   0.0000      -0.018893        -0.5141
 185   0.0000      -0.014902        -0.4055

MULLIKEN ATOMIC CHARGES AND SPIN POPULATIONS
--------------------------------------------
   0 N :   -0.170280   -0.000004
   1 C :   -0.059042   -0.000014
   2 C :    0.047282    0.000010
   3 C :    0.153399   -0.000064
   4 C :   -0.083796    0.000827
   5 C :   -0.128943   -0.001442
   6 S :    0.106332   -0.000180
   7 C :   -0.157738    0.001559
   8 C :    0.073602   -0.003801
   9 C :    0.006852    0.003276
  10 C :    0.022735   -0.004548
  11 C :    0.000535    0.003475
  12 C :    0.001959   -0.004388
  13 C :    0.008969    0.005600
  14 C :   -0.096942   -0.017591
  15 S :    0.286389   -0.001513
  16 C :   -0.185265    0.007279
  17 C :    0.192019   -0.000758
  18 O :   -0.165080    0.001098
  19 O :   -0.157523    0.000111
  20 C :   -0.073800   -0.008529
  21 C :    0.200362    0.012073
  22 O :   -0.202602   -0.022524
  23 C :   -0.008472   -0.146770
  24 S :    0.116647   -0.007981
  25 C :   -0.123661    0.208291
  26 C :    0.058555   -0.327739
  27 C :   -0.213683    0.655041
  28 C :    0.240995   -0.034909
  29 C :    0.032769   -0.290158
  30 C :   -0.156334    0.597020
  31 C :    0.240160   -0.081280
  32 C :   -0.241905    0.549399
  33 C :    0.037079   -0.111269
  34 N :    0.070265    0.091035
  35 C :   -0.114953   -0.110047
  36 C :   -0.142476    0.083920
  37 N :    0.080372   -0.066770
  38 C :    0.039852    0.046746
  39 C :    0.157062   -0.015664
  40 O :   -0.120351    0.020067
  41 C :   -0.021182    0.009867
  42 C :   -0.010140   -0.008576
  43 C :    0.146193    0.023113
  44 O :   -0.113496   -0.036373
  45 N :   -0.081006   -0.004314
  46 N :   -0.067146    0.002657
  47 C :   -0.037778   -0.001719
  48 C :    0.146902    0.000154
  49 H :    0.086170    0.000001
  50 H :    0.091751    0.000000
  51 H :   -0.015770   -0.000000
  52 H :   -0.010071    0.000000
  53 H :    0.007477   -0.000001
  54 H :    0.011032    0.000028
  55 H :    0.003568    0.000014
  56 H :    0.007662    0.000066
  57 H :   -0.018478    0.000162
  58 H :   -0.017820   -0.000130
  59 H :    0.003374   -0.000147
  60 H :   -0.000614    0.000511
  61 H :    0.175950   -0.000001
  62 H :   -0.012007    0.000438
  63 H :   -0.023992   -0.028796
  64 H :    0.035841    0.011107
  65 H :    0.034607    0.010994
  66 H :    0.022690    0.007329
  67 H :    0.021079    0.007303
  68 H :   -0.019839   -0.022421
  69 H :    0.017859   -0.000481
  70 H :    0.018267    0.000455
  71 H :    0.016351   -0.000050
  72 H :    0.031217   -0.000075
Sum of atomic charges         :   -0.0000000

LOEWDIN ATOMIC CHARGES AND SPIN POPULATIONS
-------------------------------------------
   0 N :   -0.110324   -0.000003
   1 C :    0.016451   -0.000007
   2 C :   -0.029247    0.000005
   3 C :   -0.024603   -0.000012
   4 C :   -0.065198    0.000455
   5 C :   -0.192124   -0.001157
   6 S :    0.428967   -0.000187
   7 C :   -0.182151    0.000873
   8 C :   -0.021007   -0.002670
   9 C :   -0.042406    0.002090
  10 C :   -0.008136   -0.003227
  11 C :    0.001577    0.002255
  12 C :    0.001792   -0.003044
  13 C :   -0.040910    0.003067
  14 C :   -0.185780   -0.012959
  15 S :    0.563664   -0.001781
  16 C :   -0.233330    0.005348
  17 C :    0.058565   -0.000231
  18 O :   -0.154975    0.001052
  19 O :   -0.032640    0.000107
  20 C :   -0.096858   -0.005656
  21 C :    0.007386    0.007312
  22 O :    0.002806   -0.027249
  23 C :   -0.101300   -0.123595
  24 S :    0.479368   -0.006238
  25 C :   -0.176238    0.145222
  26 C :   -0.061902   -0.164027
  27 C :   -0.030838    0.516527
  28 C :   -0.027221   -0.005428
  29 C :   -0.033071   -0.163086
  30 C :   -0.001645    0.459446
  31 C :    0.001638   -0.021758
  32 C :   -0.014208    0.431015
  33 C :   -0.041544   -0.074081
  34 N :    0.017388    0.074205
  35 C :   -0.041870   -0.078347
  36 C :   -0.052944    0.057773
  37 N :    0.011729   -0.055754
  38 C :   -0.082760    0.024585
  39 C :    0.058496   -0.006983
  40 O :   -0.116418    0.018955
  41 C :   -0.010072    0.006585
  42 C :   -0.009437   -0.005135
  43 C :    0.058634    0.010738
  44 O :   -0.105379   -0.034429
  45 N :   -0.056749   -0.003690
  46 N :   -0.048225    0.002047
  47 C :   -0.044883   -0.001214
  48 C :   -0.030109    0.000028
  49 H :    0.052306    0.000000
  50 H :    0.054363    0.000000
  51 H :    0.000416   -0.000000
  52 H :    0.019522   -0.000000
  53 H :    0.025338   -0.000001
  54 H :    0.030852    0.000022
  55 H :    0.030678    0.000011
  56 H :    0.019960   -0.000004
  57 H :    0.025647    0.000003
  58 H :    0.033599   -0.000002
  59 H :    0.039151   -0.000004
  60 H :    0.034263    0.000123
  61 H :    0.089926   -0.000007
  62 H :    0.010522    0.000019
  63 H :    0.007169    0.001674
  64 H :    0.048780    0.009560
  65 H :    0.048334    0.009459
  66 H :    0.029173    0.005431
  67 H :    0.028677    0.005439
  68 H :    0.008462    0.000598
  69 H :    0.045859   -0.000076
  70 H :    0.046194    0.000107
  71 H :    0.031334   -0.000036
  72 H :    0.037513   -0.000062

  Mayer bond orders larger than 0.100000
B(  0-N ,  1-C ) :   1.0802 B(  0-N , 49-H ) :   0.9615 B(  0-N , 50-H ) :   0.9601
B(  1-C ,  2-C ) :   1.0364 B(  1-C , 48-C ) :   1.0301 B(  1-C , 51-H ) :   0.9317
B(  2-C ,  3-C ) :   1.0884 B(  2-C , 52-H ) :   0.9338 B(  2-C , 53-H ) :   0.9362
B(  3-C ,  4-C ) :   1.0223 B(  3-C , 54-H ) :   0.9106 B(  3-C , 55-H ) :   0.9240
B(  4-C ,  5-C ) :   1.5583 B(  4-C , 47-C ) :   1.3078 B(  5-C ,  6-S ) :   1.1638
B(  5-C , 56-H ) :   0.9714 B(  6-S ,  7-C ) :   1.1301 B(  7-C ,  8-C ) :   1.1283
B(  7-C , 47-C ) :   1.5111 B(  8-C ,  9-C ) :   1.6570 B(  8-C , 57-H ) :   0.9421
B(  9-C , 10-C ) :   1.0791 B(  9-C , 58-H ) :   0.9780 B( 10-C , 11-C ) :   1.2614
B( 10-C , 46-N ) :   1.5098 B( 11-C , 12-C ) :   1.4505 B( 11-C , 59-H ) :   0.9860
B( 12-C , 13-C ) :   1.2840 B( 12-C , 60-H ) :   0.9777 B( 13-C , 14-C ) :   1.0672
B( 13-C , 45-N ) :   1.5451 B( 14-C , 15-S ) :   1.1740 B( 14-C , 16-C ) :   0.1222
B( 14-C , 21-C ) :   1.4896 B( 15-S , 16-C ) :   1.1487 B( 16-C , 17-C ) :   0.9411
B( 16-C , 20-C ) :   1.4718 B( 17-C , 18-O ) :   2.2104 B( 17-C , 19-O ) :   1.2347
B( 19-O , 61-H ) :   0.9617 B( 20-C , 21-C ) :   1.2805 B( 20-C , 62-H ) :   0.9623
B( 21-C , 22-O ) :   1.0297 B( 22-O , 23-C ) :   1.1666 B( 23-C , 24-S ) :   1.1589
B( 23-C , 25-C ) :   0.1101 B( 23-C , 38-C ) :   1.3146 B( 24-S , 25-C ) :   1.1189
B( 25-C , 26-C ) :   1.1011 B( 25-C , 33-C ) :   1.3803 B( 26-C , 27-C ) :   1.4425
B( 26-C , 30-C ) :   1.2295 B( 27-C , 28-C ) :   0.9966 B( 27-C , 63-H ) :   0.9837
B( 28-C , 29-C ) :   1.0365 B( 28-C , 64-H ) :   0.8895 B( 28-C , 65-H ) :   0.8894
B( 29-C , 30-C ) :   1.2437 B( 29-C , 32-C ) :   1.4728 B( 30-C , 31-C ) :   1.0317
B( 31-C , 32-C ) :   0.9743 B( 31-C , 66-H ) :   0.9020 B( 31-C , 67-H ) :   0.9027
B( 32-C , 68-H ) :   1.0306 B( 33-C , 34-N ) :   1.4292 B( 33-C , 38-C ) :   1.1772
B( 34-N , 35-C ) :   1.7390 B( 35-C , 36-C ) :   1.0598 B( 35-C , 43-C ) :   0.8990
B( 36-C , 37-N ) :   1.7401 B( 36-C , 39-C ) :   0.9021 B( 37-N , 38-C ) :   1.4098
B( 39-C , 40-O ) :   2.2176 B( 39-C , 41-C ) :   1.0264 B( 41-C , 42-C ) :   1.6760
B( 41-C , 69-H ) :   0.9992 B( 42-C , 43-C ) :   1.0345 B( 42-C , 70-H ) :   0.9992
B( 43-C , 44-O ) :   2.2088 B( 45-N , 46-N ) :   1.3574 B( 47-C , 48-C ) :   1.0581
B( 48-C , 71-H ) :   0.9065 B( 48-C , 72-H ) :   0.8936

-----------------------------------------------------------------------------
         ABSORPTION SPECTRUM VIA TRANSITION ELECTRIC DIPOLE MOMENTS
-----------------------------------------------------------------------------
State   Energy  Wavelength   fosc         T2         TX        TY        TZ
        (cm-1)    (nm)                  (au**2)     (au)      (au)      (au)
-----------------------------------------------------------------------------
   0   11125.1    898.9   0.003334700   0.09868  -0.28823  -0.12119   0.03030
   1   13758.0    726.9   0.013231706   0.31662  -0.36250  -0.42160   0.08642
   2   15818.6    632.2   0.001486167   0.03093   0.12467   0.12078  -0.02827
   3   17089.3    585.2   0.029160244   0.56175   0.54455  -0.51490   0.00964
   4   19126.5    522.8   0.224548260   3.86501  -1.26773  -1.44586   0.40911
   5   20665.6    483.9   0.014684608   0.23393  -0.11277   0.46789  -0.04787
   6   21041.0    475.3   0.036663110   0.57364   0.70012  -0.26517  -0.11468
   7   22854.1    437.6   0.015543479   0.22390   0.25908  -0.37549   0.12564
   8   23778.4    420.5   0.008667477   0.12000   0.07882   0.26383  -0.21020
   9   24129.1    414.4   0.077202355   1.05333  -0.30951   0.93091  -0.30155
  10   24604.7    406.4   0.000420741   0.00563  -0.01552  -0.03837  -0.06258
  11   24705.9    404.8   0.005417167   0.07219  -0.03242  -0.20490   0.17073
  12   24825.6    402.8   0.000162153   0.00215  -0.01434  -0.03882  -0.02092
  13   25167.6    397.3   0.000620058   0.00811   0.03964   0.05899   0.05531
  14   25309.2    395.1   0.000141734   0.00184   0.01696   0.02613  -0.02955
  15   25751.5    388.3   0.068617732   0.87722   0.07497   0.87727  -0.31936
  16   25994.1    384.7   0.000375679   0.00476   0.00975   0.02094   0.06500
  17   26317.2    380.0   0.000005193   0.00006   0.00394   0.00048   0.00702
  18   26637.7    375.4   0.083654281   1.03387   0.44843   0.85985  -0.30567
  19   27000.9    370.4   0.003628956   0.04425   0.01499   0.17778   0.11142
  20   27216.0    367.4   0.006791409   0.08215  -0.00554   0.27541   0.07916
  21   27445.3    364.4   0.774509546   9.29040  -0.37385   2.83871  -1.04515
  22   27812.7    359.5   0.137503490   1.62760   0.11288   1.19578  -0.43007
  23   28990.0    344.9   0.000431136   0.00490   0.01632   0.00351   0.06795
  24   29608.8    337.7   0.001343142   0.01493   0.01373  -0.10887  -0.05378
  25   29858.3    334.9   0.115469372   1.27314  -0.40097   1.00514  -0.31945
  26   29914.3    334.3   0.033015362   0.36334   0.19028  -0.52423   0.22872
  27   30062.5    332.6   0.000233762   0.00256   0.01612  -0.03923  -0.02759
  28   30671.7    326.0   0.015430929   0.16563  -0.30659   0.26753  -0.00746
  29   30697.2    325.8   0.005046405   0.05412  -0.09683  -0.04118  -0.20748
  30   30800.1    324.7   0.005574729   0.05959   0.02421   0.07576   0.23078
  31   30841.9    324.2   0.002286779   0.02441   0.13967  -0.05224   0.04661
  32   31142.6    321.1   0.001326679   0.01402   0.11103  -0.03382  -0.02352
  33   31216.6    320.3   0.024498441   0.25836   0.45898  -0.21841  -0.00069
  34   31421.0    318.3   0.000514065   0.00539   0.07132   0.01062  -0.01364
  35   31453.8    317.9   0.018933829   0.19817   0.44233  -0.04524  -0.02166
  36   32009.8    312.4   0.017472335   0.17970   0.21941  -0.33374   0.14203
  37   32505.3    307.6   0.000880312   0.00892   0.07440   0.04537  -0.03635
  38   32912.7    303.8   0.013859140   0.13863  -0.36498  -0.07105   0.01927
  39   32952.6    303.5   0.003512431   0.03509   0.17810  -0.05630   0.01421
  40   33169.5    301.5   0.004021523   0.03991  -0.17750   0.08603  -0.03170
  41   33471.2    298.8   0.004570058   0.04495  -0.20959  -0.02708   0.01698
  42   33479.3    298.7   0.013086025   0.12868   0.35740   0.02331  -0.01995
  43   34030.3    293.9   0.011344948   0.10975   0.32863  -0.03915  -0.01488
  44   34141.4    292.9   0.000932934   0.00900  -0.09069  -0.02680   0.00733
  45   34195.5    292.4   0.007206449   0.06938  -0.12185   0.22696  -0.05495
  46   34344.3    291.2   0.005070672   0.04861  -0.10509   0.19164  -0.02888
  47   34350.4    291.1   0.006361682   0.06097   0.10045  -0.22371   0.02891
  48   34952.7    286.1   0.000029812   0.00028   0.00102  -0.01370  -0.00959
  49   35027.5    285.5   0.024733111   0.23246  -0.44998  -0.16028   0.06544
  50   35317.2    283.1   0.000025530   0.00024  -0.01320   0.00734   0.00316
  51   35514.0    281.6   0.081379632   0.75438   0.14946   0.80617  -0.28658
  52   35762.3    279.6   0.070157963   0.64584  -0.39773   0.67578  -0.17600
  53   35907.7    278.5   0.000884506   0.00811  -0.07131  -0.04827   0.02636
  54   35945.4    278.2   0.026123479   0.23926  -0.46124  -0.15693   0.04346
  55   36211.2    276.2   0.186336267   1.69406  -0.87504   0.94981  -0.16193
  56   36412.1    274.6   0.020868309   0.18868   0.15052  -0.39272   0.10858
  57   36642.1    272.9   0.117006331   1.05125  -0.95457   0.37414   0.00736
  58   36808.0    271.7   0.004838382   0.04327  -0.20137  -0.02317   0.04677
  59   36827.5    271.5   0.039022781   0.34884  -0.58459   0.05176   0.06641
  60   37100.4    269.5   0.000053295   0.00047  -0.01411  -0.01576   0.00504
  61   37161.6    269.1   0.000007376   0.00007   0.00555  -0.00260   0.00526
  62   37194.6    268.9   0.000016741   0.00015   0.00767  -0.00908   0.00261
  63   37420.1    267.2   0.001961011   0.01725   0.04992   0.11304  -0.04452
  64   37561.4    266.2   0.181854776   1.59389   0.32854   1.14458  -0.41938
  65   37875.6    264.0   0.000638583   0.00555  -0.05155   0.05330  -0.00722
  66   37937.5    263.6   0.008362143   0.07256   0.24841  -0.01390   0.10327
  67   38153.0    262.1   0.023972852   0.20686  -0.25854   0.37339  -0.02426
  68   38465.3    260.0   0.008929145   0.07642  -0.22974  -0.15371  -0.00368
  69   38647.4    258.7   0.003444223   0.02934  -0.16714  -0.02243   0.02998
  70   38724.1    258.2   0.000699407   0.00595  -0.04857   0.05466  -0.02447
  71   38829.0    257.5   0.005593327   0.04742  -0.18998   0.10589  -0.01092
  72   38914.2    257.0   0.003242473   0.02743  -0.11052  -0.10342   0.06724
  73   38936.6    256.8   0.008064798   0.06819  -0.25633  -0.02903   0.04049
  74   39095.3    255.8   0.187774515   1.58121  -1.25515   0.06929  -0.03179
  75   39230.5    254.9   0.052957818   0.44441   0.35357  -0.55854   0.08619
  76   39505.4    253.1   0.053960590   0.44967  -0.65436  -0.05635  -0.13530
  77   39625.5    252.4   0.037194668   0.30902   0.53290  -0.11765   0.10579
  78   39844.1    251.0   0.019128240   0.15805   0.17708  -0.35573   0.01203
  79   40194.4    248.8   0.272270408   2.23003  -0.29894  -1.44482   0.23058
  80   40202.8    248.7   0.041428998   0.33925  -0.12157  -0.55743   0.11724
  81   40237.0    248.5   0.059284833   0.48506   0.15871   0.66451  -0.13527

FINAL SINGLE POINT ENERGY     -3227.656495295185

DIPOLE MOMENT
-------------
                                X             Y             Z
Electronic contribution:     13.47726      39.97742     -19.59089
Nuclear contribution   :    -11.21512     -40.95528      19.11251
                        -----------------------------------------
Total Dipole Moment    :      2.26214      -0.97786      -0.47838
                        -----------------------------------------
Magnitude (a.u.)       :      2.51045
Magnitude (Debye)      :      6.38105

Rotational constants in cm-1:     0.002407     0.000794     0.000602
Rotational constants in MHz :    72.156104    23.797515    18.061365

                             ****ORCA TERMINATED NORMALLY****
TOTAL RUN TIME: 0 days 0 hours 10 minutes 36 seconds 253 msec
