                         Program Version 4.2.0 -  RELEASE  -
|  1> # ORCA input file
|  2> # SCF done       -179.683426128063          0.000354657910
|  3> ! CAM-B3LYP def2-SVP def2/J RIJCOSX Grid4 TightSCF
|  4> %maxcore 5000
|  5> %tddft
|  6>     Mode sTDDFT
|  7>     Ethresh 5.0
|  8>     maxcore 5000
|  9> end
| 10>
| 11> %pal
| 12>   nprocs 6
| 13>   end
| 14> * xyz 0 1
| 15>    C        7.56365         8.02991         4.39421
| 16>    C        6.91493         6.89809         4.15980
| 17>    C        6.85605         5.72776         5.03985
| 18>    C        6.97436         4.49109         4.43396
| 19>    C        6.96498         3.30948         5.18317
| 20>    C        7.08010         1.97175         4.73260
| 21>    C        7.40781         1.41842         3.48782
| 22>    C        8.02766         2.05583         2.44519
| 23>    C        8.34255         1.39264         1.24653
| 24>    C        8.01545         0.09755         0.83353
| 25>    C        7.30045        -1.09926         1.19785
| 26>    O        6.67618        -1.41518         2.19488
| 27>    N        7.46397        -1.95911         0.09115
| 28>    C        6.88796        -3.28040         0.08075
| 29>    C        5.44356        -3.25777        -0.41332
| 30>    C        8.24671        -1.38616        -0.87744
| 31>    C        8.64446        -1.95388        -2.12495
| 32>    S        7.58978        -2.89473        -3.14936
| 33>    C        8.73331        -2.88402        -4.41997
| 34>    C        9.87053        -2.19868        -4.09492
| 35>    C        9.83571        -1.68303        -2.77025
| 36>    C       11.03564        -1.09533        -2.15757
| 37>    O       11.24054        -1.06995        -0.96036
| 38>    C       12.03535        -0.62684        -3.14343
| 39>    C       13.03083         0.23342        -2.70252
| 40>    C       14.00973         0.71068        -3.56372
| 41>    C       15.02887         1.69413        -3.07048
| 42>    C       14.43073         3.10277        -3.05021
| 43>    C       13.99185         0.29020        -4.88987
| 44>    C       13.01895        -0.58127        -5.33980
| 45>    C       12.02257        -1.04214        -4.48278
| 46>    C       10.99553        -1.96238        -5.01321
| 47>    O       11.05148        -2.45241        -6.12526
| 48>    C        8.58647        -0.11514        -0.44607
| 49>    C        9.27055         1.09114        -0.85097
| 50>    O        9.87793         1.38657        -1.86202
| 51>    N        9.07154         1.97036         0.22234
| 52>    C        9.70026         3.26719         0.23881
| 53>    C       10.98416         3.26324         1.06535
| 54>    S        6.80970         0.86596         6.04955
| 55>    C        6.64990         2.13589         7.21858
| 56>    C        6.48823         1.89346         8.58926
| 57>    C        6.45094         0.64381         9.13883
| 58>    C        6.32914         0.31158        10.50919
| 59>    C        6.15864         1.23583        11.57594
| 60>    N        6.03335         2.55136        11.31725
| 61>    C        5.85475         3.38285        12.30963
| 62>    C        5.78327         2.94005        13.63965
| 63>    N        5.90950         1.67281        13.92222
| 64>    C        6.10314         0.78613        12.93393
| 65>    C        6.24490        -0.57957        13.29609
| 66>    C        6.26269        -0.95507        14.66993
| 67>    S        5.77949         0.22457        15.87297
| 68>    C        6.02054        -0.90574        17.14429
| 69>    C        6.49146        -2.09620        16.70196
| 70>    C        6.63154        -2.14306        15.29560
| 71>    S        7.29454        -3.57719        14.54806
| 72>    C        6.32753        -1.50255        12.22562
| 73>    N        6.32603        -2.81796        12.49697
| 74>    C        6.39021        -3.67784        11.51722
| 75>    C        6.46842        -3.24540        10.18327
| 76>    N        6.45798        -1.97680         9.87533
| 77>    C        6.37302        -1.06692        10.86462
| 78>    C        6.73413         3.39769         6.58436
| 79>    C        6.58465         4.65528         7.18247
| 80>    C        6.65752         5.81243         6.44332
| 81>    C        6.45615         7.12463         7.13794
| 82>    H        7.58017         8.82496         3.66791
| 83>    H        8.12507         8.20010         5.29583
| 84>    H        6.41697         6.76452         3.20608
| 85>    H        7.06001         4.44696         3.35998
| 86>    H        7.20148         0.36095         3.37628
| 87>    H        8.34676         3.08060         2.55003
| 88>    H        6.90940        -3.64258         1.11296
| 89>    H        7.50252        -3.93388        -0.54281
| 90>    H        4.84217        -2.63720         0.24608
| 91>    H        5.03803        -4.26543        -0.41248
| 92>    H        5.38623        -2.85796        -1.42321
| 93>    H        8.51529        -3.37233        -5.34937
| 94>    H       13.01923         0.52959        -1.66397
| 95>    H       15.90787         1.68064        -3.71747
| 96>    H       15.34056         1.42290        -2.05980
| 97>    H       14.14573         3.40665        -4.05483
| 98>    H       15.15364         3.81653        -2.66209
| 99>    H       13.54299         3.12581        -2.42277
|100>    H       14.74995         0.64623        -5.57282
|101>    H       13.00591        -0.91929        -6.36562
|102>    H        8.99631         4.01617         0.61361
|103>    H        9.93601         3.49833        -0.80425
|104>    H       10.77679         3.02294         2.10576
|105>    H       11.46057         4.23892         1.01737
|106>    H       11.66961         2.51721         0.67096
|107>    H        6.40417         2.75060         9.23920
|108>    H        6.54508        -0.21282         8.48251
|109>    H        5.75866         4.42963        12.05339
|110>    H        5.62086         3.61366        14.46899
|111>    H        5.82655        -0.61829        18.15881
|112>    H        6.72933        -2.93067        17.33850
|113>    H        7.83273        -4.00410        15.71824
|114>    H        6.38588        -4.72342        11.79077
|115>    H        6.53471        -3.94424         9.36083
|116>    H        6.39043         4.71345         8.24280
|117>    H        5.84793         6.98627         8.02925
|118>    H        5.96983         7.84492         6.48479
|119>    H        7.41330         7.54106         7.45197
|120> *
|121>
|122>                          ****END OF INPUT****

CARTESIAN COORDINATES (ANGSTROEM)
---------------------------------
  C      7.563650    8.029910    4.394210
  C      6.914930    6.898090    4.159800
  C      6.856050    5.727760    5.039850
  C      6.974360    4.491090    4.433960
  C      6.964980    3.309480    5.183170
  C      7.080100    1.971750    4.732600
  C      7.407810    1.418420    3.487820
  C      8.027660    2.055830    2.445190
  C      8.342550    1.392640    1.246530
  C      8.015450    0.097550    0.833530
  C      7.300450   -1.099260    1.197850
  O      6.676180   -1.415180    2.194880
  N      7.463970   -1.959110    0.091150
  C      6.887960   -3.280400    0.080750
  C      5.443560   -3.257770   -0.413320
  C      8.246710   -1.386160   -0.877440
  C      8.644460   -1.953880   -2.124950
  S      7.589780   -2.894730   -3.149360
  C      8.733310   -2.884020   -4.419970
  C      9.870530   -2.198680   -4.094920
  C      9.835710   -1.683030   -2.770250
  C     11.035640   -1.095330   -2.157570
  O     11.240540   -1.069950   -0.960360
  C     12.035350   -0.626840   -3.143430
  C     13.030830    0.233420   -2.702520
  C     14.009730    0.710680   -3.563720
  C     15.028870    1.694130   -3.070480
  C     14.430730    3.102770   -3.050210
  C     13.991850    0.290200   -4.889870
  C     13.018950   -0.581270   -5.339800
  C     12.022570   -1.042140   -4.482780
  C     10.995530   -1.962380   -5.013210
  O     11.051480   -2.452410   -6.125260
  C      8.586470   -0.115140   -0.446070
  C      9.270550    1.091140   -0.850970
  O      9.877930    1.386570   -1.862020
  N      9.071540    1.970360    0.222340
  C      9.700260    3.267190    0.238810
  C     10.984160    3.263240    1.065350
  S      6.809700    0.865960    6.049550
  C      6.649900    2.135890    7.218580
  C      6.488230    1.893460    8.589260
  C      6.450940    0.643810    9.138830
  C      6.329140    0.311580   10.509190
  C      6.158640    1.235830   11.575940
  N      6.033350    2.551360   11.317250
  C      5.854750    3.382850   12.309630
  C      5.783270    2.940050   13.639650
  N      5.909500    1.672810   13.922220
  C      6.103140    0.786130   12.933930
  C      6.244900   -0.579570   13.296090
  C      6.262690   -0.955070   14.669930
  S      5.779490    0.224570   15.872970
  C      6.020540   -0.905740   17.144290
  C      6.491460   -2.096200   16.701960
  C      6.631540   -2.143060   15.295600
  S      7.294540   -3.577190   14.548060
  C      6.327530   -1.502550   12.225620
  N      6.326030   -2.817960   12.496970
  C      6.390210   -3.677840   11.517220
  C      6.468420   -3.245400   10.183270
  N      6.457980   -1.976800    9.875330
  C      6.373020   -1.066920   10.864620
  C      6.734130    3.397690    6.584360
  C      6.584650    4.655280    7.182470
  C      6.657520    5.812430    6.443320
  C      6.456150    7.124630    7.137940
  H      7.580170    8.824960    3.667910
  H      8.125070    8.200100    5.295830
  H      6.416970    6.764520    3.206080
  H      7.060010    4.446960    3.359980
  H      7.201480    0.360950    3.376280
  H      8.346760    3.080600    2.550030
  H      6.909400   -3.642580    1.112960
  H      7.502520   -3.933880   -0.542810
  H      4.842170   -2.637200    0.246080
  H      5.038030   -4.265430   -0.412480
  H      5.386230   -2.857960   -1.423210
  H      8.515290   -3.372330   -5.349370
  H     13.019230    0.529590   -1.663970
  H     15.907870    1.680640   -3.717470
  H     15.340560    1.422900   -2.059800
  H     14.145730    3.406650   -4.054830
  H     15.153640    3.816530   -2.662090
  H     13.542990    3.125810   -2.422770
  H     14.749950    0.646230   -5.572820
  H     13.005910   -0.919290   -6.365620
  H      8.996310    4.016170    0.613610
  H      9.936010    3.498330   -0.804250
  H     10.776790    3.022940    2.105760
  H     11.460570    4.238920    1.017370
  H     11.669610    2.517210    0.670960
  H      6.404170    2.750600    9.239200
  H      6.545080   -0.212820    8.482510
  H      5.758660    4.429630   12.053390
  H      5.620860    3.613660   14.468990
  H      5.826550   -0.618290   18.158810
  H      6.729330   -2.930670   17.338500
  H      7.832730   -4.004100   15.718240
  H      6.385880   -4.723420   11.790770
  H      6.534710   -3.944240    9.360830
  H      6.390430    4.713450    8.242800
  H      5.847930    6.986270    8.029250
  H      5.969830    7.844920    6.484790
  H      7.413300    7.541060    7.451970

 Total Charge           Charge          ....    0
 Multiplicity           Mult            ....    1
 Number of Electrons    NEL             ....  494
 Basis Dimension        Dim             .... 1144

ORBITAL ENERGIES
----------------

  NO   OCC          E(Eh)            E(eV)
   0   2.0000     -88.971381     -2421.0344
   1   2.0000     -88.959574     -2420.7131
   2   2.0000     -88.938433     -2420.1378
   3   2.0000     -88.920210     -2419.6419
   4   2.0000     -19.195530      -522.3369
   5   2.0000     -19.191924      -522.2388
   6   2.0000     -19.179024      -521.8878
   7   2.0000     -19.171991      -521.6964
   8   2.0000     -14.440141      -392.9362
   9   2.0000     -14.438994      -392.9050
  10   2.0000     -14.433849      -392.7650
  11   2.0000     -14.431693      -392.7063
  12   2.0000     -14.431074      -392.6895
  13   2.0000     -14.425392      -392.5349
  14   2.0000     -10.360085      -281.9122
  15   2.0000     -10.355391      -281.7845
  16   2.0000     -10.351032      -281.6659
  17   2.0000     -10.349726      -281.6304
  18   2.0000     -10.328674      -281.0575
  19   2.0000     -10.328289      -281.0470
  20   2.0000     -10.325902      -280.9821
  21   2.0000     -10.325057      -280.9591
  22   2.0000     -10.323919      -280.9281
  23   2.0000     -10.323841      -280.9260
  24   2.0000     -10.323161      -280.9075
  25   2.0000     -10.322302      -280.8841
  26   2.0000     -10.321831      -280.8713
  27   2.0000     -10.321229      -280.8549
  28   2.0000     -10.314780      -280.6794
  29   2.0000     -10.305009      -280.4135
  30   2.0000     -10.303685      -280.3775
  31   2.0000     -10.301628      -280.3216
  32   2.0000     -10.299487      -280.2633
  33   2.0000     -10.298569      -280.2383
  34   2.0000     -10.298290      -280.2307
  35   2.0000     -10.297187      -280.2007
  36   2.0000     -10.294005      -280.1141
  37   2.0000     -10.288713      -279.9701
  38   2.0000     -10.284929      -279.8671
  39   2.0000     -10.281349      -279.7697
  40   2.0000     -10.280481      -279.7461
  41   2.0000     -10.280401      -279.7439
  42   2.0000     -10.279629      -279.7229
  43   2.0000     -10.278889      -279.7028
  44   2.0000     -10.278530      -279.6930
  45   2.0000     -10.278496      -279.6921
  46   2.0000     -10.274901      -279.5943
  47   2.0000     -10.273538      -279.5572
  48   2.0000     -10.273199      -279.5480
  49   2.0000     -10.273034      -279.5435
  50   2.0000     -10.271565      -279.5035
  51   2.0000     -10.270278      -279.4685
  52   2.0000     -10.269986      -279.4605
  53   2.0000     -10.269917      -279.4586
  54   2.0000     -10.268835      -279.4292
  55   2.0000     -10.267005      -279.3794
  56   2.0000     -10.266176      -279.3568
  57   2.0000     -10.266077      -279.3542
  58   2.0000     -10.262479      -279.2563
  59   2.0000     -10.262113      -279.2463
  60   2.0000     -10.262002      -279.2433
  61   2.0000     -10.261826      -279.2385
  62   2.0000     -10.254719      -279.0451
  63   2.0000     -10.251479      -278.9569
  64   2.0000     -10.251396      -278.9547
  65   2.0000     -10.245473      -278.7935
  66   2.0000     -10.241912      -278.6966
  67   2.0000      -8.066426      -219.4986
  68   2.0000      -8.054469      -219.1732
  69   2.0000      -8.032234      -218.5682
  70   2.0000      -8.013284      -218.0526
  71   2.0000      -6.035597      -164.2369
  72   2.0000      -6.031156      -164.1161
  73   2.0000      -6.029184      -164.0624
  74   2.0000      -6.023298      -163.9023
  75   2.0000      -6.019330      -163.7943
  76   2.0000      -6.017432      -163.7427
  77   2.0000      -6.001963      -163.3217
  78   2.0000      -5.997111      -163.1897
  79   2.0000      -5.994226      -163.1112
  80   2.0000      -5.983680      -162.8242
  81   2.0000      -5.979420      -162.7083
  82   2.0000      -5.973478      -162.5466
  83   2.0000      -1.120101       -30.4795
  84   2.0000      -1.111525       -30.2461
  85   2.0000      -1.110752       -30.2251
  86   2.0000      -1.107379       -30.1333
  87   2.0000      -1.092791       -29.7364
  88   2.0000      -1.084295       -29.5052
  89   2.0000      -1.048901       -28.5421
  90   2.0000      -1.041264       -28.3342
  91   2.0000      -1.017046       -27.6752
  92   2.0000      -1.007760       -27.4225
  93   2.0000      -0.992776       -27.0148
  94   2.0000      -0.990143       -26.9431
  95   2.0000      -0.974102       -26.5067
  96   2.0000      -0.953199       -25.9379
  97   2.0000      -0.948860       -25.8198
  98   2.0000      -0.941898       -25.6303
  99   2.0000      -0.915827       -24.9209
 100   2.0000      -0.907402       -24.6917
 101   2.0000      -0.892899       -24.2970
 102   2.0000      -0.890211       -24.2239
 103   2.0000      -0.873954       -23.7815
 104   2.0000      -0.873662       -23.7736
 105   2.0000      -0.869789       -23.6682
 106   2.0000      -0.864260       -23.5177
 107   2.0000      -0.862637       -23.4736
 108   2.0000      -0.859434       -23.3864
 109   2.0000      -0.851043       -23.1581
 110   2.0000      -0.849153       -23.1066
 111   2.0000      -0.832915       -22.6648
 112   2.0000      -0.829302       -22.5665
 113   2.0000      -0.809825       -22.0365
 114   2.0000      -0.808546       -22.0017
 115   2.0000      -0.808400       -21.9977
 116   2.0000      -0.797031       -21.6883
 117   2.0000      -0.796411       -21.6715
 118   2.0000      -0.779350       -21.2072
 119   2.0000      -0.772291       -21.0151
 120   2.0000      -0.770131       -20.9563
 121   2.0000      -0.762505       -20.7488
 122   2.0000      -0.751104       -20.4386
 123   2.0000      -0.749006       -20.3815
 124   2.0000      -0.736612       -20.0442
 125   2.0000      -0.729028       -19.8379
 126   2.0000      -0.726618       -19.7723
 127   2.0000      -0.717233       -19.5169
 128   2.0000      -0.707164       -19.2429
 129   2.0000      -0.699356       -19.0304
 130   2.0000      -0.698746       -19.0138
 131   2.0000      -0.694803       -18.9066
 132   2.0000      -0.688170       -18.7261
 133   2.0000      -0.677187       -18.4272
 134   2.0000      -0.664412       -18.0796
 135   2.0000      -0.662692       -18.0328
 136   2.0000      -0.660726       -17.9793
 137   2.0000      -0.658914       -17.9300
 138   2.0000      -0.650462       -17.7000
 139   2.0000      -0.648379       -17.6433
 140   2.0000      -0.643328       -17.5059
 141   2.0000      -0.637768       -17.3545
 142   2.0000      -0.631739       -17.1905
 143   2.0000      -0.612359       -16.6631
 144   2.0000      -0.606028       -16.4909
 145   2.0000      -0.605980       -16.4896
 146   2.0000      -0.599721       -16.3192
 147   2.0000      -0.597365       -16.2551
 148   2.0000      -0.591590       -16.0980
 149   2.0000      -0.582166       -15.8415
 150   2.0000      -0.580890       -15.8068
 151   2.0000      -0.574550       -15.6343
 152   2.0000      -0.571927       -15.5629
 153   2.0000      -0.568768       -15.4770
 154   2.0000      -0.562755       -15.3133
 155   2.0000      -0.561277       -15.2731
 156   2.0000      -0.557672       -15.1750
 157   2.0000      -0.554128       -15.0786
 158   2.0000      -0.551929       -15.0188
 159   2.0000      -0.549633       -14.9563
 160   2.0000      -0.547761       -14.9053
 161   2.0000      -0.541326       -14.7302
 162   2.0000      -0.530670       -14.4403
 163   2.0000      -0.528131       -14.3712
 164   2.0000      -0.526351       -14.3227
 165   2.0000      -0.523900       -14.2560
 166   2.0000      -0.522960       -14.2305
 167   2.0000      -0.521586       -14.1931
 168   2.0000      -0.520110       -14.1529
 169   2.0000      -0.518738       -14.1156
 170   2.0000      -0.516349       -14.0506
 171   2.0000      -0.515825       -14.0363
 172   2.0000      -0.512332       -13.9412
 173   2.0000      -0.508832       -13.8460
 174   2.0000      -0.504232       -13.7208
 175   2.0000      -0.502729       -13.6799
 176   2.0000      -0.501116       -13.6361
 177   2.0000      -0.500866       -13.6293
 178   2.0000      -0.499097       -13.5811
 179   2.0000      -0.498300       -13.5594
 180   2.0000      -0.496213       -13.5026
 181   2.0000      -0.493764       -13.4360
 182   2.0000      -0.490738       -13.3537
 183   2.0000      -0.487958       -13.2780
 184   2.0000      -0.486326       -13.2336
 185   2.0000      -0.483497       -13.1566
 186   2.0000      -0.482532       -13.1304
 187   2.0000      -0.479471       -13.0471
 188   2.0000      -0.477096       -12.9824
 189   2.0000      -0.475892       -12.9497
 190   2.0000      -0.468296       -12.7430
 191   2.0000      -0.467277       -12.7153
 192   2.0000      -0.463582       -12.6147
 193   2.0000      -0.460068       -12.5191
 194   2.0000      -0.456949       -12.4342
 195   2.0000      -0.456394       -12.4191
 196   2.0000      -0.454425       -12.3655
 197   2.0000      -0.453342       -12.3361
 198   2.0000      -0.452047       -12.3008
 199   2.0000      -0.448627       -12.2078
 200   2.0000      -0.447274       -12.1709
 201   2.0000      -0.445514       -12.1231
 202   2.0000      -0.440037       -11.9740
 203   2.0000      -0.439304       -11.9541
 204   2.0000      -0.439074       -11.9478
 205   2.0000      -0.430752       -11.7214
 206   2.0000      -0.429151       -11.6778
 207   2.0000      -0.427092       -11.6218
 208   2.0000      -0.424165       -11.5421
 209   2.0000      -0.423384       -11.5209
 210   2.0000      -0.422406       -11.4943
 211   2.0000      -0.419775       -11.4226
 212   2.0000      -0.418589       -11.3904
 213   2.0000      -0.415769       -11.3137
 214   2.0000      -0.415364       -11.3026
 215   2.0000      -0.413845       -11.2613
 216   2.0000      -0.411006       -11.1840
 217   2.0000      -0.408442       -11.1143
 218   2.0000      -0.406395       -11.0586
 219   2.0000      -0.403660       -10.9842
 220   2.0000      -0.402147       -10.9430
 221   2.0000      -0.393234       -10.7004
 222   2.0000      -0.389043       -10.5864
 223   2.0000      -0.366660        -9.9773
 224   2.0000      -0.362708        -9.8698
 225   2.0000      -0.357706        -9.7337
 226   2.0000      -0.350663        -9.5420
 227   2.0000      -0.347492        -9.4557
 228   2.0000      -0.335709        -9.1351
 229   2.0000      -0.335347        -9.1253
 230   2.0000      -0.329854        -8.9758
 231   2.0000      -0.327743        -8.9183
 232   2.0000      -0.325871        -8.8674
 233   2.0000      -0.320141        -8.7115
 234   2.0000      -0.318081        -8.6554
 235   2.0000      -0.317647        -8.6436
 236   2.0000      -0.314998        -8.5715
 237   2.0000      -0.313461        -8.5297
 238   2.0000      -0.312623        -8.5069
 239   2.0000      -0.310378        -8.4458
 240   2.0000      -0.305175        -8.3042
 241   2.0000      -0.297717        -8.1013
 242   2.0000      -0.297585        -8.0977
 243   2.0000      -0.281475        -7.6593
 244   2.0000      -0.261803        -7.1240
 245   2.0000      -0.236619        -6.4387
 246   2.0000      -0.205631        -5.5955
 247   0.0000      -0.099249        -2.7007
 248   0.0000      -0.070188        -1.9099
 249   0.0000      -0.045399        -1.2354
 250   0.0000      -0.032664        -0.8888
 251   0.0000      -0.009809        -0.2669

MULLIKEN ATOMIC CHARGES
-----------------------
   0 C :   -0.014201
   1 C :   -0.056346
   2 C :    0.076684
   3 C :   -0.107267
   4 C :    0.143102
   5 C :   -0.128458
   6 C :    0.063555
   7 C :   -0.065645
   8 C :    0.142557
   9 C :   -0.074320
  10 C :    0.152834
  11 O :   -0.226327
  12 N :   -0.251333
  13 C :    0.108018
  14 C :    0.001209
  15 C :    0.119112
  16 C :   -0.231284
  17 S :    0.157678
  18 C :   -0.104663
  19 C :   -0.002445
  20 C :    0.099386
  21 C :    0.108465
  22 O :   -0.160326
  23 C :    0.048723
  24 C :   -0.064182
  25 C :    0.001212
  26 C :    0.068439
  27 C :    0.020308
  28 C :    0.009372
  29 C :   -0.014790
  30 C :   -0.030415
  31 C :    0.142026
  32 O :   -0.158394
  33 C :   -0.012782
  34 C :    0.141517
  35 O :   -0.211314
  36 N :   -0.263509
  37 C :    0.103991
  38 C :    0.002205
  39 S :    0.181142
  40 C :   -0.071249
  41 C :    0.004873
  42 C :   -0.098168
  43 C :    0.096377
  44 C :   -0.033482
  45 N :   -0.025055
  46 C :    0.034191
  47 C :    0.045972
  48 N :   -0.076326
  49 C :   -0.042966
  50 C :    0.156859
  51 C :   -0.234239
  52 S :    0.141481
  53 C :   -0.033043
  54 C :    0.009958
  55 C :   -0.001185
  56 S :    0.068952
  57 C :   -0.038342
  58 N :   -0.079924
  59 C :    0.065983
  60 C :    0.030648
  61 N :   -0.015972
  62 C :   -0.046140
  63 C :    0.124249
  64 C :   -0.090503
  65 C :   -0.067817
  66 C :    0.084337
  67 H :    0.025448
  68 H :    0.017895
  69 H :    0.008080
  70 H :   -0.037956
  71 H :    0.010429
  72 H :   -0.030902
  73 H :    0.034467
  74 H :    0.022155
  75 H :    0.034941
  76 H :    0.017487
  77 H :    0.011924
  78 H :    0.037752
  79 H :   -0.020384
  80 H :    0.000324
  81 H :    0.011231
  82 H :    0.010750
  83 H :    0.015345
  84 H :    0.018772
  85 H :   -0.025745
  86 H :   -0.008600
  87 H :    0.017427
  88 H :    0.038040
  89 H :    0.020439
  90 H :    0.017831
  91 H :    0.030419
  92 H :    0.002412
  93 H :   -0.001905
  94 H :    0.012026
  95 H :    0.013864
  96 H :    0.019730
  97 H :   -0.021454
  98 H :    0.011518
  99 H :    0.011944
 100 H :    0.019524
 101 H :   -0.041026
 102 H :    0.010496
 103 H :    0.030939
 104 H :    0.031362
Sum of atomic charges:   -0.0000000

LOEWDIN ATOMIC CHARGES
----------------------
   0 C :   -0.040237
   1 C :   -0.020711
   2 C :   -0.021189
   3 C :   -0.013035
   4 C :   -0.036214
   5 C :   -0.180778
   6 C :    0.014038
   7 C :   -0.074523
   8 C :    0.086176
   9 C :   -0.132358
  10 C :    0.075341
  11 O :   -0.218535
  12 N :    0.003630
  13 C :    0.032642
  14 C :   -0.064588
  15 C :    0.039124
  16 C :   -0.156234
  17 S :    0.484623
  18 C :   -0.138193
  19 C :   -0.091248
  20 C :   -0.067461
  21 C :    0.090592
  22 O :   -0.142036
  23 C :   -0.032284
  24 C :    0.014122
  25 C :   -0.001327
  26 C :   -0.027131
  27 C :   -0.047397
  28 C :   -0.017606
  29 C :    0.016663
  30 C :   -0.061699
  31 C :    0.083685
  32 O :   -0.152353
  33 C :   -0.101057
  34 C :    0.086642
  35 O :   -0.199878
  36 N :   -0.004174
  37 C :    0.035508
  38 C :   -0.062156
  39 S :    0.501485
  40 C :   -0.157694
  41 C :   -0.032652
  42 C :   -0.017815
  43 C :   -0.033577
  44 C :   -0.001549
  45 N :   -0.025071
  46 C :    0.010192
  47 C :    0.012704
  48 N :   -0.043558
  49 C :   -0.014240
  50 C :   -0.027187
  51 C :   -0.202154
  52 S :    0.459844
  53 C :   -0.177540
  54 C :   -0.096273
  55 C :   -0.166057
  56 S :    0.275045
  57 C :   -0.010891
  58 N :   -0.041858
  59 C :    0.013524
  60 C :    0.013560
  61 N :   -0.031460
  62 C :   -0.000175
  63 C :   -0.040347
  64 C :   -0.016627
  65 C :   -0.016517
  66 C :   -0.046753
  67 H :    0.026203
  68 H :    0.021969
  69 H :    0.031714
  70 H :    0.025735
  71 H :    0.038174
  72 H :    0.024282
  73 H :    0.035182
  74 H :    0.018303
  75 H :    0.032530
  76 H :    0.028197
  77 H :    0.011430
  78 H :    0.034510
  79 H :    0.031191
  80 H :    0.025453
  81 H :    0.030093
  82 H :    0.024583
  83 H :    0.022942
  84 H :    0.026112
  85 H :    0.027338
  86 H :    0.034773
  87 H :    0.020429
  88 H :    0.035366
  89 H :    0.023918
  90 H :    0.027880
  91 H :    0.031806
  92 H :    0.027007
  93 H :    0.022650
  94 H :    0.025998
  95 H :    0.028139
  96 H :    0.021983
  97 H :    0.023522
  98 H :   -0.062630
  99 H :    0.025135
 100 H :    0.029433
 101 H :    0.026893
 102 H :    0.029326
 103 H :    0.033245
 104 H :    0.034445

  Mayer bond orders larger than 0.100000
B(  0-C ,  1-C ) :   1.9718 B(  0-C , 67-H ) :   0.9497 B(  0-C , 68-H ) :   0.9619
B(  1-C ,  2-C ) :   1.0188 B(  1-C , 69-H ) :   0.9631 B(  2-C ,  3-C ) :   1.4666
B(  2-C , 65-C ) :   1.2466 B(  3-C ,  4-C ) :   1.2194 B(  3-C , 70-H ) :   0.9944
B(  4-C ,  5-C ) :   1.2513 B(  4-C , 63-C ) :   1.2314 B(  5-C ,  6-C ) :   1.2235
B(  5-C , 39-S ) :   1.1391 B(  6-C ,  7-C ) :   1.5207 B(  6-C , 71-H ) :   0.9266
B(  7-C ,  8-C ) :   1.2230 B(  7-C , 72-H ) :   0.9527 B(  8-C ,  9-C ) :   1.2937
B(  8-C , 36-N ) :   1.1388 B(  9-C , 10-C ) :   1.0090 B(  9-C , 33-C ) :   1.2484
B( 10-C , 11-O ) :   2.0077 B( 10-C , 12-N ) :   1.0516 B( 11-O , 71-H ) :   0.1090
B( 12-N , 13-C ) :   0.9479 B( 12-N , 15-C ) :   1.1895 B( 13-C , 14-C ) :   1.1174
B( 13-C , 73-H ) :   0.9313 B( 13-C , 74-H ) :   0.9481 B( 14-C , 75-H ) :   0.9649
B( 14-C , 76-H ) :   0.9672 B( 14-C , 77-H ) :   0.9635 B( 15-C , 16-C ) :   1.0719
B( 15-C , 33-C ) :   1.4245 B( 16-C , 17-S ) :   1.1448 B( 16-C , 20-C ) :   1.5131
B( 17-S , 18-C ) :   1.1761 B( 18-C , 19-C ) :   1.5367 B( 18-C , 78-H ) :   0.9670
B( 19-C , 20-C ) :   1.2352 B( 19-C , 31-C ) :   0.9376 B( 20-C , 21-C ) :   0.9378
B( 21-C , 22-O ) :   2.2256 B( 21-C , 23-C ) :   0.9199 B( 23-C , 24-C ) :   1.3973
B( 23-C , 30-C ) :   1.3430 B( 24-C , 25-C ) :   1.3299 B( 24-C , 79-H ) :   1.0000
B( 25-C , 26-C ) :   1.0364 B( 25-C , 28-C ) :   1.3711 B( 26-C , 27-C ) :   1.0993
B( 26-C , 80-H ) :   0.9353 B( 26-C , 81-H ) :   0.9343 B( 27-C , 82-H ) :   0.9677
B( 27-C , 83-H ) :   0.9686 B( 27-C , 84-H ) :   0.9717 B( 28-C , 29-C ) :   1.3549
B( 28-C , 85-H ) :   0.9956 B( 29-C , 30-C ) :   1.3907 B( 29-C , 86-H ) :   0.9950
B( 30-C , 31-C ) :   0.9435 B( 31-C , 32-O ) :   2.2541 B( 33-C , 34-C ) :   0.9639
B( 34-C , 35-O ) :   2.0897 B( 34-C , 36-N ) :   1.0567 B( 36-N , 37-C ) :   0.9541
B( 37-C , 38-C ) :   1.1204 B( 37-C , 87-H ) :   0.9489 B( 37-C , 88-H ) :   0.9274
B( 38-C , 89-H ) :   0.9669 B( 38-C , 90-H ) :   0.9675 B( 38-C , 91-H ) :   0.9633
B( 39-S , 40-C ) :   1.1556 B( 40-C , 41-C ) :   1.2031 B( 40-C , 63-C ) :   1.2518
B( 41-C , 42-C ) :   1.5410 B( 41-C , 92-H ) :   0.9471 B( 42-C , 43-C ) :   1.2306
B( 42-C , 93-H ) :   0.9514 B( 43-C , 44-C ) :   1.2046 B( 43-C , 50-C ) :   0.1244
B( 43-C , 62-C ) :   1.2204 B( 44-C , 45-N ) :   1.4664 B( 44-C , 49-C ) :   1.1619
B( 45-N , 46-C ) :   1.6486 B( 46-C , 47-C ) :   1.2223 B( 46-C , 94-H ) :   0.9741
B( 47-C , 48-N ) :   1.6338 B( 47-C , 95-H ) :   0.9729 B( 48-N , 49-C ) :   1.4082
B( 49-C , 50-C ) :   1.2274 B( 50-C , 51-C ) :   1.1990 B( 50-C , 57-C ) :   1.2443
B( 51-C , 52-S ) :   1.1154 B( 51-C , 55-C ) :   1.4683 B( 52-S , 53-C ) :   1.1362
B( 53-C , 54-C ) :   1.5719 B( 53-C , 96-H ) :   0.9695 B( 54-C , 55-C ) :   1.2570
B( 54-C , 97-H ) :   0.9886 B( 55-C , 56-S ) :   1.0645 B( 56-S , 98-H ) :   0.9148
B( 57-C , 58-N ) :   1.4124 B( 57-C , 62-C ) :   1.1504 B( 58-N , 59-C ) :   1.6030
B( 59-C , 60-C ) :   1.2153 B( 59-C , 99-H ) :   0.9665 B( 60-C , 61-N ) :   1.6713
B( 60-C ,100-H ) :   0.9775 B( 61-N , 62-C ) :   1.4762 B( 63-C , 64-C ) :   1.2221
B( 64-C , 65-C ) :   1.5143 B( 64-C ,101-H ) :   0.9930 B( 65-C , 66-C ) :   1.0748
B( 66-C ,102-H ) :   0.9526 B( 66-C ,103-H ) :   0.9460 B( 66-C ,104-H ) :   0.9472

-----------------------------------------------------------------------------
         ABSORPTION SPECTRUM VIA TRANSITION ELECTRIC DIPOLE MOMENTS
-----------------------------------------------------------------------------
State   Energy  Wavelength   fosc         T2         TX        TY        TZ
        (cm-1)    (nm)                  (au**2)     (au)      (au)      (au)
-----------------------------------------------------------------------------
   0    9538.7   1048.4   0.908626498  31.35967  -0.70294  -0.29250   5.54797
   1   14417.7    693.6   0.330502470   7.54667   0.55005  -2.34335  -1.32394
   2   16555.3    604.0   0.154436576   3.07107  -0.08155  -0.81430   1.54962
   3   19157.6    522.0   0.100452210   1.72621   0.11325   0.35546  -1.25978
   4   19866.6    503.4   0.026338556   0.43646   0.52504  -0.15940  -0.36795
   5   22304.6    448.3   0.004577604   0.06756  -0.11147  -0.19650   0.12855
   6   23325.4    428.7   0.158936425   2.24321  -0.30529  -1.40665   0.41393
   7   24161.0    413.9   0.013299907   0.18122   0.12406  -0.12117  -0.38878
   8   24286.0    411.8   0.013502557   0.18304   0.24399   0.07631   0.34304
   9   25439.8    393.1   0.002037613   0.02637  -0.10585  -0.11986   0.02827
  10   25883.2    386.4   0.007028837   0.08940   0.08434  -0.28686  -0.00022
  11   26107.0    383.0   0.007976212   0.10058  -0.06737  -0.29161   0.10492
  12   26368.5    379.2   0.113394104   1.41573  -0.15473   1.15722  -0.22943
  13   26784.5    373.3   0.043731304   0.53751   0.06543  -0.71695  -0.13859
  14   27967.9    357.6   0.043211188   0.50864  -0.25783   0.46054   0.47966
  15   28612.7    349.5   0.019917129   0.22916  -0.10770   0.10500  -0.45447
  16   28642.1    349.1   0.012848607   0.14768  -0.13128  -0.32602  -0.15543
  17   28966.9    345.2   0.008591535   0.09764  -0.23848  -0.16473  -0.11676
  18   29249.5    341.9   0.020302053   0.22851  -0.23636  -0.18770   0.37068
  19   30441.9    328.5   0.344267090   3.72306   0.00041   1.50662  -1.20546
  20   31559.3    316.9   0.148113676   1.54505   0.22218   0.45335  -1.13585
  21   31883.6    313.6   0.002073985   0.02141  -0.04533   0.09565   0.10105
  22   32117.4    311.4   0.003034069   0.03110  -0.11552   0.12640  -0.04217
  23   32565.9    307.1   0.033106778   0.33468   0.42370   0.00951  -0.39379
  24   33265.5    300.6   0.141740417   1.40273   0.04515   1.10247  -0.43041
  25   33394.3    299.5   0.112150813   1.10562  -0.35254   0.85884   0.49369
  26   33557.4    298.0   0.089199722   0.87509   0.20694  -0.66063  -0.62915
  27   33854.5    295.4   0.040786144   0.39662   0.06374  -0.35429  -0.51675
  28   34042.7    293.7   0.065852418   0.63683  -0.44108  -0.00504   0.66502
  29   34266.2    291.8   0.061085118   0.58688  -0.12539   0.63925  -0.40313
  30   34482.4    290.0   0.043231405   0.41274   0.02412  -0.08518  -0.63632
  31   34642.5    288.7   0.058752409   0.55833  -0.29603  -0.36319   0.58206
  32   34933.9    286.3   0.025814498   0.24327   0.06100   0.30920  -0.37940
  33   35103.2    284.9   0.129301010   1.21264   0.76092   0.02610  -0.79559
  34   35402.8    282.5   0.034755700   0.32319  -0.40058  -0.35050  -0.19970
  35   35529.1    281.5   0.008466238   0.07845   0.16248   0.19010  -0.12613
  36   35671.6    280.3   0.301903423   2.78625  -0.03064   1.60310   0.46409
  37   35785.5    279.4   0.193913517   1.78392  -0.28533   1.24125   0.40225
  38   36086.6    277.1   0.012803068   0.11680   0.15449   0.29308  -0.08390
  39   36292.3    275.5   0.044616455   0.40472  -0.52141  -0.25249   0.26287
  40   36733.8    272.2   0.014597323   0.13082  -0.22926  -0.20589  -0.18939
  41   36950.3    270.6   0.014030917   0.12501   0.21406   0.00707  -0.28132
  42   37657.8    265.5   0.024506865   0.21424   0.08852   0.31489  -0.32749
  43   37754.2    264.9   0.013676486   0.11926   0.07509  -0.33241   0.05589
  44   37910.6    263.8   0.006616351   0.05746  -0.06697  -0.15488   0.17025
  45   37914.2    263.8   0.006904029   0.05995  -0.07376  -0.21781  -0.08407
  46   38215.4    261.7   0.061052010   0.52594  -0.58998  -0.37399   0.19491
  47   38665.7    258.6   0.039642163   0.33753   0.38904   0.32851   0.27975
  48   38815.9    257.6   0.007519570   0.06378  -0.17125  -0.10601  -0.15236
  49   38884.6    257.2   0.029320928   0.24824   0.03100  -0.41628  -0.27201
  50   39160.9    255.4   0.017070318   0.14350   0.00899  -0.00567   0.37867
  51   39281.4    254.6   0.006341402   0.05315   0.08565  -0.20906  -0.04585
  52   39517.9    253.0   0.116199719   0.96802   0.33037  -0.67982  -0.62986
  53   39614.2    252.4   0.003156013   0.02623   0.06308  -0.00338  -0.14912
  54   39779.9    251.4   0.046536076   0.38513  -0.30973   0.48080  -0.24088
  55   39840.6    251.0   0.112389184   0.92870  -0.27232  -0.91715  -0.11560
  56   39994.5    250.0   0.005833515   0.04802  -0.07986  -0.08508  -0.18548
  57   40310.0    248.1   0.022794756   0.18616  -0.20947  -0.14608   0.34778

FINAL SINGLE POINT ENERGY     -4260.843069186954

DIPOLE MOMENT
-------------
                                X             Y             Z
Electronic contribution:    -24.82073     -44.49717      40.00987
Nuclear contribution   :     24.45677      46.27930     -37.66729
                        -----------------------------------------
Total Dipole Moment    :     -0.36396       1.78213       2.34258
                        -----------------------------------------
Magnitude (a.u.)       :      2.96583
Magnitude (Debye)      :      7.53853

Rotational constants in cm-1:     0.001728     0.000332     0.000302
Rotational constants in MHz :    51.807231     9.940531     9.048795

                             ****ORCA TERMINATED NORMALLY****
TOTAL RUN TIME: 0 days 0 hours 9 minutes 48 seconds 929 msec
