                         Program Version 4.2.0 -  RELEASE  -
|  1> # ORCA input file
|  2> # SCF done       -160.303085408367          0.000352244636
|  3> ! CAM-B3LYP def2-SVP def2/J RIJCOSX Grid4 TightSCF
|  4> %maxcore 5000
|  5> %tddft
|  6>     Mode sTDDFT
|  7>     Ethresh 5.0
|  8>     maxcore 5000
|  9> end
| 10>
| 11> %pal
| 12>   nprocs 6
| 13>   end
| 14> * xyz 0 1
| 15>    C        0.32611       -14.08056         1.71418
| 16>    C       -0.59577       -13.90175         0.72055
| 17>    F       -1.39773       -14.91413         0.37846
| 18>    C       -0.74681       -12.67758         0.02770
| 19>    F       -1.68070       -12.62319        -0.92145
| 20>    C        0.02619       -11.56406         0.30515
| 21>    C        0.99152       -11.72684         1.33649
| 22>    C        1.13638       -12.98019         2.03147
| 23>    N        2.09242       -12.92980         2.95865
| 24>    S        2.74441       -11.46999         2.96385
| 25>    N        1.85241       -10.81230         1.79035
| 26>    C       -0.12530       -10.31273        -0.39280
| 27>    N        0.65328        -9.22888        -0.06658
| 28>    C        0.34353        -8.16630        -0.84073
| 29>    C       -0.66672        -8.55515        -1.70076
| 30>    C       -0.96088        -9.91189        -1.41666
| 31>    S       -2.26100       -10.41636        -2.54131
| 32>    O       -1.79871       -11.38301        -3.49270
| 33>    O       -3.49506       -10.65609        -1.85130
| 34>    C       -2.32713        -8.77313        -3.32193
| 35>    C       -1.43068        -7.94469        -2.74940
| 36>    C       -3.26830        -8.60414        -4.36669
| 37>    C       -3.61506        -7.41705        -4.91897
| 38>    C       -4.56620        -7.24200        -5.95736
| 39>    S       -5.10881        -5.59764        -6.31695
| 40>    C       -6.18411        -6.13867        -7.55359
| 41>    C       -6.12553        -7.48272        -7.69307
| 42>    C       -5.20779        -8.12672        -6.79809
| 43>    C       -5.21184        -9.52652        -7.09926
| 44>    C       -6.09206        -9.78782        -8.11809
| 45>    C       -6.74464        -8.51147        -8.55409
| 46>    O       -7.58161        -8.34632        -9.41316
| 47>    C       -6.33240       -11.06640        -8.69993
| 48>    C       -7.22454       -11.29067        -9.69004
| 49>    C       -7.41145       -12.57619       -10.27584
| 50>    N       -8.34464       -12.82471       -11.25749
| 51>    C       -8.30344       -14.12310       -11.65102
| 52>    C       -7.31693       -14.74933       -10.91407
| 53>    C       -6.76407       -13.77255       -10.05104
| 54>    S       -5.47816       -14.54538        -9.10239
| 55>    O       -4.18863       -14.00777        -9.44122
| 56>    O       -5.82060       -14.61200        -7.70895
| 57>    C       -5.73924       -16.15375        -9.91508
| 58>    C       -6.73687       -16.05704       -10.81865
| 59>    C       -4.90686       -17.23578        -9.52144
| 60>    C       -4.90700       -18.44840       -10.11736
| 61>    C       -4.09227       -19.58799        -9.79342
| 62>    C       -3.16435       -19.69219        -8.76935
| 63>    F       -2.93876       -18.66607        -7.93664
| 64>    C       -2.41177       -20.86536        -8.53772
| 65>    F       -1.54292       -20.85143        -7.51591
| 66>    C       -2.53068       -21.99438        -9.29970
| 67>    C       -3.45632       -21.94751       -10.35283
| 68>    C       -4.22948       -20.75766       -10.59570
| 69>    N       -5.05032       -20.90419       -11.63315
| 70>    S       -4.86579       -22.38307       -12.23642
| 71>    N       -3.74181       -22.91665       -11.22213
| 72>    H        0.42772       -15.01918         2.23073
| 73>    H        1.35498        -9.28579         0.66413
| 74>    H        0.84481        -7.22490        -0.73544
| 75>    H       -1.26347        -6.91936        -3.04001
| 76>    H       -3.74616        -9.51783        -4.68717
| 77>    H       -3.17213        -6.50783        -4.53444
| 78>    H       -6.77773        -5.42666        -8.09261
| 79>    H       -4.60550       -10.27164        -6.61678
| 80>    H       -5.74800       -11.89436        -8.31680
| 81>    H       -7.82486       -10.47921       -10.07577
| 82>    H       -8.97107       -12.12514       -11.62428
| 83>    H       -8.95781       -14.50439       -12.40937
| 84>    H       -7.09186       -16.87447       -11.42675
| 85>    H       -4.24465       -17.00440        -8.70035
| 86>    H       -5.57347       -18.62903       -10.94968
| 87>    H       -1.94453       -22.87494        -9.10212
| 88> *
| 89>
| 90>                          ****END OF INPUT****

CARTESIAN COORDINATES (ANGSTROEM)
---------------------------------
  C      0.326110  -14.080560    1.714180
  C     -0.595770  -13.901750    0.720550
  F     -1.397730  -14.914130    0.378460
  C     -0.746810  -12.677580    0.027700
  F     -1.680700  -12.623190   -0.921450
  C      0.026190  -11.564060    0.305150
  C      0.991520  -11.726840    1.336490
  C      1.136380  -12.980190    2.031470
  N      2.092420  -12.929800    2.958650
  S      2.744410  -11.469990    2.963850
  N      1.852410  -10.812300    1.790350
  C     -0.125300  -10.312730   -0.392800
  N      0.653280   -9.228880   -0.066580
  C      0.343530   -8.166300   -0.840730
  C     -0.666720   -8.555150   -1.700760
  C     -0.960880   -9.911890   -1.416660
  S     -2.261000  -10.416360   -2.541310
  O     -1.798710  -11.383010   -3.492700
  O     -3.495060  -10.656090   -1.851300
  C     -2.327130   -8.773130   -3.321930
  C     -1.430680   -7.944690   -2.749400
  C     -3.268300   -8.604140   -4.366690
  C     -3.615060   -7.417050   -4.918970
  C     -4.566200   -7.242000   -5.957360
  S     -5.108810   -5.597640   -6.316950
  C     -6.184110   -6.138670   -7.553590
  C     -6.125530   -7.482720   -7.693070
  C     -5.207790   -8.126720   -6.798090
  C     -5.211840   -9.526520   -7.099260
  C     -6.092060   -9.787820   -8.118090
  C     -6.744640   -8.511470   -8.554090
  O     -7.581610   -8.346320   -9.413160
  C     -6.332400  -11.066400   -8.699930
  C     -7.224540  -11.290670   -9.690040
  C     -7.411450  -12.576190  -10.275840
  N     -8.344640  -12.824710  -11.257490
  C     -8.303440  -14.123100  -11.651020
  C     -7.316930  -14.749330  -10.914070
  C     -6.764070  -13.772550  -10.051040
  S     -5.478160  -14.545380   -9.102390
  O     -4.188630  -14.007770   -9.441220
  O     -5.820600  -14.612000   -7.708950
  C     -5.739240  -16.153750   -9.915080
  C     -6.736870  -16.057040  -10.818650
  C     -4.906860  -17.235780   -9.521440
  C     -4.907000  -18.448400  -10.117360
  C     -4.092270  -19.587990   -9.793420
  C     -3.164350  -19.692190   -8.769350
  F     -2.938760  -18.666070   -7.936640
  C     -2.411770  -20.865360   -8.537720
  F     -1.542920  -20.851430   -7.515910
  C     -2.530680  -21.994380   -9.299700
  C     -3.456320  -21.947510  -10.352830
  C     -4.229480  -20.757660  -10.595700
  N     -5.050320  -20.904190  -11.633150
  S     -4.865790  -22.383070  -12.236420
  N     -3.741810  -22.916650  -11.222130
  H      0.427720  -15.019180    2.230730
  H      1.354980   -9.285790    0.664130
  H      0.844810   -7.224900   -0.735440
  H     -1.263470   -6.919360   -3.040010
  H     -3.746160   -9.517830   -4.687170
  H     -3.172130   -6.507830   -4.534440
  H     -6.777730   -5.426660   -8.092610
  H     -4.605500  -10.271640   -6.616780
  H     -5.748000  -11.894360   -8.316800
  H     -7.824860  -10.479210  -10.075770
  H     -8.971070  -12.125140  -11.624280
  H     -8.957810  -14.504390  -12.409370
  H     -7.091860  -16.874470  -11.426750
  H     -4.244650  -17.004400   -8.700350
  H     -5.573470  -18.629030  -10.949680
  H     -1.944530  -22.874940   -9.102120

 Total Charge           Charge          ....    0
 Multiplicity           Mult            ....    1
 Number of Electrons    NEL             ....  436
 Basis Dimension        Dim             ....  898

ORBITAL ENERGIES
----------------

  NO   OCC          E(Eh)            E(eV)
   0   2.0000     -89.129674     -2425.3417
   1   2.0000     -89.126861     -2425.2652
   2   2.0000     -89.039753     -2422.8948
   3   2.0000     -89.019773     -2422.3512
   4   2.0000     -88.957664     -2420.6611
   5   2.0000     -24.804414      -674.9624
   6   2.0000     -24.797339      -674.7699
   7   2.0000     -24.793894      -674.6761
   8   2.0000     -24.787436      -674.5004
   9   2.0000     -19.211602      -522.7743
  10   2.0000     -19.179666      -521.9053
  11   2.0000     -19.178151      -521.8640
  12   2.0000     -19.177489      -521.8460
  13   2.0000     -19.176240      -521.8120
  14   2.0000     -14.475262      -393.8919
  15   2.0000     -14.471780      -393.7971
  16   2.0000     -14.459722      -393.4690
  17   2.0000     -14.453367      -393.2961
  18   2.0000     -14.436312      -392.8320
  19   2.0000     -14.433541      -392.7566
  20   2.0000     -10.388374      -282.6820
  21   2.0000     -10.386832      -282.6401
  22   2.0000     -10.374438      -282.3028
  23   2.0000     -10.373641      -282.2811
  24   2.0000     -10.359213      -281.8885
  25   2.0000     -10.346732      -281.5489
  26   2.0000     -10.341521      -281.4071
  27   2.0000     -10.331934      -281.1462
  28   2.0000     -10.324735      -280.9503
  29   2.0000     -10.324082      -280.9325
  30   2.0000     -10.322963      -280.9021
  31   2.0000     -10.317664      -280.7579
  32   2.0000     -10.315542      -280.7002
  33   2.0000     -10.312118      -280.6070
  34   2.0000     -10.310329      -280.5583
  35   2.0000     -10.309407      -280.5332
  36   2.0000     -10.303693      -280.3777
  37   2.0000     -10.301629      -280.3216
  38   2.0000     -10.296368      -280.1784
  39   2.0000     -10.295835      -280.1639
  40   2.0000     -10.293152      -280.0909
  41   2.0000     -10.291384      -280.0428
  42   2.0000     -10.290336      -280.0143
  43   2.0000     -10.290010      -280.0054
  44   2.0000     -10.289611      -279.9946
  45   2.0000     -10.286879      -279.9202
  46   2.0000     -10.283481      -279.8277
  47   2.0000     -10.281639      -279.7776
  48   2.0000     -10.281414      -279.7715
  49   2.0000     -10.281059      -279.7618
  50   2.0000     -10.279439      -279.7178
  51   2.0000     -10.278298      -279.6867
  52   2.0000     -10.275686      -279.6156
  53   2.0000     -10.273244      -279.5492
  54   2.0000     -10.272351      -279.5249
  55   2.0000     -10.271268      -279.4954
  56   2.0000     -10.268687      -279.4252
  57   2.0000      -8.193742      -222.9630
  58   2.0000      -8.191130      -222.8920
  59   2.0000      -8.131635      -221.2730
  60   2.0000      -8.111870      -220.7352
  61   2.0000      -8.053565      -219.1487
  62   2.0000      -6.163000      -167.7038
  63   2.0000      -6.162372      -167.6867
  64   2.0000      -6.161987      -167.6762
  65   2.0000      -6.160296      -167.6302
  66   2.0000      -6.159837      -167.6177
  67   2.0000      -6.159355      -167.6046
  68   2.0000      -6.102947      -166.0696
  69   2.0000      -6.095160      -165.8577
  70   2.0000      -6.093797      -165.8207
  71   2.0000      -6.083091      -165.5293
  72   2.0000      -6.075355      -165.3188
  73   2.0000      -6.074161      -165.2863
  74   2.0000      -6.023099      -163.8969
  75   2.0000      -6.018652      -163.7758
  76   2.0000      -6.015438      -163.6884
  77   2.0000      -1.327449       -36.1217
  78   2.0000      -1.314981       -35.7825
  79   2.0000      -1.309117       -35.6229
  80   2.0000      -1.296780       -35.2872
  81   2.0000      -1.184974       -32.2448
  82   2.0000      -1.182236       -32.1703
  83   2.0000      -1.141901       -31.0727
  84   2.0000      -1.123574       -30.5740
  85   2.0000      -1.121973       -30.5304
  86   2.0000      -1.094189       -29.7744
  87   2.0000      -1.088676       -29.6244
  88   2.0000      -1.064453       -28.9652
  89   2.0000      -1.059715       -28.8363
  90   2.0000      -0.996595       -27.1187
  91   2.0000      -0.995596       -27.0916
  92   2.0000      -0.980925       -26.6923
  93   2.0000      -0.977913       -26.6104
  94   2.0000      -0.966582       -26.3020
  95   2.0000      -0.953488       -25.9457
  96   2.0000      -0.951262       -25.8852
  97   2.0000      -0.934107       -25.4183
  98   2.0000      -0.902218       -24.5506
  99   2.0000      -0.899181       -24.4680
 100   2.0000      -0.893145       -24.3037
 101   2.0000      -0.890516       -24.2322
 102   2.0000      -0.872685       -23.7470
 103   2.0000      -0.862764       -23.4770
 104   2.0000      -0.856433       -23.3047
 105   2.0000      -0.855155       -23.2699
 106   2.0000      -0.833897       -22.6915
 107   2.0000      -0.830194       -22.5907
 108   2.0000      -0.819264       -22.2933
 109   2.0000      -0.809174       -22.0188
 110   2.0000      -0.790566       -21.5124
 111   2.0000      -0.777770       -21.1642
 112   2.0000      -0.765971       -20.8431
 113   2.0000      -0.762452       -20.7474
 114   2.0000      -0.759061       -20.6551
 115   2.0000      -0.751969       -20.4621
 116   2.0000      -0.730944       -19.8900
 117   2.0000      -0.728248       -19.8166
 118   2.0000      -0.724083       -19.7033
 119   2.0000      -0.715003       -19.4562
 120   2.0000      -0.711184       -19.3523
 121   2.0000      -0.706550       -19.2262
 122   2.0000      -0.685688       -18.6585
 123   2.0000      -0.675629       -18.3848
 124   2.0000      -0.668335       -18.1863
 125   2.0000      -0.666427       -18.1344
 126   2.0000      -0.654531       -17.8107
 127   2.0000      -0.654161       -17.8006
 128   2.0000      -0.642633       -17.4869
 129   2.0000      -0.637105       -17.3365
 130   2.0000      -0.634287       -17.2598
 131   2.0000      -0.633278       -17.2324
 132   2.0000      -0.628928       -17.1140
 133   2.0000      -0.627509       -17.0754
 134   2.0000      -0.622913       -16.9503
 135   2.0000      -0.615145       -16.7390
 136   2.0000      -0.612238       -16.6598
 137   2.0000      -0.604056       -16.4372
 138   2.0000      -0.596526       -16.2323
 139   2.0000      -0.593012       -16.1367
 140   2.0000      -0.588533       -16.0148
 141   2.0000      -0.580304       -15.7909
 142   2.0000      -0.579874       -15.7792
 143   2.0000      -0.575884       -15.6706
 144   2.0000      -0.568880       -15.4800
 145   2.0000      -0.563796       -15.3417
 146   2.0000      -0.559990       -15.2381
 147   2.0000      -0.558726       -15.2037
 148   2.0000      -0.551963       -15.0197
 149   2.0000      -0.550142       -14.9701
 150   2.0000      -0.549213       -14.9448
 151   2.0000      -0.544682       -14.8215
 152   2.0000      -0.540587       -14.7101
 153   2.0000      -0.540207       -14.6998
 154   2.0000      -0.539231       -14.6732
 155   2.0000      -0.538567       -14.6551
 156   2.0000      -0.538527       -14.6541
 157   2.0000      -0.532142       -14.4803
 158   2.0000      -0.531889       -14.4734
 159   2.0000      -0.529649       -14.4125
 160   2.0000      -0.524865       -14.2823
 161   2.0000      -0.522036       -14.2053
 162   2.0000      -0.520705       -14.1691
 163   2.0000      -0.515537       -14.0285
 164   2.0000      -0.510629       -13.8949
 165   2.0000      -0.500836       -13.6284
 166   2.0000      -0.500288       -13.6135
 167   2.0000      -0.498384       -13.5617
 168   2.0000      -0.498048       -13.5526
 169   2.0000      -0.495458       -13.4821
 170   2.0000      -0.491314       -13.3693
 171   2.0000      -0.489098       -13.3090
 172   2.0000      -0.485158       -13.2018
 173   2.0000      -0.476160       -12.9570
 174   2.0000      -0.474758       -12.9188
 175   2.0000      -0.472614       -12.8605
 176   2.0000      -0.470689       -12.8081
 177   2.0000      -0.466060       -12.6821
 178   2.0000      -0.464264       -12.6333
 179   2.0000      -0.462403       -12.5826
 180   2.0000      -0.460574       -12.5328
 181   2.0000      -0.450063       -12.2468
 182   2.0000      -0.446635       -12.1536
 183   2.0000      -0.445040       -12.1102
 184   2.0000      -0.438983       -11.9453
 185   2.0000      -0.435476       -11.8499
 186   2.0000      -0.434571       -11.8253
 187   2.0000      -0.428388       -11.6570
 188   2.0000      -0.426528       -11.6064
 189   2.0000      -0.420333       -11.4378
 190   2.0000      -0.419676       -11.4200
 191   2.0000      -0.414123       -11.2689
 192   2.0000      -0.407954       -11.1010
 193   2.0000      -0.399636       -10.8747
 194   2.0000      -0.391418       -10.6510
 195   2.0000      -0.389913       -10.6101
 196   2.0000      -0.387429       -10.5425
 197   2.0000      -0.383587       -10.4379
 198   2.0000      -0.382457       -10.4072
 199   2.0000      -0.378223       -10.2920
 200   2.0000      -0.370030       -10.0690
 201   2.0000      -0.366537        -9.9740
 202   2.0000      -0.362643        -9.8680
 203   2.0000      -0.360937        -9.8216
 204   2.0000      -0.346557        -9.4303
 205   2.0000      -0.345257        -9.3949
 206   2.0000      -0.344903        -9.3853
 207   2.0000      -0.344385        -9.3712
 208   2.0000      -0.334147        -9.0926
 209   2.0000      -0.323813        -8.8114
 210   2.0000      -0.321446        -8.7470
 211   2.0000      -0.320959        -8.7337
 212   2.0000      -0.315119        -8.5748
 213   2.0000      -0.308850        -8.4042
 214   2.0000      -0.286308        -7.7908
 215   2.0000      -0.268435        -7.3045
 216   2.0000      -0.256807        -6.9881
 217   2.0000      -0.236802        -6.4437
 218   0.0000      -0.076701        -2.0871
 219   0.0000      -0.070761        -1.9255
 220   0.0000      -0.065861        -1.7922
 221   0.0000      -0.031269        -0.8509
 222   0.0000      -0.025788        -0.7017

MULLIKEN ATOMIC CHARGES
-----------------------
   0 C :   -0.115517
   1 C :    0.256541
   2 F :   -0.163165
   3 C :    0.141808
   4 F :   -0.139957
   5 C :    0.084611
   6 C :    0.035937
   7 C :    0.054329
   8 N :   -0.257539
   9 S :    0.521663
  10 N :   -0.352417
  11 C :   -0.081955
  12 N :   -0.028573
  13 C :    0.013429
  14 C :    0.039897
  15 C :   -0.055871
  16 S :    0.789640
  17 O :   -0.449974
  18 O :   -0.451962
  19 C :   -0.053517
  20 C :    0.026318
  21 C :    0.070466
  22 C :    0.055659
  23 C :   -0.146939
  24 S :    0.110742
  25 C :   -0.116360
  26 C :    0.013211
  27 C :    0.110040
  28 C :   -0.018548
  29 C :   -0.021384
  30 C :    0.163862
  31 O :   -0.147500
  32 C :   -0.018598
  33 C :    0.008119
  34 C :    0.013716
  35 N :   -0.033548
  36 C :   -0.001047
  37 C :    0.055989
  38 C :   -0.055647
  39 S :    0.800510
  40 O :   -0.459198
  41 O :   -0.455914
  42 C :   -0.075297
  43 C :    0.030548
  44 C :    0.096710
  45 C :   -0.051142
  46 C :    0.068760
  47 C :    0.145008
  48 F :   -0.163709
  49 C :    0.272757
  50 F :   -0.176525
  51 C :   -0.125515
  52 C :    0.076706
  53 C :   -0.022211
  54 N :   -0.286333
  55 S :    0.498985
  56 N :   -0.273514
  57 H :   -0.001701
  58 H :    0.133428
  59 H :   -0.000899
  60 H :   -0.014564
  61 H :   -0.004704
  62 H :   -0.020423
  63 H :    0.032556
  64 H :    0.018130
  65 H :   -0.015089
  66 H :   -0.014623
  67 H :    0.132684
  68 H :   -0.001099
  69 H :   -0.008149
  70 H :    0.015509
  71 H :    0.000479
  72 H :   -0.008120
Sum of atomic charges:    0.0000000

LOEWDIN ATOMIC CHARGES
----------------------
   0 C :   -0.047592
   1 C :    0.077288
   2 F :   -0.038504
   3 C :    0.078607
   4 F :   -0.017973
   5 C :   -0.058249
   6 C :   -0.037969
   7 C :   -0.048913
   8 N :   -0.274252
   9 S :    0.648908
  10 N :   -0.305901
  11 C :   -0.005770
  12 N :    0.111583
  13 C :    0.008725
  14 C :   -0.088668
  15 C :   -0.214158
  16 S :    1.170432
  17 O :   -0.493183
  18 O :   -0.495982
  19 C :   -0.159584
  20 C :   -0.004600
  21 C :   -0.023637
  22 C :   -0.028926
  23 C :   -0.155380
  24 S :    0.421712
  25 C :   -0.128883
  26 C :   -0.095717
  27 C :   -0.053443
  28 C :    0.034272
  29 C :   -0.057147
  30 C :    0.095390
  31 O :   -0.133313
  32 C :   -0.001857
  33 C :   -0.032099
  34 C :    0.001539
  35 N :    0.104528
  36 C :    0.002319
  37 C :   -0.086672
  38 C :   -0.220922
  39 S :    1.172664
  40 O :   -0.501490
  41 O :   -0.498398
  42 C :   -0.164116
  43 C :    0.007873
  44 C :   -0.014394
  45 C :   -0.010677
  46 C :   -0.049662
  47 C :    0.070075
  48 F :   -0.036123
  49 C :    0.072937
  50 F :   -0.050402
  51 C :   -0.050255
  52 C :   -0.054540
  53 C :   -0.047498
  54 N :   -0.291008
  55 S :    0.637248
  56 N :   -0.288507
  57 H :    0.052171
  58 H :    0.074695
  59 H :    0.026014
  60 H :    0.032865
  61 H :    0.033697
  62 H :    0.027262
  63 H :    0.033121
  64 H :    0.037984
  65 H :    0.029218
  66 H :    0.029606
  67 H :    0.096923
  68 H :    0.024908
  69 H :    0.036029
  70 H :    0.033431
  71 H :    0.033294
  72 H :    0.049039

  Mayer bond orders larger than 0.100000
B(  0-C ,  1-C ) :   1.4571 B(  0-C ,  5-C ) :   0.1291 B(  0-C ,  7-C ) :   1.1474
B(  0-C , 57-H ) :   1.0493 B(  1-C ,  2-F ) :   1.1205 B(  1-C ,  3-C ) :   1.1370
B(  3-C ,  4-F ) :   1.1777 B(  3-C ,  5-C ) :   1.4192 B(  5-C ,  6-C ) :   1.1533
B(  5-C , 11-C ) :   1.0647 B(  6-C ,  7-C ) :   1.1640 B(  6-C , 10-N ) :   1.4735
B(  7-C ,  8-N ) :   1.5195 B(  8-N ,  9-S ) :   1.2897 B(  8-N , 10-N ) :   0.1470
B(  9-S , 10-N ) :   1.2304 B( 11-C , 12-N ) :   1.3092 B( 11-C , 15-C ) :   1.5300
B( 12-N , 13-C ) :   1.2457 B( 12-N , 58-H ) :   0.8811 B( 13-C , 14-C ) :   1.4095
B( 13-C , 59-H ) :   0.9891 B( 14-C , 15-C ) :   1.3476 B( 14-C , 20-C ) :   1.0532
B( 15-C , 16-S ) :   0.7748 B( 16-S , 17-O ) :   1.7308 B( 16-S , 18-O ) :   1.7356
B( 16-S , 19-C ) :   0.8382 B( 19-C , 20-C ) :   1.6903 B( 19-C , 21-C ) :   1.1355
B( 20-C , 60-H ) :   0.9880 B( 21-C , 22-C ) :   1.6979 B( 21-C , 61-H ) :   0.9508
B( 22-C , 23-C ) :   1.1339 B( 22-C , 62-H ) :   0.9554 B( 23-C , 24-S ) :   1.0912
B( 23-C , 27-C ) :   1.4667 B( 24-S , 25-C ) :   1.1431 B( 25-C , 26-C ) :   1.5979
B( 25-C , 63-H ) :   0.9697 B( 26-C , 27-C ) :   1.2126 B( 26-C , 30-C ) :   0.9252
B( 27-C , 28-C ) :   1.0382 B( 28-C , 29-C ) :   1.5908 B( 28-C , 64-H ) :   1.0152
B( 29-C , 30-C ) :   0.9442 B( 29-C , 32-C ) :   1.1273 B( 30-C , 31-O ) :   2.1967
B( 32-C , 33-C ) :   1.6634 B( 32-C , 65-H ) :   0.9721 B( 33-C , 34-C ) :   1.0847
B( 33-C , 66-H ) :   0.9565 B( 34-C , 35-N ) :   1.2278 B( 34-C , 38-C ) :   1.4938
B( 35-N , 36-C ) :   1.2258 B( 35-N , 67-H ) :   0.9304 B( 36-C , 37-C ) :   1.4237
B( 36-C , 68-H ) :   0.9873 B( 37-C , 38-C ) :   1.3460 B( 37-C , 43-C ) :   1.0534
B( 38-C , 39-S ) :   0.8164 B( 39-S , 40-O ) :   1.7118 B( 39-S , 41-O ) :   1.7010
B( 39-S , 42-C ) :   0.8194 B( 42-C , 43-C ) :   1.6931 B( 42-C , 44-C ) :   1.1075
B( 43-C , 69-H ) :   0.9900 B( 44-C , 45-C ) :   1.6746 B( 44-C , 70-H ) :   0.9549
B( 45-C , 46-C ) :   1.1429 B( 45-C , 71-H ) :   0.9746 B( 46-C , 47-C ) :   1.3759
B( 46-C , 51-C ) :   0.1257 B( 46-C , 53-C ) :   1.1515 B( 47-C , 48-F ) :   1.1387
B( 47-C , 49-C ) :   1.1512 B( 49-C , 50-F ) :   1.1083 B( 49-C , 51-C ) :   1.4561
B( 51-C , 52-C ) :   1.1432 B( 51-C , 72-H ) :   1.0453 B( 52-C , 53-C ) :   1.1555
B( 52-C , 56-N ) :   1.5173 B( 53-C , 54-N ) :   1.5597 B( 54-N , 55-S ) :   1.2550
B( 54-N , 56-N ) :   0.1498 B( 55-S , 56-N ) :   1.2706

-----------------------------------------------------------------------------
         ABSORPTION SPECTRUM VIA TRANSITION ELECTRIC DIPOLE MOMENTS
-----------------------------------------------------------------------------
State   Energy  Wavelength   fosc         T2         TX        TY        TZ
        (cm-1)    (nm)                  (au**2)     (au)      (au)      (au)
-----------------------------------------------------------------------------
   0   19665.7    508.5   0.783467932  13.11556  -1.46486  -2.03395  -2.61395
   1   22447.1    445.5   0.319939726   4.69228   0.60964  -1.92736   0.77840
   2   23685.4    422.2   0.480855505   6.68359   1.56856  -1.94116   0.67462
   3   25445.1    393.0   0.264516350   3.42234   1.12638  -0.81515   1.22030
   4   27070.7    369.4   0.323225576   3.93081  -1.45128   0.70071  -1.15482
   5   27138.9    368.5   0.260682249   3.16224   0.79880   0.53408   1.49630
   6   27280.7    366.6   0.140942186   1.70083   0.45512   1.16683   0.36360
   7   28711.8    348.3   0.026216752   0.30060  -0.37623   0.18224  -0.35474
   8   29186.7    342.6   0.000024540   0.00028   0.01155  -0.01184   0.00179
   9   30014.6    333.2   0.022147270   0.24292   0.12964  -0.42487   0.21354
  10   31684.1    315.6   0.389417748   4.04622   0.72903  -1.87065   0.12408
  11   32108.1    311.4   0.172795679   1.77171   0.73446  -1.02929   0.41574
  12   33116.4    302.0   0.078343776   0.77882   0.29490  -0.82338   0.11787
  13   33179.3    301.4   0.003389561   0.03363  -0.04654   0.17716  -0.00886
  14   34102.5    293.2   0.046815668   0.45194  -0.28018   0.60869   0.05421
  15   34427.6    290.5   0.081081977   0.77534   0.30921   0.81461   0.12704
  16   35267.9    283.5   0.183687121   1.71465  -0.59420   1.04381  -0.52157
  17   35588.4    281.0   0.046318966   0.42848   0.28472   0.37569   0.45417
  18   36784.4    271.9   0.041860907   0.37465   0.43723   0.21008   0.37329
  19   37185.0    268.9   0.099762165   0.88323   0.22351   0.77171   0.48759
  20   38580.6    259.2   0.027030762   0.23066   0.06114  -0.43355   0.19737
  21   38928.0    256.9   0.018559227   0.15695   0.32133  -0.07612   0.21888
  22   39037.8    256.2   0.011970471   0.10095  -0.14792  -0.09204  -0.26570
  23   39238.8    254.9   0.021962418   0.18426  -0.24888  -0.11740  -0.32946
  24   39549.9    252.8   0.661863077   5.50932   1.10116   1.02059   1.80421
  25   39771.1    251.4   0.007487789   0.06198   0.02619   0.12383   0.21439
  26   40182.7    248.9   0.059796659   0.48991  -0.55916  -0.13386  -0.39916

FINAL SINGLE POINT ENERGY     -4510.611479924028

DIPOLE MOMENT
-------------
                                X             Y             Z
Electronic contribution:     19.21616     -27.99384      21.95035
Nuclear contribution   :    -18.49452      29.62047     -21.63570
                        -----------------------------------------
Total Dipole Moment    :      0.72165       1.62663       0.31465
                        -----------------------------------------
Magnitude (a.u.)       :      1.80713
Magnitude (Debye)      :      4.59335

Rotational constants in cm-1:     0.001130     0.000539     0.000373
Rotational constants in MHz :    33.869489    16.156854    11.170034

                             ****ORCA TERMINATED NORMALLY****
TOTAL RUN TIME: 0 days 0 hours 4 minutes 57 seconds 267 msec
