                         Program Version 4.2.0 -  RELEASE  -
|  1> # ORCA input file
|  2> # SCF done       -129.381256781937          0.000531654982
|  3> ! CAM-B3LYP def2-SVP def2/J RIJCOSX Grid4 TightSCF
|  4> %maxcore 5000
|  5> %tddft
|  6>     Mode sTDDFT
|  7>     Ethresh 5.0
|  8>     maxcore 5000
|  9> end
| 10>
| 11> %pal
| 12>   nprocs 6
| 13>   end
| 14> * xyz 0 1
| 15>    C       -4.52469         7.93788        -8.73231
| 16>    S       -3.16428         7.31955        -7.86772
| 17>    C       -3.71717         7.94307        -6.33889
| 18>    C       -4.92377         8.60863        -6.51487
| 19>    C       -5.36440         8.59536        -7.87734
| 20>    N       -6.54084         9.27900        -7.89418
| 21>    N       -6.86567         9.71526        -6.66145
| 22>    C       -5.93131         9.33460        -5.83077
| 23>    C       -2.99547         7.76176        -5.13700
| 24>    O       -3.50456         8.24948        -3.98599
| 25>    C       -2.63502         7.95686        -2.98043
| 26>    C       -1.55019         7.27208        -3.48946
| 27>    C       -1.77238         7.13955        -4.87788
| 28>    C       -0.93284         6.51330        -5.80463
| 29>    N       -0.22923         5.99195        -6.54688
| 30>    C       -2.91820         8.35135        -1.64530
| 31>    C       -4.05123         9.00385        -1.28036
| 32>    C       -4.37296         9.41891         0.03211
| 33>    C       -5.52921        10.06855         0.39816
| 34>    C       -5.47688        10.31943         1.78435
| 35>    N       -6.20050        10.88533         2.77803
| 36>    C       -5.49344        10.77983         3.95599
| 37>    C       -4.28365        10.11828         3.68319
| 38>    C       -4.27835         9.83317         2.32926
| 39>    C       -3.47765         9.21038         1.23939
| 40>    C       -6.01145        11.30342         5.16608
| 41>    C       -5.37600        11.27867         6.36661
| 42>    C       -5.89127        11.82014         7.56840
| 43>    C       -5.24255        11.82896         8.78046
| 44>    C       -6.07486        12.47014         9.72488
| 45>    N       -6.09903        12.83407        11.02624
| 46>    C       -7.29758        13.46704        11.28436
| 47>    C       -8.04417        13.49780        10.09661
| 48>    C       -7.27642        12.87717         9.12655
| 49>    C       -7.24871        12.48879         7.68954
| 50>    C       -7.59453        13.97852        12.57487
| 51>    C       -8.77229        14.54354        12.92340
| 52>    C       -9.09886        15.05951        14.22486
| 53>    C      -10.43255        15.02524        14.66077
| 54>    C      -11.64941        14.58215        13.95711
| 55>    O      -11.78594        14.16402        12.83887
| 56>    O      -12.70263        14.72917        14.80423
| 57>    C      -12.28968        15.24462        16.05777
| 58>    C      -10.81152        15.43248        15.93446
| 59>    C       -9.88193        15.91144        16.83476
| 60>    C       -8.56723        16.00358        16.40543
| 61>    C       -8.15935        15.60457        15.13283
| 62>    C       -6.77917        15.85554        14.72109
| 63>    C       -5.71628        15.76049        15.50937
| 64>    H       -4.60382         7.77453        -9.78674
| 65>    H       -7.14589         9.47930        -8.67110
| 66>    H       -5.98998         9.57823        -4.79000
| 67>    H       -0.70364         6.90894        -2.94355
| 68>    H       -2.16368         8.09361        -0.91764
| 69>    H       -4.77828         9.23127        -2.04911
| 70>    H       -6.33128        10.33689        -0.26598
| 71>    H       -7.10418        11.32051         2.69430
| 72>    H       -3.52595         9.88944         4.40571
| 73>    H       -3.29414         8.14915         1.41584
| 74>    H       -2.51112         9.69854         1.10384
| 75>    H       -6.99005        11.76211         5.09904
| 76>    H       -4.39706        10.82390         6.42932
| 77>    H       -4.26687        11.41855         8.96981
| 78>    H       -5.38165        12.67261        11.71364
| 79>    H       -9.02124        13.92479         9.99181
| 80>    H       -7.32460        13.35375         7.02830
| 81>    H       -8.05371        11.79792         7.43335
| 82>    H       -6.81527        13.86211        13.31896
| 83>    H       -9.58444        14.54290        12.21188
| 84>    H      -12.56041        14.52813        16.84183
| 85>    H      -12.82167        16.18416        16.24601
| 86>    H      -10.16749        16.22398        17.82707
| 87>    H       -7.82875        16.42731        17.06971
| 88>    H       -6.65857        16.16054        13.68858
| 89>    H       -5.78741        15.42290        16.53008
| 90>    H       -4.72737        15.99542        15.15415
| 91> *
| 92>
| 93>                          ****END OF INPUT****

CARTESIAN COORDINATES (ANGSTROEM)
---------------------------------
  C     -4.524690    7.937880   -8.732310
  S     -3.164280    7.319550   -7.867720
  C     -3.717170    7.943070   -6.338890
  C     -4.923770    8.608630   -6.514870
  C     -5.364400    8.595360   -7.877340
  N     -6.540840    9.279000   -7.894180
  N     -6.865670    9.715260   -6.661450
  C     -5.931310    9.334600   -5.830770
  C     -2.995470    7.761760   -5.137000
  O     -3.504560    8.249480   -3.985990
  C     -2.635020    7.956860   -2.980430
  C     -1.550190    7.272080   -3.489460
  C     -1.772380    7.139550   -4.877880
  C     -0.932840    6.513300   -5.804630
  N     -0.229230    5.991950   -6.546880
  C     -2.918200    8.351350   -1.645300
  C     -4.051230    9.003850   -1.280360
  C     -4.372960    9.418910    0.032110
  C     -5.529210   10.068550    0.398160
  C     -5.476880   10.319430    1.784350
  N     -6.200500   10.885330    2.778030
  C     -5.493440   10.779830    3.955990
  C     -4.283650   10.118280    3.683190
  C     -4.278350    9.833170    2.329260
  C     -3.477650    9.210380    1.239390
  C     -6.011450   11.303420    5.166080
  C     -5.376000   11.278670    6.366610
  C     -5.891270   11.820140    7.568400
  C     -5.242550   11.828960    8.780460
  C     -6.074860   12.470140    9.724880
  N     -6.099030   12.834070   11.026240
  C     -7.297580   13.467040   11.284360
  C     -8.044170   13.497800   10.096610
  C     -7.276420   12.877170    9.126550
  C     -7.248710   12.488790    7.689540
  C     -7.594530   13.978520   12.574870
  C     -8.772290   14.543540   12.923400
  C     -9.098860   15.059510   14.224860
  C    -10.432550   15.025240   14.660770
  C    -11.649410   14.582150   13.957110
  O    -11.785940   14.164020   12.838870
  O    -12.702630   14.729170   14.804230
  C    -12.289680   15.244620   16.057770
  C    -10.811520   15.432480   15.934460
  C     -9.881930   15.911440   16.834760
  C     -8.567230   16.003580   16.405430
  C     -8.159350   15.604570   15.132830
  C     -6.779170   15.855540   14.721090
  C     -5.716280   15.760490   15.509370
  H     -4.603820    7.774530   -9.786740
  H     -7.145890    9.479300   -8.671100
  H     -5.989980    9.578230   -4.790000
  H     -0.703640    6.908940   -2.943550
  H     -2.163680    8.093610   -0.917640
  H     -4.778280    9.231270   -2.049110
  H     -6.331280   10.336890   -0.265980
  H     -7.104180   11.320510    2.694300
  H     -3.525950    9.889440    4.405710
  H     -3.294140    8.149150    1.415840
  H     -2.511120    9.698540    1.103840
  H     -6.990050   11.762110    5.099040
  H     -4.397060   10.823900    6.429320
  H     -4.266870   11.418550    8.969810
  H     -5.381650   12.672610   11.713640
  H     -9.021240   13.924790    9.991810
  H     -7.324600   13.353750    7.028300
  H     -8.053710   11.797920    7.433350
  H     -6.815270   13.862110   13.318960
  H     -9.584440   14.542900   12.211880
  H    -12.560410   14.528130   16.841830
  H    -12.821670   16.184160   16.246010
  H    -10.167490   16.223980   17.827070
  H     -7.828750   16.427310   17.069710
  H     -6.658570   16.160540   13.688580
  H     -5.787410   15.422900   16.530080
  H     -4.727370   15.995420   15.154150

 Total Charge           Charge          ....    0
 Multiplicity           Mult            ....    1
 Number of Electrons    NEL             ....  342
 Basis Dimension        Dim             ....  825

ORBITAL ENERGIES
----------------

  NO   OCC          E(Eh)            E(eV)
   0   2.0000     -88.964389     -2420.8441
   1   2.0000     -19.296916      -525.0958
   2   2.0000     -19.245812      -523.7052
   3   2.0000     -19.186166      -522.0821
   4   2.0000     -14.472226      -393.8093
   5   2.0000     -14.457928      -393.4202
   6   2.0000     -14.456158      -393.3721
   7   2.0000     -14.432784      -392.7360
   8   2.0000     -14.396561      -391.7503
   9   2.0000     -10.385750      -282.6106
  10   2.0000     -10.352164      -281.6967
  11   2.0000     -10.332808      -281.1700
  12   2.0000     -10.331953      -281.1467
  13   2.0000     -10.310743      -280.5696
  14   2.0000     -10.310279      -280.5570
  15   2.0000     -10.299974      -280.2765
  16   2.0000     -10.298560      -280.2381
  17   2.0000     -10.295004      -280.1413
  18   2.0000     -10.294563      -280.1293
  19   2.0000     -10.289115      -279.9810
  20   2.0000     -10.288779      -279.9719
  21   2.0000     -10.288685      -279.9694
  22   2.0000     -10.285987      -279.8959
  23   2.0000     -10.285654      -279.8869
  24   2.0000     -10.285108      -279.8720
  25   2.0000     -10.279376      -279.7160
  26   2.0000     -10.278975      -279.7051
  27   2.0000     -10.277580      -279.6672
  28   2.0000     -10.276568      -279.6396
  29   2.0000     -10.276499      -279.6378
  30   2.0000     -10.276003      -279.6243
  31   2.0000     -10.273904      -279.5672
  32   2.0000     -10.273818      -279.5648
  33   2.0000     -10.272677      -279.5337
  34   2.0000     -10.272172      -279.5200
  35   2.0000     -10.271830      -279.5107
  36   2.0000     -10.271662      -279.5061
  37   2.0000     -10.269822      -279.4561
  38   2.0000     -10.269627      -279.4508
  39   2.0000     -10.269226      -279.4398
  40   2.0000     -10.268852      -279.4297
  41   2.0000     -10.268744      -279.4267
  42   2.0000     -10.263687      -279.2891
  43   2.0000     -10.261769      -279.2369
  44   2.0000     -10.256185      -279.0850
  45   2.0000     -10.252517      -278.9852
  46   2.0000     -10.251798      -278.9656
  47   2.0000     -10.250049      -278.9180
  48   2.0000     -10.246679      -278.8263
  49   2.0000      -8.058488      -219.2826
  50   2.0000      -6.028043      -164.0314
  51   2.0000      -6.023285      -163.9019
  52   2.0000      -6.020914      -163.8374
  53   2.0000      -1.214525       -33.0489
  54   2.0000      -1.179778       -32.1034
  55   2.0000      -1.133744       -30.8508
  56   2.0000      -1.091391       -29.6983
  57   2.0000      -1.071814       -29.1656
  58   2.0000      -1.069205       -29.0946
  59   2.0000      -0.984900       -26.8005
  60   2.0000      -0.977676       -26.6039
  61   2.0000      -0.966266       -26.2934
  62   2.0000      -0.947641       -25.7866
  63   2.0000      -0.942994       -25.6602
  64   2.0000      -0.914371       -24.8813
  65   2.0000      -0.911041       -24.7907
  66   2.0000      -0.900102       -24.4930
  67   2.0000      -0.898952       -24.4617
  68   2.0000      -0.884184       -24.0599
  69   2.0000      -0.881513       -23.9872
  70   2.0000      -0.862582       -23.4720
  71   2.0000      -0.857503       -23.3339
  72   2.0000      -0.847051       -23.0494
  73   2.0000      -0.842614       -22.9287
  74   2.0000      -0.834743       -22.7145
  75   2.0000      -0.832292       -22.6478
  76   2.0000      -0.807521       -21.9738
  77   2.0000      -0.797803       -21.7093
  78   2.0000      -0.786658       -21.4061
  79   2.0000      -0.786296       -21.3962
  80   2.0000      -0.777850       -21.1664
  81   2.0000      -0.757103       -20.6018
  82   2.0000      -0.740330       -20.1454
  83   2.0000      -0.734938       -19.9987
  84   2.0000      -0.715510       -19.4700
  85   2.0000      -0.708348       -19.2751
  86   2.0000      -0.699177       -19.0256
  87   2.0000      -0.692924       -18.8554
  88   2.0000      -0.690933       -18.8012
  89   2.0000      -0.677891       -18.4463
  90   2.0000      -0.674366       -18.3504
  91   2.0000      -0.670357       -18.2413
  92   2.0000      -0.661059       -17.9883
  93   2.0000      -0.653424       -17.7806
  94   2.0000      -0.648313       -17.6415
  95   2.0000      -0.636994       -17.3335
  96   2.0000      -0.634514       -17.2660
  97   2.0000      -0.626990       -17.0613
  98   2.0000      -0.617434       -16.8012
  99   2.0000      -0.610462       -16.6115
 100   2.0000      -0.603867       -16.4320
 101   2.0000      -0.596772       -16.2390
 102   2.0000      -0.592723       -16.1288
 103   2.0000      -0.580103       -15.7854
 104   2.0000      -0.578010       -15.7285
 105   2.0000      -0.574145       -15.6233
 106   2.0000      -0.570283       -15.5182
 107   2.0000      -0.564966       -15.3735
 108   2.0000      -0.560297       -15.2464
 109   2.0000      -0.556731       -15.1494
 110   2.0000      -0.546784       -14.8788
 111   2.0000      -0.535077       -14.5602
 112   2.0000      -0.534707       -14.5501
 113   2.0000      -0.533312       -14.5122
 114   2.0000      -0.531653       -14.4670
 115   2.0000      -0.530422       -14.4335
 116   2.0000      -0.530244       -14.4287
 117   2.0000      -0.523728       -14.2514
 118   2.0000      -0.513518       -13.9735
 119   2.0000      -0.512270       -13.9396
 120   2.0000      -0.506445       -13.7811
 121   2.0000      -0.505853       -13.7650
 122   2.0000      -0.500907       -13.6304
 123   2.0000      -0.497016       -13.5245
 124   2.0000      -0.494292       -13.4504
 125   2.0000      -0.490342       -13.3429
 126   2.0000      -0.489800       -13.3281
 127   2.0000      -0.485877       -13.2214
 128   2.0000      -0.483184       -13.1481
 129   2.0000      -0.481074       -13.0907
 130   2.0000      -0.473958       -12.8970
 131   2.0000      -0.471127       -12.8200
 132   2.0000      -0.464280       -12.6337
 133   2.0000      -0.462190       -12.5768
 134   2.0000      -0.457340       -12.4449
 135   2.0000      -0.454932       -12.3793
 136   2.0000      -0.453769       -12.3477
 137   2.0000      -0.452742       -12.3197
 138   2.0000      -0.449387       -12.2284
 139   2.0000      -0.447485       -12.1767
 140   2.0000      -0.441166       -12.0047
 141   2.0000      -0.438006       -11.9188
 142   2.0000      -0.437172       -11.8961
 143   2.0000      -0.427308       -11.6277
 144   2.0000      -0.426681       -11.6106
 145   2.0000      -0.424836       -11.5604
 146   2.0000      -0.418691       -11.3932
 147   2.0000      -0.416665       -11.3380
 148   2.0000      -0.414297       -11.2736
 149   2.0000      -0.409207       -11.1351
 150   2.0000      -0.407068       -11.0769
 151   2.0000      -0.398886       -10.8542
 152   2.0000      -0.394095       -10.7239
 153   2.0000      -0.384282       -10.4568
 154   2.0000      -0.375181       -10.2092
 155   2.0000      -0.372185       -10.1277
 156   2.0000      -0.360653        -9.8139
 157   2.0000      -0.358345        -9.7511
 158   2.0000      -0.354630        -9.6500
 159   2.0000      -0.348380        -9.4799
 160   2.0000      -0.336961        -9.1692
 161   2.0000      -0.332132        -9.0378
 162   2.0000      -0.317461        -8.6386
 163   2.0000      -0.317108        -8.6289
 164   2.0000      -0.312714        -8.5094
 165   2.0000      -0.310326        -8.4444
 166   2.0000      -0.301767        -8.2115
 167   2.0000      -0.288032        -7.8377
 168   2.0000      -0.255300        -6.9471
 169   2.0000      -0.228713        -6.2236
 170   2.0000      -0.194982        -5.3057
 171   0.0000      -0.055068        -1.4985
 172   0.0000      -0.036874        -1.0034
 173   0.0000      -0.016986        -0.4622
 174   0.0000      -0.003978        -0.1083
 175   0.0000       0.007240         0.1970

MULLIKEN ATOMIC CHARGES
-----------------------
   0 C :   -0.213026
   1 S :    0.176635
   2 C :   -0.232079
   3 C :    0.045279
   4 C :    0.204688
   5 N :   -0.055335
   6 N :   -0.059433
   7 C :   -0.008911
   8 C :    0.204574
   9 O :   -0.206991
  10 C :    0.211043
  11 C :   -0.054003
  12 C :   -0.100783
  13 C :   -0.231787
  14 N :    0.158258
  15 C :   -0.057707
  16 C :    0.032097
  17 C :   -0.126210
  18 C :   -0.082890
  19 C :    0.081957
  20 N :   -0.012358
  21 C :    0.107455
  22 C :   -0.119514
  23 C :   -0.112096
  24 C :    0.310856
  25 C :   -0.019539
  26 C :    0.012384
  27 C :   -0.115133
  28 C :   -0.096898
  29 C :    0.089121
  30 N :   -0.012144
  31 C :    0.075382
  32 C :   -0.103430
  33 C :   -0.120890
  34 C :    0.308742
  35 C :    0.008528
  36 C :   -0.077999
  37 C :    0.068700
  38 C :   -0.070627
  39 C :    0.204668
  40 O :   -0.169236
  41 O :   -0.294679
  42 C :    0.329598
  43 C :   -0.095314
  44 C :   -0.039318
  45 C :   -0.006392
  46 C :    0.025278
  47 C :   -0.044776
  48 C :   -0.031510
  49 H :    0.016091
  50 H :    0.134050
  51 H :   -0.008391
  52 H :   -0.013742
  53 H :   -0.011363
  54 H :   -0.021718
  55 H :   -0.033213
  56 H :    0.118808
  57 H :   -0.038010
  58 H :    0.028332
  59 H :    0.027331
  60 H :   -0.037387
  61 H :   -0.036247
  62 H :   -0.040177
  63 H :    0.118259
  64 H :   -0.024718
  65 H :    0.026282
  66 H :    0.027357
  67 H :   -0.017418
  68 H :    0.014186
  69 H :    0.038040
  70 H :    0.038078
  71 H :   -0.029220
  72 H :   -0.019345
  73 H :    0.024760
  74 H :    0.015789
  75 H :    0.019349
Sum of atomic charges:   -0.0000000

LOEWDIN ATOMIC CHARGES
----------------------
   0 C :   -0.231822
   1 S :    0.495566
   2 C :   -0.202258
   3 C :   -0.083166
   4 C :   -0.026063
   5 N :    0.074188
   6 N :   -0.051116
   7 C :   -0.040443
   8 C :    0.050660
   9 O :    0.016907
  10 C :    0.040704
  11 C :   -0.043694
  12 C :   -0.120642
  13 C :   -0.045397
  14 N :   -0.058136
  15 C :   -0.066096
  16 C :   -0.013206
  17 C :   -0.034793
  18 C :   -0.022523
  19 C :   -0.029006
  20 N :    0.087447
  21 C :   -0.008884
  22 C :   -0.068710
  23 C :   -0.046719
  24 C :   -0.013030
  25 C :   -0.049202
  26 C :   -0.030909
  27 C :   -0.021728
  28 C :   -0.040778
  29 C :   -0.019778
  30 N :    0.088138
  31 C :   -0.023849
  32 C :   -0.052083
  33 C :   -0.055001
  34 C :   -0.013737
  35 C :   -0.016898
  36 C :   -0.041755
  37 C :    0.013303
  38 C :   -0.079523
  39 C :    0.088219
  40 O :   -0.162673
  41 O :   -0.093246
  42 C :    0.099942
  43 C :   -0.022961
  44 C :   -0.040145
  45 C :    0.009623
  46 C :   -0.030210
  47 C :   -0.015816
  48 C :   -0.059603
  49 H :    0.024688
  50 H :    0.084826
  51 H :    0.021270
  52 H :    0.036579
  53 H :    0.033085
  54 H :    0.029899
  55 H :    0.025149
  56 H :    0.089256
  57 H :    0.021611
  58 H :    0.048920
  59 H :    0.048436
  60 H :    0.021758
  61 H :    0.026701
  62 H :    0.022193
  63 H :    0.088918
  64 H :    0.027978
  65 H :    0.047128
  66 H :    0.048100
  67 H :    0.027878
  68 H :    0.032962
  69 H :    0.034133
  70 H :    0.034218
  71 H :    0.027778
  72 H :    0.030363
  73 H :    0.034469
  74 H :    0.019611
  75 H :    0.022996

  Mayer bond orders larger than 0.100000
B(  0-C ,  1-S ) :   1.1359 B(  0-C ,  2-C ) :   0.1323 B(  0-C ,  4-C ) :   1.4270
B(  0-C , 49-H ) :   0.9943 B(  1-S ,  2-C ) :   1.1868 B(  2-C ,  3-C ) :   1.3254
B(  2-C ,  8-C ) :   1.2008 B(  3-C ,  4-C ) :   1.2176 B(  3-C ,  7-C ) :   1.1616
B(  4-C ,  5-N ) :   1.1113 B(  5-N ,  6-N ) :   1.1329 B(  5-N , 50-H ) :   0.9537
B(  6-N ,  7-C ) :   1.7388 B(  7-C , 51-H ) :   1.0033 B(  8-C ,  9-O ) :   1.1946
B(  8-C , 12-C ) :   1.4277 B(  9-O , 10-C ) :   1.1038 B( 10-C , 11-C ) :   1.4398
B( 10-C , 15-C ) :   1.1406 B( 11-C , 12-C ) :   1.2199 B( 11-C , 52-H ) :   1.0245
B( 12-C , 13-C ) :   1.1156 B( 13-C , 14-N ) :   3.0218 B( 15-C , 16-C ) :   1.6040
B( 15-C , 53-H ) :   0.9633 B( 16-C , 17-C ) :   1.1498 B( 16-C , 54-H ) :   0.9827
B( 17-C , 18-C ) :   1.5459 B( 17-C , 24-C ) :   1.0370 B( 18-C , 19-C ) :   1.0821
B( 18-C , 55-H ) :   1.0329 B( 19-C , 20-N ) :   1.1981 B( 19-C , 23-C ) :   1.4351
B( 20-N , 21-C ) :   1.1863 B( 20-N , 56-H ) :   0.9339 B( 21-C , 22-C ) :   1.3814
B( 21-C , 25-C ) :   1.0953 B( 22-C , 23-C ) :   1.3619 B( 22-C , 57-H ) :   1.0176
B( 23-C , 24-C ) :   1.0081 B( 24-C , 58-H ) :   0.8680 B( 24-C , 59-H ) :   0.8694
B( 25-C , 26-C ) :   1.6315 B( 25-C , 60-H ) :   0.9601 B( 26-C , 27-C ) :   1.1593
B( 26-C , 61-H ) :   0.9786 B( 27-C , 28-C ) :   1.5504 B( 27-C , 34-C ) :   1.0378
B( 28-C , 29-C ) :   1.0675 B( 28-C , 62-H ) :   1.0335 B( 29-C , 30-N ) :   1.2148
B( 29-C , 33-C ) :   1.4367 B( 30-N , 31-C ) :   1.1692 B( 30-N , 63-H ) :   0.9344
B( 31-C , 32-C ) :   1.3894 B( 31-C , 35-C ) :   1.1124 B( 32-C , 33-C ) :   1.3604
B( 32-C , 64-H ) :   1.0183 B( 33-C , 34-C ) :   1.0047 B( 34-C , 65-H ) :   0.8698
B( 34-C , 66-H ) :   0.8683 B( 35-C , 36-C ) :   1.6594 B( 35-C , 67-H ) :   0.9560
B( 36-C , 37-C ) :   1.1176 B( 36-C , 68-H ) :   0.9562 B( 37-C , 38-C ) :   1.3030
B( 37-C , 46-C ) :   1.3233 B( 38-C , 39-C ) :   0.9238 B( 38-C , 43-C ) :   1.4186
B( 39-C , 40-O ) :   2.1655 B( 39-C , 41-O ) :   1.1227 B( 41-O , 42-C ) :   0.9787
B( 42-C , 43-C ) :   1.0091 B( 42-C , 69-H ) :   0.9265 B( 42-C , 70-H ) :   0.9273
B( 43-C , 44-C ) :   1.3587 B( 44-C , 45-C ) :   1.3633 B( 44-C , 71-H ) :   1.0076
B( 45-C , 46-C ) :   1.3881 B( 45-C , 72-H ) :   0.9865 B( 46-C , 47-C ) :   1.0286
B( 47-C , 48-C ) :   1.9598 B( 47-C , 73-H ) :   0.9540 B( 48-C , 74-H ) :   0.9580
B( 48-C , 75-H ) :   0.9533

-----------------------------------------------------------------------------
         ABSORPTION SPECTRUM VIA TRANSITION ELECTRIC DIPOLE MOMENTS
-----------------------------------------------------------------------------
State   Energy  Wavelength   fosc         T2         TX        TY        TZ
        (cm-1)    (nm)                  (au**2)     (au)      (au)      (au)
-----------------------------------------------------------------------------
   0   16952.2    589.9   2.817435865  54.71449   1.46863  -2.19933  -6.90801
   1   21846.5    457.7   0.380053952   5.72716   1.49314  -1.20917  -1.42674
   2   25324.9    394.9   0.108257930   1.40730  -0.64010   0.23943  -0.96966
   3   26040.9    384.0   0.009746819   0.12322  -0.15741   0.20629   0.23640
   4   28322.8    353.1   0.020041859   0.23296   0.45124   0.16039  -0.06017
   5   29239.8    342.0   0.181958822   2.04868  -0.84684   0.04230  -1.15315
   6   29871.2    334.8   0.026205857   0.28882   0.43276  -0.31153   0.06698
   7   31744.8    315.0   0.014502720   0.15040   0.16075  -0.12815  -0.32884
   8   34024.9    293.9   0.257935046   2.49568   1.26447  -0.83075  -0.45459
   9   36449.9    274.3   0.038712571   0.34965   0.27991  -0.12492   0.50566
  10   37560.8    266.2   0.019861137   0.17408  -0.14258  -0.06390  -0.38687
  11   38731.8    258.2   0.003618841   0.03076  -0.14882  -0.03443  -0.08619
  12   39326.6    254.3   0.061392101   0.51393  -0.18807  -0.39086  -0.57078
  13   39735.9    251.7   0.012428954   0.10297  -0.27852   0.10366  -0.12107
  14   40298.6    248.1   0.052108810   0.42569  -0.44841  -0.22916  -0.41486

FINAL SINGLE POINT ENERGY     -2435.334425566405

DIPOLE MOMENT
-------------
                                X             Y             Z
Electronic contribution:      6.17735     -20.59461     -59.41354
Nuclear contribution   :     -6.28925      21.85458      61.44528
                        -----------------------------------------
Total Dipole Moment    :     -0.11190       1.25997       2.03174
                        -----------------------------------------
Magnitude (a.u.)       :      2.39333
Magnitude (Debye)      :      6.08336

Rotational constants in cm-1:     0.006706     0.000286     0.000277
Rotational constants in MHz :   201.050959     8.582304     8.292536

                             ****ORCA TERMINATED NORMALLY****
TOTAL RUN TIME: 0 days 0 hours 4 minutes 25 seconds 889 msec
