                         Program Version 4.2.0 -  RELEASE  -
|  1> # ORCA input file
|  2> # SCF done       -148.802130397338          0.000423734642
|  3> ! CAM-B3LYP def2-SVP def2/J RIJCOSX Grid4 TightSCF
|  4> %maxcore 5000
|  5> %tddft
|  6>     Mode sTDDFT
|  7>     Ethresh 5.0
|  8>     maxcore 5000
|  9> end
| 10>
| 11> %pal
| 12>   nprocs 6
| 13>   end
| 14> * xyz 0 1
| 15>    C       -5.45814        -2.81462        -2.97549
| 16>    C       -4.62796        -2.41951        -1.89377
| 17>    C       -3.57288        -1.56099        -2.13190
| 18>    C       -3.33167        -1.08240        -3.43019
| 19>    C       -4.17289        -1.48464        -4.50577
| 20>    C       -5.24240        -2.36639        -4.24308
| 21>    N       -3.95980        -1.03262        -5.75761
| 22>    C       -2.95526        -0.21646        -5.93312
| 23>    C       -2.11971         0.18372        -4.86859
| 24>    N       -2.29970        -0.23623        -3.64670
| 25>    C       -4.91691        -2.91511        -0.56670
| 26>    S       -6.28822        -3.95430        -0.29579
| 27>    C       -5.97041        -4.07380         1.39661
| 28>    C       -4.85848        -3.32218         1.73681
| 29>    C       -4.25499        -2.67430         0.62442
| 30>    O       -3.16108        -1.89542         0.73320
| 31>    C       -4.41160        -3.09657         3.04888
| 32>    N       -4.03478        -2.80192         4.09239
| 33>    C       -6.83705        -4.79626         2.27018
| 34>    S       -8.54844        -4.78689         1.96807
| 35>    C       -8.86182        -5.70821         3.40330
| 36>    C       -7.69648        -5.99168         4.08859
| 37>    C       -6.53301        -5.50870         3.41644
| 38>    C       -5.18490        -5.95057         3.79620
| 39>    O       -4.18404        -5.67845         3.17108
| 40>    C       -5.17146        -6.87554         4.98977
| 41>    C       -6.22896        -6.50608         6.02348
| 42>    C       -7.62216        -6.55332         5.44130
| 43>    O       -8.57606        -6.95841         6.07120
| 44>    C      -10.21127        -6.05320         3.73463
| 45>    S      -11.49230        -4.89829         3.53267
| 46>    C      -12.66766        -5.99948         4.17037
| 47>    C      -12.08782        -7.21095         4.50830
| 48>    C      -10.68843        -7.23666         4.24369
| 49>    C       -9.87211        -8.44981         4.44073
| 50>    O       -8.88053        -8.70632         3.80081
| 51>    C      -10.48192        -9.35861         5.47602
| 52>    C      -11.93487        -9.64950         5.10579
| 53>    C      -12.80381        -8.41679         4.95123
| 54>    O      -13.99884        -8.46607         5.14059
| 55>    C      -14.04316        -5.54120         4.24543
| 56>    C      -14.84350        -5.80025         5.35857
| 57>    C      -16.15373        -5.34779         5.42711
| 58>    C      -16.66608        -4.61979         4.37058
| 59>    C      -15.85352        -4.33388         3.25599
| 60>    C      -14.55567        -4.77769         3.18534
| 61>    C      -16.62608        -3.52779         2.27154
| 62>    O      -16.24720        -3.10012         1.20715
| 63>    C      -17.96397        -3.36743         2.89901
| 64>    C      -17.97765        -4.02138         4.14714
| 65>    C      -19.12562        -4.00630         4.91400
| 66>    C      -20.24073        -3.33947         4.42496
| 67>    C      -20.24063        -2.68598         3.18994
| 68>    C      -19.06925        -2.70670         2.41769
| 69>    C      -21.45523        -2.01113         2.75314
| 70>    C      -21.62610        -1.34830         1.61453
| 71>    H       -6.28013        -3.48797        -2.77685
| 72>    H       -2.91776        -1.23535        -1.34244
| 73>    H       -5.87256        -2.66508        -5.06598
| 74>    H       -2.79120         0.14252        -6.94041
| 75>    H       -1.29207         0.86125        -5.03214
| 76>    H       -2.84243        -1.89913         1.64703
| 77>    H       -5.36279        -7.88637         4.61542
| 78>    H       -4.17244        -6.86405         5.42786
| 79>    H       -6.05327        -5.48610         6.37974
| 80>    H       -6.18583        -7.17528         6.88399
| 81>    H      -10.43017        -8.84524         6.43865
| 82>    H       -9.90725       -10.28335         5.53778
| 83>    H      -12.40167       -10.30115         5.84694
| 84>    H      -11.96664       -10.17644         4.14595
| 85>    H      -14.43225        -6.35405         6.18648
| 86>    H      -16.75313        -5.56392         6.29792
| 87>    H      -13.94834        -4.55547         2.31987
| 88>    H      -19.16307        -4.50073         5.87301
| 89>    H      -21.14340        -3.32414         5.01966
| 90>    H      -19.02081        -2.21710         1.45812
| 91>    H      -22.28199        -2.07675         3.45015
| 92>    H      -20.85013        -1.24299         0.87618
| 93>    H      -22.56616        -0.88048         1.37805
| 94> *
| 95>
| 96>                          ****END OF INPUT****

CARTESIAN COORDINATES (ANGSTROEM)
---------------------------------
  C     -5.458140   -2.814620   -2.975490
  C     -4.627960   -2.419510   -1.893770
  C     -3.572880   -1.560990   -2.131900
  C     -3.331670   -1.082400   -3.430190
  C     -4.172890   -1.484640   -4.505770
  C     -5.242400   -2.366390   -4.243080
  N     -3.959800   -1.032620   -5.757610
  C     -2.955260   -0.216460   -5.933120
  C     -2.119710    0.183720   -4.868590
  N     -2.299700   -0.236230   -3.646700
  C     -4.916910   -2.915110   -0.566700
  S     -6.288220   -3.954300   -0.295790
  C     -5.970410   -4.073800    1.396610
  C     -4.858480   -3.322180    1.736810
  C     -4.254990   -2.674300    0.624420
  O     -3.161080   -1.895420    0.733200
  C     -4.411600   -3.096570    3.048880
  N     -4.034780   -2.801920    4.092390
  C     -6.837050   -4.796260    2.270180
  S     -8.548440   -4.786890    1.968070
  C     -8.861820   -5.708210    3.403300
  C     -7.696480   -5.991680    4.088590
  C     -6.533010   -5.508700    3.416440
  C     -5.184900   -5.950570    3.796200
  O     -4.184040   -5.678450    3.171080
  C     -5.171460   -6.875540    4.989770
  C     -6.228960   -6.506080    6.023480
  C     -7.622160   -6.553320    5.441300
  O     -8.576060   -6.958410    6.071200
  C    -10.211270   -6.053200    3.734630
  S    -11.492300   -4.898290    3.532670
  C    -12.667660   -5.999480    4.170370
  C    -12.087820   -7.210950    4.508300
  C    -10.688430   -7.236660    4.243690
  C     -9.872110   -8.449810    4.440730
  O     -8.880530   -8.706320    3.800810
  C    -10.481920   -9.358610    5.476020
  C    -11.934870   -9.649500    5.105790
  C    -12.803810   -8.416790    4.951230
  O    -13.998840   -8.466070    5.140590
  C    -14.043160   -5.541200    4.245430
  C    -14.843500   -5.800250    5.358570
  C    -16.153730   -5.347790    5.427110
  C    -16.666080   -4.619790    4.370580
  C    -15.853520   -4.333880    3.255990
  C    -14.555670   -4.777690    3.185340
  C    -16.626080   -3.527790    2.271540
  O    -16.247200   -3.100120    1.207150
  C    -17.963970   -3.367430    2.899010
  C    -17.977650   -4.021380    4.147140
  C    -19.125620   -4.006300    4.914000
  C    -20.240730   -3.339470    4.424960
  C    -20.240630   -2.685980    3.189940
  C    -19.069250   -2.706700    2.417690
  C    -21.455230   -2.011130    2.753140
  C    -21.626100   -1.348300    1.614530
  H     -6.280130   -3.487970   -2.776850
  H     -2.917760   -1.235350   -1.342440
  H     -5.872560   -2.665080   -5.065980
  H     -2.791200    0.142520   -6.940410
  H     -1.292070    0.861250   -5.032140
  H     -2.842430   -1.899130    1.647030
  H     -5.362790   -7.886370    4.615420
  H     -4.172440   -6.864050    5.427860
  H     -6.053270   -5.486100    6.379740
  H     -6.185830   -7.175280    6.883990
  H    -10.430170   -8.845240    6.438650
  H     -9.907250  -10.283350    5.537780
  H    -12.401670  -10.301150    5.846940
  H    -11.966640  -10.176440    4.145950
  H    -14.432250   -6.354050    6.186480
  H    -16.753130   -5.563920    6.297920
  H    -13.948340   -4.555470    2.319870
  H    -19.163070   -4.500730    5.873010
  H    -21.143400   -3.324140    5.019660
  H    -19.020810   -2.217100    1.458120
  H    -22.281990   -2.076750    3.450150
  H    -20.850130   -1.242990    0.876180
  H    -22.566160   -0.880480    1.378050

 Total Charge           Charge          ....    0
 Multiplicity           Mult            ....    1
 Number of Electrons    NEL             ....  404
 Basis Dimension        Dim             ....  911

ORBITAL ENERGIES
----------------

  NO   OCC          E(Eh)            E(eV)
   0   2.0000     -88.988415     -2421.4979
   1   2.0000     -88.982390     -2421.3339
   2   2.0000     -88.979522     -2421.2559
   3   2.0000     -19.268979      -524.3356
   4   2.0000     -19.216137      -522.8977
   5   2.0000     -19.212189      -522.7902
   6   2.0000     -19.211161      -522.7623
   7   2.0000     -19.208693      -522.6951
   8   2.0000     -19.207907      -522.6737
   9   2.0000     -14.415059      -392.2537
  10   2.0000     -14.414740      -392.2450
  11   2.0000     -14.413761      -392.2184
  12   2.0000     -10.369782      -282.1761
  13   2.0000     -10.366126      -282.0766
  14   2.0000     -10.365785      -282.0673
  15   2.0000     -10.363456      -282.0040
  16   2.0000     -10.359664      -281.9008
  17   2.0000     -10.358069      -281.8574
  18   2.0000     -10.339379      -281.3488
  19   2.0000     -10.339058      -281.3401
  20   2.0000     -10.338004      -281.3114
  21   2.0000     -10.331525      -281.1351
  22   2.0000     -10.326682      -281.0033
  23   2.0000     -10.320455      -280.8339
  24   2.0000     -10.315993      -280.7124
  25   2.0000     -10.312780      -280.6250
  26   2.0000     -10.309155      -280.5264
  27   2.0000     -10.308737      -280.5150
  28   2.0000     -10.306787      -280.4619
  29   2.0000     -10.306392      -280.4512
  30   2.0000     -10.301345      -280.3138
  31   2.0000     -10.298931      -280.2482
  32   2.0000     -10.297724      -280.2153
  33   2.0000     -10.297626      -280.2127
  34   2.0000     -10.296263      -280.1756
  35   2.0000     -10.294618      -280.1308
  36   2.0000     -10.291599      -280.0486
  37   2.0000     -10.290289      -280.0130
  38   2.0000     -10.287902      -279.9480
  39   2.0000     -10.287008      -279.9237
  40   2.0000     -10.285361      -279.8789
  41   2.0000     -10.282978      -279.8141
  42   2.0000     -10.282919      -279.8124
  43   2.0000     -10.282682      -279.8060
  44   2.0000     -10.282370      -279.7975
  45   2.0000     -10.282271      -279.7948
  46   2.0000     -10.282190      -279.7926
  47   2.0000     -10.281964      -279.7865
  48   2.0000     -10.281093      -279.7628
  49   2.0000     -10.276158      -279.6285
  50   2.0000     -10.275757      -279.6176
  51   2.0000     -10.275107      -279.5999
  52   2.0000     -10.275018      -279.5974
  53   2.0000     -10.274447      -279.5819
  54   2.0000     -10.270208      -279.4666
  55   2.0000     -10.266079      -279.3542
  56   2.0000      -8.084268      -219.9841
  57   2.0000      -8.077978      -219.8129
  58   2.0000      -8.074692      -219.7235
  59   2.0000      -6.053346      -164.7199
  60   2.0000      -6.049189      -164.6068
  61   2.0000      -6.047007      -164.5474
  62   2.0000      -6.046627      -164.5371
  63   2.0000      -6.043952      -164.4643
  64   2.0000      -6.042838      -164.4340
  65   2.0000      -6.040532      -164.3712
  66   2.0000      -6.039904      -164.3541
  67   2.0000      -6.036775      -164.2690
  68   2.0000      -1.166386       -31.7390
  69   2.0000      -1.136958       -30.9382
  70   2.0000      -1.130004       -30.7490
  71   2.0000      -1.128009       -30.6947
  72   2.0000      -1.124025       -30.5863
  73   2.0000      -1.123503       -30.5721
  74   2.0000      -1.069503       -29.1027
  75   2.0000      -1.026500       -27.9325
  76   2.0000      -1.012987       -27.5648
  77   2.0000      -1.000848       -27.2345
  78   2.0000      -0.992632       -27.0109
  79   2.0000      -0.991915       -26.9914
  80   2.0000      -0.988945       -26.9106
  81   2.0000      -0.956502       -26.0277
  82   2.0000      -0.950788       -25.8723
  83   2.0000      -0.923040       -25.1172
  84   2.0000      -0.920373       -25.0446
  85   2.0000      -0.914151       -24.8753
  86   2.0000      -0.897202       -24.4141
  87   2.0000      -0.880381       -23.9564
  88   2.0000      -0.869185       -23.6517
  89   2.0000      -0.864499       -23.5242
  90   2.0000      -0.859295       -23.3826
  91   2.0000      -0.849036       -23.1034
  92   2.0000      -0.846016       -23.0213
  93   2.0000      -0.843576       -22.9549
  94   2.0000      -0.841215       -22.8906
  95   2.0000      -0.834756       -22.7149
  96   2.0000      -0.814666       -22.1682
  97   2.0000      -0.802611       -21.8401
  98   2.0000      -0.781937       -21.2776
  99   2.0000      -0.773083       -21.0367
 100   2.0000      -0.761294       -20.7159
 101   2.0000      -0.759254       -20.6603
 102   2.0000      -0.746657       -20.3176
 103   2.0000      -0.734396       -19.9839
 104   2.0000      -0.729680       -19.8556
 105   2.0000      -0.720769       -19.6131
 106   2.0000      -0.707389       -19.2490
 107   2.0000      -0.702316       -19.1110
 108   2.0000      -0.694901       -18.9092
 109   2.0000      -0.693125       -18.8609
 110   2.0000      -0.682152       -18.5623
 111   2.0000      -0.679827       -18.4990
 112   2.0000      -0.671814       -18.2810
 113   2.0000      -0.670252       -18.2385
 114   2.0000      -0.654903       -17.8208
 115   2.0000      -0.649403       -17.6711
 116   2.0000      -0.627700       -17.0806
 117   2.0000      -0.623400       -16.9636
 118   2.0000      -0.610822       -16.6213
 119   2.0000      -0.605702       -16.4820
 120   2.0000      -0.601967       -16.3804
 121   2.0000      -0.598878       -16.2963
 122   2.0000      -0.596076       -16.2201
 123   2.0000      -0.588893       -16.0246
 124   2.0000      -0.579173       -15.7601
 125   2.0000      -0.577525       -15.7152
 126   2.0000      -0.574416       -15.6307
 127   2.0000      -0.569720       -15.5029
 128   2.0000      -0.567563       -15.4442
 129   2.0000      -0.564680       -15.3657
 130   2.0000      -0.553387       -15.0584
 131   2.0000      -0.548068       -14.9137
 132   2.0000      -0.543362       -14.7856
 133   2.0000      -0.541147       -14.7253
 134   2.0000      -0.537428       -14.6241
 135   2.0000      -0.536837       -14.6081
 136   2.0000      -0.533389       -14.5143
 137   2.0000      -0.532731       -14.4963
 138   2.0000      -0.525101       -14.2887
 139   2.0000      -0.524875       -14.2826
 140   2.0000      -0.522185       -14.2094
 141   2.0000      -0.520595       -14.1661
 142   2.0000      -0.519139       -14.1265
 143   2.0000      -0.518693       -14.1144
 144   2.0000      -0.517120       -14.0716
 145   2.0000      -0.513676       -13.9778
 146   2.0000      -0.513215       -13.9653
 147   2.0000      -0.510959       -13.9039
 148   2.0000      -0.507655       -13.8140
 149   2.0000      -0.505728       -13.7616
 150   2.0000      -0.502912       -13.6849
 151   2.0000      -0.500817       -13.6279
 152   2.0000      -0.497878       -13.5479
 153   2.0000      -0.495381       -13.4800
 154   2.0000      -0.489073       -13.3083
 155   2.0000      -0.480523       -13.0757
 156   2.0000      -0.476036       -12.9536
 157   2.0000      -0.474135       -12.9019
 158   2.0000      -0.470964       -12.8156
 159   2.0000      -0.469025       -12.7628
 160   2.0000      -0.463470       -12.6117
 161   2.0000      -0.461694       -12.5633
 162   2.0000      -0.458240       -12.4693
 163   2.0000      -0.455660       -12.3992
 164   2.0000      -0.453846       -12.3498
 165   2.0000      -0.452654       -12.3173
 166   2.0000      -0.451074       -12.2743
 167   2.0000      -0.449344       -12.2273
 168   2.0000      -0.447006       -12.1637
 169   2.0000      -0.443969       -12.0810
 170   2.0000      -0.442005       -12.0276
 171   2.0000      -0.439497       -11.9593
 172   2.0000      -0.437129       -11.8949
 173   2.0000      -0.430392       -11.7116
 174   2.0000      -0.428804       -11.6684
 175   2.0000      -0.427357       -11.6290
 176   2.0000      -0.425792       -11.5864
 177   2.0000      -0.424975       -11.5642
 178   2.0000      -0.423135       -11.5141
 179   2.0000      -0.420001       -11.4288
 180   2.0000      -0.413528       -11.2527
 181   2.0000      -0.409586       -11.1454
 182   2.0000      -0.396851       -10.7989
 183   2.0000      -0.377333       -10.2678
 184   2.0000      -0.372267       -10.1299
 185   2.0000      -0.355952        -9.6859
 186   2.0000      -0.348277        -9.4771
 187   2.0000      -0.346432        -9.4269
 188   2.0000      -0.339945        -9.2504
 189   2.0000      -0.337755        -9.1908
 190   2.0000      -0.333184        -9.0664
 191   2.0000      -0.332022        -9.0348
 192   2.0000      -0.331617        -9.0238
 193   2.0000      -0.328972        -8.9518
 194   2.0000      -0.324134        -8.8201
 195   2.0000      -0.320788        -8.7291
 196   2.0000      -0.317879        -8.6499
 197   2.0000      -0.314307        -8.5527
 198   2.0000      -0.312701        -8.5090
 199   2.0000      -0.299137        -8.1399
 200   2.0000      -0.272978        -7.4281
 201   2.0000      -0.262068        -7.1312
 202   0.0000      -0.075403        -2.0518
 203   0.0000      -0.062390        -1.6977
 204   0.0000      -0.053346        -1.4516
 205   0.0000      -0.037352        -1.0164
 206   0.0000      -0.033575        -0.9136

MULLIKEN ATOMIC CHARGES
-----------------------
   0 C :   -0.029065
   1 C :    0.167093
   2 C :   -0.085705
   3 C :    0.008488
   4 C :   -0.028727
   5 C :    0.012604
   6 N :   -0.016759
   7 C :    0.018328
   8 C :    0.020517
   9 N :   -0.015381
  10 C :   -0.146851
  11 S :    0.150164
  12 C :   -0.056005
  13 C :    0.028544
  14 C :    0.121405
  15 O :   -0.161668
  16 C :   -0.296164
  17 N :    0.155063
  18 C :   -0.164102
  19 S :    0.199720
  20 C :   -0.135245
  21 C :    0.077345
  22 C :    0.036415
  23 C :    0.014154
  24 O :   -0.168729
  25 C :    0.047487
  26 C :    0.059967
  27 C :    0.016315
  28 O :   -0.184689
  29 C :   -0.161397
  30 S :    0.192308
  31 C :   -0.136638
  32 C :    0.044438
  33 C :    0.107966
  34 C :    0.006466
  35 O :   -0.171061
  36 C :    0.068597
  37 C :    0.021692
  38 C :    0.005062
  39 O :   -0.170162
  40 C :    0.069695
  41 C :    0.077401
  42 C :   -0.063854
  43 C :    0.117962
  44 C :   -0.035288
  45 C :   -0.077597
  46 C :    0.163087
  47 O :   -0.121963
  48 C :   -0.042689
  49 C :    0.106076
  50 C :   -0.042767
  51 C :   -0.012880
  52 C :    0.114032
  53 C :   -0.061206
  54 C :   -0.009601
  55 C :   -0.009129
  56 H :   -0.005037
  57 H :   -0.015765
  58 H :   -0.023823
  59 H :    0.008092
  60 H :    0.009892
  61 H :    0.200610
  62 H :    0.054483
  63 H :    0.029288
  64 H :    0.052753
  65 H :    0.021583
  66 H :    0.050448
  67 H :    0.011930
  68 H :    0.028625
  69 H :    0.045710
  70 H :   -0.011732
  71 H :   -0.026701
  72 H :   -0.011667
  73 H :   -0.029808
  74 H :   -0.019110
  75 H :   -0.023768
  76 H :   -0.015051
  77 H :    0.021188
  78 H :    0.024796
Sum of atomic charges:   -0.0000000

LOEWDIN ATOMIC CHARGES
----------------------
   0 C :   -0.024356
   1 C :   -0.032335
   2 C :   -0.006217
   3 C :   -0.011994
   4 C :   -0.016580
   5 C :   -0.006750
   6 N :   -0.041048
   7 C :   -0.002399
   8 C :    0.000365
   9 N :   -0.040843
  10 C :   -0.197158
  11 S :    0.473607
  12 C :   -0.165022
  13 C :   -0.117290
  14 C :    0.044944
  15 O :   -0.024875
  16 C :   -0.037598
  17 N :   -0.057251
  18 C :   -0.157383
  19 S :    0.481461
  20 C :   -0.143460
  21 C :   -0.084530
  22 C :   -0.086240
  23 C :    0.085229
  24 O :   -0.130401
  25 C :   -0.046232
  26 C :   -0.046584
  27 C :    0.093366
  28 O :   -0.142303
  29 C :   -0.183065
  30 S :    0.488079
  31 C :   -0.111254
  32 C :   -0.103906
  33 C :   -0.060882
  34 C :    0.084269
  35 O :   -0.145566
  36 C :   -0.046831
  37 C :   -0.048431
  38 C :    0.081220
  39 O :   -0.140424
  40 C :   -0.054653
  41 C :    0.035761
  42 C :   -0.019045
  43 C :    0.008360
  44 C :   -0.062470
  45 C :    0.014249
  46 C :    0.088907
  47 O :   -0.126998
  48 C :   -0.057112
  49 C :   -0.006738
  50 C :   -0.017139
  51 C :    0.000030
  52 C :   -0.023778
  53 C :    0.026819
  54 C :   -0.022758
  55 C :   -0.035864
  56 H :    0.020289
  57 H :    0.035290
  58 H :    0.036676
  59 H :    0.024409
  60 H :    0.024949
  61 H :    0.105653
  62 H :    0.052752
  63 H :    0.044814
  64 H :    0.050675
  65 H :    0.041464
  66 H :    0.045548
  67 H :    0.037070
  68 H :    0.043377
  69 H :    0.049903
  70 H :    0.033476
  71 H :    0.031221
  72 H :    0.029668
  73 H :    0.029691
  74 H :    0.029485
  75 H :    0.034070
  76 H :    0.028545
  77 H :    0.022402
  78 H :    0.027672

  Mayer bond orders larger than 0.100000
B(  0-C ,  1-C ) :   1.1830 B(  0-C ,  5-C ) :   1.5031 B(  0-C , 56-H ) :   0.9812
B(  1-C ,  2-C ) :   1.3994 B(  1-C , 10-C ) :   1.0767 B(  2-C ,  3-C ) :   1.2117
B(  2-C , 57-H ) :   1.0134 B(  3-C ,  4-C ) :   1.2448 B(  3-C ,  9-N ) :   1.4335
B(  4-C ,  5-C ) :   1.2311 B(  4-C ,  6-N ) :   1.4368 B(  5-C , 58-H ) :   1.0034
B(  6-N ,  7-C ) :   1.6682 B(  7-C ,  8-C ) :   1.2274 B(  7-C , 59-H ) :   0.9741
B(  8-C ,  9-N ) :   1.6746 B(  8-C , 60-H ) :   0.9741 B( 10-C , 11-S ) :   1.1020
B( 10-C , 12-C ) :   0.1142 B( 10-C , 14-C ) :   1.4947 B( 11-S , 12-C ) :   1.1530
B( 12-C , 13-C ) :   1.5173 B( 12-C , 18-C ) :   1.0918 B( 13-C , 14-C ) :   1.2232
B( 13-C , 16-C ) :   1.0965 B( 14-C , 15-O ) :   1.2822 B( 15-O , 61-H ) :   0.9384
B( 16-C , 17-N ) :   3.0123 B( 18-C , 19-S ) :   1.1498 B( 18-C , 20-C ) :   0.1053
B( 18-C , 22-C ) :   1.5353 B( 19-S , 20-C ) :   1.1552 B( 20-C , 21-C ) :   1.5549
B( 20-C , 29-C ) :   1.0523 B( 21-C , 22-C ) :   1.1814 B( 21-C , 27-C ) :   0.9384
B( 22-C , 23-C ) :   0.9327 B( 23-C , 24-O ) :   2.1580 B( 23-C , 25-C ) :   1.0278
B( 25-C , 26-C ) :   1.0712 B( 25-C , 62-H ) :   0.9138 B( 25-C , 63-H ) :   0.9131
B( 26-C , 27-C ) :   1.0334 B( 26-C , 64-H ) :   0.9177 B( 26-C , 65-H ) :   0.9112
B( 27-C , 28-O ) :   2.1156 B( 29-C , 30-S ) :   1.1330 B( 29-C , 31-C ) :   0.1032
B( 29-C , 33-C ) :   1.5905 B( 30-S , 31-C ) :   1.1879 B( 31-C , 32-C ) :   1.5115
B( 31-C , 40-C ) :   1.0064 B( 32-C , 33-C ) :   1.2088 B( 32-C , 38-C ) :   0.9358
B( 33-C , 34-C ) :   0.8840 B( 34-C , 35-O ) :   2.2163 B( 34-C , 36-C ) :   1.0130
B( 36-C , 37-C ) :   1.0589 B( 36-C , 66-H ) :   0.9324 B( 36-C , 67-H ) :   0.9089
B( 37-C , 38-C ) :   1.0194 B( 37-C , 68-H ) :   0.9149 B( 37-C , 69-H ) :   0.9133
B( 38-C , 39-O ) :   2.1809 B( 40-C , 41-C ) :   1.3968 B( 40-C , 45-C ) :   1.2775
B( 41-C , 42-C ) :   1.3650 B( 41-C , 70-H ) :   0.9779 B( 42-C , 43-C ) :   1.3881
B( 42-C , 71-H ) :   0.9976 B( 43-C , 44-C ) :   1.3346 B( 43-C , 49-C ) :   0.9637
B( 44-C , 45-C ) :   1.4020 B( 44-C , 46-C ) :   0.9049 B( 45-C , 72-H ) :   0.9990
B( 46-C , 47-O ) :   2.3153 B( 46-C , 48-C ) :   0.9039 B( 48-C , 49-C ) :   1.3260
B( 48-C , 53-C ) :   1.4256 B( 49-C , 50-C ) :   1.4041 B( 50-C , 51-C ) :   1.3425
B( 50-C , 73-H ) :   0.9948 B( 51-C , 52-C ) :   1.3769 B( 51-C , 74-H ) :   0.9905
B( 52-C , 53-C ) :   1.2746 B( 52-C , 54-C ) :   1.0630 B( 53-C , 75-H ) :   1.0022
B( 54-C , 55-C ) :   1.9550 B( 54-C , 76-H ) :   0.9691 B( 55-C , 77-H ) :   0.9477
B( 55-C , 78-H ) :   0.9488

-----------------------------------------------------------------------------
         ABSORPTION SPECTRUM VIA TRANSITION ELECTRIC DIPOLE MOMENTS
-----------------------------------------------------------------------------
State   Energy  Wavelength   fosc         T2         TX        TY        TZ
        (cm-1)    (nm)                  (au**2)     (au)      (au)      (au)
-----------------------------------------------------------------------------
   0   23616.1    423.4   1.033429678  14.40615   3.12796   1.10900  -1.84177
   1   26250.2    380.9   0.408473305   5.12280  -0.92149   1.38406  -1.53559
   2   27199.2    367.7   0.045957119   0.55625   0.02015   0.12260  -0.73540
   3   29036.7    344.4   0.037166110   0.42138   0.61713   0.05275  -0.19430
   4   29653.6    337.2   0.000586631   0.00651   0.06249  -0.04692   0.02017
   5   29919.7    334.2   0.092708681   1.02009   0.89408  -0.46824  -0.03832
   6   30162.6    331.5   0.020259104   0.22112  -0.00068   0.18641  -0.43171
   7   30307.1    330.0   0.183272464   1.99081   1.05263  -0.80812   0.47929
   8   30524.5    327.6   0.006952553   0.07498  -0.16024   0.21954   0.03331
   9   31371.2    318.8   0.054261091   0.56942  -0.14279   0.08855   0.73566
  10   32340.3    309.2   0.045378733   0.46194  -0.30452  -0.40272   0.45500
  11   32487.3    307.8   0.083777396   0.84896  -0.53637  -0.38399   0.64329
  12   33810.9    295.8   0.239062365   2.32772  -1.31439   0.75116  -0.18934
  13   34566.8    289.3   0.062592777   0.59613  -0.10107   0.63571  -0.42636
  14   35551.8    281.3   0.207011428   1.91694  -1.36479  -0.16596  -0.16355
  15   36198.2    276.3   0.058194912   0.52927  -0.07491  -0.71003   0.13968
  16   36534.9    273.7   0.005526572   0.04980   0.09303   0.14635  -0.14045
  17   36761.1    272.0   0.037716804   0.33777  -0.49572  -0.16071   0.25730
  18   37209.6    268.7   0.021265654   0.18815   0.24365  -0.29506   0.20427
  19   37517.8    266.5   0.004924841   0.04321  -0.00231   0.15448   0.13908
  20   37864.5    264.1   0.010512039   0.09140   0.22158   0.18133   0.09705
  21   37984.2    263.3   0.005955698   0.05162   0.06631  -0.09044   0.19759
  22   38145.6    262.2   0.000434324   0.00375   0.00602   0.05584  -0.02437
  23   38238.8    261.5   0.011186395   0.09631  -0.28893   0.08502   0.07483
  24   38904.4    257.0   0.111851001   0.94649  -0.86745   0.44018   0.01655
  25   39304.5    254.4   0.104652852   0.87657   0.53232  -0.21834   0.73860
  26   39699.6    251.9   0.211742658   1.75589  -0.74076  -0.23597   1.07307
  27   40009.4    249.9   0.019391569   0.15956  -0.03949   0.04013  -0.39546
  28   40163.2    249.0   0.023925648   0.19611  -0.36026   0.25748  -0.00594

FINAL SINGLE POINT ENERGY     -3497.492605149627

DIPOLE MOMENT
-------------
                                X             Y             Z
Electronic contribution:     28.69475       3.00297      -7.98497
Nuclear contribution   :    -30.00945      -3.23739       8.83576
                        -----------------------------------------
Total Dipole Moment    :     -1.31470      -0.23442       0.85079
                        -----------------------------------------
Magnitude (a.u.)       :      1.58343
Magnitude (Debye)      :      4.02475

Rotational constants in cm-1:     0.001829     0.000593     0.000471
Rotational constants in MHz :    54.823683    17.784034    14.125675

                             ****ORCA TERMINATED NORMALLY****
TOTAL RUN TIME: 0 days 0 hours 5 minutes 45 seconds 845 msec
