                         Program Version 4.2.0 -  RELEASE  -
|  1> # ORCA input file
|  2> # SCF done       -151.789271401597          0.000306418621
|  3> ! CAM-B3LYP def2-SVP def2/J RIJCOSX Grid4 TightSCF
|  4> %maxcore 5000
|  5> %tddft
|  6>     Mode sTDDFT
|  7>     Ethresh 5.0
|  8>     maxcore 5000
|  9> end
| 10>
| 11> %pal
| 12>   nprocs 6
| 13>   end
| 14> * xyz 0 1
| 15>    C       -0.69949         0.75631         0.72753
| 16>    S       -1.26151        -0.67130         1.48017
| 17>    C       -0.75763        -1.69038         0.16904
| 18>    C       -0.16705        -0.90981        -0.82421
| 19>    C       -0.13726         0.48771        -0.49647
| 20>    N        0.40410         1.40161        -1.34624
| 21>    C        0.88503         0.93032        -2.46080
| 22>    O        1.43901         1.74682        -3.35747
| 23>    C        1.46574         3.13049        -3.01835
| 24>    C        2.14136         3.88094        -4.15118
| 25>    C        0.85548        -0.47574        -2.80137
| 26>    C        1.42601        -0.94562        -4.11283
| 27>    N        1.33556        -2.37097        -4.34262
| 28>    N        0.34207        -1.35727        -1.99661
| 29>    C       -0.96965        -3.09220         0.22614
| 30>    C       -0.59917        -3.95622        -0.74394
| 31>    C       -0.81859        -5.37241        -0.65500
| 32>    C       -0.40164        -6.24482        -1.67516
| 33>    N       -0.59247        -7.54249        -1.62609
| 34>    C       -1.20571        -8.03957        -0.54312
| 35>    C       -1.62009        -7.17032         0.48406
| 36>    N       -1.43501        -5.87530         0.42982
| 37>    C       -1.40712        -9.45859        -0.46089
| 38>    S       -2.28977       -10.17022         0.85336
| 39>    C       -2.02144       -11.76712         0.23924
| 40>    C       -1.29494       -11.74268        -0.93634
| 41>    C       -0.93169       -10.42727        -1.33123
| 42>    O       -0.17597       -10.10899        -2.41137
| 43>    C        0.82372       -11.05212        -2.74942
| 44>    C        0.29726       -12.20899        -3.60569
| 45>    C       -1.02988       -12.73038        -3.04769
| 46>    O       -1.02002       -12.88313        -1.63714
| 47>    C       -2.57887       -12.86817         0.96744
| 48>    C       -2.33668       -14.21978         0.67117
| 49>    N       -2.88738       -15.18796         1.36454
| 50>    C       -3.69597       -14.85753         2.38385
| 51>    C       -3.92093       -13.50318         2.69375
| 52>    N       -3.37306       -12.53805         1.99889
| 53>    C       -4.28680       -15.93200         3.11480
| 54>    S       -3.88996       -17.56494         2.69092
| 55>    C       -4.90991       -18.23512         3.91450
| 56>    C       -5.54052       -17.21663         4.62458
| 57>    C       -5.18640       -15.90685         4.17400
| 58>    N       -5.71531       -14.80296         4.75617
| 59>    C       -6.55156       -15.00808         5.73668
| 60>    O       -7.11215       -13.98467         6.38180
| 61>    C       -6.76721       -12.67068         5.94886
| 62>    C       -7.49398       -12.27522         4.67096
| 63>    C       -6.91238       -16.33121         6.19551
| 64>    C       -7.88592       -16.49234         7.33231
| 65>    N       -8.15801       -17.86015         7.71542
| 66>    N       -6.41233       -17.39697         5.64583
| 67>    C       -5.06683       -19.63787         4.14754
| 68>    C       -4.45760       -20.60053         3.45646
| 69>    H       -0.80571         1.70635         1.20956
| 70>    H        2.00847         3.25484        -2.07436
| 71>    H        0.43806         3.47823        -2.86287
| 72>    H        3.15425         3.51337        -4.29164
| 73>    H        2.17641         4.94097        -3.91794
| 74>    H        1.58978         3.73768        -5.07637
| 75>    H        2.47852        -0.64545        -4.16203
| 76>    H        0.90808        -0.42293        -4.92451
| 77>    H        1.81603        -2.86369        -3.59601
| 78>    H        0.36225        -2.65768        -4.30293
| 79>    H       -1.45733        -3.48023         1.10992
| 80>    H       -0.11000        -3.58795        -1.63283
| 81>    H        0.09867        -5.87223        -2.56003
| 82>    H       -2.11313        -7.55374         1.36841
| 83>    H        1.28273       -11.44912        -1.83475
| 84>    H        1.57814       -10.48696        -3.30177
| 85>    H        1.04658       -13.00095        -3.61023
| 86>    H        0.12880       -11.87792        -4.63045
| 87>    H       -1.24388       -13.72600        -3.44465
| 88>    H       -1.84452       -12.05485        -3.33588
| 89>    H       -1.68428       -14.51047        -0.13807
| 90>    H       -4.55598       -13.22107         3.51931
| 91>    H       -5.68374       -12.61491         5.80198
| 92>    H       -7.06158       -12.02476         6.77912
| 93>    H       -7.20103       -12.93152         3.85559
| 94>    H       -7.23482       -11.25359         4.40903
| 95>    H       -8.56980       -12.34501         4.81309
| 96>    H       -8.82879       -16.00910         7.05300
| 97>    H       -7.49688       -15.95111         8.20183
| 98>    H       -8.51959       -18.36874         6.91454
| 99>    H       -7.28940       -18.31565         7.97780
|100>    H       -5.74329       -19.87304         4.95860
|101>    H       -3.78420       -20.36863         2.64792
|102>    H       -4.61553       -21.64061         3.67880
|103> *
|104>
|105>                          ****END OF INPUT****

CARTESIAN COORDINATES (ANGSTROEM)
---------------------------------
  C     -0.699490    0.756310    0.727530
  S     -1.261510   -0.671300    1.480170
  C     -0.757630   -1.690380    0.169040
  C     -0.167050   -0.909810   -0.824210
  C     -0.137260    0.487710   -0.496470
  N      0.404100    1.401610   -1.346240
  C      0.885030    0.930320   -2.460800
  O      1.439010    1.746820   -3.357470
  C      1.465740    3.130490   -3.018350
  C      2.141360    3.880940   -4.151180
  C      0.855480   -0.475740   -2.801370
  C      1.426010   -0.945620   -4.112830
  N      1.335560   -2.370970   -4.342620
  N      0.342070   -1.357270   -1.996610
  C     -0.969650   -3.092200    0.226140
  C     -0.599170   -3.956220   -0.743940
  C     -0.818590   -5.372410   -0.655000
  C     -0.401640   -6.244820   -1.675160
  N     -0.592470   -7.542490   -1.626090
  C     -1.205710   -8.039570   -0.543120
  C     -1.620090   -7.170320    0.484060
  N     -1.435010   -5.875300    0.429820
  C     -1.407120   -9.458590   -0.460890
  S     -2.289770  -10.170220    0.853360
  C     -2.021440  -11.767120    0.239240
  C     -1.294940  -11.742680   -0.936340
  C     -0.931690  -10.427270   -1.331230
  O     -0.175970  -10.108990   -2.411370
  C      0.823720  -11.052120   -2.749420
  C      0.297260  -12.208990   -3.605690
  C     -1.029880  -12.730380   -3.047690
  O     -1.020020  -12.883130   -1.637140
  C     -2.578870  -12.868170    0.967440
  C     -2.336680  -14.219780    0.671170
  N     -2.887380  -15.187960    1.364540
  C     -3.695970  -14.857530    2.383850
  C     -3.920930  -13.503180    2.693750
  N     -3.373060  -12.538050    1.998890
  C     -4.286800  -15.932000    3.114800
  S     -3.889960  -17.564940    2.690920
  C     -4.909910  -18.235120    3.914500
  C     -5.540520  -17.216630    4.624580
  C     -5.186400  -15.906850    4.174000
  N     -5.715310  -14.802960    4.756170
  C     -6.551560  -15.008080    5.736680
  O     -7.112150  -13.984670    6.381800
  C     -6.767210  -12.670680    5.948860
  C     -7.493980  -12.275220    4.670960
  C     -6.912380  -16.331210    6.195510
  C     -7.885920  -16.492340    7.332310
  N     -8.158010  -17.860150    7.715420
  N     -6.412330  -17.396970    5.645830
  C     -5.066830  -19.637870    4.147540
  C     -4.457600  -20.600530    3.456460
  H     -0.805710    1.706350    1.209560
  H      2.008470    3.254840   -2.074360
  H      0.438060    3.478230   -2.862870
  H      3.154250    3.513370   -4.291640
  H      2.176410    4.940970   -3.917940
  H      1.589780    3.737680   -5.076370
  H      2.478520   -0.645450   -4.162030
  H      0.908080   -0.422930   -4.924510
  H      1.816030   -2.863690   -3.596010
  H      0.362250   -2.657680   -4.302930
  H     -1.457330   -3.480230    1.109920
  H     -0.110000   -3.587950   -1.632830
  H      0.098670   -5.872230   -2.560030
  H     -2.113130   -7.553740    1.368410
  H      1.282730  -11.449120   -1.834750
  H      1.578140  -10.486960   -3.301770
  H      1.046580  -13.000950   -3.610230
  H      0.128800  -11.877920   -4.630450
  H     -1.243880  -13.726000   -3.444650
  H     -1.844520  -12.054850   -3.335880
  H     -1.684280  -14.510470   -0.138070
  H     -4.555980  -13.221070    3.519310
  H     -5.683740  -12.614910    5.801980
  H     -7.061580  -12.024760    6.779120
  H     -7.201030  -12.931520    3.855590
  H     -7.234820  -11.253590    4.409030
  H     -8.569800  -12.345010    4.813090
  H     -8.828790  -16.009100    7.053000
  H     -7.496880  -15.951110    8.201830
  H     -8.519590  -18.368740    6.914540
  H     -7.289400  -18.315650    7.977800
  H     -5.743290  -19.873040    4.958600
  H     -3.784200  -20.368630    2.647920
  H     -4.615530  -21.640610    3.678800

 Total Charge           Charge          ....    0
 Multiplicity           Mult            ....    1
 Number of Electrons    NEL             ....  406
 Basis Dimension        Dim             ....  938

ORBITAL ENERGIES
----------------

  NO   OCC          E(Eh)            E(eV)
   0   2.0000     -88.960665     -2420.7428
   1   2.0000     -88.958431     -2420.6820
   2   2.0000     -88.946520     -2420.3578
   3   2.0000     -19.261111      -524.1215
   4   2.0000     -19.256448      -523.9946
   5   2.0000     -19.248600      -523.7810
   6   2.0000     -19.235782      -523.4322
   7   2.0000     -14.420690      -392.4069
   8   2.0000     -14.417160      -392.3109
   9   2.0000     -14.413049      -392.1990
  10   2.0000     -14.409722      -392.1085
  11   2.0000     -14.409351      -392.0984
  12   2.0000     -14.406944      -392.0329
  13   2.0000     -14.405045      -391.9812
  14   2.0000     -14.400556      -391.8591
  15   2.0000     -14.374389      -391.1470
  16   2.0000     -14.371942      -391.0804
  17   2.0000     -10.375344      -282.3275
  18   2.0000     -10.368603      -282.1440
  19   2.0000     -10.331211      -281.1265
  20   2.0000     -10.329032      -281.0672
  21   2.0000     -10.325937      -280.9830
  22   2.0000     -10.323162      -280.9075
  23   2.0000     -10.320733      -280.8414
  24   2.0000     -10.319693      -280.8131
  25   2.0000     -10.317783      -280.7612
  26   2.0000     -10.316493      -280.7261
  27   2.0000     -10.312241      -280.6103
  28   2.0000     -10.311930      -280.6019
  29   2.0000     -10.309957      -280.5482
  30   2.0000     -10.307073      -280.4697
  31   2.0000     -10.301427      -280.3161
  32   2.0000     -10.300234      -280.2836
  33   2.0000     -10.300046      -280.2785
  34   2.0000     -10.299855      -280.2733
  35   2.0000     -10.299149      -280.2541
  36   2.0000     -10.297528      -280.2100
  37   2.0000     -10.297454      -280.2080
  38   2.0000     -10.297087      -280.1980
  39   2.0000     -10.296072      -280.1704
  40   2.0000     -10.295894      -280.1655
  41   2.0000     -10.292174      -280.0643
  42   2.0000     -10.291512      -280.0463
  43   2.0000     -10.288319      -279.9594
  44   2.0000     -10.288023      -279.9513
  45   2.0000     -10.287655      -279.9413
  46   2.0000     -10.285046      -279.8703
  47   2.0000     -10.274762      -279.5905
  48   2.0000     -10.272648      -279.5330
  49   2.0000     -10.271301      -279.4963
  50   2.0000     -10.263100      -279.2731
  51   2.0000     -10.260876      -279.2126
  52   2.0000     -10.257622      -279.1241
  53   2.0000     -10.257508      -279.1210
  54   2.0000      -8.055960      -219.2138
  55   2.0000      -8.052784      -219.1274
  56   2.0000      -8.041106      -218.8096
  57   2.0000      -6.024883      -163.9454
  58   2.0000      -6.021745      -163.8600
  59   2.0000      -6.020714      -163.8319
  60   2.0000      -6.018970      -163.7845
  61   2.0000      -6.017715      -163.7503
  62   2.0000      -6.015618      -163.6933
  63   2.0000      -6.010521      -163.5546
  64   2.0000      -6.006644      -163.4491
  65   2.0000      -6.002774      -163.3438
  66   2.0000      -1.176939       -32.0261
  67   2.0000      -1.173115       -31.9221
  68   2.0000      -1.162051       -31.6210
  69   2.0000      -1.135292       -30.8929
  70   2.0000      -1.070499       -29.1298
  71   2.0000      -1.065621       -28.9970
  72   2.0000      -1.064679       -28.9714
  73   2.0000      -1.060794       -28.8657
  74   2.0000      -1.002182       -27.2708
  75   2.0000      -0.996695       -27.1215
  76   2.0000      -0.994459       -27.0606
  77   2.0000      -0.984680       -26.7945
  78   2.0000      -0.970778       -26.4162
  79   2.0000      -0.970258       -26.4021
  80   2.0000      -0.966299       -26.2943
  81   2.0000      -0.949617       -25.8404
  82   2.0000      -0.949059       -25.8252
  83   2.0000      -0.894954       -24.3529
  84   2.0000      -0.888112       -24.1667
  85   2.0000      -0.878768       -23.9125
  86   2.0000      -0.873319       -23.7642
  87   2.0000      -0.869853       -23.6699
  88   2.0000      -0.867818       -23.6145
  89   2.0000      -0.854059       -23.2401
  90   2.0000      -0.833123       -22.6704
  91   2.0000      -0.827067       -22.5056
  92   2.0000      -0.824226       -22.4283
  93   2.0000      -0.810147       -22.0452
  94   2.0000      -0.799058       -21.7435
  95   2.0000      -0.796704       -21.6794
  96   2.0000      -0.781030       -21.2529
  97   2.0000      -0.776749       -21.1364
  98   2.0000      -0.766892       -20.8682
  99   2.0000      -0.753323       -20.4990
 100   2.0000      -0.739255       -20.1161
 101   2.0000      -0.733557       -19.9611
 102   2.0000      -0.731773       -19.9125
 103   2.0000      -0.730039       -19.8654
 104   2.0000      -0.714175       -19.4337
 105   2.0000      -0.691524       -18.8173
 106   2.0000      -0.689921       -18.7737
 107   2.0000      -0.686656       -18.6849
 108   2.0000      -0.686203       -18.6725
 109   2.0000      -0.681476       -18.5439
 110   2.0000      -0.670966       -18.2579
 111   2.0000      -0.664683       -18.0869
 112   2.0000      -0.657414       -17.8891
 113   2.0000      -0.647119       -17.6090
 114   2.0000      -0.644067       -17.5259
 115   2.0000      -0.637748       -17.3540
 116   2.0000      -0.620884       -16.8951
 117   2.0000      -0.617335       -16.7985
 118   2.0000      -0.612018       -16.6538
 119   2.0000      -0.609181       -16.5767
 120   2.0000      -0.603999       -16.4356
 121   2.0000      -0.598807       -16.2944
 122   2.0000      -0.592159       -16.1135
 123   2.0000      -0.581956       -15.8358
 124   2.0000      -0.580378       -15.7929
 125   2.0000      -0.577821       -15.7233
 126   2.0000      -0.575444       -15.6586
 127   2.0000      -0.574862       -15.6428
 128   2.0000      -0.568741       -15.4762
 129   2.0000      -0.566345       -15.4110
 130   2.0000      -0.561413       -15.2768
 131   2.0000      -0.550499       -14.9798
 132   2.0000      -0.545832       -14.8529
 133   2.0000      -0.539002       -14.6670
 134   2.0000      -0.538561       -14.6550
 135   2.0000      -0.531854       -14.4725
 136   2.0000      -0.525721       -14.3056
 137   2.0000      -0.524465       -14.2714
 138   2.0000      -0.521070       -14.1790
 139   2.0000      -0.520080       -14.1521
 140   2.0000      -0.518503       -14.1092
 141   2.0000      -0.511922       -13.9301
 142   2.0000      -0.511540       -13.9197
 143   2.0000      -0.508070       -13.8253
 144   2.0000      -0.506954       -13.7949
 145   2.0000      -0.504516       -13.7286
 146   2.0000      -0.501439       -13.6449
 147   2.0000      -0.495585       -13.4856
 148   2.0000      -0.490197       -13.3389
 149   2.0000      -0.488649       -13.2968
 150   2.0000      -0.483859       -13.1665
 151   2.0000      -0.481748       -13.1090
 152   2.0000      -0.480255       -13.0684
 153   2.0000      -0.477794       -13.0014
 154   2.0000      -0.476323       -12.9614
 155   2.0000      -0.470958       -12.8154
 156   2.0000      -0.467685       -12.7264
 157   2.0000      -0.466837       -12.7033
 158   2.0000      -0.463180       -12.6038
 159   2.0000      -0.460577       -12.5329
 160   2.0000      -0.455490       -12.3945
 161   2.0000      -0.455105       -12.3840
 162   2.0000      -0.453649       -12.3444
 163   2.0000      -0.453322       -12.3355
 164   2.0000      -0.441455       -12.0126
 165   2.0000      -0.440914       -11.9979
 166   2.0000      -0.438663       -11.9366
 167   2.0000      -0.431167       -11.7326
 168   2.0000      -0.426911       -11.6168
 169   2.0000      -0.423342       -11.5197
 170   2.0000      -0.421313       -11.4645
 171   2.0000      -0.418185       -11.3794
 172   2.0000      -0.416182       -11.3249
 173   2.0000      -0.414233       -11.2718
 174   2.0000      -0.410414       -11.1679
 175   2.0000      -0.409885       -11.1536
 176   2.0000      -0.405695       -11.0395
 177   2.0000      -0.402935       -10.9644
 178   2.0000      -0.398973       -10.8566
 179   2.0000      -0.394505       -10.7350
 180   2.0000      -0.388068       -10.5599
 181   2.0000      -0.387549       -10.5457
 182   2.0000      -0.381729       -10.3874
 183   2.0000      -0.381503       -10.3812
 184   2.0000      -0.376366       -10.2414
 185   2.0000      -0.369670       -10.0592
 186   2.0000      -0.366618        -9.9762
 187   2.0000      -0.360969        -9.8225
 188   2.0000      -0.358330        -9.7507
 189   2.0000      -0.344324        -9.3695
 190   2.0000      -0.326970        -8.8973
 191   2.0000      -0.323286        -8.7971
 192   2.0000      -0.321492        -8.7482
 193   2.0000      -0.311113        -8.4658
 194   2.0000      -0.302944        -8.2435
 195   2.0000      -0.301416        -8.2020
 196   2.0000      -0.300130        -8.1670
 197   2.0000      -0.297103        -8.0846
 198   2.0000      -0.295477        -8.0403
 199   2.0000      -0.282407        -7.6847
 200   2.0000      -0.277426        -7.5491
 201   2.0000      -0.248236        -6.7548
 202   2.0000      -0.227541        -6.1917
 203   0.0000      -0.063698        -1.7333
 204   0.0000      -0.050928        -1.3858
 205   0.0000      -0.023554        -0.6409
 206   0.0000      -0.000133        -0.0036
 207   0.0000       0.012093         0.3291

MULLIKEN ATOMIC CHARGES
-----------------------
   0 C :   -0.173277
   1 S :    0.159926
   2 C :   -0.152026
   3 C :    0.028962
   4 C :    0.084475
   5 N :   -0.050116
   6 C :    0.107452
   7 O :   -0.291395
   8 C :    0.170021
   9 C :    0.014382
  10 C :   -0.196694
  11 C :    0.169709
  12 N :   -0.198999
  13 N :   -0.001465
  14 C :    0.050482
  15 C :   -0.014277
  16 C :    0.011726
  17 C :   -0.006273
  18 N :   -0.004389
  19 C :   -0.025272
  20 C :   -0.025320
  21 N :   -0.033172
  22 C :   -0.106685
  23 S :    0.166991
  24 C :   -0.097693
  25 C :    0.150168
  26 C :    0.122314
  27 O :   -0.285128
  28 C :    0.191142
  29 C :   -0.012602
  30 C :    0.189470
  31 O :   -0.331112
  32 C :   -0.032518
  33 C :   -0.001218
  34 N :   -0.049152
  35 C :   -0.055730
  36 C :    0.004701
  37 N :   -0.047762
  38 C :   -0.149783
  39 S :    0.202148
  40 C :   -0.159816
  41 C :    0.010646
  42 C :    0.086150
  43 N :   -0.049876
  44 C :    0.120130
  45 O :   -0.282177
  46 C :    0.180886
  47 C :   -0.027880
  48 C :   -0.208669
  49 C :    0.170385
  50 N :   -0.195135
  51 N :    0.008115
  52 C :    0.005864
  53 C :   -0.023049
  54 H :    0.007994
  55 H :    0.018688
  56 H :    0.018276
  57 H :    0.024496
  58 H :    0.019799
  59 H :    0.024711
  60 H :    0.026283
  61 H :    0.026826
  62 H :    0.099096
  63 H :    0.098816
  64 H :   -0.012395
  65 H :   -0.031014
  66 H :   -0.010125
  67 H :    0.004882
  68 H :    0.021352
  69 H :    0.027829
  70 H :    0.019269
  71 H :    0.021223
  72 H :    0.025995
  73 H :    0.030025
  74 H :    0.005270
  75 H :   -0.008915
  76 H :    0.028376
  77 H :    0.023293
  78 H :    0.039487
  79 H :    0.026586
  80 H :    0.023452
  81 H :    0.025698
  82 H :    0.026843
  83 H :    0.091705
  84 H :    0.091363
  85 H :   -0.002150
  86 H :    0.022709
  87 H :    0.026670
Sum of atomic charges:   -0.0000000

LOEWDIN ATOMIC CHARGES
----------------------
   0 C :   -0.211300
   1 S :    0.486517
   2 C :   -0.183963
   3 C :   -0.060373
   4 C :   -0.050155
   5 N :   -0.097247
   6 C :    0.047438
   7 O :   -0.083551
   8 C :    0.088293
   9 C :   -0.062775
  10 C :   -0.026318
  11 C :    0.007903
  12 N :   -0.099201
  13 N :   -0.045677
  14 C :   -0.018233
  15 C :   -0.035572
  16 C :   -0.019706
  17 C :    0.001901
  18 N :   -0.039186
  19 C :   -0.030152
  20 C :   -0.001135
  21 N :   -0.047681
  22 C :   -0.209006
  23 S :    0.468945
  24 C :   -0.202795
  25 C :   -0.008246
  26 C :   -0.000394
  27 O :   -0.088298
  28 C :    0.083137
  29 C :   -0.062286
  30 C :    0.084113
  31 O :   -0.109823
  32 C :   -0.031414
  33 C :    0.010129
  34 N :   -0.064296
  35 C :   -0.030334
  36 C :    0.009742
  37 N :   -0.060766
  38 C :   -0.206163
  39 S :    0.511903
  40 C :   -0.178401
  41 C :   -0.063863
  42 C :   -0.039441
  43 N :   -0.098955
  44 C :    0.057870
  45 O :   -0.074204
  46 C :    0.086162
  47 C :   -0.069402
  48 C :   -0.029765
  49 C :    0.007096
  50 N :   -0.100774
  51 N :   -0.046645
  52 C :   -0.034743
  53 C :   -0.043449
  54 H :    0.025090
  55 H :    0.018597
  56 H :    0.018616
  57 H :    0.028931
  58 H :    0.032618
  59 H :    0.028947
  60 H :    0.034990
  61 H :    0.035109
  62 H :    0.052743
  63 H :    0.053109
  64 H :    0.029802
  65 H :    0.021189
  66 H :    0.020979
  67 H :    0.016428
  68 H :    0.017848
  69 H :    0.028870
  70 H :    0.031403
  71 H :    0.032914
  72 H :    0.027451
  73 H :    0.021511
  74 H :    0.023324
  75 H :    0.021067
  76 H :    0.019433
  77 H :    0.024769
  78 H :    0.028693
  79 H :    0.035207
  80 H :    0.027621
  81 H :    0.034763
  82 H :    0.034937
  83 H :    0.052897
  84 H :    0.052996
  85 H :    0.036195
  86 H :    0.018575
  87 H :    0.026917

  Mayer bond orders larger than 0.100000
B(  0-C ,  1-S ) :   1.1747 B(  0-C ,  2-C ) :   0.1162 B(  0-C ,  4-C ) :   1.4220
B(  0-C , 54-H ) :   0.9782 B(  1-S ,  2-C ) :   1.1858 B(  2-C ,  3-C ) :   1.3473
B(  2-C , 14-C ) :   1.1182 B(  3-C ,  4-C ) :   1.2131 B(  3-C , 13-N ) :   1.3316
B(  4-C ,  5-N ) :   1.3222 B(  5-N ,  6-C ) :   1.6501 B(  6-C ,  7-O ) :   1.2636
B(  6-C , 10-C ) :   1.0782 B(  7-O ,  8-C ) :   0.9020 B(  8-C ,  9-C ) :   1.0944
B(  8-C , 55-H ) :   0.9568 B(  8-C , 56-H ) :   0.9572 B(  9-C , 57-H ) :   0.9687
B(  9-C , 58-H ) :   0.9614 B(  9-C , 59-H ) :   0.9684 B( 10-C , 11-C ) :   0.9587
B( 10-C , 13-N ) :   1.7965 B( 11-C , 12-N ) :   1.1571 B( 11-C , 60-H ) :   0.9326
B( 11-C , 61-H ) :   0.9327 B( 12-N , 62-H ) :   0.9796 B( 12-N , 63-H ) :   0.9796
B( 14-C , 15-C ) :   1.7088 B( 14-C , 64-H ) :   0.9571 B( 15-C , 16-C ) :   1.0658
B( 15-C , 65-H ) :   0.9577 B( 16-C , 17-C ) :   1.2863 B( 16-C , 21-N ) :   1.4869
B( 17-C , 18-N ) :   1.5899 B( 17-C , 66-H ) :   0.9811 B( 18-N , 19-C ) :   1.5611
B( 19-C , 20-C ) :   1.2792 B( 19-C , 22-C ) :   1.0648 B( 20-C , 21-N ) :   1.6280
B( 20-C , 67-H ) :   0.9737 B( 22-C , 23-S ) :   1.1065 B( 22-C , 24-C ) :   0.1368
B( 22-C , 26-C ) :   1.5011 B( 23-S , 24-C ) :   1.1168 B( 24-C , 25-C ) :   1.5221
B( 24-C , 32-C ) :   1.0591 B( 25-C , 26-C ) :   1.1786 B( 25-C , 31-O ) :   1.1214
B( 26-C , 27-O ) :   1.1858 B( 27-O , 28-C ) :   0.9642 B( 28-C , 29-C ) :   1.0929
B( 28-C , 68-H ) :   0.9346 B( 28-C , 69-H ) :   0.9582 B( 29-C , 30-C ) :   1.0971
B( 29-C , 70-H ) :   0.9340 B( 29-C , 71-H ) :   0.9328 B( 30-C , 31-O ) :   0.9494
B( 30-C , 72-H ) :   0.9587 B( 30-C , 73-H ) :   0.9353 B( 32-C , 33-C ) :   1.3343
B( 32-C , 37-N ) :   1.5240 B( 33-C , 34-N ) :   1.5765 B( 33-C , 74-H ) :   0.9648
B( 34-N , 35-C ) :   1.5376 B( 35-C , 36-C ) :   1.3265 B( 35-C , 38-C ) :   1.0908
B( 36-C , 37-N ) :   1.5861 B( 36-C , 75-H ) :   0.9626 B( 38-C , 39-S ) :   1.1506
B( 38-C , 40-C ) :   0.1391 B( 38-C , 42-C ) :   1.4109 B( 39-S , 40-C ) :   1.1456
B( 40-C , 41-C ) :   1.3829 B( 40-C , 52-C ) :   1.1509 B( 41-C , 42-C ) :   1.2213
B( 41-C , 51-N ) :   1.3554 B( 42-C , 43-N ) :   1.3465 B( 43-N , 44-C ) :   1.6268
B( 44-C , 45-O ) :   1.2737 B( 44-C , 48-C ) :   1.0815 B( 45-O , 46-C ) :   0.9068
B( 46-C , 47-C ) :   1.1197 B( 46-C , 76-H ) :   0.9485 B( 46-C , 77-H ) :   0.9579
B( 47-C , 78-H ) :   0.9644 B( 47-C , 79-H ) :   0.9637 B( 47-C , 80-H ) :   0.9643
B( 48-C , 49-C ) :   0.9554 B( 48-C , 51-N ) :   1.8020 B( 49-C , 50-N ) :   1.1592
B( 49-C , 81-H ) :   0.9338 B( 49-C , 82-H ) :   0.9338 B( 50-N , 83-H ) :   0.9768
B( 50-N , 84-H ) :   0.9772 B( 52-C , 53-C ) :   1.8815 B( 52-C , 85-H ) :   0.9646
B( 53-C , 86-H ) :   0.9573 B( 53-C , 87-H ) :   0.9521

-----------------------------------------------------------------------------
         ABSORPTION SPECTRUM VIA TRANSITION ELECTRIC DIPOLE MOMENTS
-----------------------------------------------------------------------------
State   Energy  Wavelength   fosc         T2         TX        TY        TZ
        (cm-1)    (nm)                  (au**2)     (au)      (au)      (au)
-----------------------------------------------------------------------------
   0   20787.7    481.1   2.065277863  32.70750  -1.51362  -5.30920   1.49292
   1   23879.5    418.8   0.151174858   2.08416  -0.28124   1.17783   0.78599
   2   27889.7    358.6   0.121721062   1.43680  -0.51055  -0.90989   0.59013
   3   28092.8    356.0   0.055626440   0.65187  -0.41390  -0.19622   0.66487
   4   29939.6    334.0   0.010470489   0.11513   0.29903   0.11878  -0.10773
   5   31176.8    320.8   0.009422737   0.09950   0.06692  -0.23472   0.19982
   6   31236.9    320.1   0.144888062   1.52701  -0.05414   1.19003   0.32848
   7   31626.1    316.2   0.101926173   1.06100  -0.53455   0.35244   0.80687
   8   31767.8    314.8   0.002408474   0.02496  -0.04159   0.15191   0.01235
   9   31891.0    313.6   0.003135676   0.03237   0.16562  -0.04256   0.05592
  10   32071.0    311.8   0.047483636   0.48742   0.29315  -0.39248  -0.49744
  11   33687.3    296.8   0.177784310   1.73741   0.76293  -0.56339  -0.91539
  12   34182.8    292.5   0.011047045   0.10639   0.16340  -0.22022  -0.17663
  13   34241.2    292.0   0.059060621   0.56784   0.48473  -0.49481  -0.29671
  14   34561.4    289.3   0.000083320   0.00079  -0.02766   0.00250   0.00473
  15   34976.1    285.9   0.238163868   2.24171  -0.58437  -1.08910   0.84504
  16   35124.5    284.7   0.001364686   0.01279  -0.07313  -0.08252   0.02517
  17   35527.0    281.5   0.325746397   3.01854  -0.79994   0.37001   1.49724
  18   36671.2    272.7   0.023157791   0.20790  -0.12942  -0.39724   0.18260
  19   37938.1    263.6   0.010341753   0.08974   0.07489   0.23246  -0.17348
  20   38193.0    261.8   0.005635446   0.04858   0.16337  -0.09930   0.10966
  21   38477.5    259.9   0.012380231   0.10592   0.12242  -0.15321  -0.25974
  22   38753.5    258.0   0.110508735   0.93877   0.17428   0.94743  -0.10383
  23   39900.4    250.6   0.000924225   0.00763   0.08490  -0.01483  -0.01403

FINAL SINGLE POINT ENERGY     -3470.175417951655

DIPOLE MOMENT
-------------
                                X             Y             Z
Electronic contribution:     -1.34554     -14.66337      13.36117
Nuclear contribution   :      1.83432      15.49340     -14.07415
                        -----------------------------------------
Total Dipole Moment    :      0.48878       0.83003      -0.71298
                        -----------------------------------------
Magnitude (a.u.)       :      1.19841
Magnitude (Debye)      :      3.04613

Rotational constants in cm-1:     0.003145     0.000371     0.000334
Rotational constants in MHz :    94.295553    11.136183    10.015051

                             ****ORCA TERMINATED NORMALLY****
TOTAL RUN TIME: 0 days 0 hours 5 minutes 16 seconds 311 msec
