                         Program Version 4.2.0 -  RELEASE  -
|  1> # ORCA input file
|  2> # SCF done       -142.060562741976          0.000710501172
|  3> ! CAM-B3LYP def2-SVP def2/J RIJCOSX Grid4 TightSCF
|  4> %maxcore 5000
|  5> %tddft
|  6>     Mode sTDDFT
|  7>     Ethresh 5.0
|  8>     maxcore 5000
|  9> end
| 10>
| 11> %pal
| 12>   nprocs 6
| 13>   end
| 14> * xyz 0 1
| 15>    C        1.30910        -0.36538        -2.93885
| 16>    S        0.32840        -1.66124        -3.42671
| 17>    C        0.40505        -2.43518        -1.87265
| 18>    C        1.21489        -1.68888        -1.00367
| 19>    C        1.72072        -0.49230        -1.62701
| 20>    C        2.54454         0.39935        -0.90767
| 21>    C        2.87676         0.11176         0.39011
| 22>    C        3.69515         0.99400         1.13355
| 23>    N        4.35377         1.72094         1.72526
| 24>    C        2.40948        -1.09517         1.00320
| 25>    C        2.78819        -1.38836         2.33308
| 26>    N        3.07774        -1.64747         3.41122
| 27>    C        1.60317        -1.97263         0.31823
| 28>    C       -0.33976        -3.63423        -1.72216
| 29>    C       -0.63135        -4.31598        -0.59187
| 30>    C       -1.41479        -5.51907        -0.61520
| 31>    C       -1.70797        -6.23269         0.56394
| 32>    N       -2.33411        -7.38037         0.54293
| 33>    C       -2.74191        -7.87320        -0.64126
| 34>    C       -2.56749        -7.09362        -1.79942
| 35>    N       -1.90157        -5.96586        -1.78261
| 36>    C       -3.38380        -9.14843        -0.55579
| 37>    S       -3.87531        -9.63213         1.02549
| 38>    C       -4.59896       -11.09640         0.45673
| 39>    C       -4.39530       -11.24343        -0.92604
| 40>    C       -3.70249       -10.12492        -1.50644
| 41>    C       -3.37360       -10.14794        -2.87401
| 42>    C       -3.73484       -11.22449        -3.64852
| 43>    C       -3.41025       -11.24370        -5.02467
| 44>    N       -3.14177       -11.23689        -6.13848
| 45>    C       -4.40910       -12.34160        -3.06917
| 46>    C       -4.73648       -13.45453        -3.87694
| 47>    N       -5.01713       -14.36338        -4.51596
| 48>    C       -4.71526       -12.35146        -1.72860
| 49>    C       -5.27972       -11.91448         1.39632
| 50>    C       -6.25304       -12.81931         1.14604
| 51>    C       -6.86597       -13.58730         2.19293
| 52>    C       -7.92474       -14.47476         1.93348
| 53>    N       -8.48842       -15.19975         2.86983
| 54>    C       -8.02473       -15.07903         4.12570
| 55>    C       -6.97130       -14.17886         4.38689
| 56>    N       -6.41050       -13.45722         3.45196
| 57>    C       -8.62311       -15.87261         5.15446
| 58>    S       -8.02635       -15.81091         6.77636
| 59>    C       -9.17773       -16.95817         7.35495
| 60>    C      -10.01281       -17.38145         6.31531
| 61>    C       -9.69764       -16.76450         5.05921
| 62>    C      -10.44882       -17.08165         3.91197
| 63>    C      -11.47974       -17.98332         4.00891
| 64>    C      -12.24749       -18.31030         2.86713
| 65>    N      -12.86669       -18.56771         1.93819
| 66>    C      -11.79528       -18.60233         5.26062
| 67>    C      -12.86288       -19.52697         5.32966
| 68>    N      -13.72407       -20.27858         5.40984
| 69>    C      -11.07337       -18.30466         6.38987
| 70>    C       -9.21150       -17.37245         8.72438
| 71>    C       -8.38376       -16.93306         9.67328
| 72>    H        1.54176         0.42886        -3.61995
| 73>    H        2.90848         1.29721        -1.38388
| 74>    H        1.29425        -2.88306         0.80392
| 75>    H       -0.75486        -4.03433        -2.63944
| 76>    H       -0.31308        -3.98775         0.38455
| 77>    H       -1.41523        -5.86272         1.53758
| 78>    H       -3.00390        -7.36459        -2.74987
| 79>    H       -2.81140        -9.34347        -3.31977
| 80>    H       -5.16878       -13.22832        -1.29629
| 81>    H       -5.02356       -11.75229         2.43577
| 82>    H       -6.64503       -12.97958         0.15310
| 83>    H       -8.32295       -14.59929         0.93470
| 84>    H       -6.58397       -14.04956         5.38997
| 85>    H      -10.20227       -16.61128         2.97391
| 86>    H      -11.32469       -18.77909         7.32615
| 87>    H       -9.97530       -18.09722         8.97101
| 88>    H       -7.60988       -16.21435         9.45922
| 89>    H       -8.45444       -17.28395        10.68677
| 90> *
| 91>
| 92>                          ****END OF INPUT****

CARTESIAN COORDINATES (ANGSTROEM)
---------------------------------
  C      1.309100   -0.365380   -2.938850
  S      0.328400   -1.661240   -3.426710
  C      0.405050   -2.435180   -1.872650
  C      1.214890   -1.688880   -1.003670
  C      1.720720   -0.492300   -1.627010
  C      2.544540    0.399350   -0.907670
  C      2.876760    0.111760    0.390110
  C      3.695150    0.994000    1.133550
  N      4.353770    1.720940    1.725260
  C      2.409480   -1.095170    1.003200
  C      2.788190   -1.388360    2.333080
  N      3.077740   -1.647470    3.411220
  C      1.603170   -1.972630    0.318230
  C     -0.339760   -3.634230   -1.722160
  C     -0.631350   -4.315980   -0.591870
  C     -1.414790   -5.519070   -0.615200
  C     -1.707970   -6.232690    0.563940
  N     -2.334110   -7.380370    0.542930
  C     -2.741910   -7.873200   -0.641260
  C     -2.567490   -7.093620   -1.799420
  N     -1.901570   -5.965860   -1.782610
  C     -3.383800   -9.148430   -0.555790
  S     -3.875310   -9.632130    1.025490
  C     -4.598960  -11.096400    0.456730
  C     -4.395300  -11.243430   -0.926040
  C     -3.702490  -10.124920   -1.506440
  C     -3.373600  -10.147940   -2.874010
  C     -3.734840  -11.224490   -3.648520
  C     -3.410250  -11.243700   -5.024670
  N     -3.141770  -11.236890   -6.138480
  C     -4.409100  -12.341600   -3.069170
  C     -4.736480  -13.454530   -3.876940
  N     -5.017130  -14.363380   -4.515960
  C     -4.715260  -12.351460   -1.728600
  C     -5.279720  -11.914480    1.396320
  C     -6.253040  -12.819310    1.146040
  C     -6.865970  -13.587300    2.192930
  C     -7.924740  -14.474760    1.933480
  N     -8.488420  -15.199750    2.869830
  C     -8.024730  -15.079030    4.125700
  C     -6.971300  -14.178860    4.386890
  N     -6.410500  -13.457220    3.451960
  C     -8.623110  -15.872610    5.154460
  S     -8.026350  -15.810910    6.776360
  C     -9.177730  -16.958170    7.354950
  C    -10.012810  -17.381450    6.315310
  C     -9.697640  -16.764500    5.059210
  C    -10.448820  -17.081650    3.911970
  C    -11.479740  -17.983320    4.008910
  C    -12.247490  -18.310300    2.867130
  N    -12.866690  -18.567710    1.938190
  C    -11.795280  -18.602330    5.260620
  C    -12.862880  -19.526970    5.329660
  N    -13.724070  -20.278580    5.409840
  C    -11.073370  -18.304660    6.389870
  C     -9.211500  -17.372450    8.724380
  C     -8.383760  -16.933060    9.673280
  H      1.541760    0.428860   -3.619950
  H      2.908480    1.297210   -1.383880
  H      1.294250   -2.883060    0.803920
  H     -0.754860   -4.034330   -2.639440
  H     -0.313080   -3.987750    0.384550
  H     -1.415230   -5.862720    1.537580
  H     -3.003900   -7.364590   -2.749870
  H     -2.811400   -9.343470   -3.319770
  H     -5.168780  -13.228320   -1.296290
  H     -5.023560  -11.752290    2.435770
  H     -6.645030  -12.979580    0.153100
  H     -8.322950  -14.599290    0.934700
  H     -6.583970  -14.049560    5.389970
  H    -10.202270  -16.611280    2.973910
  H    -11.324690  -18.779090    7.326150
  H     -9.975300  -18.097220    8.971010
  H     -7.609880  -16.214350    9.459220
  H     -8.454440  -17.283950   10.686770

 Total Charge           Charge          ....    0
 Multiplicity           Mult            ....    1
 Number of Electrons    NEL             ....  400
 Basis Dimension        Dim             ....  900

ORBITAL ENERGIES
----------------

  NO   OCC          E(Eh)            E(eV)
   0   2.0000     -89.002148     -2421.8716
   1   2.0000     -88.997659     -2421.7494
   2   2.0000     -88.996613     -2421.7210
   3   2.0000     -14.446081      -393.0978
   4   2.0000     -14.443652      -393.0318
   5   2.0000     -14.443159      -393.0183
   6   2.0000     -14.442792      -393.0084
   7   2.0000     -14.417613      -392.3232
   8   2.0000     -14.417351      -392.3161
   9   2.0000     -14.416252      -392.2862
  10   2.0000     -14.415990      -392.2790
  11   2.0000     -14.410698      -392.1350
  12   2.0000     -14.408291      -392.0695
  13   2.0000     -10.350368      -281.6478
  14   2.0000     -10.350058      -281.6394
  15   2.0000     -10.342109      -281.4231
  16   2.0000     -10.341408      -281.4040
  17   2.0000     -10.341402      -281.4039
  18   2.0000     -10.340537      -281.3803
  19   2.0000     -10.340430      -281.3774
  20   2.0000     -10.340077      -281.3678
  21   2.0000     -10.338929      -281.3365
  22   2.0000     -10.338330      -281.3203
  23   2.0000     -10.337271      -281.2914
  24   2.0000     -10.337153      -281.2882
  25   2.0000     -10.336959      -281.2830
  26   2.0000     -10.336254      -281.2638
  27   2.0000     -10.335396      -281.2404
  28   2.0000     -10.334729      -281.2223
  29   2.0000     -10.334330      -281.2114
  30   2.0000     -10.332846      -281.1710
  31   2.0000     -10.331545      -281.1356
  32   2.0000     -10.331505      -281.1346
  33   2.0000     -10.324888      -280.9545
  34   2.0000     -10.324792      -280.9519
  35   2.0000     -10.324485      -280.9435
  36   2.0000     -10.323885      -280.9272
  37   2.0000     -10.322843      -280.8988
  38   2.0000     -10.320290      -280.8294
  39   2.0000     -10.319425      -280.8058
  40   2.0000     -10.319263      -280.8014
  41   2.0000     -10.318838      -280.7899
  42   2.0000     -10.315677      -280.7038
  43   2.0000     -10.315614      -280.7021
  44   2.0000     -10.314799      -280.6799
  45   2.0000     -10.314566      -280.6736
  46   2.0000     -10.314533      -280.6727
  47   2.0000     -10.314291      -280.6661
  48   2.0000     -10.312600      -280.6201
  49   2.0000     -10.310501      -280.5630
  50   2.0000     -10.309012      -280.5225
  51   2.0000     -10.308423      -280.5065
  52   2.0000     -10.307413      -280.4790
  53   2.0000     -10.306573      -280.4561
  54   2.0000     -10.303933      -280.3843
  55   2.0000     -10.302486      -280.3449
  56   2.0000     -10.295010      -280.1415
  57   2.0000      -8.097597      -220.3468
  58   2.0000      -8.092708      -220.2138
  59   2.0000      -8.090964      -220.1663
  60   2.0000      -6.066314      -165.0728
  61   2.0000      -6.062018      -164.9559
  62   2.0000      -6.061537      -164.9428
  63   2.0000      -6.061032      -164.9291
  64   2.0000      -6.059810      -164.8958
  65   2.0000      -6.057479      -164.8324
  66   2.0000      -6.055744      -164.7852
  67   2.0000      -6.055511      -164.7788
  68   2.0000      -6.054251      -164.7446
  69   2.0000      -1.103050       -30.0155
  70   2.0000      -1.100451       -29.9448
  71   2.0000      -1.037164       -28.2227
  72   2.0000      -1.033970       -28.1358
  73   2.0000      -1.033090       -28.1118
  74   2.0000      -1.022759       -27.8307
  75   2.0000      -1.019463       -27.7410
  76   2.0000      -1.010134       -27.4871
  77   2.0000      -1.007869       -27.4255
  78   2.0000      -1.003674       -27.3113
  79   2.0000      -0.997226       -27.1359
  80   2.0000      -0.997160       -27.1341
  81   2.0000      -0.989793       -26.9336
  82   2.0000      -0.971189       -26.4274
  83   2.0000      -0.970614       -26.4118
  84   2.0000      -0.965167       -26.2635
  85   2.0000      -0.941113       -25.6090
  86   2.0000      -0.933520       -25.4024
  87   2.0000      -0.925581       -25.1863
  88   2.0000      -0.910848       -24.7854
  89   2.0000      -0.902401       -24.5556
  90   2.0000      -0.888403       -24.1747
  91   2.0000      -0.887985       -24.1633
  92   2.0000      -0.884798       -24.0766
  93   2.0000      -0.883149       -24.0317
  94   2.0000      -0.878751       -23.9120
  95   2.0000      -0.871169       -23.7057
  96   2.0000      -0.851079       -23.1590
  97   2.0000      -0.831478       -22.6257
  98   2.0000      -0.812945       -22.1213
  99   2.0000      -0.790326       -21.5059
 100   2.0000      -0.781096       -21.2547
 101   2.0000      -0.776156       -21.1203
 102   2.0000      -0.773371       -21.0445
 103   2.0000      -0.769538       -20.9402
 104   2.0000      -0.765754       -20.8372
 105   2.0000      -0.758363       -20.6361
 106   2.0000      -0.748368       -20.3641
 107   2.0000      -0.740340       -20.1457
 108   2.0000      -0.735869       -20.0240
 109   2.0000      -0.715443       -19.4682
 110   2.0000      -0.708402       -19.2766
 111   2.0000      -0.701835       -19.0979
 112   2.0000      -0.690631       -18.7930
 113   2.0000      -0.687335       -18.7033
 114   2.0000      -0.673156       -18.3175
 115   2.0000      -0.659313       -17.9408
 116   2.0000      -0.655527       -17.8378
 117   2.0000      -0.648803       -17.6548
 118   2.0000      -0.641192       -17.4477
 119   2.0000      -0.639709       -17.4074
 120   2.0000      -0.624879       -17.0038
 121   2.0000      -0.622118       -16.9287
 122   2.0000      -0.621587       -16.9142
 123   2.0000      -0.617429       -16.8011
 124   2.0000      -0.611475       -16.6391
 125   2.0000      -0.607070       -16.5192
 126   2.0000      -0.604539       -16.4503
 127   2.0000      -0.597505       -16.2589
 128   2.0000      -0.580638       -15.8000
 129   2.0000      -0.580085       -15.7849
 130   2.0000      -0.564278       -15.3548
 131   2.0000      -0.563196       -15.3253
 132   2.0000      -0.560531       -15.2528
 133   2.0000      -0.558471       -15.1968
 134   2.0000      -0.557268       -15.1640
 135   2.0000      -0.552309       -15.0291
 136   2.0000      -0.549930       -14.9643
 137   2.0000      -0.548022       -14.9124
 138   2.0000      -0.545193       -14.8354
 139   2.0000      -0.539908       -14.6916
 140   2.0000      -0.537887       -14.6366
 141   2.0000      -0.535415       -14.5694
 142   2.0000      -0.533691       -14.5225
 143   2.0000      -0.532611       -14.4931
 144   2.0000      -0.529499       -14.4084
 145   2.0000      -0.523671       -14.2498
 146   2.0000      -0.518656       -14.1134
 147   2.0000      -0.499687       -13.5972
 148   2.0000      -0.499000       -13.5785
 149   2.0000      -0.498596       -13.5675
 150   2.0000      -0.496535       -13.5114
 151   2.0000      -0.494135       -13.4461
 152   2.0000      -0.492119       -13.3912
 153   2.0000      -0.491823       -13.3832
 154   2.0000      -0.485589       -13.2136
 155   2.0000      -0.475121       -12.9287
 156   2.0000      -0.467100       -12.7104
 157   2.0000      -0.461609       -12.5610
 158   2.0000      -0.460795       -12.5389
 159   2.0000      -0.458545       -12.4776
 160   2.0000      -0.456980       -12.4351
 161   2.0000      -0.456153       -12.4126
 162   2.0000      -0.453287       -12.3346
 163   2.0000      -0.452098       -12.3022
 164   2.0000      -0.447097       -12.1661
 165   2.0000      -0.444823       -12.1043
 166   2.0000      -0.444018       -12.0823
 167   2.0000      -0.443925       -12.0798
 168   2.0000      -0.442717       -12.0469
 169   2.0000      -0.442595       -12.0436
 170   2.0000      -0.442294       -12.0354
 171   2.0000      -0.437086       -11.8937
 172   2.0000      -0.434891       -11.8340
 173   2.0000      -0.423851       -11.5336
 174   2.0000      -0.423764       -11.5312
 175   2.0000      -0.422193       -11.4885
 176   2.0000      -0.421526       -11.4703
 177   2.0000      -0.418606       -11.3908
 178   2.0000      -0.418511       -11.3883
 179   2.0000      -0.417991       -11.3741
 180   2.0000      -0.417564       -11.3625
 181   2.0000      -0.412311       -11.2196
 182   2.0000      -0.412223       -11.2172
 183   2.0000      -0.410889       -11.1809
 184   2.0000      -0.409095       -11.1320
 185   2.0000      -0.403253       -10.9731
 186   2.0000      -0.402283       -10.9467
 187   2.0000      -0.389195       -10.5905
 188   2.0000      -0.380093       -10.3429
 189   2.0000      -0.360698        -9.8151
 190   2.0000      -0.350505        -9.5377
 191   2.0000      -0.346691        -9.4339
 192   2.0000      -0.342924        -9.3314
 193   2.0000      -0.342601        -9.3227
 194   2.0000      -0.341645        -9.2966
 195   2.0000      -0.340242        -9.2584
 196   2.0000      -0.337699        -9.1893
 197   2.0000      -0.294943        -8.0258
 198   2.0000      -0.275472        -7.4960
 199   2.0000      -0.255156        -6.9431
 200   0.0000      -0.110175        -2.9980
 201   0.0000      -0.091836        -2.4990
 202   0.0000      -0.078172        -2.1272
 203   0.0000      -0.051837        -1.4105
 204   0.0000      -0.045059        -1.2261

MULLIKEN ATOMIC CHARGES
-----------------------
   0 C :   -0.114484
   1 S :    0.203687
   2 C :   -0.150592
   3 C :    0.151754
   4 C :    0.091804
   5 C :   -0.012680
   6 C :   -0.075398
   7 C :   -0.175775
   8 N :    0.175771
   9 C :   -0.064505
  10 C :   -0.177241
  11 N :    0.175775
  12 C :   -0.052960
  13 C :    0.089298
  14 C :   -0.026591
  15 C :   -0.006127
  16 C :    0.015986
  17 N :   -0.064477
  18 C :   -0.004548
  19 C :   -0.010141
  20 N :   -0.035119
  21 C :   -0.115753
  22 S :    0.251572
  23 C :   -0.115993
  24 C :    0.119919
  25 C :    0.145625
  26 C :   -0.069909
  27 C :   -0.063968
  28 C :   -0.179277
  29 N :    0.179669
  30 C :   -0.070189
  31 C :   -0.180591
  32 N :    0.178622
  33 C :   -0.058138
  34 C :    0.068528
  35 C :   -0.025227
  36 C :   -0.006993
  37 C :    0.028455
  38 N :   -0.048301
  39 C :   -0.005631
  40 C :   -0.017927
  41 N :   -0.031180
  42 C :   -0.089883
  43 S :    0.164233
  44 C :   -0.107137
  45 C :    0.126478
  46 C :    0.094394
  47 C :   -0.040878
  48 C :   -0.058548
  49 C :   -0.171133
  50 N :    0.174731
  51 C :   -0.062805
  52 C :   -0.179801
  53 N :    0.173209
  54 C :   -0.049254
  55 C :   -0.002230
  56 C :   -0.012841
  57 H :    0.036092
  58 H :   -0.002580
  59 H :   -0.012462
  60 H :    0.007512
  61 H :   -0.015386
  62 H :    0.009350
  63 H :    0.012488
  64 H :   -0.007834
  65 H :   -0.005970
  66 H :    0.013998
  67 H :   -0.003635
  68 H :    0.007823
  69 H :    0.012001
  70 H :    0.006572
  71 H :   -0.005599
  72 H :    0.004295
  73 H :    0.029011
  74 H :    0.039043
Sum of atomic charges:   -0.0000000

LOEWDIN ATOMIC CHARGES
----------------------
   0 C :   -0.180684
   1 S :    0.532084
   2 C :   -0.174852
   3 C :   -0.042066
   4 C :   -0.050020
   5 C :    0.038767
   6 C :   -0.055972
   7 C :   -0.032800
   8 N :   -0.032480
   9 C :   -0.050809
  10 C :   -0.033151
  11 N :   -0.034465
  12 C :    0.030097
  13 C :   -0.010767
  14 C :   -0.044017
  15 C :   -0.010507
  16 C :    0.013872
  17 N :   -0.058569
  18 C :   -0.032811
  19 C :    0.009092
  20 N :   -0.040771
  21 C :   -0.184159
  22 S :    0.556574
  23 C :   -0.166846
  24 C :   -0.043249
  25 C :   -0.038345
  26 C :    0.025611
  27 C :   -0.049223
  28 C :   -0.032726
  29 N :   -0.031649
  30 C :   -0.055469
  31 C :   -0.034042
  32 N :   -0.033102
  33 C :    0.033760
  34 C :   -0.015273
  35 C :   -0.034441
  36 C :   -0.016573
  37 C :    0.016613
  38 N :   -0.040685
  39 C :   -0.025834
  40 C :    0.004788
  41 N :   -0.039100
  42 C :   -0.183004
  43 S :    0.509998
  44 C :   -0.159530
  45 C :   -0.044258
  46 C :   -0.030523
  47 C :    0.039963
  48 C :   -0.053836
  49 C :   -0.031017
  50 N :   -0.035645
  51 C :   -0.052069
  52 C :   -0.032677
  53 N :   -0.035348
  54 C :    0.030274
  55 C :   -0.041707
  56 C :   -0.025699
  57 H :    0.031963
  58 H :    0.046372
  59 H :    0.040087
  60 H :    0.035315
  61 H :    0.027038
  62 H :    0.028527
  63 H :    0.026030
  64 H :    0.040749
  65 H :    0.042373
  66 H :    0.036852
  67 H :    0.030064
  68 H :    0.028943
  69 H :    0.019333
  70 H :    0.041164
  71 H :    0.041973
  72 H :    0.038528
  73 H :    0.020427
  74 H :    0.033540

  Mayer bond orders larger than 0.100000
B(  0-C ,  1-S ) :   1.2291 B(  0-C ,  2-C ) :   0.1015 B(  0-C ,  4-C ) :   1.3929
B(  0-C , 57-H ) :   0.9706 B(  1-S ,  2-C ) :   1.1955 B(  2-C ,  3-C ) :   1.3219
B(  2-C , 13-C ) :   1.1286 B(  3-C ,  4-C ) :   1.2004 B(  3-C , 12-C ) :   1.1886
B(  4-C ,  5-C ) :   1.1627 B(  5-C ,  6-C ) :   1.5720 B(  5-C , 58-H ) :   1.0084
B(  6-C ,  7-C ) :   1.0771 B(  6-C ,  9-C ) :   1.2304 B(  7-C ,  8-N ) :   3.0480
B(  9-C , 10-C ) :   1.0812 B(  9-C , 12-C ) :   1.5760 B( 10-C , 11-N ) :   3.0436
B( 12-C , 59-H ) :   0.9982 B( 13-C , 14-C ) :   1.6871 B( 13-C , 60-H ) :   0.9415
B( 14-C , 15-C ) :   1.0979 B( 14-C , 61-H ) :   0.9717 B( 15-C , 16-C ) :   1.2680
B( 15-C , 20-N ) :   1.5019 B( 16-C , 17-N ) :   1.6068 B( 16-C , 62-H ) :   0.9802
B( 17-N , 18-C ) :   1.5132 B( 18-C , 19-C ) :   1.2923 B( 18-C , 21-C ) :   1.0555
B( 19-C , 20-N ) :   1.6008 B( 19-C , 63-H ) :   0.9801 B( 21-C , 22-S ) :   1.1908
B( 21-C , 23-C ) :   0.1168 B( 21-C , 25-C ) :   1.3586 B( 22-S , 23-C ) :   1.1735
B( 23-C , 24-C ) :   1.3247 B( 23-C , 34-C ) :   1.1104 B( 24-C , 25-C ) :   1.2025
B( 24-C , 33-C ) :   1.1999 B( 25-C , 26-C ) :   1.1799 B( 26-C , 27-C ) :   1.5660
B( 26-C , 64-H ) :   0.9962 B( 27-C , 28-C ) :   1.0767 B( 27-C , 30-C ) :   1.2460
B( 28-C , 29-N ) :   3.0458 B( 30-C , 31-C ) :   1.0778 B( 30-C , 33-C ) :   1.5527
B( 31-C , 32-N ) :   3.0449 B( 33-C , 65-H ) :   0.9954 B( 34-C , 35-C ) :   1.6905
B( 34-C , 66-H ) :   0.9449 B( 35-C , 36-C ) :   1.0957 B( 35-C , 67-H ) :   0.9718
B( 36-C , 37-C ) :   1.2862 B( 36-C , 41-N ) :   1.4826 B( 37-C , 38-N ) :   1.5727
B( 37-C , 68-H ) :   0.9806 B( 38-N , 39-C ) :   1.5127 B( 39-C , 40-C ) :   1.2701
B( 39-C , 42-C ) :   1.0993 B( 40-C , 41-N ) :   1.6353 B( 40-C , 69-H ) :   0.9732
B( 42-C , 43-S ) :   1.1691 B( 42-C , 44-C ) :   0.1077 B( 42-C , 46-C ) :   1.3529
B( 43-S , 44-C ) :   1.1637 B( 44-C , 45-C ) :   1.3331 B( 44-C , 55-C ) :   1.1396
B( 45-C , 46-C ) :   1.1891 B( 45-C , 54-C ) :   1.1846 B( 46-C , 47-C ) :   1.2168
B( 47-C , 48-C ) :   1.5250 B( 47-C , 70-H ) :   0.9864 B( 48-C , 49-C ) :   1.0821
B( 48-C , 51-C ) :   1.2308 B( 49-C , 50-N ) :   3.0445 B( 51-C , 52-C ) :   1.0768
B( 51-C , 54-C ) :   1.5837 B( 52-C , 53-N ) :   3.0469 B( 54-C , 71-H ) :   0.9957
B( 55-C , 56-C ) :   1.9062 B( 55-C , 72-H ) :   0.9591 B( 56-C , 73-H ) :   0.9587
B( 56-C , 74-H ) :   0.9482

-----------------------------------------------------------------------------
         ABSORPTION SPECTRUM VIA TRANSITION ELECTRIC DIPOLE MOMENTS
-----------------------------------------------------------------------------
State   Energy  Wavelength   fosc         T2         TX        TY        TZ
        (cm-1)    (nm)                  (au**2)     (au)      (au)      (au)
-----------------------------------------------------------------------------
   0   17174.0    582.3   2.066270995  39.60869  -3.32727  -4.69146   2.55503
   1   21940.0    455.8   0.411046881   6.16780  -0.45853  -1.30148  -2.06487
   2   24081.8    415.3   0.019284380   0.26363  -0.24803  -0.43931   0.09547
   3   24548.2    407.4   0.109054239   1.46251  -0.47674  -1.05342   0.35431
   4   26629.8    375.5   0.032378777   0.40028  -0.28071  -0.56610   0.03194
   5   28311.9    353.2   0.079498499   0.92441   0.66268   0.14624  -0.68109
   6   29171.8    342.8   0.128049377   1.44507   0.54519   0.85174   0.64990
   7   29294.0    341.4   0.004261997   0.04790   0.18825  -0.08289  -0.07477
   8   29951.7    333.9   0.005880465   0.06463  -0.00729   0.25305   0.02344
   9   30322.2    329.8   0.043917859   0.47682  -0.38938  -0.53105   0.20783
  10   31353.0    318.9   0.090851340   0.95395   0.70217   0.64336  -0.21679
  11   32079.9    311.7   0.003151112   0.03234   0.17008   0.04289   0.03964
  12   33318.8    300.1   0.043628965   0.43108  -0.34801  -0.40374   0.38337
  13   33611.4    297.5   0.006606229   0.06471   0.10762   0.21180  -0.09090
  14   33901.8    295.0   0.085010516   0.82552  -0.50167  -0.63085   0.41938
  15   34716.2    288.1   0.007450784   0.07066   0.04590   0.09718  -0.24312
  16   35374.0    282.7   0.363098067   3.37921  -0.88694  -1.26199  -0.99996
  17   35688.0    280.2   0.207962858   1.91840  -0.46104   0.42606   1.23463
  18   35885.9    278.7   0.081145915   0.74442   0.30095   0.00798  -0.80857
  19   36802.9    271.7   0.079247383   0.70889   0.50466   0.64562   0.19335
  20   37201.0    268.8   0.072102643   0.63808   0.31907   0.66797  -0.30015
  21   37666.0    265.5   0.017463426   0.15264   0.19545   0.31629   0.11997
  22   37798.5    264.6   0.026721363   0.23273  -0.23065   0.08117  -0.41586
  23   38010.0    263.1   0.621172973   5.38010  -1.63574  -1.27702  -1.03618
  24   38531.0    259.5   0.110176881   0.94136  -0.31038  -0.37050  -0.84128
  25   38770.8    257.9   0.002905736   0.02467   0.07541  -0.13737   0.01072
  26   38898.6    257.1   0.021741540   0.18401  -0.18791  -0.19720  -0.33137
  27   39318.7    254.3   0.226134315   1.89340  -0.54887   0.32660  -1.21880
  28   39852.5    250.9   0.011343455   0.09371   0.07354   0.29692  -0.01155

FINAL SINGLE POINT ENERGY     -3426.266933688559

DIPOLE MOMENT
-------------
                                X             Y             Z
Electronic contribution:      3.45389       5.59576     -12.11956
Nuclear contribution   :     -2.36111      -2.99240      13.74994
                        -----------------------------------------
Total Dipole Moment    :      1.09277       2.60336       1.63038
                        -----------------------------------------
Magnitude (a.u.)       :      3.26033
Magnitude (Debye)      :      8.28710

Rotational constants in cm-1:     0.002390     0.000313     0.000281
Rotational constants in MHz :    71.646464     9.386333     8.438432

                             ****ORCA TERMINATED NORMALLY****
TOTAL RUN TIME: 0 days 0 hours 15 minutes 20 seconds 904 msec
