                         Program Version 4.2.0 -  RELEASE  -
|  1> # ORCA input file
|  2> # SCF done       -176.076423495763          0.000991921597
|  3> ! CAM-B3LYP def2-SVP def2/J RIJCOSX Grid4 TightSCF
|  4> %maxcore 5000
|  5> %tddft
|  6>     Mode sTDDFT
|  7>     Ethresh 5.0
|  8>     maxcore 5000
|  9> end
| 10>
| 11> %pal
| 12>   nprocs 6
| 13>   end
| 14> * xyz 0 1
| 15>    C       -1.67828        -0.24662         0.81497
| 16>    C       -1.51694        -0.94572         1.98097
| 17>    C       -0.37666        -1.71952         2.28236
| 18>    N        0.52910        -2.36010         2.57594
| 19>    C       -2.49529        -1.03881         2.99443
| 20>    N       -3.26270        -1.18540         3.83509
| 21>    C       -0.76153        -0.23008        -0.31384
| 22>    C       -1.40048         0.41534        -1.40301
| 23>    C       -0.78579         0.59060        -2.62006
| 24>    C        0.51940         0.11246        -2.76732
| 25>    C        1.15014        -0.52713        -1.67200
| 26>    C        0.52803        -0.70914        -0.44249
| 27>    S        2.76048        -1.02678        -2.07859
| 28>    C        2.58068        -0.39119        -3.67677
| 29>    C        1.37346         0.17106        -3.90426
| 30>    C       -2.75312         0.84157        -1.00647
| 31>    O       -3.57379         1.37750        -1.72211
| 32>    C       -2.85376         0.52584         0.44374
| 33>    C       -3.72599         1.07708         1.33451
| 34>    C       -4.90042         1.81737         1.05423
| 35>    C       -5.74370         1.76626        -0.03247
| 36>    C       -6.80801         2.67153         0.03855
| 37>    S       -7.90053         2.89500        -1.30112
| 38>    C       -6.88581         2.27942        -2.68801
| 39>    C       -6.80413         3.42899         1.22387
| 40>    S       -5.43387         3.01091         2.21006
| 41>    C       -7.67838         4.45599         1.66272
| 42>    C       -7.27085         5.35897         2.67944
| 43>    C       -8.07114         6.49169         3.05891
| 44>    N       -7.60198         7.35054         3.96777
| 45>    C       -6.43186         7.15918         4.52689
| 46>    C       -5.66364         6.00042         4.19359
| 47>    N       -6.10213         5.15429         3.28942
| 48>    C       -4.42420         5.74821         4.83075
| 49>    N       -3.42724         5.56733         5.36479
| 50>    C       -5.97252         8.12127         5.46038
| 51>    N       -5.60809         8.89640         6.22076
| 52>    C       -9.33910         6.75966         2.49747
| 53>    C       -9.80234         5.79931         1.57204
| 54>    C       -8.98660         4.67195         1.16955
| 55>    N       -9.64429         3.87184         0.33543
| 56>    S      -11.10672         4.46619         0.05645
| 57>    N      -10.99934         5.77319         0.98763
| 58>    C      -10.03184         7.94968         2.83810
| 59>    C      -11.20558         8.44055         2.29360
| 60>    C      -11.55800         9.69834         2.78585
| 61>    S      -12.93786        10.64755         2.30776
| 62>    C      -13.73325         9.57561         1.07720
| 63>    C      -10.63094        10.19989         3.70682
| 64>    S       -9.35981         9.04328         4.00084
| 65>    C      -10.66897        11.43455         4.38487
| 66>    C       -9.61666        12.04907         4.99768
| 67>    C       -8.19079        11.80839         4.89980
| 68>    C       -7.50873        11.44556         3.76719
| 69>    C       -6.11243        11.28161         3.69707
| 70>    N       -4.98514        11.10379         3.56890
| 71>    C       -8.13687        11.23769         2.52178
| 72>    N       -8.60529        11.10198         1.48186
| 73>    C       -7.58705        12.30540         6.12613
| 74>    C       -8.55318        13.08132         6.82060
| 75>    C       -9.83657        13.03410         6.09243
| 76>    O      -10.86597        13.61352         6.35329
| 77>    C       -8.26069        13.72368         7.99964
| 78>    C       -6.96968        13.58039         8.51916
| 79>    C       -6.02504        12.78247         7.82782
| 80>    C       -6.31226        12.14122         6.62868
| 81>    S       -4.50926        12.73158         8.66753
| 82>    C       -5.13357        13.76411         9.90673
| 83>    C       -6.41916        14.13111         9.71059
| 84>    H       -1.29623         1.08469        -3.43228
| 85>    H        1.04973        -1.19440         0.36564
| 86>    H        3.40433        -0.47811        -4.35846
| 87>    H        1.08353         0.61763        -4.83806
| 88>    H       -3.47801         1.01528         2.38811
| 89>    H       -5.60984         1.06684        -0.83328
| 90>    H       -6.95402         1.19767        -2.74829
| 91>    H       -5.85444         2.59511        -2.57487
| 92>    H       -7.32047         2.72008        -3.57984
| 93>    H      -11.75052         7.88100         1.55734
| 94>    H      -14.61317        10.11511         0.74101
| 95>    H      -14.02630         8.63674         1.53687
| 96>    H      -13.05636         9.41385         0.24404
| 97>    H      -11.64122        11.90473         4.49707
| 98>    H       -9.00492        14.31708         8.50787
| 99>    H       -5.57494        11.52330         6.14297
|100>    H       -4.48994        14.03649        10.72061
|101>    H       -6.97247        14.76804        10.37684
|102> *
|103>
|104>                          ****END OF INPUT****

CARTESIAN COORDINATES (ANGSTROEM)
---------------------------------
  C     -1.678280   -0.246620    0.814970
  C     -1.516940   -0.945720    1.980970
  C     -0.376660   -1.719520    2.282360
  N      0.529100   -2.360100    2.575940
  C     -2.495290   -1.038810    2.994430
  N     -3.262700   -1.185400    3.835090
  C     -0.761530   -0.230080   -0.313840
  C     -1.400480    0.415340   -1.403010
  C     -0.785790    0.590600   -2.620060
  C      0.519400    0.112460   -2.767320
  C      1.150140   -0.527130   -1.672000
  C      0.528030   -0.709140   -0.442490
  S      2.760480   -1.026780   -2.078590
  C      2.580680   -0.391190   -3.676770
  C      1.373460    0.171060   -3.904260
  C     -2.753120    0.841570   -1.006470
  O     -3.573790    1.377500   -1.722110
  C     -2.853760    0.525840    0.443740
  C     -3.725990    1.077080    1.334510
  C     -4.900420    1.817370    1.054230
  C     -5.743700    1.766260   -0.032470
  C     -6.808010    2.671530    0.038550
  S     -7.900530    2.895000   -1.301120
  C     -6.885810    2.279420   -2.688010
  C     -6.804130    3.428990    1.223870
  S     -5.433870    3.010910    2.210060
  C     -7.678380    4.455990    1.662720
  C     -7.270850    5.358970    2.679440
  C     -8.071140    6.491690    3.058910
  N     -7.601980    7.350540    3.967770
  C     -6.431860    7.159180    4.526890
  C     -5.663640    6.000420    4.193590
  N     -6.102130    5.154290    3.289420
  C     -4.424200    5.748210    4.830750
  N     -3.427240    5.567330    5.364790
  C     -5.972520    8.121270    5.460380
  N     -5.608090    8.896400    6.220760
  C     -9.339100    6.759660    2.497470
  C     -9.802340    5.799310    1.572040
  C     -8.986600    4.671950    1.169550
  N     -9.644290    3.871840    0.335430
  S    -11.106720    4.466190    0.056450
  N    -10.999340    5.773190    0.987630
  C    -10.031840    7.949680    2.838100
  C    -11.205580    8.440550    2.293600
  C    -11.558000    9.698340    2.785850
  S    -12.937860   10.647550    2.307760
  C    -13.733250    9.575610    1.077200
  C    -10.630940   10.199890    3.706820
  S     -9.359810    9.043280    4.000840
  C    -10.668970   11.434550    4.384870
  C     -9.616660   12.049070    4.997680
  C     -8.190790   11.808390    4.899800
  C     -7.508730   11.445560    3.767190
  C     -6.112430   11.281610    3.697070
  N     -4.985140   11.103790    3.568900
  C     -8.136870   11.237690    2.521780
  N     -8.605290   11.101980    1.481860
  C     -7.587050   12.305400    6.126130
  C     -8.553180   13.081320    6.820600
  C     -9.836570   13.034100    6.092430
  O    -10.865970   13.613520    6.353290
  C     -8.260690   13.723680    7.999640
  C     -6.969680   13.580390    8.519160
  C     -6.025040   12.782470    7.827820
  C     -6.312260   12.141220    6.628680
  S     -4.509260   12.731580    8.667530
  C     -5.133570   13.764110    9.906730
  C     -6.419160   14.131110    9.710590
  H     -1.296230    1.084690   -3.432280
  H      1.049730   -1.194400    0.365640
  H      3.404330   -0.478110   -4.358460
  H      1.083530    0.617630   -4.838060
  H     -3.478010    1.015280    2.388110
  H     -5.609840    1.066840   -0.833280
  H     -6.954020    1.197670   -2.748290
  H     -5.854440    2.595110   -2.574870
  H     -7.320470    2.720080   -3.579840
  H    -11.750520    7.881000    1.557340
  H    -14.613170   10.115110    0.741010
  H    -14.026300    8.636740    1.536870
  H    -13.056360    9.413850    0.244040
  H    -11.641220   11.904730    4.497070
  H     -9.004920   14.317080    8.507870
  H     -5.574940   11.523300    6.142970
  H     -4.489940   14.036490   10.720610
  H     -6.972470   14.768040   10.376840

 Total Charge           Charge          ....    0
 Multiplicity           Mult            ....    1
 Number of Electrons    NEL             ....  516
 Basis Dimension        Dim             .... 1084

ORBITAL ENERGIES
----------------

  NO   OCC          E(Eh)            E(eV)
   0   2.0000     -89.055772     -2423.3308
   1   2.0000     -88.971395     -2421.0348
   2   2.0000     -88.970293     -2421.0048
   3   2.0000     -88.958836     -2420.6930
   4   2.0000     -88.954017     -2420.5619
   5   2.0000     -88.939640     -2420.1707
   6   2.0000     -88.935871     -2420.0681
   7   2.0000     -19.226115      -523.1692
   8   2.0000     -19.201546      -522.5006
   9   2.0000     -14.475556      -393.8999
  10   2.0000     -14.474029      -393.8583
  11   2.0000     -14.466223      -393.6459
  12   2.0000     -14.462540      -393.5457
  13   2.0000     -14.440660      -392.9503
  14   2.0000     -14.436310      -392.8320
  15   2.0000     -14.419050      -392.3623
  16   2.0000     -14.417604      -392.3229
  17   2.0000     -14.404051      -391.9542
  18   2.0000     -14.401428      -391.8828
  19   2.0000     -10.395612      -282.8790
  20   2.0000     -10.393364      -282.8178
  21   2.0000     -10.378023      -282.4004
  22   2.0000     -10.360030      -281.9108
  23   2.0000     -10.358334      -281.8646
  24   2.0000     -10.357149      -281.8323
  25   2.0000     -10.355658      -281.7918
  26   2.0000     -10.353684      -281.7381
  27   2.0000     -10.347872      -281.5799
  28   2.0000     -10.345096      -281.5044
  29   2.0000     -10.336562      -281.2722
  30   2.0000     -10.334269      -281.2098
  31   2.0000     -10.332241      -281.1546
  32   2.0000     -10.329590      -281.0824
  33   2.0000     -10.328536      -281.0537
  34   2.0000     -10.328261      -281.0463
  35   2.0000     -10.327803      -281.0338
  36   2.0000     -10.326267      -280.9920
  37   2.0000     -10.326175      -280.9895
  38   2.0000     -10.325936      -280.9830
  39   2.0000     -10.321703      -280.8678
  40   2.0000     -10.321261      -280.8558
  41   2.0000     -10.319931      -280.8196
  42   2.0000     -10.318766      -280.7879
  43   2.0000     -10.316866      -280.7362
  44   2.0000     -10.314582      -280.6741
  45   2.0000     -10.311828      -280.5991
  46   2.0000     -10.309327      -280.5310
  47   2.0000     -10.308602      -280.5113
  48   2.0000     -10.307876      -280.4916
  49   2.0000     -10.307400      -280.4786
  50   2.0000     -10.307091      -280.4702
  51   2.0000     -10.306984      -280.4673
  52   2.0000     -10.305057      -280.4149
  53   2.0000     -10.304425      -280.3977
  54   2.0000     -10.302093      -280.3342
  55   2.0000     -10.301759      -280.3251
  56   2.0000     -10.300034      -280.2782
  57   2.0000     -10.296936      -280.1939
  58   2.0000     -10.293712      -280.1061
  59   2.0000     -10.292828      -280.0821
  60   2.0000     -10.292739      -280.0797
  61   2.0000     -10.291495      -280.0458
  62   2.0000     -10.289052      -279.9793
  63   2.0000     -10.288136      -279.9544
  64   2.0000     -10.286632      -279.9135
  65   2.0000     -10.285765      -279.8899
  66   2.0000     -10.285431      -279.8808
  67   2.0000     -10.278531      -279.6930
  68   2.0000     -10.277542      -279.6661
  69   2.0000      -8.146920      -221.6890
  70   2.0000      -8.067636      -219.5315
  71   2.0000      -8.064384      -219.4430
  72   2.0000      -8.051965      -219.1051
  73   2.0000      -8.050312      -219.0601
  74   2.0000      -8.034132      -218.6198
  75   2.0000      -8.031501      -218.5482
  76   2.0000      -6.118014      -166.4796
  77   2.0000      -6.110232      -166.2679
  78   2.0000      -6.109697      -166.2533
  79   2.0000      -6.037138      -164.2789
  80   2.0000      -6.033968      -164.1926
  81   2.0000      -6.032828      -164.1616
  82   2.0000      -6.029344      -164.0668
  83   2.0000      -6.029335      -164.0665
  84   2.0000      -6.026296      -163.9838
  85   2.0000      -6.021648      -163.8574
  86   2.0000      -6.019804      -163.8072
  87   2.0000      -6.016958      -163.7298
  88   2.0000      -6.015512      -163.6904
  89   2.0000      -6.013828      -163.6446
  90   2.0000      -6.011994      -163.5947
  91   2.0000      -6.004486      -163.3904
  92   2.0000      -6.001911      -163.3203
  93   2.0000      -6.000122      -163.2716
  94   2.0000      -5.997591      -163.2027
  95   2.0000      -5.994113      -163.1081
  96   2.0000      -5.991386      -163.0339
  97   2.0000      -1.153577       -31.3904
  98   2.0000      -1.140577       -31.0367
  99   2.0000      -1.136054       -30.9136
 100   2.0000      -1.116532       -30.3824
 101   2.0000      -1.064112       -28.9560
 102   2.0000      -1.025244       -27.8983
 103   2.0000      -1.024237       -27.8709
 104   2.0000      -1.017038       -27.6750
 105   2.0000      -1.012392       -27.5486
 106   2.0000      -1.011037       -27.5117
 107   2.0000      -1.010375       -27.4937
 108   2.0000      -1.005826       -27.3699
 109   2.0000      -0.997411       -27.1409
 110   2.0000      -0.996627       -27.1196
 111   2.0000      -0.994437       -27.0600
 112   2.0000      -0.990147       -26.9433
 113   2.0000      -0.982943       -26.7472
 114   2.0000      -0.978982       -26.6395
 115   2.0000      -0.972068       -26.4513
 116   2.0000      -0.938171       -25.5289
 117   2.0000      -0.924064       -25.1451
 118   2.0000      -0.921970       -25.0881
 119   2.0000      -0.917504       -24.9665
 120   2.0000      -0.915591       -24.9145
 121   2.0000      -0.903429       -24.5835
 122   2.0000      -0.897514       -24.4226
 123   2.0000      -0.891766       -24.2662
 124   2.0000      -0.886446       -24.1214
 125   2.0000      -0.875469       -23.8227
 126   2.0000      -0.868447       -23.6316
 127   2.0000      -0.864340       -23.5199
 128   2.0000      -0.848057       -23.0768
 129   2.0000      -0.834747       -22.7146
 130   2.0000      -0.830146       -22.5894
 131   2.0000      -0.828141       -22.5348
 132   2.0000      -0.824003       -22.4223
 133   2.0000      -0.820774       -22.3344
 134   2.0000      -0.810558       -22.0564
 135   2.0000      -0.803253       -21.8576
 136   2.0000      -0.784853       -21.3569
 137   2.0000      -0.768195       -20.9037
 138   2.0000      -0.762846       -20.7581
 139   2.0000      -0.759393       -20.6641
 140   2.0000      -0.745063       -20.2742
 141   2.0000      -0.742825       -20.2133
 142   2.0000      -0.739823       -20.1316
 143   2.0000      -0.723843       -19.6968
 144   2.0000      -0.714936       -19.4544
 145   2.0000      -0.711851       -19.3704
 146   2.0000      -0.704570       -19.1723
 147   2.0000      -0.695863       -18.9354
 148   2.0000      -0.690627       -18.7929
 149   2.0000      -0.685501       -18.6534
 150   2.0000      -0.676291       -18.4028
 151   2.0000      -0.671474       -18.2717
 152   2.0000      -0.669300       -18.2126
 153   2.0000      -0.666507       -18.1366
 154   2.0000      -0.656317       -17.8593
 155   2.0000      -0.650588       -17.7034
 156   2.0000      -0.648775       -17.6541
 157   2.0000      -0.636850       -17.3296
 158   2.0000      -0.632014       -17.1980
 159   2.0000      -0.625371       -17.0172
 160   2.0000      -0.624719       -16.9995
 161   2.0000      -0.617766       -16.8103
 162   2.0000      -0.609593       -16.5879
 163   2.0000      -0.606802       -16.5119
 164   2.0000      -0.600093       -16.3294
 165   2.0000      -0.593378       -16.1466
 166   2.0000      -0.591025       -16.0826
 167   2.0000      -0.586765       -15.9667
 168   2.0000      -0.578857       -15.7515
 169   2.0000      -0.572959       -15.5910
 170   2.0000      -0.568746       -15.4764
 171   2.0000      -0.562895       -15.3172
 172   2.0000      -0.554911       -15.0999
 173   2.0000      -0.551471       -15.0063
 174   2.0000      -0.546529       -14.8718
 175   2.0000      -0.545415       -14.8415
 176   2.0000      -0.541108       -14.7243
 177   2.0000      -0.538402       -14.6507
 178   2.0000      -0.534163       -14.5353
 179   2.0000      -0.529190       -14.4000
 180   2.0000      -0.526112       -14.3162
 181   2.0000      -0.524143       -14.2627
 182   2.0000      -0.522295       -14.2124
 183   2.0000      -0.520193       -14.1552
 184   2.0000      -0.518163       -14.0999
 185   2.0000      -0.515869       -14.0375
 186   2.0000      -0.512883       -13.9563
 187   2.0000      -0.511259       -13.9121
 188   2.0000      -0.509990       -13.8775
 189   2.0000      -0.506914       -13.7938
 190   2.0000      -0.504322       -13.7233
 191   2.0000      -0.503396       -13.6981
 192   2.0000      -0.501441       -13.6449
 193   2.0000      -0.497433       -13.5358
 194   2.0000      -0.496983       -13.5236
 195   2.0000      -0.495777       -13.4908
 196   2.0000      -0.494524       -13.4567
 197   2.0000      -0.490250       -13.3404
 198   2.0000      -0.487264       -13.2591
 199   2.0000      -0.484071       -13.1722
 200   2.0000      -0.483537       -13.1577
 201   2.0000      -0.479284       -13.0420
 202   2.0000      -0.476313       -12.9611
 203   2.0000      -0.475957       -12.9515
 204   2.0000      -0.472856       -12.8671
 205   2.0000      -0.468044       -12.7361
 206   2.0000      -0.466369       -12.6905
 207   2.0000      -0.461101       -12.5472
 208   2.0000      -0.459491       -12.5034
 209   2.0000      -0.458663       -12.4809
 210   2.0000      -0.455069       -12.3831
 211   2.0000      -0.453414       -12.3380
 212   2.0000      -0.451084       -12.2746
 213   2.0000      -0.450608       -12.2617
 214   2.0000      -0.449115       -12.2210
 215   2.0000      -0.445831       -12.1317
 216   2.0000      -0.440683       -11.9916
 217   2.0000      -0.439999       -11.9730
 218   2.0000      -0.437961       -11.9175
 219   2.0000      -0.437017       -11.8918
 220   2.0000      -0.435123       -11.8403
 221   2.0000      -0.433613       -11.7992
 222   2.0000      -0.432525       -11.7696
 223   2.0000      -0.430780       -11.7221
 224   2.0000      -0.429272       -11.6811
 225   2.0000      -0.427170       -11.6239
 226   2.0000      -0.425464       -11.5775
 227   2.0000      -0.420145       -11.4327
 228   2.0000      -0.419520       -11.4157
 229   2.0000      -0.416755       -11.3405
 230   2.0000      -0.414011       -11.2658
 231   2.0000      -0.410832       -11.1793
 232   2.0000      -0.408859       -11.1256
 233   2.0000      -0.405993       -11.0476
 234   2.0000      -0.401688       -10.9305
 235   2.0000      -0.400785       -10.9059
 236   2.0000      -0.389105       -10.5881
 237   2.0000      -0.386251       -10.5104
 238   2.0000      -0.383034       -10.4229
 239   2.0000      -0.376117       -10.2347
 240   2.0000      -0.368258       -10.0208
 241   2.0000      -0.363324        -9.8865
 242   2.0000      -0.362951        -9.8764
 243   2.0000      -0.359818        -9.7911
 244   2.0000      -0.357788        -9.7359
 245   2.0000      -0.351951        -9.5771
 246   2.0000      -0.349665        -9.5149
 247   2.0000      -0.344383        -9.3711
 248   2.0000      -0.328373        -8.9355
 249   2.0000      -0.321041        -8.7360
 250   2.0000      -0.318928        -8.6785
 251   2.0000      -0.305353        -8.3091
 252   2.0000      -0.300729        -8.1832
 253   2.0000      -0.296978        -8.0812
 254   2.0000      -0.294229        -8.0064
 255   2.0000      -0.280201        -7.6247
 256   2.0000      -0.275988        -7.5100
 257   2.0000      -0.245374        -6.6770
 258   0.0000      -0.140501        -3.8232
 259   0.0000      -0.090519        -2.4631
 260   0.0000      -0.078511        -2.1364
 261   0.0000      -0.066356        -1.8056
 262   0.0000      -0.058213        -1.5840

MULLIKEN ATOMIC CHARGES
-----------------------
   0 C :    0.276154
   1 C :   -0.330179
   2 C :   -0.182975
   3 N :    0.153805
   4 C :   -0.203489
   5 N :    0.168299
   6 C :    0.021664
   7 C :   -0.014210
   8 C :   -0.067605
   9 C :    0.113617
  10 C :   -0.093605
  11 C :   -0.022397
  12 S :    0.146676
  13 C :   -0.048742
  14 C :    0.026018
  15 C :    0.152596
  16 O :   -0.156808
  17 C :   -0.085854
  18 C :    0.031572
  19 C :   -0.051376
  20 C :    0.016515
  21 C :    0.016817
  22 S :    0.017647
  23 C :   -0.090590
  24 C :   -0.219862
  25 S :    0.185176
  26 C :    0.176080
  27 C :   -0.051201
  28 C :   -0.046414
  29 N :   -0.009017
  30 C :   -0.092495
  31 C :   -0.093544
  32 N :    0.009996
  33 C :   -0.247941
  34 N :    0.254826
  35 C :   -0.223731
  36 N :    0.255328
  37 C :    0.204048
  38 C :   -0.010151
  39 C :   -0.007004
  40 N :   -0.287529
  41 S :    0.557545
  42 N :   -0.292021
  43 C :   -0.116677
  44 C :   -0.059105
  45 C :    0.089358
  46 S :   -0.002244
  47 C :   -0.084027
  48 C :   -0.138271
  49 S :    0.159086
  50 C :    0.046815
  51 C :   -0.133026
  52 C :    0.241948
  53 C :   -0.330020
  54 C :   -0.184892
  55 N :    0.154444
  56 C :   -0.197333
  57 N :    0.160432
  58 C :    0.001951
  59 C :    0.001623
  60 C :    0.134293
  61 O :   -0.146816
  62 C :   -0.076536
  63 C :    0.109302
  64 C :   -0.092875
  65 C :   -0.008875
  66 S :    0.143636
  67 C :   -0.054283
  68 C :    0.024050
  69 H :   -0.012347
  70 H :   -0.003349
  71 H :    0.041519
  72 H :   -0.005949
  73 H :    0.034132
  74 H :    0.003097
  75 H :    0.065911
  76 H :    0.084289
  77 H :    0.055688
  78 H :   -0.011167
  79 H :    0.066492
  80 H :    0.068849
  81 H :    0.075744
  82 H :    0.026689
  83 H :   -0.013967
  84 H :    0.001234
  85 H :    0.035262
  86 H :   -0.009723
Sum of atomic charges:   -0.0000000

LOEWDIN ATOMIC CHARGES
----------------------
   0 C :    0.072860
   1 C :   -0.133357
   2 C :   -0.018279
   3 N :   -0.047471
   4 C :   -0.027078
   5 N :   -0.044072
   6 C :   -0.021787
   7 C :   -0.054113
   8 C :    0.024355
   9 C :   -0.034339
  10 C :   -0.144090
  11 C :   -0.007191
  12 S :    0.434191
  13 C :   -0.147399
  14 C :   -0.057450
  15 C :    0.088510
  16 O :   -0.143745
  17 C :   -0.079621
  18 C :    0.049000
  19 C :   -0.172977
  20 C :   -0.035542
  21 C :   -0.168068
  22 S :    0.343011
  23 C :   -0.163054
  24 C :   -0.178491
  25 S :    0.491949
  26 C :   -0.031437
  27 C :   -0.010688
  28 C :   -0.005284
  29 N :   -0.013741
  30 C :   -0.012167
  31 C :   -0.020906
  32 N :   -0.013523
  33 C :   -0.038600
  34 N :    0.002468
  35 C :   -0.025089
  36 N :    0.002134
  37 C :   -0.042649
  38 C :   -0.031514
  39 C :   -0.041268
  40 N :   -0.272319
  41 S :    0.682979
  42 N :   -0.284283
  43 C :   -0.140973
  44 C :   -0.063020
  45 C :   -0.156979
  46 S :    0.317177
  47 C :   -0.150580
  48 C :   -0.211351
  49 S :    0.512146
  50 C :    0.042739
  51 C :   -0.091468
  52 C :    0.060300
  53 C :   -0.151957
  54 C :   -0.022139
  55 N :   -0.059742
  56 C :   -0.034237
  57 N :   -0.059348
  58 C :   -0.019526
  59 C :   -0.055440
  60 C :    0.082216
  61 O :   -0.147338
  62 C :    0.019707
  63 C :   -0.036947
  64 C :   -0.144072
  65 C :   -0.003365
  66 S :    0.432583
  67 C :   -0.153340
  68 C :   -0.059753
  69 H :    0.040042
  70 H :    0.041554
  71 H :    0.030454
  72 H :    0.035680
  73 H :    0.047395
  74 H :    0.033340
  75 H :    0.024712
  76 H :    0.034336
  77 H :    0.030387
  78 H :    0.027125
  79 H :    0.036138
  80 H :    0.027735
  81 H :    0.030850
  82 H :    0.045207
  83 H :    0.039091
  84 H :    0.039272
  85 H :    0.027782
  86 H :    0.033741

  Mayer bond orders larger than 0.100000
B(  0-C ,  1-C ) :   1.6605 B(  0-C ,  6-C ) :   1.0102 B(  0-C , 17-C ) :   1.0480
B(  1-C ,  2-C ) :   1.1384 B(  1-C ,  4-C ) :   1.1325 B(  2-C ,  3-N ) :   2.9786
B(  4-C ,  5-N ) :   3.0100 B(  6-C ,  7-C ) :   1.2631 B(  6-C , 11-C ) :   1.4146
B(  7-C ,  8-C ) :   1.4213 B(  7-C , 15-C ) :   0.9555 B(  8-C ,  9-C ) :   1.2501
B(  8-C , 69-H ) :   1.0160 B(  9-C , 10-C ) :   1.2989 B(  9-C , 14-C ) :   1.1723
B( 10-C , 11-C ) :   1.3224 B( 10-C , 12-S ) :   1.1017 B( 11-C , 70-H ) :   0.9840
B( 12-S , 13-C ) :   1.1277 B( 13-C , 14-C ) :   1.6298 B( 13-C , 71-H ) :   0.9681
B( 14-C , 72-H ) :   0.9991 B( 15-C , 16-O ) :   2.1816 B( 15-C , 17-C ) :   0.9388
B( 17-C , 18-C ) :   1.6336 B( 18-C , 19-C ) :   1.1501 B( 18-C , 73-H ) :   0.9397
B( 19-C , 20-C ) :   1.4618 B( 19-C , 25-S ) :   1.0656 B( 20-C , 21-C ) :   1.2776
B( 20-C , 74-H ) :   0.9864 B( 21-C , 22-S ) :   1.0554 B( 21-C , 24-C ) :   1.4185
B( 22-S , 23-C ) :   0.9808 B( 23-C , 75-H ) :   0.9668 B( 23-C , 76-H ) :   0.9626
B( 23-C , 77-H ) :   0.9693 B( 24-C , 25-S ) :   1.1464 B( 24-C , 26-C ) :   1.1973
B( 26-C , 27-C ) :   1.2420 B( 26-C , 37-C ) :   0.1146 B( 26-C , 39-C ) :   1.1985
B( 27-C , 28-C ) :   1.1241 B( 27-C , 32-N ) :   1.4112 B( 28-C , 29-N ) :   1.3940
B( 28-C , 37-C ) :   1.2510 B( 29-N , 30-C ) :   1.6860 B( 30-C , 31-C ) :   1.2219
B( 30-C , 35-C ) :   1.1740 B( 31-C , 32-N ) :   1.6841 B( 31-C , 33-C ) :   1.1747
B( 33-C , 34-N ) :   3.0371 B( 35-C , 36-N ) :   3.0098 B( 37-C , 38-C ) :   1.1977
B( 37-C , 43-C ) :   1.1852 B( 38-C , 39-C ) :   1.0915 B( 38-C , 42-N ) :   1.5277
B( 39-C , 40-N ) :   1.4848 B( 40-N , 41-S ) :   1.2882 B( 40-N , 42-N ) :   0.1467
B( 41-S , 42-N ) :   1.2650 B( 43-C , 44-C ) :   1.4411 B( 43-C , 49-S ) :   1.1330
B( 44-C , 45-C ) :   1.2591 B( 44-C , 78-H ) :   0.9818 B( 45-C , 46-S ) :   1.0487
B( 45-C , 48-C ) :   1.4289 B( 46-S , 47-C ) :   1.0202 B( 47-C , 79-H ) :   0.9700
B( 47-C , 80-H ) :   0.9662 B( 47-C , 81-H ) :   0.9655 B( 48-C , 49-S ) :   1.0638
B( 48-C , 50-C ) :   1.1608 B( 50-C , 51-C ) :   1.6401 B( 50-C , 82-H ) :   0.9445
B( 51-C , 52-C ) :   1.0374 B( 51-C , 60-C ) :   0.9418 B( 52-C , 53-C ) :   1.6445
B( 52-C , 58-C ) :   1.0229 B( 53-C , 54-C ) :   1.1475 B( 53-C , 56-C ) :   1.1484
B( 54-C , 55-N ) :   2.9819 B( 56-C , 57-N ) :   3.0180 B( 58-C , 59-C ) :   1.2630
B( 58-C , 65-C ) :   1.4213 B( 59-C , 60-C ) :   0.9218 B( 59-C , 62-C ) :   1.4256
B( 60-C , 61-O ) :   2.2708 B( 62-C , 63-C ) :   1.2520 B( 62-C , 83-H ) :   1.0164
B( 63-C , 64-C ) :   1.3011 B( 63-C , 68-C ) :   1.1740 B( 64-C , 65-C ) :   1.3209
B( 64-C , 66-S ) :   1.0991 B( 65-C , 84-H ) :   0.9799 B( 66-S , 67-C ) :   1.1285
B( 67-C , 68-C ) :   1.6263 B( 67-C , 85-H ) :   0.9688 B( 68-C , 86-H ) :   0.9995

-----------------------------------------------------------------------------
         ABSORPTION SPECTRUM VIA TRANSITION ELECTRIC DIPOLE MOMENTS
-----------------------------------------------------------------------------
State   Energy  Wavelength   fosc         T2         TX        TY        TZ
        (cm-1)    (nm)                  (au**2)     (au)      (au)      (au)
-----------------------------------------------------------------------------
   0    7209.5   1387.1   0.368952426  16.84776   1.64090  -3.39892  -1.61324
   1   13765.2    726.5   0.073662100   1.76172  -1.00707   0.63228   0.58970
   2   15853.1    630.8   0.022106782   0.45908   0.24618  -0.32056   0.54380
   3   17307.9    577.8   0.052160616   0.99214   0.88141  -0.45086   0.10946
   4   19316.2    517.7   0.240333248   4.09607   0.89315   1.64358   0.77266
   5   19797.8    505.1   0.015097163   0.25105  -0.37563   0.21346   0.25374
   6   19851.6    503.7   0.377542811   6.26103   1.64170  -1.77496  -0.64450
   7   22068.6    453.1   0.003073062   0.04584  -0.12534   0.13148  -0.11334
   8   22977.5    435.2   0.016574718   0.23748   0.04476  -0.39400   0.28326
   9   23213.9    430.8   0.028397022   0.40272   0.46002   0.32305   0.29452
  10   23683.8    422.2   0.145054534   2.01630  -1.27289   0.30858  -0.54847
  11   24324.8    411.1   0.118333275   1.60153  -1.05545   0.63604   0.28811
  12   25078.7    398.7   0.007566463   0.09933   0.06049  -0.19513  -0.23998
  13   25430.5    393.2   0.001192350   0.01544  -0.12373  -0.00996   0.00522
  14   26043.7    384.0   0.079952366   1.01066  -0.74851   0.46008   0.48859
  15   26440.4    378.2   0.136984115   1.70560  -0.79088   0.36208  -0.97417
  16   26711.2    374.4   0.009933376   0.12243  -0.12835   0.28978   0.14825
  17   26920.8    371.5   0.003694309   0.04518  -0.08757   0.01604   0.19301
  18   27191.4    367.8   0.069937193   0.84674  -0.43686   0.34992   0.73038
  19   27268.4    366.7   0.018845279   0.22752   0.46428  -0.00750  -0.10911
  20   27822.0    359.4   0.193900249   2.29438  -0.20070   0.89799   1.20321
  21   28237.7    354.1   0.076870329   0.89620   0.39926  -0.64042  -0.57154
  22   28815.3    347.0   0.182110753   2.08060   1.33660  -0.04676   0.54028
  23   29625.1    337.6   0.026419180   0.29359  -0.41941  -0.32101  -0.12098
  24   29740.9    336.2   0.056411191   0.62443   0.19437  -0.59696   0.47989
  25   30048.8    332.8   0.202283703   2.21620   1.38725   0.26844   0.46869
  26   30211.1    331.0   0.184735960   2.01308  -0.61014   0.05125   1.27991
  27   30547.2    327.4   0.122719057   1.32256  -0.75458   0.25735   0.82882
  28   30727.1    325.4   0.084604676   0.90646   0.85467   0.02658   0.41869
  29   30950.8    323.1   0.019659384   0.20911  -0.42995   0.12694   0.09022
  30   31269.4    319.8   0.095790038   1.00850  -0.99449  -0.09013   0.10662
  31   31553.1    316.9   0.101562801   1.05967  -0.21676  -0.55523  -0.83928
  32   31852.1    314.0   0.154259361   1.59437   0.73801   0.39196   0.94661
  33   32227.7    310.3   0.004750681   0.04853  -0.09641  -0.11928   0.15814
  34   32490.0    307.8   0.246487862   2.49759   0.72452   0.86947   1.10304
  35   32959.4    303.4   0.118407248   1.18270   0.44852   0.61430   0.77728
  36   33302.4    300.3   0.194760008   1.92530  -0.82598   0.61976   0.92680
  37   33405.9    299.3   0.186180419   1.83479  -0.71389  -0.52084  -1.02658
  38   33843.1    295.5   0.058887217   0.57283   0.61720  -0.34480  -0.27021
  39   34077.3    293.5   0.119830415   1.15765  -0.94148   0.03749  -0.51948
  40   34160.3    292.7   0.059591303   0.57430  -0.52208   0.09188  -0.54157
  41   34324.4    291.3   0.077528354   0.74359   0.32079  -0.52657  -0.60283
  42   34532.4    289.6   0.566703338   5.40263   0.40940   0.41480  -2.25010
  43   34619.9    288.9   0.246224503   2.34143   1.13881   0.78969   0.64879
  44   34895.9    286.6   0.014862664   0.14022  -0.19962  -0.12439   0.29137
  45   35060.8    285.2   0.125645543   1.17978   0.27902  -0.25259   1.01888
  46   35196.1    284.1   0.031961530   0.29896   0.38912  -0.38411  -0.00163
  47   35518.6    281.5   0.009274250   0.08596  -0.00115   0.15672   0.24779
  48   35925.7    278.4   0.004277695   0.03920   0.17180  -0.02431  -0.09536
  49   36251.3    275.9   0.018312940   0.16631   0.31042  -0.10919   0.24088
  50   36311.8    275.4   0.045670734   0.41406   0.23496   0.13208   0.58431
  51   36545.5    273.6   0.040788168   0.36743   0.42185  -0.39020   0.19291
  52   36604.2    273.2   0.022908001   0.20603  -0.36895  -0.03164  -0.26249
  53   37031.1    270.0   0.188987963   1.68013  -1.06859   0.65100   0.33830
  54   37275.9    268.3   0.014436747   0.12750  -0.13448  -0.00435   0.33075
  55   37440.3    267.1   0.036959104   0.32498  -0.55689  -0.04719  -0.11238
  56   37735.1    265.0   0.011409535   0.09954   0.05028   0.30999   0.03028
  57   37932.9    263.6   0.071258116   0.61844   0.52200  -0.53077  -0.25346
  58   38160.2    262.1   0.158200816   1.36481  -1.16258   0.07347   0.08853
  59   38741.4    258.1   0.006441696   0.05474  -0.04214  -0.03353   0.22768
  60   38808.9    257.7   0.045512756   0.38608  -0.45900   0.36918   0.19776
  61   39049.2    256.1   0.176105644   1.48469  -1.00077   0.66278  -0.20944
  62   39225.8    254.9   0.048177719   0.40434  -0.55124   0.23862  -0.20866
  63   39435.6    253.6   0.213124464   1.77918   1.20038   0.08783   0.57494
  64   39540.2    252.9   0.005413702   0.04507  -0.12512   0.09967   0.13959
  65   39835.0    251.0   0.023528835   0.19445  -0.07713   0.20056   0.38507
  66   40029.9    249.8   0.048907209   0.40222  -0.59128   0.17685  -0.14607
  67   40128.9    249.2   0.030520920   0.25039   0.32270  -0.07467   0.37507

FINAL SINGLE POINT ENERGY     -5397.153537099646

DIPOLE MOMENT
-------------
                                X             Y             Z
Electronic contribution:      4.22791      -3.90361      15.91712
Nuclear contribution   :     -5.39234       2.60178     -19.03932
                        -----------------------------------------
Total Dipole Moment    :     -1.16442      -1.30183      -3.12219
                        -----------------------------------------
Magnitude (a.u.)       :      3.57753
Magnitude (Debye)      :      9.09337

Rotational constants in cm-1:     0.001432     0.000390     0.000333
Rotational constants in MHz :    42.932885    11.680447     9.973038

                             ****ORCA TERMINATED NORMALLY****
TOTAL RUN TIME: 0 days 0 hours 19 minutes 47 seconds 190 msec
