                         Program Version 4.2.0 -  RELEASE  -
|  1> # ORCA input file
|  2> # SCF done       -184.103322452296          0.000831865717
|  3> ! CAM-B3LYP def2-SVP def2/J RIJCOSX Grid4 TightSCF
|  4> %maxcore 5000
|  5> %tddft
|  6>     Mode sTDDFT
|  7>     Ethresh 5.0
|  8>     maxcore 5000
|  9> end
| 10>
| 11> %pal
| 12>   nprocs 6
| 13>   end
| 14> * xyz 0 1
| 15>    C       -7.25619         5.75328         2.36764
| 16>    C       -6.03825         6.11441         2.88748
| 17>    C       -5.57546         7.44430         2.96448
| 18>    N       -5.13889         8.50221         3.05856
| 19>    C       -5.08495         5.23365         3.43849
| 20>    N       -4.25829         4.58877         3.90847
| 21>    C       -8.25350         6.67587         1.83353
| 22>    C       -9.40832         5.93707         1.47092
| 23>    C      -10.52474         6.52157         0.92459
| 24>    C      -10.50185         7.90506         0.72247
| 25>    C       -9.34677         8.63637         1.08852
| 26>    C       -8.21770         8.04384         1.64358
| 27>    S       -9.53952        10.32667         0.74624
| 28>    C      -11.13053        10.04556         0.12811
| 29>    C      -11.50759         8.74917         0.17315
| 30>    C       -9.18192         4.51466         1.76722
| 31>    O       -9.98680         3.60998         1.63514
| 32>    C       -7.80398         4.41548         2.26781
| 33>    C       -7.13886         3.24378         2.52723
| 34>    C       -7.57962         1.92134         2.39402
| 35>    C       -6.74202         0.82210         2.59953
| 36>    S       -5.07284         0.72159         3.01862
| 37>    C       -5.14271        -1.02738         2.90223
| 38>    C       -3.91370        -1.81764         3.16302
| 39>    C       -6.37386        -1.48482         2.56745
| 40>    C       -7.32755        -0.44489         2.39846
| 41>    C       -8.67465        -0.33025         2.01963
| 42>    S       -9.15437         1.34494         1.89952
| 43>    C       -9.64502        -1.33570         1.76444
| 44>    C      -10.82150        -1.02717         1.03237
| 45>    C      -11.87284        -1.97415         0.82021
| 46>    N      -12.98592        -1.58399         0.17410
| 47>    C      -13.08802        -0.37663        -0.28163
| 48>    C      -12.01485         0.53874        -0.13798
| 49>    N      -10.93972         0.20119         0.49761
| 50>    F      -12.07453         1.75184        -0.67113
| 51>    F      -14.22031        -0.03889        -0.89059
| 52>    C      -11.80165        -3.31501         1.26883
| 53>    C      -10.63475        -3.63212         2.00071
| 54>    C       -9.58387        -2.66572         2.25017
| 55>    N       -8.62663        -3.18570         3.01580
| 56>    S       -8.98162        -4.70845         3.37316
| 57>    N      -10.37784        -4.79869         2.58336
| 58>    C      -12.83720        -4.23581         0.98004
| 59>    C      -12.91386        -5.61307         1.16581
| 60>    S      -11.85265        -6.80303         1.83022
| 61>    C      -12.98897        -8.08094         1.41939
| 62>    C      -12.63941        -9.48660         1.73967
| 63>    C      -14.11576        -7.61623         0.82751
| 64>    C      -14.10242        -6.20765         0.67053
| 65>    C      -14.96724        -5.28230         0.08672
| 66>    S      -14.28743        -3.67518         0.19152
| 67>    C      -16.24471        -5.52805        -0.44683
| 68>    C      -16.99524        -4.69967        -1.23080
| 69>    C      -16.64790        -3.51953        -1.99266
| 70>    C      -15.47027        -3.30524        -2.66101
| 71>    C      -15.21982        -2.18749        -3.48042
| 72>    N      -14.95547        -1.29323        -4.14992
| 73>    C      -14.41114        -4.23593        -2.67384
| 74>    N      -13.55425        -4.99653        -2.75067
| 75>    C      -17.87311        -2.75213        -2.17507
| 76>    C      -18.97360        -3.55971        -1.78516
| 77>    C      -18.47415        -4.84928        -1.26944
| 78>    O      -19.11750        -5.80570        -0.89859
| 79>    C      -20.27248        -3.12216        -1.88231
| 80>    C      -20.49186        -1.82979        -2.37022
| 81>    C      -19.38412        -1.02799        -2.73713
| 82>    C      -18.06928        -1.47180        -2.65101
| 83>    S      -19.89566         0.53381        -3.29314
| 84>    C      -21.55358         0.10787        -3.04190
| 85>    C      -21.72424        -1.14288        -2.56152
| 86>    H      -11.38468         5.92765         0.65664
| 87>    H       -7.36232         8.64589         1.90052
| 88>    H      -11.69320        10.88260        -0.23714
| 89>    H      -12.46017         8.38630        -0.16805
| 90>    H       -6.10899         3.31834         2.85841
| 91>    H       -3.14147        -1.57574         2.43280
| 92>    H       -4.13311        -2.88074         3.10591
| 93>    H       -3.51589        -1.58927         4.15117
| 94>    H       -6.60277        -2.52614         2.45441
| 95>    H      -11.74981        -9.78940         1.18811
| 96>    H      -13.45923       -10.14998         1.47624
| 97>    H      -12.42163        -9.59302         2.80156
| 98>    H      -14.92746        -8.24292         0.50543
| 99>    H      -16.73689        -6.44001        -0.12352
|100>    H      -21.09491        -3.75617        -1.58929
|101>    H      -17.25100        -0.82787        -2.92915
|102>    H      -22.30957         0.83310        -3.27253
|103>    H      -22.68242        -1.57903        -2.34397
|104> *
|105>
|106>                          ****END OF INPUT****

CARTESIAN COORDINATES (ANGSTROEM)
---------------------------------
  C     -7.256190    5.753280    2.367640
  C     -6.038250    6.114410    2.887480
  C     -5.575460    7.444300    2.964480
  N     -5.138890    8.502210    3.058560
  C     -5.084950    5.233650    3.438490
  N     -4.258290    4.588770    3.908470
  C     -8.253500    6.675870    1.833530
  C     -9.408320    5.937070    1.470920
  C    -10.524740    6.521570    0.924590
  C    -10.501850    7.905060    0.722470
  C     -9.346770    8.636370    1.088520
  C     -8.217700    8.043840    1.643580
  S     -9.539520   10.326670    0.746240
  C    -11.130530   10.045560    0.128110
  C    -11.507590    8.749170    0.173150
  C     -9.181920    4.514660    1.767220
  O     -9.986800    3.609980    1.635140
  C     -7.803980    4.415480    2.267810
  C     -7.138860    3.243780    2.527230
  C     -7.579620    1.921340    2.394020
  C     -6.742020    0.822100    2.599530
  S     -5.072840    0.721590    3.018620
  C     -5.142710   -1.027380    2.902230
  C     -3.913700   -1.817640    3.163020
  C     -6.373860   -1.484820    2.567450
  C     -7.327550   -0.444890    2.398460
  C     -8.674650   -0.330250    2.019630
  S     -9.154370    1.344940    1.899520
  C     -9.645020   -1.335700    1.764440
  C    -10.821500   -1.027170    1.032370
  C    -11.872840   -1.974150    0.820210
  N    -12.985920   -1.583990    0.174100
  C    -13.088020   -0.376630   -0.281630
  C    -12.014850    0.538740   -0.137980
  N    -10.939720    0.201190    0.497610
  F    -12.074530    1.751840   -0.671130
  F    -14.220310   -0.038890   -0.890590
  C    -11.801650   -3.315010    1.268830
  C    -10.634750   -3.632120    2.000710
  C     -9.583870   -2.665720    2.250170
  N     -8.626630   -3.185700    3.015800
  S     -8.981620   -4.708450    3.373160
  N    -10.377840   -4.798690    2.583360
  C    -12.837200   -4.235810    0.980040
  C    -12.913860   -5.613070    1.165810
  S    -11.852650   -6.803030    1.830220
  C    -12.988970   -8.080940    1.419390
  C    -12.639410   -9.486600    1.739670
  C    -14.115760   -7.616230    0.827510
  C    -14.102420   -6.207650    0.670530
  C    -14.967240   -5.282300    0.086720
  S    -14.287430   -3.675180    0.191520
  C    -16.244710   -5.528050   -0.446830
  C    -16.995240   -4.699670   -1.230800
  C    -16.647900   -3.519530   -1.992660
  C    -15.470270   -3.305240   -2.661010
  C    -15.219820   -2.187490   -3.480420
  N    -14.955470   -1.293230   -4.149920
  C    -14.411140   -4.235930   -2.673840
  N    -13.554250   -4.996530   -2.750670
  C    -17.873110   -2.752130   -2.175070
  C    -18.973600   -3.559710   -1.785160
  C    -18.474150   -4.849280   -1.269440
  O    -19.117500   -5.805700   -0.898590
  C    -20.272480   -3.122160   -1.882310
  C    -20.491860   -1.829790   -2.370220
  C    -19.384120   -1.027990   -2.737130
  C    -18.069280   -1.471800   -2.651010
  S    -19.895660    0.533810   -3.293140
  C    -21.553580    0.107870   -3.041900
  C    -21.724240   -1.142880   -2.561520
  H    -11.384680    5.927650    0.656640
  H     -7.362320    8.645890    1.900520
  H    -11.693200   10.882600   -0.237140
  H    -12.460170    8.386300   -0.168050
  H     -6.108990    3.318340    2.858410
  H     -3.141470   -1.575740    2.432800
  H     -4.133110   -2.880740    3.105910
  H     -3.515890   -1.589270    4.151170
  H     -6.602770   -2.526140    2.454410
  H    -11.749810   -9.789400    1.188110
  H    -13.459230  -10.149980    1.476240
  H    -12.421630   -9.593020    2.801560
  H    -14.927460   -8.242920    0.505430
  H    -16.736890   -6.440010   -0.123520
  H    -21.094910   -3.756170   -1.589290
  H    -17.251000   -0.827870   -2.929150
  H    -22.309570    0.833100   -3.272530
  H    -22.682420   -1.579030   -2.343970

 Total Charge           Charge          ....    0
 Multiplicity           Mult            ....    1
 Number of Electrons    NEL             ....  532
 Basis Dimension        Dim             .... 1112

ORBITAL ENERGIES
----------------

  NO   OCC          E(Eh)            E(eV)
   0   2.0000     -89.047780     -2423.1133
   1   2.0000     -88.962577     -2420.7948
   2   2.0000     -88.962014     -2420.7795
   3   2.0000     -88.961391     -2420.7625
   4   2.0000     -88.959450     -2420.7097
   5   2.0000     -88.952522     -2420.5212
   6   2.0000     -88.952138     -2420.5107
   7   2.0000     -24.821476      -675.4267
   8   2.0000     -24.816166      -675.2822
   9   2.0000     -19.214862      -522.8630
  10   2.0000     -19.205886      -522.6187
  11   2.0000     -14.461035      -393.5048
  12   2.0000     -14.458178      -393.4270
  13   2.0000     -14.457516      -393.4090
  14   2.0000     -14.455664      -393.3586
  15   2.0000     -14.410439      -392.1280
  16   2.0000     -14.408071      -392.0635
  17   2.0000     -14.407904      -392.0590
  18   2.0000     -14.404047      -391.9540
  19   2.0000     -10.437722      -284.0249
  20   2.0000     -10.434705      -283.9428
  21   2.0000     -10.362487      -281.9776
  22   2.0000     -10.357872      -281.8520
  23   2.0000     -10.351209      -281.6707
  24   2.0000     -10.350545      -281.6527
  25   2.0000     -10.349369      -281.6207
  26   2.0000     -10.348295      -281.5914
  27   2.0000     -10.335088      -281.2320
  28   2.0000     -10.334285      -281.2102
  29   2.0000     -10.333128      -281.1787
  30   2.0000     -10.332318      -281.1567
  31   2.0000     -10.327809      -281.0340
  32   2.0000     -10.323525      -280.9174
  33   2.0000     -10.320956      -280.8475
  34   2.0000     -10.316887      -280.7368
  35   2.0000     -10.316433      -280.7244
  36   2.0000     -10.315767      -280.7063
  37   2.0000     -10.315504      -280.6991
  38   2.0000     -10.313455      -280.6434
  39   2.0000     -10.311446      -280.5887
  40   2.0000     -10.311327      -280.5855
  41   2.0000     -10.311084      -280.5789
  42   2.0000     -10.310597      -280.5656
  43   2.0000     -10.310107      -280.5523
  44   2.0000     -10.309646      -280.5397
  45   2.0000     -10.309225      -280.5283
  46   2.0000     -10.306821      -280.4628
  47   2.0000     -10.306766      -280.4614
  48   2.0000     -10.305657      -280.4312
  49   2.0000     -10.305055      -280.4148
  50   2.0000     -10.304197      -280.3914
  51   2.0000     -10.300927      -280.3025
  52   2.0000     -10.300242      -280.2838
  53   2.0000     -10.298009      -280.2231
  54   2.0000     -10.297110      -280.1986
  55   2.0000     -10.296984      -280.1952
  56   2.0000     -10.295856      -280.1645
  57   2.0000     -10.294275      -280.1215
  58   2.0000     -10.293276      -280.0943
  59   2.0000     -10.292208      -280.0652
  60   2.0000     -10.291175      -280.0371
  61   2.0000     -10.288220      -279.9567
  62   2.0000     -10.288019      -279.9512
  63   2.0000     -10.285310      -279.8775
  64   2.0000     -10.285063      -279.8708
  65   2.0000     -10.284674      -279.8602
  66   2.0000     -10.284600      -279.8582
  67   2.0000     -10.280368      -279.7430
  68   2.0000     -10.277942      -279.6770
  69   2.0000     -10.273791      -279.5641
  70   2.0000     -10.267885      -279.4034
  71   2.0000      -8.138975      -221.4728
  72   2.0000      -8.058777      -219.2905
  73   2.0000      -8.058211      -219.2751
  74   2.0000      -8.054389      -219.1711
  75   2.0000      -8.051576      -219.0945
  76   2.0000      -8.048088      -218.9996
  77   2.0000      -8.046898      -218.9672
  78   2.0000      -6.110099      -166.2643
  79   2.0000      -6.102397      -166.0547
  80   2.0000      -6.101599      -166.0329
  81   2.0000      -6.028263      -164.0374
  82   2.0000      -6.027716      -164.0225
  83   2.0000      -6.024076      -163.9234
  84   2.0000      -6.024000      -163.9214
  85   2.0000      -6.023444      -163.9063
  86   2.0000      -6.021103      -163.8426
  87   2.0000      -6.020480      -163.8256
  88   2.0000      -6.019912      -163.8101
  89   2.0000      -6.019384      -163.7958
  90   2.0000      -6.017716      -163.7504
  91   2.0000      -6.016761      -163.7244
  92   2.0000      -6.016387      -163.7142
  93   2.0000      -6.016231      -163.7100
  94   2.0000      -6.013607      -163.6386
  95   2.0000      -6.013423      -163.6336
  96   2.0000      -6.012230      -163.6011
  97   2.0000      -6.009549      -163.5281
  98   2.0000      -6.008182      -163.4909
  99   2.0000      -1.347435       -36.6656
 100   2.0000      -1.333167       -36.2773
 101   2.0000      -1.146524       -31.1985
 102   2.0000      -1.130437       -30.7607
 103   2.0000      -1.121386       -30.5145
 104   2.0000      -1.120646       -30.4943
 105   2.0000      -1.047488       -28.5036
 106   2.0000      -1.016137       -27.6505
 107   2.0000      -1.014686       -27.6110
 108   2.0000      -1.011038       -27.5117
 109   2.0000      -1.010237       -27.4899
 110   2.0000      -1.003247       -27.2997
 111   2.0000      -1.001042       -27.2397
 112   2.0000      -0.997309       -27.1382
 113   2.0000      -0.987834       -26.8803
 114   2.0000      -0.984788       -26.7974
 115   2.0000      -0.980068       -26.6690
 116   2.0000      -0.978653       -26.6305
 117   2.0000      -0.977596       -26.6017
 118   2.0000      -0.950643       -25.8683
 119   2.0000      -0.945780       -25.7360
 120   2.0000      -0.926584       -25.2136
 121   2.0000      -0.923407       -25.1272
 122   2.0000      -0.910304       -24.7706
 123   2.0000      -0.899517       -24.4771
 124   2.0000      -0.891581       -24.2612
 125   2.0000      -0.888606       -24.1802
 126   2.0000      -0.878089       -23.8940
 127   2.0000      -0.876176       -23.8420
 128   2.0000      -0.875135       -23.8136
 129   2.0000      -0.864954       -23.5366
 130   2.0000      -0.851791       -23.1784
 131   2.0000      -0.846339       -23.0300
 132   2.0000      -0.840112       -22.8606
 133   2.0000      -0.834963       -22.7205
 134   2.0000      -0.820932       -22.3387
 135   2.0000      -0.818568       -22.2744
 136   2.0000      -0.817330       -22.2407
 137   2.0000      -0.803159       -21.8551
 138   2.0000      -0.794656       -21.6237
 139   2.0000      -0.785861       -21.3844
 140   2.0000      -0.780680       -21.2434
 141   2.0000      -0.774715       -21.0811
 142   2.0000      -0.768555       -20.9134
 143   2.0000      -0.755141       -20.5484
 144   2.0000      -0.753593       -20.5063
 145   2.0000      -0.749727       -20.4011
 146   2.0000      -0.744503       -20.2590
 147   2.0000      -0.728154       -19.8141
 148   2.0000      -0.708767       -19.2865
 149   2.0000      -0.693930       -18.8828
 150   2.0000      -0.690311       -18.7843
 151   2.0000      -0.686213       -18.6728
 152   2.0000      -0.684193       -18.6178
 153   2.0000      -0.680564       -18.5191
 154   2.0000      -0.678949       -18.4751
 155   2.0000      -0.672372       -18.2962
 156   2.0000      -0.667174       -18.1547
 157   2.0000      -0.656837       -17.8734
 158   2.0000      -0.655114       -17.8266
 159   2.0000      -0.652229       -17.7480
 160   2.0000      -0.641392       -17.4532
 161   2.0000      -0.636687       -17.3251
 162   2.0000      -0.634275       -17.2595
 163   2.0000      -0.631258       -17.1774
 164   2.0000      -0.625888       -17.0313
 165   2.0000      -0.623381       -16.9631
 166   2.0000      -0.621798       -16.9200
 167   2.0000      -0.615534       -16.7495
 168   2.0000      -0.613794       -16.7022
 169   2.0000      -0.605868       -16.4865
 170   2.0000      -0.597143       -16.2491
 171   2.0000      -0.595025       -16.1915
 172   2.0000      -0.591924       -16.1071
 173   2.0000      -0.586883       -15.9699
 174   2.0000      -0.580853       -15.8058
 175   2.0000      -0.579880       -15.7793
 176   2.0000      -0.573974       -15.6186
 177   2.0000      -0.570053       -15.5119
 178   2.0000      -0.555561       -15.1176
 179   2.0000      -0.554374       -15.0853
 180   2.0000      -0.552174       -15.0254
 181   2.0000      -0.542954       -14.7745
 182   2.0000      -0.541752       -14.7418
 183   2.0000      -0.536899       -14.6098
 184   2.0000      -0.533469       -14.5164
 185   2.0000      -0.533313       -14.5122
 186   2.0000      -0.532683       -14.4950
 187   2.0000      -0.529831       -14.4174
 188   2.0000      -0.528873       -14.3914
 189   2.0000      -0.524670       -14.2770
 190   2.0000      -0.523351       -14.2411
 191   2.0000      -0.521724       -14.1968
 192   2.0000      -0.519497       -14.1362
 193   2.0000      -0.517855       -14.0916
 194   2.0000      -0.517324       -14.0771
 195   2.0000      -0.514396       -13.9974
 196   2.0000      -0.512759       -13.9529
 197   2.0000      -0.505629       -13.7589
 198   2.0000      -0.504891       -13.7388
 199   2.0000      -0.502950       -13.6860
 200   2.0000      -0.498093       -13.5538
 201   2.0000      -0.497183       -13.5290
 202   2.0000      -0.494197       -13.4478
 203   2.0000      -0.492343       -13.3973
 204   2.0000      -0.490087       -13.3359
 205   2.0000      -0.486995       -13.2518
 206   2.0000      -0.486588       -13.2407
 207   2.0000      -0.485846       -13.2206
 208   2.0000      -0.485693       -13.2164
 209   2.0000      -0.484939       -13.1959
 210   2.0000      -0.481014       -13.0891
 211   2.0000      -0.470794       -12.8109
 212   2.0000      -0.468477       -12.7479
 213   2.0000      -0.465099       -12.6560
 214   2.0000      -0.464074       -12.6281
 215   2.0000      -0.459725       -12.5097
 216   2.0000      -0.458008       -12.4630
 217   2.0000      -0.456258       -12.4154
 218   2.0000      -0.451228       -12.2785
 219   2.0000      -0.448626       -12.2077
 220   2.0000      -0.447791       -12.1850
 221   2.0000      -0.443278       -12.0622
 222   2.0000      -0.441513       -12.0142
 223   2.0000      -0.440063       -11.9747
 224   2.0000      -0.437651       -11.9091
 225   2.0000      -0.437180       -11.8963
 226   2.0000      -0.434528       -11.8241
 227   2.0000      -0.431829       -11.7507
 228   2.0000      -0.431142       -11.7320
 229   2.0000      -0.428314       -11.6550
 230   2.0000      -0.426959       -11.6181
 231   2.0000      -0.425833       -11.5875
 232   2.0000      -0.423802       -11.5322
 233   2.0000      -0.422137       -11.4869
 234   2.0000      -0.421046       -11.4572
 235   2.0000      -0.420125       -11.4322
 236   2.0000      -0.417719       -11.3667
 237   2.0000      -0.416720       -11.3395
 238   2.0000      -0.414660       -11.2835
 239   2.0000      -0.411099       -11.1866
 240   2.0000      -0.402948       -10.9648
 241   2.0000      -0.400703       -10.9037
 242   2.0000      -0.397909       -10.8276
 243   2.0000      -0.395654       -10.7663
 244   2.0000      -0.388843       -10.5810
 245   2.0000      -0.378668       -10.3041
 246   2.0000      -0.375630       -10.2214
 247   2.0000      -0.372033       -10.1235
 248   2.0000      -0.367446        -9.9987
 249   2.0000      -0.364207        -9.9106
 250   2.0000      -0.363515        -9.8917
 251   2.0000      -0.354405        -9.6438
 252   2.0000      -0.348108        -9.4725
 253   2.0000      -0.332900        -9.0587
 254   2.0000      -0.327229        -8.9043
 255   2.0000      -0.322173        -8.7668
 256   2.0000      -0.321204        -8.7404
 257   2.0000      -0.316366        -8.6088
 258   2.0000      -0.310557        -8.4507
 259   2.0000      -0.306542        -8.3414
 260   2.0000      -0.297825        -8.1042
 261   2.0000      -0.293500        -7.9865
 262   2.0000      -0.290051        -7.8927
 263   2.0000      -0.288536        -7.8515
 264   2.0000      -0.268863        -7.3161
 265   2.0000      -0.232595        -6.3292
 266   0.0000      -0.127581        -3.4716
 267   0.0000      -0.080885        -2.2010
 268   0.0000      -0.075973        -2.0673
 269   0.0000      -0.052636        -1.4323
 270   0.0000      -0.048333        -1.3152

MULLIKEN ATOMIC CHARGES
-----------------------
   0 C :    0.324924
   1 C :   -0.357015
   2 C :   -0.184997
   3 N :    0.143889
   4 C :   -0.191678
   5 N :    0.147047
   6 C :    0.014313
   7 C :   -0.011923
   8 C :   -0.069425
   9 C :    0.117045
  10 C :   -0.098451
  11 C :   -0.024998
  12 S :    0.139427
  13 C :   -0.048867
  14 C :    0.023598
  15 C :    0.161428
  16 O :   -0.178312
  17 C :   -0.095177
  18 C :   -0.050138
  19 C :   -0.073856
  20 C :   -0.071966
  21 S :    0.132786
  22 C :   -0.204253
  23 C :    0.121228
  24 C :    0.008835
  25 C :    0.162933
  26 C :   -0.201954
  27 S :    0.228994
  28 C :    0.140604
  29 C :   -0.056402
  30 C :   -0.055947
  31 N :   -0.053580
  32 C :    0.161294
  33 C :    0.157126
  34 N :   -0.019001
  35 F :   -0.128949
  36 F :   -0.132860
  37 C :    0.175382
  38 C :    0.001850
  39 C :   -0.000576
  40 N :   -0.288298
  41 S :    0.544757
  42 N :   -0.316191
  43 C :   -0.214099
  44 C :   -0.027480
  45 S :    0.140747
  46 C :   -0.186100
  47 C :    0.115904
  48 C :   -0.006579
  49 C :    0.162712
  50 C :   -0.108231
  51 S :    0.172528
  52 C :    0.026534
  53 C :   -0.133713
  54 C :    0.246532
  55 C :   -0.319444
  56 C :   -0.185582
  57 N :    0.152068
  58 C :   -0.206074
  59 N :    0.165331
  60 C :    0.003623
  61 C :   -0.000577
  62 C :    0.135677
  63 O :   -0.151075
  64 C :   -0.067670
  65 C :    0.106201
  66 C :   -0.092207
  67 C :   -0.021386
  68 S :    0.134991
  69 C :   -0.051799
  70 C :    0.026968
  71 H :   -0.013352
  72 H :   -0.007982
  73 H :    0.037388
  74 H :   -0.008351
  75 H :    0.009120
  76 H :    0.040130
  77 H :    0.020864
  78 H :    0.036609
  79 H :   -0.030588
  80 H :    0.040979
  81 H :    0.025297
  82 H :    0.034810
  83 H :   -0.021556
  84 H :    0.015948
  85 H :   -0.013122
  86 H :   -0.004709
  87 H :    0.036619
  88 H :   -0.008550
Sum of atomic charges:   -0.0000000

LOEWDIN ATOMIC CHARGES
----------------------
   0 C :    0.076154
   1 C :   -0.146168
   2 C :   -0.018060
   3 N :   -0.058655
   4 C :   -0.022467
   5 N :   -0.055527
   6 C :   -0.021165
   7 C :   -0.052502
   8 C :    0.021982
   9 C :   -0.036086
  10 C :   -0.146461
  11 C :   -0.009437
  12 S :    0.428565
  13 C :   -0.151035
  14 C :   -0.057979
  15 C :    0.083304
  16 O :   -0.165081
  17 C :   -0.104525
  18 C :    0.048579
  19 C :   -0.206772
  20 C :   -0.168490
  21 S :    0.412482
  22 C :   -0.147899
  23 C :   -0.058700
  24 C :   -0.066589
  25 C :   -0.065016
  26 C :   -0.153941
  27 S :    0.556297
  28 C :   -0.047829
  29 C :   -0.007811
  30 C :   -0.012313
  31 N :   -0.057109
  32 C :    0.070154
  33 C :    0.065366
  34 N :   -0.045289
  35 F :   -0.018301
  36 F :   -0.021517
  37 C :   -0.046293
  38 C :   -0.035990
  39 C :   -0.036880
  40 N :   -0.267082
  41 S :    0.666781
  42 N :   -0.289543
  43 C :   -0.159508
  44 C :   -0.177790
  45 S :    0.430365
  46 C :   -0.141301
  47 C :   -0.059347
  48 C :   -0.074598
  49 C :   -0.039287
  50 C :   -0.186535
  51 S :    0.519080
  52 C :    0.046248
  53 C :   -0.096488
  54 C :    0.059907
  55 C :   -0.147439
  56 C :   -0.021750
  57 N :   -0.059731
  58 C :   -0.036349
  59 N :   -0.054631
  60 C :   -0.016436
  61 C :   -0.054525
  62 C :    0.081903
  63 O :   -0.150853
  64 C :    0.021916
  65 C :   -0.037881
  66 C :   -0.145343
  67 C :   -0.013102
  68 S :    0.424963
  69 C :   -0.153024
  70 C :   -0.057720
  71 H :    0.039826
  72 H :    0.040447
  73 H :    0.028816
  74 H :    0.034695
  75 H :    0.044467
  76 H :    0.040635
  77 H :    0.038191
  78 H :    0.039666
  79 H :    0.020260
  80 H :    0.041939
  81 H :    0.039781
  82 H :    0.039144
  83 H :    0.029409
  84 H :    0.047785
  85 H :    0.039838
  86 H :    0.040272
  87 H :    0.028366
  88 H :    0.034565

  Mayer bond orders larger than 0.100000
B(  0-C ,  1-C ) :   1.6114 B(  0-C ,  6-C ) :   0.9968 B(  0-C , 17-C ) :   1.0845
B(  1-C ,  2-C ) :   1.1459 B(  1-C ,  4-C ) :   1.1490 B(  2-C ,  3-N ) :   2.9668
B(  4-C ,  5-N ) :   2.9623 B(  6-C ,  7-C ) :   1.2693 B(  6-C , 11-C ) :   1.4167
B(  7-C ,  8-C ) :   1.4282 B(  7-C , 15-C ) :   0.9567 B(  8-C ,  9-C ) :   1.2396
B(  8-C , 71-H ) :   1.0165 B(  9-C , 10-C ) :   1.3044 B(  9-C , 14-C ) :   1.1727
B( 10-C , 11-C ) :   1.3197 B( 10-C , 12-S ) :   1.0996 B( 11-C , 72-H ) :   0.9821
B( 12-S , 13-C ) :   1.1263 B( 13-C , 14-C ) :   1.6289 B( 13-C , 73-H ) :   0.9681
B( 14-C , 74-H ) :   0.9989 B( 15-C , 16-O ) :   2.1287 B( 15-C , 17-C ) :   0.9722
B( 17-C , 18-C ) :   1.5065 B( 18-C , 19-C ) :   1.2794 B( 18-C , 75-H ) :   0.9402
B( 19-C , 20-C ) :   1.3568 B( 19-C , 27-S ) :   1.0841 B( 20-C , 21-S ) :   1.0932
B( 20-C , 25-C ) :   1.2884 B( 21-S , 22-C ) :   1.0707 B( 22-C , 23-C ) :   1.0693
B( 22-C , 24-C ) :   1.6573 B( 23-C , 76-H ) :   0.9487 B( 23-C , 77-H ) :   0.9565
B( 23-C , 78-H ) :   0.9480 B( 24-C , 25-C ) :   1.1635 B( 24-C , 79-H ) :   0.9831
B( 25-C , 26-C ) :   1.2968 B( 26-C , 27-S ) :   1.1281 B( 26-C , 28-C ) :   1.1961
B( 28-C , 29-C ) :   1.2743 B( 28-C , 37-C ) :   0.1193 B( 28-C , 39-C ) :   1.1879
B( 29-C , 30-C ) :   1.1433 B( 29-C , 34-N ) :   1.3990 B( 30-C , 31-N ) :   1.3796
B( 30-C , 37-C ) :   1.2720 B( 31-N , 32-C ) :   1.6357 B( 32-C , 33-C ) :   1.1141
B( 32-C , 36-F ) :   1.1795 B( 33-C , 34-N ) :   1.6505 B( 33-C , 35-F ) :   1.1903
B( 37-C , 38-C ) :   1.1749 B( 37-C , 43-C ) :   1.2093 B( 38-C , 39-C ) :   1.0941
B( 38-C , 42-N ) :   1.5013 B( 39-C , 40-N ) :   1.5182 B( 40-N , 41-S ) :   1.2727
B( 40-N , 42-N ) :   0.1460 B( 41-S , 42-N ) :   1.2600 B( 43-C , 44-C ) :   1.4458
B( 43-C , 51-S ) :   1.1501 B( 44-C , 45-S ) :   1.0682 B( 44-C , 49-C ) :   1.2585
B( 45-S , 46-C ) :   1.0583 B( 46-C , 47-C ) :   1.0710 B( 46-C , 48-C ) :   1.6504
B( 47-C , 80-H ) :   0.9470 B( 47-C , 81-H ) :   0.9575 B( 47-C , 82-H ) :   0.9478
B( 48-C , 49-C ) :   1.1671 B( 48-C , 83-H ) :   0.9931 B( 49-C , 50-C ) :   1.3284
B( 50-C , 51-S ) :   1.0551 B( 50-C , 52-C ) :   1.1846 B( 52-C , 53-C ) :   1.6080
B( 52-C , 84-H ) :   0.9481 B( 53-C , 54-C ) :   1.0440 B( 53-C , 62-C ) :   0.9465
B( 54-C , 55-C ) :   1.6470 B( 54-C , 60-C ) :   1.0136 B( 55-C , 56-C ) :   1.1405
B( 55-C , 58-C ) :   1.1493 B( 56-C , 57-N ) :   2.9901 B( 58-C , 59-N ) :   3.0247
B( 60-C , 61-C ) :   1.2690 B( 60-C , 67-C ) :   1.4227 B( 61-C , 62-C ) :   0.9224
B( 61-C , 64-C ) :   1.4295 B( 62-C , 63-O ) :   2.2607 B( 64-C , 65-C ) :   1.2502
B( 64-C , 85-H ) :   1.0156 B( 65-C , 66-C ) :   1.3093 B( 65-C , 70-C ) :   1.1713
B( 66-C , 67-C ) :   1.3145 B( 66-C , 68-S ) :   1.0952 B( 67-C , 86-H ) :   0.9873
B( 68-S , 69-C ) :   1.1245 B( 69-C , 70-C ) :   1.6310 B( 69-C , 87-H ) :   0.9682
B( 70-C , 88-H ) :   0.9994

-----------------------------------------------------------------------------
         ABSORPTION SPECTRUM VIA TRANSITION ELECTRIC DIPOLE MOMENTS
-----------------------------------------------------------------------------
State   Energy  Wavelength   fosc         T2         TX        TY        TZ
        (cm-1)    (nm)                  (au**2)     (au)      (au)      (au)
-----------------------------------------------------------------------------
   0    7980.6   1253.0   0.616733434  25.44127   3.53585   3.31392   1.39892
   1   15460.0    646.8   0.077831884   1.65738   0.24246  -1.15857   0.50627
   2   17913.1    558.2   0.178261222   3.27613  -1.25422   0.47748  -1.21452
   3   18905.9    528.9   0.377430907   6.57227  -0.48781  -2.51637  -0.04702
   4   19583.5    510.6   0.139003286   2.33674  -0.33392   1.48107  -0.17795
   5   20049.4    498.8   0.025830809   0.42414  -0.27480   0.54692  -0.22250
   6   21674.9    461.4   0.017056447   0.25906   0.28675   0.11478  -0.40456
   7   23408.7    427.2   0.010522946   0.14799   0.16791   0.28489   0.19655
   8   23776.4    420.6   0.019838530   0.27469   0.30009   0.42548  -0.06001
   9   24358.9    410.5   0.035206686   0.47582  -0.38713   0.52829  -0.21647
  10   24732.5    404.3   0.034186565   0.45505   0.30369   0.59274  -0.10719
  11   25102.5    398.4   0.077575417   1.01738  -0.98149  -0.21534  -0.08770
  12   25426.1    393.3   0.055314164   0.71620  -0.75468   0.20999  -0.32025
  13   25876.9    386.4   0.024231018   0.30827   0.35734   0.38024   0.18974
  14   27003.7    370.3   0.019412797   0.23667   0.44241   0.14278   0.14339
  15   27173.6    368.0   0.086675441   1.05008  -0.83260   0.47761  -0.35881
  16   27534.7    363.2   0.076045699   0.90922   0.75007   0.53942  -0.23588
  17   27778.3    360.0   0.005136459   0.06087  -0.04419   0.22987   0.07799
  18   28080.8    356.1   0.289298641   3.39166   0.93876  -1.44527   0.64928
  19   28200.3    354.6   0.039724751   0.46375   0.26581   0.59882   0.18578
  20   28638.2    349.2   0.011175788   0.12847  -0.29223  -0.05497   0.20012
  21   29035.8    344.4   0.205381102   2.32864  -0.90502   1.16147  -0.40072
  22   29369.8    340.5   0.064980252   0.72838  -0.59940   0.53655  -0.28497
  23   29469.7    339.3   0.075413713   0.84246   0.22643  -0.75309   0.47334
  24   30650.6    326.3   0.226940752   2.43752   1.11065  -0.88865   0.64364
  25   30664.4    326.1   0.102014707   1.09523  -0.99418   0.27231   0.18079
  26   30741.6    325.3   0.216052159   2.31370  -1.24927   0.84076  -0.21484
  27   31663.4    315.8   0.055218920   0.57413  -0.29409   0.69762  -0.03103
  28   31898.0    313.5   0.149336741   1.54127   1.12966   0.24272   0.45412
  29   32043.5    312.1   0.034643168   0.35592   0.20498   0.56026   0.00275
  30   32162.6    310.9   0.031947509   0.32701   0.53059  -0.16575   0.13421
  31   32614.6    306.6   0.008267434   0.08345  -0.19464  -0.21026  -0.03681
  32   33001.9    303.0   0.049402958   0.49282   0.66034   0.08481  -0.22265
  33   33690.6    296.8   0.191350352   1.86980   0.43224  -1.17518   0.54948
  34   34061.3    293.6   0.002762777   0.02670   0.09893   0.04651  -0.12146
  35   34215.4    292.3   0.033748029   0.32471  -0.21816  -0.50375   0.15282
  36   34395.2    290.7   0.152960363   1.46405   0.36863  -1.01958   0.53724
  37   34785.1    287.5   0.155027439   1.46721  -1.08175   0.03800  -0.54368
  38   34906.5    286.5   0.230503316   2.17393  -1.18988   0.86237  -0.12013
  39   35237.3    283.8   0.470267271   4.39357  -1.72998   0.70858  -0.94797
  40   35246.8    283.7   0.077325264   0.72223   0.46937  -0.70668   0.05027
  41   35326.6    283.1   0.512503030   4.77606  -2.03707   0.69062  -0.38657
  42   35758.8    279.7   0.049622645   0.45685  -0.49909  -0.20658   0.40631
  43   36058.1    277.3   0.037364699   0.34114  -0.48993   0.15963  -0.27500
  44   36142.3    276.7   0.108223009   0.98578   0.24117   0.92349  -0.27347
  45   36396.8    274.7   0.015055207   0.13618  -0.16817  -0.32835  -0.00897
  46   36666.5    272.7   0.034962975   0.31392   0.18095  -0.48226  -0.22046
  47   36769.5    272.0   0.015484670   0.13864   0.18712   0.31045   0.08515
  48   37226.6    268.6   0.034686075   0.30674   0.04919  -0.41058   0.36844
  49   37521.8    266.5   0.014173870   0.12436  -0.15900  -0.23783   0.20620
  50   37674.2    265.4   0.143418517   1.25325  -0.23154   1.00998  -0.42375
  51   38041.0    262.9   0.037512240   0.32464   0.25055   0.50074   0.10544
  52   38173.5    262.0   0.021585602   0.18616   0.23578   0.32182  -0.16430
  53   38358.3    260.7   0.005284621   0.04536   0.03267  -0.07784   0.19552
  54   38540.4    259.5   0.027577729   0.23557  -0.27968   0.18941  -0.34853
  55   38813.0    257.6   0.060685334   0.51473   0.13215  -0.59173   0.38357
  56   39198.3    255.1   0.162798884   1.36729  -0.09127  -1.16138   0.10081
  57   39437.2    253.6   0.070563130   0.58904   0.23840  -0.72534  -0.07806
  58   39718.7    251.8   0.004562766   0.03782   0.04338  -0.08983   0.16694
  59   39806.1    251.2   0.051547737   0.42632  -0.02135  -0.64285  -0.11229
  60   39976.8    250.1   0.129278821   1.06462  -0.39782  -0.85860   0.41130
  61   40197.5    248.8   0.118217566   0.96819  -0.37704   0.76542  -0.49005

FINAL SINGLE POINT ENERGY     -5563.453753703061

DIPOLE MOMENT
-------------
                                X             Y             Z
Electronic contribution:      1.58061      16.86768      -3.24342
Nuclear contribution   :     -3.65682     -18.23287       4.02213
                        -----------------------------------------
Total Dipole Moment    :     -2.07622      -1.36519       0.77870
                        -----------------------------------------
Magnitude (a.u.)       :      2.60399
Magnitude (Debye)      :      6.61883

Rotational constants in cm-1:     0.001067     0.000472     0.000336
Rotational constants in MHz :    31.983692    14.139924    10.065659

                             ****ORCA TERMINATED NORMALLY****
TOTAL RUN TIME: 0 days 0 hours 10 minutes 54 seconds 93 msec
