                         Program Version 4.2.0 -  RELEASE  -
|  1> # ORCA input file
|  2> # SCF done       -168.137739349792          0.000599401073
|  3> ! CAM-B3LYP def2-SVP def2/J RIJCOSX Grid4 TightSCF
|  4> %maxcore 5000
|  5> %tddft
|  6>     Mode sTDDFT
|  7>     Ethresh 5.0
|  8>     maxcore 5000
|  9> end
| 10>
| 11> %pal
| 12>   nprocs 6
| 13>   end
| 14> * xyz 0 1
| 15>    C       -0.39502        -0.92433         6.34089
| 16>    C        0.42311        -1.32756         5.28342
| 17>    C       -0.03627        -1.37618         3.98395
| 18>    C       -1.35804        -1.00532         3.76466
| 19>    C       -2.17516        -0.59994         4.84443
| 20>    C       -1.71243        -0.55146         6.14469
| 21>    O       -3.39906        -0.30266         4.34125
| 22>    C       -3.27781        -0.53536         3.00311
| 23>    N       -2.10585        -0.94579         2.62015
| 24>    C       -4.40092        -0.32681         2.15492
| 25>    C       -4.44618        -0.51454         0.78697
| 26>    C       -5.71172        -0.22660         0.27828
| 27>    C       -6.62220         0.18064         1.27531
| 28>    S       -5.92033         0.21027         2.83077
| 29>    C       -7.87663         0.44065         0.67375
| 30>    C       -7.75923         0.19569        -0.71074
| 31>    C       -6.39789        -0.22708        -1.00321
| 32>    C       -5.88300        -0.55417        -2.22280
| 33>    C       -6.65963        -0.51594        -3.40065
| 34>    N       -7.28177        -0.49122        -4.36363
| 35>    C       -4.54057        -0.95358        -2.39689
| 36>    N       -3.45280        -1.27838        -2.55619
| 37>    C       -8.94505         0.41128        -1.39721
| 38>    C       -9.96957         0.81836        -0.54920
| 39>    S       -9.44957         0.93957         1.12449
| 40>    C      -11.30785         1.10689        -0.91502
| 41>    C      -12.26164         1.50198         0.05213
| 42>    C      -13.64213         1.78387        -0.26092
| 43>    N      -14.45336         2.21800         0.71330
| 44>    C      -14.00062         2.34691         1.93627
| 45>    C      -12.64870         2.00159         2.25980
| 46>    N      -11.83225         1.60560         1.31481
| 47>    C      -12.17476         2.09307         3.59128
| 48>    N      -11.81653         2.17573         4.67613
| 49>    C      -14.85458         2.85745         2.94718
| 50>    N      -15.49708         3.28549         3.79252
| 51>    C      -14.13825         1.63823        -1.58141
| 52>    C      -13.17451         1.27987        -2.55164
| 53>    C      -11.79157         1.01838        -2.23985
| 54>    N      -11.09890         0.69518        -3.33237
| 55>    S      -12.06572         0.71633        -4.60905
| 56>    N      -13.42157         1.13371        -3.85359
| 57>    C      -15.49579         1.82560        -1.95048
| 58>    C      -16.59323         2.04443        -1.12522
| 59>    C      -17.77223         2.16504        -1.84576
| 60>    C      -17.58013         2.04771        -3.23860
| 61>    S      -15.94906         1.76213        -3.65117
| 62>    C      -18.83837         2.19576        -3.87167
| 63>    C      -19.82095         2.40480        -2.88906
| 64>    C      -19.18715         2.37994        -1.58196
| 65>    C      -19.79101         2.50056        -0.36509
| 66>    C      -21.18141         2.70191        -0.23921
| 67>    N      -22.31241         2.86502        -0.14306
| 68>    C      -19.06900         2.40488         0.84428
| 69>    N      -18.48795         2.30648         1.82746
| 70>    C      -21.10079         2.56225        -3.42587
| 71>    C      -21.10791         2.47973        -4.80291
| 72>    S      -19.49672         2.19966        -5.44602
| 73>    C      -22.23760         2.59260        -5.69633
| 74>    C      -22.02721         2.65658        -7.08910
| 75>    C      -23.05671         2.76675        -7.99374
| 76>    C      -24.34977         2.81388        -7.48661
| 77>    C      -24.56389         2.74760        -6.09217
| 78>    C      -23.53617         2.63692        -5.18126
| 79>    O      -25.90427         2.81004        -5.88730
| 80>    C      -26.42218         2.90936        -7.12750
| 81>    N      -25.57852         2.91690        -8.09512
| 82>    H        0.01235        -0.90335         7.34014
| 83>    H        1.44387        -1.60858         5.49456
| 84>    H        0.58922        -1.68646         3.16359
| 85>    H       -2.34834        -0.23976         6.95726
| 86>    H       -3.59053        -0.84368         0.22721
| 87>    H       -9.09613         0.28843        -2.45385
| 88>    H      -16.50398         2.10884        -0.05706
| 89>    H      -21.97942         2.74093        -2.83487
| 90>    H      -21.01102         2.62144        -7.45424
| 91>    H      -22.87857         2.81608        -9.05489
| 92>    H      -23.73871         2.57900        -4.12551
| 93>    H      -27.48819         2.97433        -7.22631
| 94> *
| 95>
| 96>                          ****END OF INPUT****

CARTESIAN COORDINATES (ANGSTROEM)
---------------------------------
  C     -0.395020   -0.924330    6.340890
  C      0.423110   -1.327560    5.283420
  C     -0.036270   -1.376180    3.983950
  C     -1.358040   -1.005320    3.764660
  C     -2.175160   -0.599940    4.844430
  C     -1.712430   -0.551460    6.144690
  O     -3.399060   -0.302660    4.341250
  C     -3.277810   -0.535360    3.003110
  N     -2.105850   -0.945790    2.620150
  C     -4.400920   -0.326810    2.154920
  C     -4.446180   -0.514540    0.786970
  C     -5.711720   -0.226600    0.278280
  C     -6.622200    0.180640    1.275310
  S     -5.920330    0.210270    2.830770
  C     -7.876630    0.440650    0.673750
  C     -7.759230    0.195690   -0.710740
  C     -6.397890   -0.227080   -1.003210
  C     -5.883000   -0.554170   -2.222800
  C     -6.659630   -0.515940   -3.400650
  N     -7.281770   -0.491220   -4.363630
  C     -4.540570   -0.953580   -2.396890
  N     -3.452800   -1.278380   -2.556190
  C     -8.945050    0.411280   -1.397210
  C     -9.969570    0.818360   -0.549200
  S     -9.449570    0.939570    1.124490
  C    -11.307850    1.106890   -0.915020
  C    -12.261640    1.501980    0.052130
  C    -13.642130    1.783870   -0.260920
  N    -14.453360    2.218000    0.713300
  C    -14.000620    2.346910    1.936270
  C    -12.648700    2.001590    2.259800
  N    -11.832250    1.605600    1.314810
  C    -12.174760    2.093070    3.591280
  N    -11.816530    2.175730    4.676130
  C    -14.854580    2.857450    2.947180
  N    -15.497080    3.285490    3.792520
  C    -14.138250    1.638230   -1.581410
  C    -13.174510    1.279870   -2.551640
  C    -11.791570    1.018380   -2.239850
  N    -11.098900    0.695180   -3.332370
  S    -12.065720    0.716330   -4.609050
  N    -13.421570    1.133710   -3.853590
  C    -15.495790    1.825600   -1.950480
  C    -16.593230    2.044430   -1.125220
  C    -17.772230    2.165040   -1.845760
  C    -17.580130    2.047710   -3.238600
  S    -15.949060    1.762130   -3.651170
  C    -18.838370    2.195760   -3.871670
  C    -19.820950    2.404800   -2.889060
  C    -19.187150    2.379940   -1.581960
  C    -19.791010    2.500560   -0.365090
  C    -21.181410    2.701910   -0.239210
  N    -22.312410    2.865020   -0.143060
  C    -19.069000    2.404880    0.844280
  N    -18.487950    2.306480    1.827460
  C    -21.100790    2.562250   -3.425870
  C    -21.107910    2.479730   -4.802910
  S    -19.496720    2.199660   -5.446020
  C    -22.237600    2.592600   -5.696330
  C    -22.027210    2.656580   -7.089100
  C    -23.056710    2.766750   -7.993740
  C    -24.349770    2.813880   -7.486610
  C    -24.563890    2.747600   -6.092170
  C    -23.536170    2.636920   -5.181260
  O    -25.904270    2.810040   -5.887300
  C    -26.422180    2.909360   -7.127500
  N    -25.578520    2.916900   -8.095120
  H      0.012350   -0.903350    7.340140
  H      1.443870   -1.608580    5.494560
  H      0.589220   -1.686460    3.163590
  H     -2.348340   -0.239760    6.957260
  H     -3.590530   -0.843680    0.227210
  H     -9.096130    0.288430   -2.453850
  H    -16.503980    2.108840   -0.057060
  H    -21.979420    2.740930   -2.834870
  H    -21.011020    2.621440   -7.454240
  H    -22.878570    2.816080   -9.054890
  H    -23.738710    2.579000   -4.125510
  H    -27.488190    2.974330   -7.226310

 Total Charge           Charge          ....    0
 Multiplicity           Mult            ....    1
 Number of Electrons    NEL             ....  480
 Basis Dimension        Dim             .... 1018

ORBITAL ENERGIES
----------------

  NO   OCC          E(Eh)            E(eV)
   0   2.0000     -89.059059     -2423.4202
   1   2.0000     -88.994188     -2421.6550
   2   2.0000     -88.990795     -2421.5627
   3   2.0000     -88.988337     -2421.4957
   4   2.0000     -88.987046     -2421.4606
   5   2.0000     -19.306860      -525.3664
   6   2.0000     -19.302612      -525.2508
   7   2.0000     -14.476376      -393.9222
   8   2.0000     -14.471186      -393.7810
   9   2.0000     -14.468232      -393.7006
  10   2.0000     -14.467123      -393.6704
  11   2.0000     -14.438985      -392.9048
  12   2.0000     -14.431115      -392.6906
  13   2.0000     -14.430827      -392.6828
  14   2.0000     -14.430124      -392.6636
  15   2.0000     -14.428214      -392.6117
  16   2.0000     -14.428202      -392.6113
  17   2.0000     -14.415702      -392.2712
  18   2.0000     -14.409057      -392.0904
  19   2.0000     -10.393711      -282.8273
  20   2.0000     -10.390252      -282.7331
  21   2.0000     -10.379134      -282.4306
  22   2.0000     -10.372675      -282.2548
  23   2.0000     -10.364542      -282.0335
  24   2.0000     -10.363967      -282.0179
  25   2.0000     -10.359975      -281.9093
  26   2.0000     -10.358293      -281.8635
  27   2.0000     -10.356640      -281.8185
  28   2.0000     -10.355714      -281.7933
  29   2.0000     -10.351698      -281.6840
  30   2.0000     -10.351538      -281.6797
  31   2.0000     -10.343276      -281.4549
  32   2.0000     -10.334801      -281.2242
  33   2.0000     -10.333444      -281.1873
  34   2.0000     -10.332454      -281.1604
  35   2.0000     -10.332216      -281.1539
  36   2.0000     -10.332067      -281.1498
  37   2.0000     -10.331834      -281.1435
  38   2.0000     -10.331297      -281.1289
  39   2.0000     -10.330828      -281.1161
  40   2.0000     -10.330588      -281.1096
  41   2.0000     -10.328177      -281.0440
  42   2.0000     -10.328025      -281.0398
  43   2.0000     -10.328018      -281.0397
  44   2.0000     -10.327577      -281.0277
  45   2.0000     -10.327377      -281.0222
  46   2.0000     -10.326974      -281.0113
  47   2.0000     -10.326852      -281.0079
  48   2.0000     -10.323348      -280.9126
  49   2.0000     -10.310902      -280.5739
  50   2.0000     -10.307466      -280.4804
  51   2.0000     -10.306606      -280.4570
  52   2.0000     -10.306276      -280.4480
  53   2.0000     -10.305193      -280.4186
  54   2.0000     -10.301405      -280.3155
  55   2.0000     -10.301342      -280.3138
  56   2.0000     -10.301063      -280.3062
  57   2.0000     -10.300714      -280.2967
  58   2.0000     -10.300410      -280.2884
  59   2.0000     -10.300304      -280.2855
  60   2.0000     -10.296454      -280.1807
  61   2.0000     -10.289883      -280.0020
  62   2.0000     -10.289404      -279.9889
  63   2.0000     -10.281564      -279.7756
  64   2.0000     -10.275923      -279.6221
  65   2.0000     -10.274328      -279.5787
  66   2.0000     -10.271922      -279.5132
  67   2.0000      -8.149949      -221.7714
  68   2.0000      -8.088548      -220.1006
  69   2.0000      -8.085311      -220.0125
  70   2.0000      -8.081598      -219.9115
  71   2.0000      -8.079427      -219.8524
  72   2.0000      -6.121083      -166.5631
  73   2.0000      -6.113199      -166.3486
  74   2.0000      -6.112757      -166.3366
  75   2.0000      -6.057717      -164.8389
  76   2.0000      -6.054541      -164.7524
  77   2.0000      -6.053497      -164.7240
  78   2.0000      -6.051101      -164.6588
  79   2.0000      -6.051021      -164.6566
  80   2.0000      -6.050321      -164.6376
  81   2.0000      -6.048995      -164.6015
  82   2.0000      -6.047768      -164.5681
  83   2.0000      -6.046448      -164.5322
  84   2.0000      -6.044185      -164.4706
  85   2.0000      -6.043998      -164.4656
  86   2.0000      -6.041890      -164.4082
  87   2.0000      -1.237534       -33.6750
  88   2.0000      -1.230645       -33.4875
  89   2.0000      -1.156536       -31.4709
  90   2.0000      -1.133350       -30.8400
  91   2.0000      -1.060813       -28.8662
  92   2.0000      -1.045074       -28.4379
  93   2.0000      -1.044332       -28.4177
  94   2.0000      -1.027235       -27.9525
  95   2.0000      -1.022641       -27.8275
  96   2.0000      -1.022589       -27.8261
  97   2.0000      -1.021682       -27.8014
  98   2.0000      -1.019971       -27.7548
  99   2.0000      -1.015383       -27.6300
 100   2.0000      -1.007679       -27.4203
 101   2.0000      -1.007126       -27.4053
 102   2.0000      -1.006548       -27.3896
 103   2.0000      -1.003126       -27.2964
 104   2.0000      -0.995715       -27.0948
 105   2.0000      -0.984852       -26.7992
 106   2.0000      -0.967920       -26.3384
 107   2.0000      -0.958933       -26.0939
 108   2.0000      -0.953031       -25.9333
 109   2.0000      -0.947504       -25.7829
 110   2.0000      -0.922331       -25.0979
 111   2.0000      -0.919987       -25.0341
 112   2.0000      -0.910755       -24.7829
 113   2.0000      -0.893409       -24.3109
 114   2.0000      -0.873353       -23.7652
 115   2.0000      -0.871330       -23.7101
 116   2.0000      -0.864331       -23.5196
 117   2.0000      -0.861108       -23.4319
 118   2.0000      -0.855113       -23.2688
 119   2.0000      -0.852639       -23.2015
 120   2.0000      -0.850901       -23.1542
 121   2.0000      -0.845033       -22.9945
 122   2.0000      -0.839969       -22.8567
 123   2.0000      -0.816770       -22.2255
 124   2.0000      -0.811784       -22.0898
 125   2.0000      -0.787622       -21.4323
 126   2.0000      -0.781872       -21.2758
 127   2.0000      -0.778300       -21.1786
 128   2.0000      -0.765210       -20.8224
 129   2.0000      -0.749966       -20.4076
 130   2.0000      -0.747206       -20.3325
 131   2.0000      -0.735101       -20.0031
 132   2.0000      -0.724688       -19.7198
 133   2.0000      -0.713938       -19.4272
 134   2.0000      -0.710742       -19.3403
 135   2.0000      -0.706727       -19.2310
 136   2.0000      -0.700047       -19.0492
 137   2.0000      -0.698447       -19.0057
 138   2.0000      -0.694379       -18.8950
 139   2.0000      -0.689579       -18.7644
 140   2.0000      -0.681446       -18.5431
 141   2.0000      -0.679795       -18.4982
 142   2.0000      -0.674911       -18.3653
 143   2.0000      -0.666134       -18.1264
 144   2.0000      -0.655116       -17.8266
 145   2.0000      -0.648182       -17.6379
 146   2.0000      -0.638143       -17.3647
 147   2.0000      -0.634170       -17.2566
 148   2.0000      -0.630079       -17.1453
 149   2.0000      -0.625808       -17.0291
 150   2.0000      -0.618772       -16.8376
 151   2.0000      -0.616348       -16.7717
 152   2.0000      -0.613397       -16.6914
 153   2.0000      -0.608342       -16.5538
 154   2.0000      -0.607147       -16.5213
 155   2.0000      -0.600796       -16.3485
 156   2.0000      -0.595551       -16.2058
 157   2.0000      -0.592636       -16.1265
 158   2.0000      -0.580818       -15.8049
 159   2.0000      -0.580721       -15.8022
 160   2.0000      -0.578303       -15.7364
 161   2.0000      -0.572572       -15.5805
 162   2.0000      -0.570098       -15.5131
 163   2.0000      -0.562016       -15.2932
 164   2.0000      -0.555548       -15.1172
 165   2.0000      -0.548433       -14.9236
 166   2.0000      -0.547671       -14.9029
 167   2.0000      -0.545842       -14.8531
 168   2.0000      -0.539548       -14.6819
 169   2.0000      -0.535038       -14.5591
 170   2.0000      -0.528926       -14.3928
 171   2.0000      -0.526465       -14.3258
 172   2.0000      -0.519871       -14.1464
 173   2.0000      -0.516310       -14.0495
 174   2.0000      -0.514798       -14.0084
 175   2.0000      -0.509163       -13.8550
 176   2.0000      -0.505627       -13.7588
 177   2.0000      -0.501968       -13.6592
 178   2.0000      -0.499613       -13.5952
 179   2.0000      -0.498628       -13.5684
 180   2.0000      -0.497844       -13.5470
 181   2.0000      -0.496748       -13.5172
 182   2.0000      -0.495599       -13.4859
 183   2.0000      -0.492442       -13.4000
 184   2.0000      -0.491253       -13.3677
 185   2.0000      -0.485773       -13.2186
 186   2.0000      -0.483692       -13.1619
 187   2.0000      -0.478169       -13.0116
 188   2.0000      -0.476480       -12.9657
 189   2.0000      -0.475361       -12.9352
 190   2.0000      -0.472399       -12.8546
 191   2.0000      -0.462863       -12.5952
 192   2.0000      -0.462541       -12.5864
 193   2.0000      -0.461482       -12.5576
 194   2.0000      -0.461058       -12.5460
 195   2.0000      -0.460056       -12.5188
 196   2.0000      -0.456791       -12.4299
 197   2.0000      -0.455996       -12.4083
 198   2.0000      -0.453777       -12.3479
 199   2.0000      -0.451508       -12.2862
 200   2.0000      -0.450166       -12.2496
 201   2.0000      -0.449678       -12.2364
 202   2.0000      -0.447983       -12.1902
 203   2.0000      -0.446782       -12.1576
 204   2.0000      -0.444417       -12.0932
 205   2.0000      -0.439617       -11.9626
 206   2.0000      -0.439242       -11.9524
 207   2.0000      -0.438897       -11.9430
 208   2.0000      -0.438241       -11.9251
 209   2.0000      -0.436321       -11.8729
 210   2.0000      -0.433272       -11.7899
 211   2.0000      -0.432717       -11.7748
 212   2.0000      -0.431506       -11.7419
 213   2.0000      -0.427490       -11.6326
 214   2.0000      -0.426679       -11.6105
 215   2.0000      -0.425996       -11.5919
 216   2.0000      -0.423737       -11.5305
 217   2.0000      -0.419883       -11.4256
 218   2.0000      -0.416910       -11.3447
 219   2.0000      -0.406931       -11.0732
 220   2.0000      -0.405930       -11.0459
 221   2.0000      -0.403802       -10.9880
 222   2.0000      -0.384858       -10.4725
 223   2.0000      -0.383522       -10.4362
 224   2.0000      -0.374394       -10.1878
 225   2.0000      -0.372294       -10.1306
 226   2.0000      -0.367440        -9.9986
 227   2.0000      -0.361869        -9.8470
 228   2.0000      -0.359974        -9.7954
 229   2.0000      -0.350582        -9.5398
 230   2.0000      -0.348444        -9.4816
 231   2.0000      -0.343213        -9.3393
 232   2.0000      -0.330678        -8.9982
 233   2.0000      -0.324013        -8.8168
 234   2.0000      -0.322139        -8.7659
 235   2.0000      -0.320212        -8.7134
 236   2.0000      -0.315619        -8.5884
 237   2.0000      -0.296320        -8.0633
 238   2.0000      -0.271065        -7.3761
 239   2.0000      -0.240020        -6.5313
 240   0.0000      -0.138194        -3.7605
 241   0.0000      -0.103611        -2.8194
 242   0.0000      -0.100261        -2.7283
 243   0.0000      -0.062257        -1.6941
 244   0.0000      -0.050379        -1.3709

MULLIKEN ATOMIC CHARGES
-----------------------
   0 C :    0.025357
   1 C :    0.024594
   2 C :   -0.047450
   3 C :    0.034206
   4 C :    0.214878
   5 C :   -0.083162
   6 O :   -0.207703
   7 C :    0.119318
   8 N :   -0.044075
   9 C :   -0.120338
  10 C :   -0.031524
  11 C :    0.013302
  12 C :   -0.102314
  13 S :    0.239688
  14 C :   -0.060099
  15 C :    0.038394
  16 C :    0.306793
  17 C :   -0.303365
  18 C :   -0.187539
  19 N :    0.169062
  20 C :   -0.197959
  21 N :    0.187694
  22 C :   -0.070404
  23 C :   -0.170646
  24 S :    0.207771
  25 C :    0.185389
  26 C :   -0.057414
  27 C :   -0.075680
  28 N :    0.050633
  29 C :   -0.122479
  30 C :   -0.095874
  31 N :   -0.018051
  32 C :   -0.235935
  33 N :    0.251887
  34 C :   -0.218667
  35 N :    0.251300
  36 C :    0.211233
  37 C :   -0.028625
  38 C :   -0.002490
  39 N :   -0.278045
  40 S :    0.575928
  41 N :   -0.336104
  42 C :   -0.184179
  43 C :   -0.056518
  44 C :    0.034816
  45 C :   -0.065143
  46 S :    0.205967
  47 C :   -0.104179
  48 C :    0.021806
  49 C :    0.306556
  50 C :   -0.296492
  51 C :   -0.186140
  52 N :    0.168049
  53 C :   -0.193980
  54 N :    0.186344
  55 C :   -0.048416
  56 C :   -0.067663
  57 S :    0.171122
  58 C :    0.149441
  59 C :   -0.052203
  60 C :   -0.033472
  61 C :    0.002933
  62 C :    0.212750
  63 C :   -0.136811
  64 O :   -0.187573
  65 C :    0.179277
  66 N :   -0.070473
  67 H :   -0.006341
  68 H :   -0.009752
  69 H :   -0.017345
  70 H :   -0.013714
  71 H :    0.026459
  72 H :    0.020866
  73 H :    0.022154
  74 H :    0.005124
  75 H :   -0.008262
  76 H :   -0.013990
  77 H :   -0.008568
  78 H :    0.036068
Sum of atomic charges:   -0.0000000

LOEWDIN ATOMIC CHARGES
----------------------
   0 C :   -0.021288
   1 C :   -0.027630
   2 C :   -0.020211
   3 C :   -0.030868
   4 C :    0.030944
   5 C :   -0.042488
   6 O :   -0.017950
   7 C :    0.040776
   8 N :   -0.101577
   9 C :   -0.192436
  10 C :    0.003689
  11 C :   -0.065462
  12 C :   -0.176697
  13 S :    0.506617
  14 C :   -0.178140
  15 C :   -0.073532
  16 C :    0.080208
  17 C :   -0.101443
  18 C :   -0.015069
  19 N :   -0.035741
  20 C :   -0.020277
  21 N :   -0.026933
  22 C :   -0.008917
  23 C :   -0.167665
  24 S :    0.510987
  25 C :   -0.040598
  26 C :   -0.013712
  27 C :   -0.007212
  28 N :    0.010565
  29 C :   -0.022205
  30 C :   -0.019835
  31 N :   -0.020565
  32 C :   -0.038816
  33 N :    0.001915
  34 C :   -0.040685
  35 N :    0.010392
  36 C :   -0.039220
  37 C :   -0.046331
  38 C :   -0.037029
  39 N :   -0.267471
  40 S :    0.693983
  41 N :   -0.302585
  42 C :   -0.169072
  43 C :   -0.005253
  44 C :   -0.075855
  45 C :   -0.172285
  46 S :    0.509699
  47 C :   -0.186972
  48 C :   -0.060016
  49 C :    0.080051
  50 C :   -0.100523
  51 C :   -0.015300
  52 N :   -0.035111
  53 C :   -0.019346
  54 N :   -0.023444
  55 C :   -0.034344
  56 C :   -0.145435
  57 S :    0.479993
  58 C :   -0.038956
  59 C :   -0.033539
  60 C :   -0.010260
  61 C :   -0.033223
  62 C :    0.032031
  63 C :   -0.027319
  64 O :   -0.001613
  65 C :    0.089082
  66 N :   -0.097525
  67 H :    0.030931
  68 H :    0.030106
  69 H :    0.036418
  70 H :    0.036145
  71 H :    0.050414
  72 H :    0.037921
  73 H :    0.037811
  74 H :    0.038588
  75 H :    0.020010
  76 H :    0.039393
  77 H :    0.039506
  78 H :    0.027800

  Mayer bond orders larger than 0.100000
B(  0-C ,  1-C ) :   1.3568 B(  0-C ,  5-C ) :   1.3860 B(  0-C , 67-H ) :   0.9896
B(  1-C ,  2-C ) :   1.3960 B(  1-C , 68-H ) :   0.9871 B(  2-C ,  3-C ) :   1.3080
B(  2-C ,  5-C ) :   0.1056 B(  2-C , 69-H ) :   1.0182 B(  3-C ,  4-C ) :   1.2830
B(  3-C ,  8-N ) :   1.2795 B(  4-C ,  5-C ) :   1.3435 B(  4-C ,  6-O ) :   1.0861
B(  5-C , 70-H ) :   1.0176 B(  6-O ,  7-C ) :   1.1879 B(  7-C ,  8-N ) :   1.7898
B(  7-C ,  9-C ) :   1.0549 B(  9-C , 10-C ) :   1.4822 B(  9-C , 13-S ) :   1.1072
B( 10-C , 11-C ) :   1.2731 B( 10-C , 71-H ) :   1.0074 B( 11-C , 12-C ) :   1.4182
B( 11-C , 16-C ) :   0.9878 B( 12-C , 13-S ) :   1.1298 B( 12-C , 14-C ) :   1.2041
B( 14-C , 15-C ) :   1.4025 B( 14-C , 24-S ) :   1.0864 B( 15-C , 16-C ) :   0.9897
B( 15-C , 22-C ) :   1.2822 B( 16-C , 17-C ) :   1.7146 B( 17-C , 18-C ) :   1.1411
B( 17-C , 20-C ) :   1.1338 B( 18-C , 19-N ) :   2.9847 B( 20-C , 21-N ) :   3.0028
B( 22-C , 23-C ) :   1.4111 B( 22-C , 72-H ) :   0.9830 B( 23-C , 24-S ) :   1.0827
B( 23-C , 25-C ) :   1.2106 B( 25-C , 26-C ) :   1.2498 B( 25-C , 36-C ) :   0.1184
B( 25-C , 38-C ) :   1.2013 B( 26-C , 27-C ) :   1.1023 B( 26-C , 31-N ) :   1.3944
B( 27-C , 28-N ) :   1.4553 B( 27-C , 36-C ) :   1.2508 B( 28-N , 29-C ) :   1.7213
B( 29-C , 30-C ) :   1.2135 B( 29-C , 34-C ) :   1.1588 B( 30-C , 31-N ) :   1.6916
B( 30-C , 32-C ) :   1.1610 B( 32-C , 33-N ) :   3.0408 B( 34-C , 35-N ) :   3.0300
B( 36-C , 37-C ) :   1.1866 B( 36-C , 42-C ) :   1.2051 B( 37-C , 38-C ) :   1.1100
B( 37-C , 41-N ) :   1.4745 B( 38-C , 39-N ) :   1.5141 B( 39-N , 40-S ) :   1.2881
B( 39-N , 41-N ) :   0.1487 B( 40-S , 41-N ) :   1.2699 B( 42-C , 43-C ) :   1.3962
B( 42-C , 46-S ) :   1.0866 B( 43-C , 44-C ) :   1.2874 B( 43-C , 73-H ) :   0.9852
B( 44-C , 45-C ) :   1.3945 B( 44-C , 49-C ) :   0.9904 B( 45-C , 46-S ) :   1.1087
B( 45-C , 47-C ) :   1.1947 B( 47-C , 48-C ) :   1.4390 B( 47-C , 57-S ) :   1.1119
B( 48-C , 49-C ) :   0.9996 B( 48-C , 55-C ) :   1.2721 B( 49-C , 50-C ) :   1.7111
B( 50-C , 51-C ) :   1.1339 B( 50-C , 53-C ) :   1.1342 B( 51-C , 52-N ) :   2.9866
B( 53-C , 54-N ) :   2.9933 B( 55-C , 56-C ) :   1.4894 B( 55-C , 74-H ) :   0.9893
B( 56-C , 57-S ) :   1.1131 B( 56-C , 58-C ) :   1.0729 B( 58-C , 59-C ) :   1.2938
B( 58-C , 63-C ) :   1.3422 B( 59-C , 60-C ) :   1.4161 B( 59-C , 75-H ) :   0.9813
B( 60-C , 61-C ) :   1.3109 B( 60-C , 63-C ) :   0.1044 B( 60-C , 76-H ) :   1.0192
B( 61-C , 62-C ) :   1.2992 B( 61-C , 66-N ) :   1.2990 B( 62-C , 63-C ) :   1.3325
B( 62-C , 64-O ) :   1.1198 B( 63-C , 77-H ) :   1.0185 B( 64-O , 65-C ) :   1.1379
B( 65-C , 66-N ) :   1.7809 B( 65-C , 78-H ) :   0.9842

-----------------------------------------------------------------------------
         ABSORPTION SPECTRUM VIA TRANSITION ELECTRIC DIPOLE MOMENTS
-----------------------------------------------------------------------------
State   Energy  Wavelength   fosc         T2         TX        TY        TZ
        (cm-1)    (nm)                  (au**2)     (au)      (au)      (au)
-----------------------------------------------------------------------------
   0    7260.9   1377.2   0.601589059  27.27618  -4.91132   0.85798  -1.55531
   1   12850.5    778.2   0.011921398   0.30541   0.41993   0.04111   0.35690
   2   13433.1    744.4   0.027520739   0.67447  -0.70025   0.16349  -0.39672
   3   15904.7    628.7   0.004334086   0.08971   0.01258  -0.20949  -0.21370
   4   21400.0    467.3   0.189626586   2.91716  -1.38107   0.16895  -0.99059
   5   22522.1    444.0   0.091731573   1.34086   0.76008   0.09292   0.86863
   6   23028.8    434.2   0.280869541   4.01522  -1.93336   0.44577  -0.28042
   7   23540.3    424.8   0.010747512   0.15030  -0.33672   0.07825  -0.17550
   8   23835.8    419.5   0.021154279   0.29218  -0.49417   0.16291  -0.14640
   9   24332.4    411.0   0.026078274   0.35283   0.44175   0.00849   0.39701
  10   24724.5    404.5   0.046450870   0.61850   0.14689   0.02310   0.77227
  11   25438.8    393.1   0.001332085   0.01724  -0.03265  -0.12306  -0.03209
  12   27321.6    366.0   0.054015648   0.65086   0.52076   0.00974   0.61610
  13   27886.2    358.6   1.900695091  22.43878   4.33892  -0.76036   1.74195
  14   28984.0    345.0   0.123002577   1.39711   1.03276  -0.19779   0.53981
  15   29378.6    340.4   0.022718376   0.25458   0.05450  -0.06302  -0.49763
  16   29498.8    339.0   0.035351406   0.39453   0.12292   0.12861   0.60239
  17   30130.5    331.9   0.044527096   0.48651   0.34147   0.11700   0.59685
  18   30316.1    329.9   0.176833101   1.92029   0.64234   0.05248   1.22676
  19   30515.1    327.7   0.008733632   0.09422   0.26896   0.12094   0.08519
  20   30712.9    325.6   0.028829739   0.30903   0.24350   0.07164   0.49457
  21   31507.8    317.4   0.026882950   0.28089  -0.03413   0.24693   0.46771
  22   31592.0    316.5   0.016891324   0.17602  -0.01681   0.00283   0.41920
  23   31854.4    313.9   0.164642468   1.70156   0.33192  -0.20605  -1.24456
  24   32199.2    310.6   0.086714880   0.88659   0.31409  -0.19134  -0.86679
  25   32333.0    309.3   0.109586961   1.11580  -0.29697   0.43999   0.91325
  26   32551.4    307.2   1.339383722  13.54599  -1.74056   0.65362   3.17635
  27   33511.2    298.4   0.054164942   0.53211  -0.00976  -0.02551  -0.72895
  28   33698.4    296.8   0.270201897   2.63970   0.70546  -0.00804   1.46355
  29   34008.8    294.0   0.218996365   2.11993   0.15617   0.16362   1.43832
  30   34523.0    289.7   0.045464569   0.43355  -0.39907   0.00335  -0.52372
  31   34869.5    286.8   0.056675376   0.53509  -0.67755   0.07626  -0.26496
  32   35061.5    285.2   0.019328748   0.18149  -0.37959   0.19233   0.02019
  33   35803.9    279.3   0.080509222   0.74027   0.83908  -0.11162   0.15415
  34   36138.8    276.7   0.334365906   3.04595  -1.11125   0.12962  -1.33950
  35   36556.0    273.6   0.059010091   0.53143  -0.57063   0.05232  -0.45064
  36   37052.2    269.9   0.015186765   0.13494   0.08722  -0.02458   0.35598
  37   37574.7    266.1   0.009110605   0.07982  -0.23181   0.12213  -0.10571
  38   37702.6    265.2   0.000786709   0.00687   0.04341   0.07060  -0.00125
  39   38175.1    262.0   0.013514388   0.11654  -0.18347  -0.01284  -0.28761
  40   38270.6    261.3   0.002466170   0.02121  -0.09845  -0.02283  -0.10489
  41   38663.1    258.6   0.004977285   0.04238   0.09270   0.01221  -0.18341
  42   38993.6    256.5   0.004374552   0.03693  -0.14543   0.10323  -0.07161
  43   39012.3    256.3   0.267862592   2.26040   0.91123  -0.42520  -1.11771
  44   39423.6    253.7   0.349707633   2.92028  -0.77820  -0.10535  -1.51776
  45   40005.1    250.0   0.002177272   0.01792  -0.00770  -0.10600   0.08138
  46   40233.0    248.6   0.002952974   0.02416  -0.11714  -0.03007   0.09766

FINAL SINGLE POINT ENERGY     -4630.685615496236

DIPOLE MOMENT
-------------
                                X             Y             Z
Electronic contribution:     -7.18828       3.29188      -3.88218
Nuclear contribution   :      6.86512      -3.46991       1.96851
                        -----------------------------------------
Total Dipole Moment    :     -0.32315      -0.17803      -1.91367
                        -----------------------------------------
Magnitude (a.u.)       :      1.94891
Magnitude (Debye)      :      4.95374

Rotational constants in cm-1:     0.002831     0.000287     0.000261
Rotational constants in MHz :    84.881804     8.589544     7.818716

                             ****ORCA TERMINATED NORMALLY****
TOTAL RUN TIME: 0 days 0 hours 7 minutes 19 seconds 578 msec
