                         Program Version 4.2.0 -  RELEASE  -
|  1> # ORCA input file
|  2> # SCF done       -209.086429387724          0.000590004115
|  3> ! CAM-B3LYP def2-SVP def2/J RIJCOSX Grid4 TightSCF
|  4> %maxcore 5000
|  5> %tddft
|  6>     Mode sTDDFT
|  7>     Ethresh 5.0
|  8>     maxcore 5000
|  9> end
| 10>
| 11> %pal
| 12>   nprocs 6
| 13>   end
| 14> * xyz 0 1
| 15>    C       -4.64196         1.57080        -5.23213
| 16>    C       -3.29372         1.30220        -5.23990
| 17>    C       -2.60851         0.72566        -6.32742
| 18>    N       -1.99651         0.25339        -7.17702
| 19>    C       -2.40722         1.58077        -4.18103
| 20>    N       -1.61911         1.78829        -3.37042
| 21>    C       -5.55414         1.35251        -6.35100
| 22>    C       -6.83647         1.82873        -5.98605
| 23>    C       -7.91746         1.76568        -6.82970
| 24>    C       -7.72303         1.21142        -8.10005
| 25>    C       -6.43899         0.73730        -8.45537
| 26>    C       -5.34577         0.79695        -7.59887
| 27>    S       -6.42117         0.08723       -10.06730
| 28>    C       -8.11569         0.45966       -10.23963
| 29>    C       -8.66859         1.03927        -9.14804
| 30>   Br       -8.99504         0.04792       -11.84475
| 31>    C       -6.78795         2.35988        -4.60665
| 32>    O       -7.73640         2.77693        -3.97097
| 33>    C       -5.39204         2.18427        -4.16247
| 34>    C       -4.93745         2.41188        -2.88392
| 35>    C       -5.59884         3.10259        -1.85966
| 36>    C       -6.43981         4.18919        -2.04045
| 37>    C       -7.16821         4.60523        -0.86297
| 38>    O       -8.06510         5.61014        -0.94219
| 39>    C       -8.47500         5.89478        -2.26787
| 40>    C       -7.24929         6.07151        -3.15320
| 41>    O       -6.49524         4.87338        -3.18529
| 42>    C       -6.83256         3.95606         0.30702
| 43>   Si       -5.38009         2.80835        -0.01052
| 44>    C       -5.70284         1.04267         0.51437
| 45>    C       -3.68022         3.44858         0.45018
| 46>    C       -7.53378         4.09633         1.53758
| 47>    C       -8.91783         4.36769         1.64757
| 48>    C       -9.54401         4.60170         2.92753
| 49>    N      -10.85055         4.86897         2.98702
| 50>    C      -11.56490         4.89138         1.88469
| 51>    C      -10.95185         4.58856         0.62591
| 52>    N       -9.67271         4.32659         0.54396
| 53>    C      -11.72315         4.56626        -0.56292
| 54>    N      -12.35244         4.58382        -1.52003
| 55>    C      -12.95205         5.16160         1.92933
| 56>    N      -14.07930         5.36819         1.89451
| 57>    C       -8.83492         4.55612         4.15772
| 58>    C       -7.50154         4.08703         4.05334
| 59>    C       -6.87939         3.86087         2.76733
| 60>    N       -5.63612         3.40049         2.88992
| 61>    S       -5.29409         3.23438         4.45419
| 62>    N       -6.68550         3.75199         5.04981
| 63>    C       -9.54386         4.90042         5.33206
| 64>    C       -8.98299         5.18413         6.56238
| 65>    C       -9.91843         5.34692         7.64531
| 66>    O       -9.51906         5.74348         8.87036
| 67>    C       -8.18174         6.20531         8.95298
| 68>    C       -7.26780         5.31636         8.11983
| 69>    O       -7.66430         5.35323         6.76366
| 70>    C      -11.24743         5.13012         7.32940
| 71>   Si      -11.41855         4.97283         5.44305
| 72>    C      -12.22551         6.58604         4.91314
| 73>    C      -12.35166         3.38134         5.12522
| 74>    C      -12.32360         5.15224         8.22361
| 75>    C      -12.41225         4.97767         9.58557
| 76>    C      -11.49195         4.53348        10.58925
| 77>    C      -10.38704         3.73106        10.40628
| 78>    C       -9.45543         3.41938        11.41223
| 79>    N       -8.62424         3.17591        12.16782
| 80>    C      -10.08239         3.09324         9.19357
| 81>    N       -9.79340         2.55162         8.22171
| 82>    C      -12.02473         4.93628        11.89027
| 83>    C      -13.33532         5.44204        11.70573
| 84>    C      -13.65415         5.43037        10.26244
| 85>    O      -14.69352         5.75722         9.73327
| 86>    C      -14.11852         5.86457        12.75059
| 87>    C      -13.57816         5.79657        14.04021
| 88>    C      -12.26514         5.30114        14.21297
| 89>    C      -11.47615         4.86239        13.15499
| 90>    S      -11.79303         5.31258        15.88537
| 91>    C      -13.34733         5.97069        16.32393
| 92>    C      -14.17739         6.17300        15.27384
| 93>   Br      -13.72454         6.33040        18.12611
| 94>    H       -8.88389         2.13358        -6.52222
| 95>    H       -4.38881         0.41641        -7.91450
| 96>    H       -9.70030         1.33302        -9.08210
| 97>    H       -4.01159         1.93420        -2.58905
| 98>    H       -9.08654         5.06742        -2.64899
| 99>    H       -9.07013         6.80704        -2.21902
|100>    H       -6.62049         6.88453        -2.76455
|101>    H       -7.52852         6.28583        -4.18592
|102>    H       -6.66006         0.67444         0.14809
|103>    H       -5.71103         0.94197         1.59698
|104>    H       -4.93632         0.36677         0.14046
|105>    H       -3.45566         3.28220         1.49965
|106>    H       -3.57817         4.51601         0.26271
|107>    H       -2.90670         2.95028        -0.13196
|108>    H       -8.13224         7.23939         8.58715
|109>    H       -7.91249         6.17732        10.01035
|110>    H       -7.31707         4.28304         8.48675
|111>    H       -6.23604         5.66799         8.14888
|112>    H      -11.52047         7.27612         4.45450
|113>    H      -12.67537         7.10435         5.75714
|114>    H      -13.01904         6.41819         4.19030
|115>    H      -11.80173         2.51883         5.49894
|116>    H      -12.56734         3.20171         4.07601
|117>    H      -13.30922         3.39078         5.64236
|118>    H      -13.28429         5.37543         7.76584
|119>    H      -15.11729         6.23536        12.58163
|120>    H      -10.48091         4.49170        13.33711
|121>    H      -15.17158         6.57140        15.36255
|122> *
|123>
|124>                          ****END OF INPUT****

CARTESIAN COORDINATES (ANGSTROEM)
---------------------------------
  C     -4.641960    1.570800   -5.232130
  C     -3.293720    1.302200   -5.239900
  C     -2.608510    0.725660   -6.327420
  N     -1.996510    0.253390   -7.177020
  C     -2.407220    1.580770   -4.181030
  N     -1.619110    1.788290   -3.370420
  C     -5.554140    1.352510   -6.351000
  C     -6.836470    1.828730   -5.986050
  C     -7.917460    1.765680   -6.829700
  C     -7.723030    1.211420   -8.100050
  C     -6.438990    0.737300   -8.455370
  C     -5.345770    0.796950   -7.598870
  S     -6.421170    0.087230  -10.067300
  C     -8.115690    0.459660  -10.239630
  C     -8.668590    1.039270   -9.148040
  Br    -8.995040    0.047920  -11.844750
  C     -6.787950    2.359880   -4.606650
  O     -7.736400    2.776930   -3.970970
  C     -5.392040    2.184270   -4.162470
  C     -4.937450    2.411880   -2.883920
  C     -5.598840    3.102590   -1.859660
  C     -6.439810    4.189190   -2.040450
  C     -7.168210    4.605230   -0.862970
  O     -8.065100    5.610140   -0.942190
  C     -8.475000    5.894780   -2.267870
  C     -7.249290    6.071510   -3.153200
  O     -6.495240    4.873380   -3.185290
  C     -6.832560    3.956060    0.307020
  Si    -5.380090    2.808350   -0.010520
  C     -5.702840    1.042670    0.514370
  C     -3.680220    3.448580    0.450180
  C     -7.533780    4.096330    1.537580
  C     -8.917830    4.367690    1.647570
  C     -9.544010    4.601700    2.927530
  N    -10.850550    4.868970    2.987020
  C    -11.564900    4.891380    1.884690
  C    -10.951850    4.588560    0.625910
  N     -9.672710    4.326590    0.543960
  C    -11.723150    4.566260   -0.562920
  N    -12.352440    4.583820   -1.520030
  C    -12.952050    5.161600    1.929330
  N    -14.079300    5.368190    1.894510
  C     -8.834920    4.556120    4.157720
  C     -7.501540    4.087030    4.053340
  C     -6.879390    3.860870    2.767330
  N     -5.636120    3.400490    2.889920
  S     -5.294090    3.234380    4.454190
  N     -6.685500    3.751990    5.049810
  C     -9.543860    4.900420    5.332060
  C     -8.982990    5.184130    6.562380
  C     -9.918430    5.346920    7.645310
  O     -9.519060    5.743480    8.870360
  C     -8.181740    6.205310    8.952980
  C     -7.267800    5.316360    8.119830
  O     -7.664300    5.353230    6.763660
  C    -11.247430    5.130120    7.329400
  Si   -11.418550    4.972830    5.443050
  C    -12.225510    6.586040    4.913140
  C    -12.351660    3.381340    5.125220
  C    -12.323600    5.152240    8.223610
  C    -12.412250    4.977670    9.585570
  C    -11.491950    4.533480   10.589250
  C    -10.387040    3.731060   10.406280
  C     -9.455430    3.419380   11.412230
  N     -8.624240    3.175910   12.167820
  C    -10.082390    3.093240    9.193570
  N     -9.793400    2.551620    8.221710
  C    -12.024730    4.936280   11.890270
  C    -13.335320    5.442040   11.705730
  C    -13.654150    5.430370   10.262440
  O    -14.693520    5.757220    9.733270
  C    -14.118520    5.864570   12.750590
  C    -13.578160    5.796570   14.040210
  C    -12.265140    5.301140   14.212970
  C    -11.476150    4.862390   13.154990
  S    -11.793030    5.312580   15.885370
  C    -13.347330    5.970690   16.323930
  C    -14.177390    6.173000   15.273840
  Br   -13.724540    6.330400   18.126110
  H     -8.883890    2.133580   -6.522220
  H     -4.388810    0.416410   -7.914500
  H     -9.700300    1.333020   -9.082100
  H     -4.011590    1.934200   -2.589050
  H     -9.086540    5.067420   -2.648990
  H     -9.070130    6.807040   -2.219020
  H     -6.620490    6.884530   -2.764550
  H     -7.528520    6.285830   -4.185920
  H     -6.660060    0.674440    0.148090
  H     -5.711030    0.941970    1.596980
  H     -4.936320    0.366770    0.140460
  H     -3.455660    3.282200    1.499650
  H     -3.578170    4.516010    0.262710
  H     -2.906700    2.950280   -0.131960
  H     -8.132240    7.239390    8.587150
  H     -7.912490    6.177320   10.010350
  H     -7.317070    4.283040    8.486750
  H     -6.236040    5.667990    8.148880
  H    -11.520470    7.276120    4.454500
  H    -12.675370    7.104350    5.757140
  H    -13.019040    6.418190    4.190300
  H    -11.801730    2.518830    5.498940
  H    -12.567340    3.201710    4.076010
  H    -13.309220    3.390780    5.642360
  H    -13.284290    5.375430    7.765840
  H    -15.117290    6.235360   12.581630
  H    -10.480910    4.491700   13.337110
  H    -15.171580    6.571400   15.362550

 Total Charge           Charge          ....    0
 Multiplicity           Mult            ....    1
 Number of Electrons    NEL             ....  628
 Basis Dimension        Dim             .... 1302

ORBITAL ENERGIES
----------------

  NO   OCC          E(Eh)            E(eV)
   0   2.0000    -482.883563    -13139.9298
   1   2.0000    -482.880178    -13139.8377
   2   2.0000     -89.048716     -2423.1387
   3   2.0000     -88.972774     -2421.0723
   4   2.0000     -88.968334     -2420.9515
   5   2.0000     -66.202198     -1801.4534
   6   2.0000     -66.199145     -1801.3703
   7   2.0000     -62.561246     -1702.3780
   8   2.0000     -62.557892     -1702.2868
   9   2.0000     -56.395194     -1534.5913
  10   2.0000     -56.392488     -1534.5176
  11   2.0000     -56.392451     -1534.5166
  12   2.0000     -56.391834     -1534.4998
  13   2.0000     -56.389133     -1534.4263
  14   2.0000     -56.389099     -1534.4254
  15   2.0000     -19.291353      -524.9444
  16   2.0000     -19.281357      -524.6724
  17   2.0000     -19.279440      -524.6202
  18   2.0000     -19.274558      -524.4874
  19   2.0000     -19.209504      -522.7172
  20   2.0000     -19.204211      -522.5731
  21   2.0000     -14.479301      -394.0018
  22   2.0000     -14.462775      -393.5521
  23   2.0000     -14.457388      -393.4055
  24   2.0000     -14.456662      -393.3858
  25   2.0000     -14.440333      -392.9414
  26   2.0000     -14.434928      -392.7944
  27   2.0000     -14.416222      -392.2853
  28   2.0000     -14.415696      -392.2710
  29   2.0000     -14.405701      -391.9991
  30   2.0000     -14.403934      -391.9510
  31   2.0000     -10.388951      -282.6977
  32   2.0000     -10.384341      -282.5723
  33   2.0000     -10.370936      -282.2075
  34   2.0000     -10.370859      -282.2054
  35   2.0000     -10.370616      -282.1988
  36   2.0000     -10.364661      -282.0368
  37   2.0000     -10.358991      -281.8825
  38   2.0000     -10.358727      -281.8753
  39   2.0000     -10.355555      -281.7890
  40   2.0000     -10.354658      -281.7646
  41   2.0000     -10.353385      -281.7299
  42   2.0000     -10.352186      -281.6973
  43   2.0000     -10.351757      -281.6856
  44   2.0000     -10.351479      -281.6781
  45   2.0000     -10.348558      -281.5986
  46   2.0000     -10.347474      -281.5691
  47   2.0000     -10.345705      -281.5210
  48   2.0000     -10.345232      -281.5081
  49   2.0000     -10.335307      -281.2380
  50   2.0000     -10.333907      -281.1999
  51   2.0000     -10.332501      -281.1617
  52   2.0000     -10.329101      -281.0691
  53   2.0000     -10.328803      -281.0610
  54   2.0000     -10.327998      -281.0391
  55   2.0000     -10.323767      -280.9240
  56   2.0000     -10.322170      -280.8805
  57   2.0000     -10.319587      -280.8102
  58   2.0000     -10.318628      -280.7841
  59   2.0000     -10.316817      -280.7349
  60   2.0000     -10.315797      -280.7071
  61   2.0000     -10.309689      -280.5409
  62   2.0000     -10.307790      -280.4892
  63   2.0000     -10.306498      -280.4541
  64   2.0000     -10.304508      -280.3999
  65   2.0000     -10.303563      -280.3742
  66   2.0000     -10.302947      -280.3574
  67   2.0000     -10.301238      -280.3109
  68   2.0000     -10.299317      -280.2587
  69   2.0000     -10.297720      -280.2152
  70   2.0000     -10.297404      -280.2066
  71   2.0000     -10.296566      -280.1838
  72   2.0000     -10.293876      -280.1106
  73   2.0000     -10.291929      -280.0576
  74   2.0000     -10.290141      -280.0090
  75   2.0000     -10.287708      -279.9428
  76   2.0000     -10.286990      -279.9232
  77   2.0000     -10.282097      -279.7901
  78   2.0000     -10.280080      -279.7352
  79   2.0000     -10.277287      -279.6592
  80   2.0000     -10.275508      -279.6108
  81   2.0000     -10.265286      -279.3326
  82   2.0000     -10.261582      -279.2318
  83   2.0000     -10.250089      -278.9191
  84   2.0000     -10.246837      -278.8306
  85   2.0000     -10.246096      -278.8104
  86   2.0000     -10.245589      -278.7966
  87   2.0000      -8.790644      -239.2056
  88   2.0000      -8.787314      -239.1150
  89   2.0000      -8.139918      -221.4984
  90   2.0000      -8.068775      -219.5625
  91   2.0000      -8.064355      -219.4423
  92   2.0000      -6.626915      -180.3275
  93   2.0000      -6.623582      -180.2368
  94   2.0000      -6.612387      -179.9322
  95   2.0000      -6.612201      -179.9271
  96   2.0000      -6.609070      -179.8419
  97   2.0000      -6.608869      -179.8365
  98   2.0000      -6.110927      -166.2868
  99   2.0000      -6.103235      -166.0775
 100   2.0000      -6.102784      -166.0652
 101   2.0000      -6.038477      -164.3153
 102   2.0000      -6.034197      -164.1989
 103   2.0000      -6.034057      -164.1950
 104   2.0000      -6.029996      -164.0845
 105   2.0000      -6.029779      -164.0786
 106   2.0000      -6.025555      -163.9637
 107   2.0000      -5.365720      -146.0087
 108   2.0000      -5.364676      -145.9803
 109   2.0000      -3.730021      -101.4990
 110   2.0000      -3.728709      -101.4633
 111   2.0000      -3.727750      -101.4372
 112   2.0000      -3.726613      -101.4063
 113   2.0000      -3.726450      -101.4019
 114   2.0000      -3.725437      -101.3743
 115   2.0000      -2.742822       -74.6360
 116   2.0000      -2.739455       -74.5444
 117   2.0000      -2.738678       -74.5232
 118   2.0000      -2.738585       -74.5207
 119   2.0000      -2.735356       -74.4328
 120   2.0000      -2.735272       -74.4305
 121   2.0000      -2.727017       -74.2059
 122   2.0000      -2.727015       -74.2059
 123   2.0000      -2.723708       -74.1159
 124   2.0000      -2.723689       -74.1153
 125   2.0000      -1.214995       -33.0617
 126   2.0000      -1.208950       -32.8972
 127   2.0000      -1.175291       -31.9813
 128   2.0000      -1.169024       -31.8108
 129   2.0000      -1.146023       -31.1849
 130   2.0000      -1.128771       -30.7154
 131   2.0000      -1.123734       -30.5784
 132   2.0000      -1.116983       -30.3947
 133   2.0000      -1.055642       -28.7255
 134   2.0000      -1.022785       -27.8314
 135   2.0000      -1.019590       -27.7444
 136   2.0000      -1.013625       -27.5821
 137   2.0000      -1.012046       -27.5392
 138   2.0000      -1.011428       -27.5224
 139   2.0000      -1.003769       -27.3139
 140   2.0000      -1.000424       -27.2229
 141   2.0000      -0.995579       -27.0911
 142   2.0000      -0.985332       -26.8122
 143   2.0000      -0.983796       -26.7704
 144   2.0000      -0.983039       -26.7498
 145   2.0000      -0.979057       -26.6415
 146   2.0000      -0.952181       -25.9102
 147   2.0000      -0.946725       -25.7617
 148   2.0000      -0.937179       -25.5019
 149   2.0000      -0.932610       -25.3776
 150   2.0000      -0.913086       -24.8463
 151   2.0000      -0.905348       -24.6358
 152   2.0000      -0.904999       -24.6263
 153   2.0000      -0.899466       -24.4757
 154   2.0000      -0.892989       -24.2995
 155   2.0000      -0.886349       -24.1188
 156   2.0000      -0.882249       -24.0072
 157   2.0000      -0.877224       -23.8705
 158   2.0000      -0.865596       -23.5541
 159   2.0000      -0.862439       -23.4682
 160   2.0000      -0.860122       -23.4051
 161   2.0000      -0.849394       -23.1132
 162   2.0000      -0.838284       -22.8109
 163   2.0000      -0.827408       -22.5149
 164   2.0000      -0.824119       -22.4254
 165   2.0000      -0.821456       -22.3530
 166   2.0000      -0.818870       -22.2826
 167   2.0000      -0.803618       -21.8676
 168   2.0000      -0.797129       -21.6910
 169   2.0000      -0.794582       -21.6217
 170   2.0000      -0.779036       -21.1986
 171   2.0000      -0.776327       -21.1249
 172   2.0000      -0.774145       -21.0656
 173   2.0000      -0.767734       -20.8911
 174   2.0000      -0.766775       -20.8650
 175   2.0000      -0.755676       -20.5630
 176   2.0000      -0.748382       -20.3645
 177   2.0000      -0.740000       -20.1364
 178   2.0000      -0.730661       -19.8823
 179   2.0000      -0.725554       -19.7433
 180   2.0000      -0.722386       -19.6571
 181   2.0000      -0.707061       -19.2401
 182   2.0000      -0.699768       -19.0417
 183   2.0000      -0.699279       -19.0283
 184   2.0000      -0.689124       -18.7520
 185   2.0000      -0.684764       -18.6334
 186   2.0000      -0.680082       -18.5060
 187   2.0000      -0.677634       -18.4394
 188   2.0000      -0.667208       -18.1556
 189   2.0000      -0.664784       -18.0897
 190   2.0000      -0.661365       -17.9966
 191   2.0000      -0.658205       -17.9107
 192   2.0000      -0.654706       -17.8155
 193   2.0000      -0.650110       -17.6904
 194   2.0000      -0.648789       -17.6545
 195   2.0000      -0.643091       -17.4994
 196   2.0000      -0.637088       -17.3360
 197   2.0000      -0.632298       -17.2057
 198   2.0000      -0.620809       -16.8931
 199   2.0000      -0.618185       -16.8217
 200   2.0000      -0.616695       -16.7811
 201   2.0000      -0.609857       -16.5951
 202   2.0000      -0.606508       -16.5039
 203   2.0000      -0.592933       -16.1345
 204   2.0000      -0.590674       -16.0731
 205   2.0000      -0.586936       -15.9713
 206   2.0000      -0.585731       -15.9386
 207   2.0000      -0.582767       -15.8579
 208   2.0000      -0.576563       -15.6891
 209   2.0000      -0.569183       -15.4883
 210   2.0000      -0.566626       -15.4187
 211   2.0000      -0.563470       -15.3328
 212   2.0000      -0.562422       -15.3043
 213   2.0000      -0.560588       -15.2544
 214   2.0000      -0.552958       -15.0468
 215   2.0000      -0.550220       -14.9723
 216   2.0000      -0.547267       -14.8919
 217   2.0000      -0.544984       -14.8298
 218   2.0000      -0.542524       -14.7628
 219   2.0000      -0.538510       -14.6536
 220   2.0000      -0.534591       -14.5470
 221   2.0000      -0.531127       -14.4527
 222   2.0000      -0.529760       -14.4155
 223   2.0000      -0.528565       -14.3830
 224   2.0000      -0.527133       -14.3440
 225   2.0000      -0.523643       -14.2490
 226   2.0000      -0.520783       -14.1712
 227   2.0000      -0.516037       -14.0421
 228   2.0000      -0.515087       -14.0162
 229   2.0000      -0.513520       -13.9736
 230   2.0000      -0.511070       -13.9069
 231   2.0000      -0.510364       -13.8877
 232   2.0000      -0.508167       -13.8279
 233   2.0000      -0.501460       -13.6454
 234   2.0000      -0.500370       -13.6158
 235   2.0000      -0.499436       -13.5903
 236   2.0000      -0.497764       -13.5448
 237   2.0000      -0.495391       -13.4803
 238   2.0000      -0.493668       -13.4334
 239   2.0000      -0.492587       -13.4040
 240   2.0000      -0.490780       -13.3548
 241   2.0000      -0.489493       -13.3198
 242   2.0000      -0.488899       -13.3036
 243   2.0000      -0.488145       -13.2831
 244   2.0000      -0.486133       -13.2284
 245   2.0000      -0.484073       -13.1723
 246   2.0000      -0.481771       -13.1097
 247   2.0000      -0.479988       -13.0611
 248   2.0000      -0.479100       -13.0370
 249   2.0000      -0.471389       -12.8272
 250   2.0000      -0.469501       -12.7758
 251   2.0000      -0.468044       -12.7361
 252   2.0000      -0.466549       -12.6954
 253   2.0000      -0.466347       -12.6900
 254   2.0000      -0.465009       -12.6535
 255   2.0000      -0.464244       -12.6327
 256   2.0000      -0.460400       -12.5281
 257   2.0000      -0.455601       -12.3975
 258   2.0000      -0.452092       -12.3020
 259   2.0000      -0.451604       -12.2888
 260   2.0000      -0.451062       -12.2740
 261   2.0000      -0.450194       -12.2504
 262   2.0000      -0.445507       -12.1229
 263   2.0000      -0.443446       -12.0668
 264   2.0000      -0.441532       -12.0147
 265   2.0000      -0.440355       -11.9827
 266   2.0000      -0.439950       -11.9717
 267   2.0000      -0.438115       -11.9217
 268   2.0000      -0.437248       -11.8981
 269   2.0000      -0.434964       -11.8360
 270   2.0000      -0.433205       -11.7881
 271   2.0000      -0.431550       -11.7431
 272   2.0000      -0.430175       -11.7057
 273   2.0000      -0.428422       -11.6580
 274   2.0000      -0.426023       -11.5927
 275   2.0000      -0.423772       -11.5314
 276   2.0000      -0.422774       -11.5043
 277   2.0000      -0.419017       -11.4020
 278   2.0000      -0.417319       -11.3558
 279   2.0000      -0.416763       -11.3407
 280   2.0000      -0.413892       -11.2626
 281   2.0000      -0.411458       -11.1963
 282   2.0000      -0.409016       -11.1299
 283   2.0000      -0.407767       -11.0959
 284   2.0000      -0.402777       -10.9601
 285   2.0000      -0.400391       -10.8952
 286   2.0000      -0.399906       -10.8820
 287   2.0000      -0.398679       -10.8486
 288   2.0000      -0.397159       -10.8072
 289   2.0000      -0.395245       -10.7552
 290   2.0000      -0.389124       -10.5886
 291   2.0000      -0.386413       -10.5148
 292   2.0000      -0.381547       -10.3824
 293   2.0000      -0.380230       -10.3466
 294   2.0000      -0.377298       -10.2668
 295   2.0000      -0.373022       -10.1504
 296   2.0000      -0.371762       -10.1162
 297   2.0000      -0.369710       -10.0603
 298   2.0000      -0.363691        -9.8965
 299   2.0000      -0.356700        -9.7063
 300   2.0000      -0.352981        -9.6051
 301   2.0000      -0.350756        -9.5446
 302   2.0000      -0.344858        -9.3841
 303   2.0000      -0.343604        -9.3499
 304   2.0000      -0.333040        -9.0625
 305   2.0000      -0.326509        -8.8848
 306   2.0000      -0.325140        -8.8475
 307   2.0000      -0.311643        -8.4802
 308   2.0000      -0.307264        -8.3611
 309   2.0000      -0.304506        -8.2860
 310   2.0000      -0.289491        -7.8775
 311   2.0000      -0.286739        -7.8026
 312   2.0000      -0.273946        -7.4544
 313   2.0000      -0.238547        -6.4912
 314   0.0000      -0.131503        -3.5784
 315   0.0000      -0.081571        -2.2197
 316   0.0000      -0.079781        -2.1710
 317   0.0000      -0.060543        -1.6475
 318   0.0000      -0.057181        -1.5560

MULLIKEN ATOMIC CHARGES
-----------------------
   0 C :    0.309544
   1 C :   -0.360339
   2 C :   -0.185221
   3 N :    0.141566
   4 C :   -0.200075
   5 N :    0.144008
   6 C :    0.013754
   7 C :   -0.010603
   8 C :   -0.083144
   9 C :    0.120736
  10 C :   -0.089963
  11 C :   -0.027261
  12 S :    0.181007
  13 C :   -0.124107
  14 C :    0.036443
  15 Br:    0.017487
  16 C :    0.141075
  17 O :   -0.170890
  18 C :   -0.081685
  19 C :   -0.001780
  20 C :   -0.219513
  21 C :    0.172816
  22 C :    0.143472
  23 O :   -0.281987
  24 C :    0.159222
  25 C :    0.188983
  26 O :   -0.253129
  27 C :   -0.307671
  28 Si:    0.491243
  29 C :   -0.177137
  30 C :   -0.151734
  31 C :    0.151532
  32 C :   -0.102764
  33 C :    0.000644
  34 N :   -0.038023
  35 C :   -0.058953
  36 C :   -0.165938
  37 N :    0.086176
  38 C :   -0.220716
  39 N :    0.237380
  40 C :   -0.239524
  41 N :    0.229974
  42 C :    0.181974
  43 C :   -0.031353
  44 C :    0.034956
  45 N :   -0.322247
  46 S :    0.539960
  47 N :   -0.253653
  48 C :   -0.307483
  49 C :    0.166289
  50 C :    0.092459
  51 O :   -0.272165
  52 C :    0.176589
  53 C :    0.176879
  54 O :   -0.262624
  55 C :   -0.196246
  56 Si:    0.490383
  57 C :   -0.153930
  58 C :   -0.147043
  59 C :    0.029123
  60 C :   -0.105619
  61 C :    0.306593
  62 C :   -0.351270
  63 C :   -0.186919
  64 N :    0.132064
  65 C :   -0.197022
  66 N :    0.149860
  67 C :    0.008635
  68 C :   -0.000948
  69 C :    0.130029
  70 O :   -0.147758
  71 C :   -0.070236
  72 C :    0.108250
  73 C :   -0.087377
  74 C :   -0.032349
  75 S :    0.177902
  76 C :   -0.126854
  77 C :    0.043939
  78 Br:    0.018310
  79 H :   -0.016924
  80 H :   -0.008400
  81 H :   -0.006060
  82 H :    0.020827
  83 H :    0.062395
  84 H :    0.039626
  85 H :    0.036308
  86 H :    0.043734
  87 H :    0.053289
  88 H :    0.036453
  89 H :    0.047722
  90 H :    0.033253
  91 H :    0.043715
  92 H :    0.051738
  93 H :    0.040478
  94 H :    0.051296
  95 H :    0.052129
  96 H :    0.037966
  97 H :    0.038496
  98 H :    0.039335
  99 H :    0.047809
 100 H :    0.062913
 101 H :    0.025251
 102 H :    0.047204
 103 H :    0.022535
 104 H :   -0.012250
 105 H :   -0.011737
 106 H :   -0.005104
Sum of atomic charges:   -0.0000000

LOEWDIN ATOMIC CHARGES
----------------------
   0 C :    0.077479
   1 C :   -0.153545
   2 C :   -0.019003
   3 N :   -0.064258
   4 C :   -0.020583
   5 N :   -0.066529
   6 C :   -0.021381
   7 C :   -0.047259
   8 C :    0.015109
   9 C :   -0.034780
  10 C :   -0.146650
  11 C :   -0.011583
  12 S :    0.428301
  13 C :   -0.273773
  14 C :   -0.071378
  15 Br:    0.132042
  16 C :    0.079151
  17 O :   -0.162146
  18 C :   -0.109896
  19 C :    0.062860
  20 C :   -0.211928
  21 C :    0.077123
  22 C :    0.047757
  23 O :   -0.074723
  24 C :    0.074077
  25 C :    0.077798
  26 O :   -0.042753
  27 C :   -0.183092
  28 Si:    0.673868
  29 C :   -0.243978
  30 C :   -0.236079
  31 C :   -0.031896
  32 C :   -0.010822
  33 C :   -0.003660
  34 N :    0.016120
  35 C :   -0.028421
  36 C :   -0.034070
  37 N :    0.020079
  38 C :   -0.036073
  39 N :   -0.012301
  40 C :   -0.039024
  41 N :   -0.004556
  42 C :   -0.012901
  43 C :   -0.046932
  44 C :   -0.036375
  45 N :   -0.280741
  46 S :    0.668539
  47 N :   -0.257084
  48 C :   -0.190883
  49 C :    0.060323
  50 C :    0.051551
  51 O :   -0.051322
  52 C :    0.076104
  53 C :    0.075723
  54 O :   -0.056802
  55 C :   -0.190212
  56 Si:    0.658309
  57 C :   -0.242103
  58 C :   -0.240359
  59 C :    0.054655
  60 C :   -0.096199
  61 C :    0.068253
  62 C :   -0.153790
  63 C :   -0.023113
  64 N :   -0.070685
  65 C :   -0.012752
  66 N :   -0.069511
  67 C :   -0.015517
  68 C :   -0.053846
  69 C :    0.082984
  70 O :   -0.146488
  71 C :    0.022375
  72 C :   -0.037571
  73 C :   -0.144181
  74 C :   -0.019909
  75 S :    0.426633
  76 C :   -0.274756
  77 C :   -0.069487
  78 Br:    0.132632
  79 H :    0.038049
  80 H :    0.040229
  81 H :    0.037774
  82 H :    0.039511
  83 H :    0.034728
  84 H :    0.036021
  85 H :    0.025768
  86 H :    0.038381
  87 H :    0.041679
  88 H :    0.033384
  89 H :    0.040086
  90 H :    0.027738
  91 H :    0.038763
  92 H :    0.040278
  93 H :    0.027333
  94 H :    0.039418
  95 H :    0.032202
  96 H :    0.036637
  97 H :    0.036257
  98 H :    0.035218
  99 H :    0.037128
 100 H :    0.046570
 101 H :    0.027852
 102 H :    0.040856
 103 H :    0.040742
 104 H :    0.040451
 105 H :    0.038411
 106 H :    0.038349

  Mayer bond orders larger than 0.100000
B(  0-C ,  1-C ) :   1.6053 B(  0-C ,  6-C ) :   0.9934 B(  0-C , 18-C ) :   1.1062
B(  1-C ,  2-C ) :   1.1462 B(  1-C ,  4-C ) :   1.1485 B(  2-C ,  3-N ) :   2.9665
B(  4-C ,  5-N ) :   2.9860 B(  6-C ,  7-C ) :   1.2778 B(  6-C , 11-C ) :   1.4157
B(  7-C ,  8-C ) :   1.4286 B(  7-C , 16-C ) :   0.9380 B(  8-C ,  9-C ) :   1.2392
B(  8-C , 79-H ) :   1.0170 B(  9-C , 10-C ) :   1.3142 B(  9-C , 14-C ) :   1.1601
B( 10-C , 11-C ) :   1.3234 B( 10-C , 12-S ) :   1.0823 B( 11-C , 80-H ) :   0.9802
B( 12-S , 13-C ) :   1.0872 B( 13-C , 14-C ) :   1.6192 B( 13-C , 15-Br) :   1.0152
B( 14-C , 81-H ) :   1.0006 B( 16-C , 17-O ) :   2.1783 B( 16-C , 18-C ) :   0.9782
B( 18-C , 19-C ) :   1.5009 B( 19-C , 20-C ) :   1.2501 B( 19-C , 82-H ) :   0.9321
B( 20-C , 21-C ) :   1.5455 B( 20-C , 28-Si) :   0.8426 B( 21-C , 22-C ) :   1.0344
B( 21-C , 26-O ) :   1.2205 B( 22-C , 23-O ) :   1.1763 B( 22-C , 27-C ) :   1.6151
B( 23-O , 24-C ) :   0.9271 B( 24-C , 25-C ) :   1.0824 B( 24-C , 83-H ) :   0.9384
B( 24-C , 84-H ) :   0.9520 B( 25-C , 26-O ) :   0.9267 B( 25-C , 85-H ) :   0.9448
B( 25-C , 86-H ) :   0.9512 B( 27-C , 28-Si) :   0.8561 B( 27-C , 31-C ) :   1.1553
B( 28-Si, 29-C ) :   1.0783 B( 28-Si, 30-C ) :   1.0767 B( 29-C , 87-H ) :   0.9468
B( 29-C , 88-H ) :   0.9468 B( 29-C , 89-H ) :   0.9483 B( 30-C , 90-H ) :   0.9514
B( 30-C , 91-H ) :   0.9394 B( 30-C , 92-H ) :   0.9465 B( 31-C , 32-C ) :   1.2442
B( 31-C , 42-C ) :   0.1148 B( 31-C , 44-C ) :   1.1975 B( 32-C , 33-C ) :   1.0964
B( 32-C , 37-N ) :   1.4515 B( 33-C , 34-N ) :   1.3641 B( 33-C , 42-C ) :   1.2360
B( 34-N , 35-C ) :   1.6529 B( 34-N , 56-Si) :   0.1357 B( 35-C , 36-C ) :   1.2147
B( 35-C , 40-C ) :   1.1570 B( 36-C , 37-N ) :   1.7192 B( 36-C , 38-C ) :   1.1728
B( 38-C , 39-N ) :   3.0385 B( 40-C , 41-N ) :   2.9636 B( 42-C , 43-C ) :   1.1349
B( 42-C , 48-C ) :   1.2262 B( 43-C , 44-C ) :   1.0985 B( 43-C , 47-N ) :   1.5300
B( 44-C , 45-N ) :   1.4807 B( 45-N , 46-S ) :   1.2517 B( 45-N , 47-N ) :   0.1516
B( 46-S , 47-N ) :   1.3022 B( 48-C , 49-C ) :   1.5713 B( 48-C , 56-Si) :   0.8427
B( 49-C , 50-C ) :   1.0454 B( 49-C , 54-O ) :   1.2053 B( 50-C , 51-O ) :   1.1812
B( 50-C , 55-C ) :   1.5481 B( 51-O , 52-C ) :   0.9181 B( 52-C , 53-C ) :   1.0818
B( 52-C , 93-H ) :   0.9451 B( 52-C , 94-H ) :   0.9521 B( 53-C , 54-O ) :   0.9304
B( 53-C , 95-H ) :   0.9416 B( 53-C , 96-H ) :   0.9518 B( 55-C , 56-Si) :   0.8023
B( 55-C , 59-C ) :   1.2340 B( 56-Si, 57-C ) :   1.0618 B( 56-Si, 58-C ) :   1.0952
B( 57-C , 97-H ) :   0.9444 B( 57-C , 98-H ) :   0.9507 B( 57-C , 99-H ) :   0.9436
B( 58-C ,100-H ) :   0.9398 B( 58-C ,101-H ) :   0.9480 B( 58-C ,102-H ) :   0.9450
B( 59-C , 60-C ) :   1.5282 B( 59-C ,103-H ) :   0.9241 B( 60-C , 61-C ) :   1.1122
B( 60-C , 69-C ) :   0.9496 B( 61-C , 62-C ) :   1.5647 B( 61-C , 67-C ) :   1.0104
B( 62-C , 63-C ) :   1.1400 B( 62-C , 65-C ) :   1.2057 B( 63-C , 64-N ) :   2.9657
B( 65-C , 66-N ) :   2.9352 B( 67-C , 68-C ) :   1.2730 B( 67-C , 74-C ) :   1.4245
B( 68-C , 69-C ) :   0.9195 B( 68-C , 71-C ) :   1.4349 B( 69-C , 70-O ) :   2.2475
B( 71-C , 72-C ) :   1.2455 B( 71-C ,104-H ) :   1.0150 B( 72-C , 73-C ) :   1.3170
B( 72-C , 77-C ) :   1.1607 B( 73-C , 74-C ) :   1.3191 B( 73-C , 75-S ) :   1.0836
B( 74-C ,105-H ) :   0.9809 B( 75-S , 76-C ) :   1.0850 B( 76-C , 77-C ) :   1.6230
B( 76-C , 78-Br) :   1.0155 B( 77-C ,106-H ) :   0.9994

-----------------------------------------------------------------------------
         ABSORPTION SPECTRUM VIA TRANSITION ELECTRIC DIPOLE MOMENTS
-----------------------------------------------------------------------------
State   Energy  Wavelength   fosc         T2         TX        TY        TZ
        (cm-1)    (nm)                  (au**2)     (au)      (au)      (au)
-----------------------------------------------------------------------------
   0    7498.0   1333.7   0.557243528  24.46668   1.74787  -0.77112  -4.56257
   1   16109.3    620.8   0.018598130   0.38007   0.22738  -0.53294   0.21059
   2   18154.6    550.8   1.037931691  18.82163  -1.75995   0.89346   3.86341
   3   19255.8    519.3   0.095468652   1.63221   0.35555  -0.69166   1.01361
   4   21977.9    455.0   0.036335132   0.54427   0.46095  -0.14250  -0.55811
   5   22425.5    445.9   0.009319158   0.13681   0.24657  -0.14766   0.23283
   6   23306.2    429.1   0.055914940   0.78983   0.12553   0.56087   0.67786
   7   23657.1    422.7   0.015540003   0.21625   0.19717  -0.17180   0.38453
   8   24282.9    411.8   0.011300392   0.15320  -0.22411   0.26347   0.18319
   9   24970.6    400.5   0.025484020   0.33598   0.12375   0.09218   0.55872
  10   25041.1    399.3   0.014900043   0.19589  -0.42162  -0.11722   0.06626
  11   25574.5    391.0   0.046651950   0.60053   0.48131   0.01792  -0.60709
  12   26139.8    382.6   0.030806424   0.38798  -0.48065  -0.05395  -0.39250
  13   27105.0    368.9   0.008200222   0.09960   0.13945   0.21328  -0.18618
  14   27210.1    367.5   0.019699349   0.23834   0.36367   0.16418   0.28131
  15   27377.4    365.3   0.017142367   0.20614  -0.22012  -0.38917  -0.07891
  16   27889.7    358.6   0.041864391   0.49417   0.04898  -0.63557  -0.29635
  17   28181.0    354.8   0.008847609   0.10336  -0.15400  -0.28204   0.00977
  18   28682.8    348.6   0.014914915   0.17119   0.20134   0.35942  -0.03834
  19   29258.4    341.8   0.071859930   0.80856   0.50995   0.15721  -0.72374
  20   30165.9    331.5   0.168643779   1.84047  -0.98797  -0.28500  -0.88496
  21   30232.9    330.8   0.431143975   4.69482  -0.14282   0.71265   2.04121
  22   30978.8    322.8   0.573529824   6.09490  -2.32735   0.42504  -0.70547
  23   31049.6    322.1   0.126140001   1.33743   0.51386   0.23598   1.00881
  24   31398.5    318.5   0.014771993   0.15488  -0.10566  -0.03164  -0.37778
  25   31836.5    314.1   0.013453928   0.13912   0.08226   0.22752   0.28388
  26   32037.3    312.1   0.037509221   0.38544  -0.25974   0.44578   0.34534
  27   32193.4    310.6   0.171151048   1.75020   0.85088  -0.24827   0.98212
  28   32279.3    309.8   0.119719527   1.22100   1.04900  -0.34053   0.06811
  29   32419.6    308.5   0.028402609   0.28842   0.45932  -0.21283  -0.17930
  30   32735.8    305.5   0.030139824   0.30311  -0.31403   0.07759  -0.44550
  31   32955.6    303.4   0.004732776   0.04728   0.19622  -0.09325  -0.00887
  32   33316.6    300.2   0.060296823   0.59581  -0.24021   0.33730   0.65141
  33   33555.2    298.0   0.042700525   0.41894   0.22951   0.02275   0.60477
  34   34240.8    292.0   0.072738054   0.69935   0.70642  -0.44469  -0.05078
  35   34522.3    289.7   0.266432524   2.54076   1.22254   0.27019   0.98649
  36   34707.6    288.1   0.135227565   1.28267  -1.07220  -0.35875   0.06609
  37   34953.4    286.1   0.029934298   0.28194  -0.45784   0.24942  -0.10055
  38   35263.7    283.6   0.022570400   0.21071  -0.05194   0.21627  -0.40155
  39   35349.8    282.9   0.339723531   3.16384  -1.50441   0.73015   0.60619
  40   35649.4    280.5   0.087263291   0.80585   0.45563   0.26833   0.72543
  41   35836.8    279.0   0.014177587   0.13024   0.09339   0.13658   0.32073
  42   36199.9    276.2   0.154438795   1.40451   1.05621  -0.41243  -0.34474
  43   36955.7    270.6   0.003723917   0.03317  -0.15621   0.01765   0.09197
  44   37852.0    264.2   0.004661313   0.04054  -0.06064   0.18835  -0.03728
  45   37932.2    263.6   0.002841627   0.02466   0.10380  -0.04694  -0.10809
  46   38007.4    263.1   0.011296622   0.09785   0.00450  -0.09857  -0.29684
  47   38254.7    261.4   0.036445219   0.31364   0.13362  -0.09683  -0.53517
  48   38379.4    260.6   0.103029275   0.88377  -0.67552   0.06486  -0.65057
  49   38859.0    257.3   0.039520969   0.33482   0.16974  -0.17598  -0.52444
  50   38969.4    256.6   0.047825881   0.40403   0.54061  -0.28524   0.17438
  51   39272.6    254.6   0.049062229   0.41128  -0.57579   0.23190  -0.16113
  52   39426.5    253.6   0.031403641   0.26222  -0.49162   0.14312   0.00701
  53   39906.3    250.6   0.018948794   0.15632   0.02193   0.04260   0.39246
  54   39958.8    250.3   0.085402164   0.70361   0.63138  -0.18160  -0.52152
  55   40252.7    248.4   0.024601359   0.20121   0.31867   0.07120   0.30755

FINAL SINGLE POINT ENERGY    -10066.564497168614

DIPOLE MOMENT
-------------
                                X             Y             Z
Electronic contribution:    -50.56186     -21.54267       7.04628
Nuclear contribution   :     50.39571      24.30793      -5.03998
                        -----------------------------------------
Total Dipole Moment    :     -0.16615       2.76525       2.00630
                        -----------------------------------------
Magnitude (a.u.)       :      3.42045
Magnitude (Debye)      :      8.69408

Rotational constants in cm-1:     0.001938     0.000166     0.000157
Rotational constants in MHz :    58.109027     4.967384     4.705134

                             ****ORCA TERMINATED NORMALLY****
TOTAL RUN TIME: 0 days 0 hours 31 minutes 42 seconds 85 msec
