                         Program Version 4.2.0 -  RELEASE  -
|  1> # ORCA input file
|  2> # SCF done       -160.388343428303          0.000549772854
|  3> ! CAM-B3LYP def2-SVP def2/J RIJCOSX Grid4 TightSCF
|  4> %maxcore 5000
|  5> %tddft
|  6>     Mode sTDDFT
|  7>     Ethresh 5.0
|  8>     maxcore 5000
|  9> end
| 10>
| 11> %pal
| 12>   nprocs 6
| 13>   end
| 14> * xyz 0 1
| 15>    C       -7.59144        -1.39479         1.99651
| 16>    C       -6.68189        -1.30104         3.02141
| 17>    C       -6.57398        -2.23943         4.06777
| 18>    N       -6.44281        -2.96473         4.94844
| 19>    C       -5.70566        -0.29300         3.16023
| 20>    N       -4.86374         0.46808         3.34050
| 21>    C       -8.52412        -2.49816         1.79772
| 22>    C       -9.18501        -2.30886         0.56086
| 23>    C      -10.12433        -3.18742         0.07952
| 24>    C      -10.42670        -4.30979         0.85794
| 25>    C       -9.76460        -4.48872         2.09547
| 26>    C       -8.81438        -3.59894         2.58179
| 27>    S      -10.29066        -5.93758         2.89804
| 28>    C      -11.37498        -6.28016         1.57617
| 29>    C      -11.34783        -5.35806         0.58503
| 30>   Br      -12.44155        -7.82211         1.63030
| 31>    C       -8.69802        -1.06714        -0.07691
| 32>    O       -9.07055        -0.63130        -1.14586
| 33>    C       -7.73202        -0.48053         0.88114
| 34>    C       -7.19921         0.78600         0.84875
| 35>    C       -7.16517         1.74495        -0.18331
| 36>    C       -7.23293         1.47870        -1.54105
| 37>    C       -7.13558         2.59513        -2.40109
| 38>    C       -6.96725         3.82299        -1.78549
| 39>   Si       -6.86498         3.58561         0.07076
| 40>    C       -6.84439         5.07340        -2.43781
| 41>    C       -6.96683         5.33968        -3.83417
| 42>    C       -6.69453         6.63682        -4.39501
| 43>    N       -6.81905         6.82330        -5.72304
| 44>    C       -7.17590         5.82029        -6.47700
| 45>    C       -7.45222         4.55617        -5.92823
| 46>    N       -7.35347         4.33722        -4.64605
| 47>    C       -6.29366         7.74298        -3.58961
| 48>    C       -6.27167         7.49171        -2.20069
| 49>    C       -6.53838         6.19986        -1.64234
| 50>    N       -6.43207         6.20268        -0.31294
| 51>    S       -6.04260         7.68110         0.18240
| 52>    N       -5.97821         8.38974        -1.25926
| 53>    C       -5.91068         9.03415        -4.02595
| 54>    C       -5.74466         9.43520        -5.33643
| 55>    C       -5.40189        10.79507        -5.52003
| 56>    C       -5.26966        11.55783        -4.38004
| 57>   Si       -5.53013        10.45825        -2.86948
| 58>    C       -4.91355        12.92521        -4.38514
| 59>    C       -5.21273        13.88838        -5.30604
| 60>    C       -6.15700        13.91623        -6.39929
| 61>    C       -7.34835        13.23774        -6.46390
| 62>    C       -8.26661        13.36405        -7.52411
| 63>    N       -9.03372        13.42260        -8.37665
| 64>    C       -7.81961        12.40353        -5.43150
| 65>    N       -8.27049        11.75667        -4.59663
| 66>    C       -5.74193        14.98585        -7.30186
| 67>    C       -4.71949        15.73970        -6.67149
| 68>    C       -4.41024        15.13605        -5.35789
| 69>    O       -3.63354        15.53785        -4.52117
| 70>    C       -4.14297        16.83707        -7.26262
| 71>    C       -4.58804        17.20087        -8.53844
| 72>    C       -5.60041        16.43433        -9.16333
| 73>    C       -6.19065        15.32878        -8.56249
| 74>    S       -5.98930        17.05287       -10.73961
| 75>    C       -4.80606        18.31803       -10.53944
| 76>    C       -4.15150        18.28028        -9.35470
| 77>   Br       -4.54505        19.56622       -11.91465
| 78>    H      -10.60902        -3.01584        -0.86882
| 79>    H       -8.34147        -3.77750         3.53284
| 80>    H      -11.95164        -5.41270        -0.30233
| 81>    H       -6.76824         1.13933         1.77892
| 82>    H       -7.31035         0.48414        -1.94809
| 83>    H       -7.17915         2.48162        -3.47160
| 84>    H       -7.94249         4.20335         0.83773
| 85>    H       -5.53041         3.79013         0.62584
| 86>    H       -7.27070         6.01760        -7.53619
| 87>    H       -7.77758         3.72533        -6.53944
| 88>    H       -5.86387         8.76757        -6.17352
| 89>    H       -5.20032        11.18212        -6.51032
| 90>    H       -6.62169        10.94717        -2.04279
| 91>    H       -4.24468        10.31276        -2.18557
| 92>    H       -4.27821        13.25968        -3.57022
| 93>    H       -3.37210        17.39831        -6.75838
| 94>    H       -6.95501        14.77058        -9.07759
| 95>    H       -3.39113        18.98293        -9.06651
| 96> *
| 97>
| 98>                          ****END OF INPUT****

CARTESIAN COORDINATES (ANGSTROEM)
---------------------------------
  C     -7.591440   -1.394790    1.996510
  C     -6.681890   -1.301040    3.021410
  C     -6.573980   -2.239430    4.067770
  N     -6.442810   -2.964730    4.948440
  C     -5.705660   -0.293000    3.160230
  N     -4.863740    0.468080    3.340500
  C     -8.524120   -2.498160    1.797720
  C     -9.185010   -2.308860    0.560860
  C    -10.124330   -3.187420    0.079520
  C    -10.426700   -4.309790    0.857940
  C     -9.764600   -4.488720    2.095470
  C     -8.814380   -3.598940    2.581790
  S    -10.290660   -5.937580    2.898040
  C    -11.374980   -6.280160    1.576170
  C    -11.347830   -5.358060    0.585030
  Br   -12.441550   -7.822110    1.630300
  C     -8.698020   -1.067140   -0.076910
  O     -9.070550   -0.631300   -1.145860
  C     -7.732020   -0.480530    0.881140
  C     -7.199210    0.786000    0.848750
  C     -7.165170    1.744950   -0.183310
  C     -7.232930    1.478700   -1.541050
  C     -7.135580    2.595130   -2.401090
  C     -6.967250    3.822990   -1.785490
  Si    -6.864980    3.585610    0.070760
  C     -6.844390    5.073400   -2.437810
  C     -6.966830    5.339680   -3.834170
  C     -6.694530    6.636820   -4.395010
  N     -6.819050    6.823300   -5.723040
  C     -7.175900    5.820290   -6.477000
  C     -7.452220    4.556170   -5.928230
  N     -7.353470    4.337220   -4.646050
  C     -6.293660    7.742980   -3.589610
  C     -6.271670    7.491710   -2.200690
  C     -6.538380    6.199860   -1.642340
  N     -6.432070    6.202680   -0.312940
  S     -6.042600    7.681100    0.182400
  N     -5.978210    8.389740   -1.259260
  C     -5.910680    9.034150   -4.025950
  C     -5.744660    9.435200   -5.336430
  C     -5.401890   10.795070   -5.520030
  C     -5.269660   11.557830   -4.380040
  Si    -5.530130   10.458250   -2.869480
  C     -4.913550   12.925210   -4.385140
  C     -5.212730   13.888380   -5.306040
  C     -6.157000   13.916230   -6.399290
  C     -7.348350   13.237740   -6.463900
  C     -8.266610   13.364050   -7.524110
  N     -9.033720   13.422600   -8.376650
  C     -7.819610   12.403530   -5.431500
  N     -8.270490   11.756670   -4.596630
  C     -5.741930   14.985850   -7.301860
  C     -4.719490   15.739700   -6.671490
  C     -4.410240   15.136050   -5.357890
  O     -3.633540   15.537850   -4.521170
  C     -4.142970   16.837070   -7.262620
  C     -4.588040   17.200870   -8.538440
  C     -5.600410   16.434330   -9.163330
  C     -6.190650   15.328780   -8.562490
  S     -5.989300   17.052870  -10.739610
  C     -4.806060   18.318030  -10.539440
  C     -4.151500   18.280280   -9.354700
  Br    -4.545050   19.566220  -11.914650
  H    -10.609020   -3.015840   -0.868820
  H     -8.341470   -3.777500    3.532840
  H    -11.951640   -5.412700   -0.302330
  H     -6.768240    1.139330    1.778920
  H     -7.310350    0.484140   -1.948090
  H     -7.179150    2.481620   -3.471600
  H     -7.942490    4.203350    0.837730
  H     -5.530410    3.790130    0.625840
  H     -7.270700    6.017600   -7.536190
  H     -7.777580    3.725330   -6.539440
  H     -5.863870    8.767570   -6.173520
  H     -5.200320   11.182120   -6.510320
  H     -6.621690   10.947170   -2.042790
  H     -4.244680   10.312760   -2.185570
  H     -4.278210   13.259680   -3.570220
  H     -3.372100   17.398310   -6.758380
  H     -6.955010   14.770580   -9.077590
  H     -3.391130   18.982930   -9.066510

 Total Charge           Charge          ....    0
 Multiplicity           Mult            ....    1
 Number of Electrons    NEL             ....  512
 Basis Dimension        Dim             .... 1028

ORBITAL ENERGIES
----------------

  NO   OCC          E(Eh)            E(eV)
   0   2.0000    -482.886379    -13140.0064
   1   2.0000    -482.882225    -13139.8934
   2   2.0000     -89.056105     -2423.3398
   3   2.0000     -88.976430     -2421.1718
   4   2.0000     -88.970933     -2421.0222
   5   2.0000     -66.197210     -1801.3176
   6   2.0000     -66.193806     -1801.2250
   7   2.0000     -62.564089     -1702.4554
   8   2.0000     -62.559944     -1702.3426
   9   2.0000     -56.398039     -1534.6686
  10   2.0000     -56.395324     -1534.5948
  11   2.0000     -56.395290     -1534.5939
  12   2.0000     -56.393889     -1534.5557
  13   2.0000     -56.391182     -1534.4821
  14   2.0000     -56.391148     -1534.4812
  15   2.0000     -19.212578      -522.8008
  16   2.0000     -19.209099      -522.7062
  17   2.0000     -14.467590      -393.6831
  18   2.0000     -14.466303      -393.6481
  19   2.0000     -14.441977      -392.9862
  20   2.0000     -14.441248      -392.9663
  21   2.0000     -14.414957      -392.2509
  22   2.0000     -14.414102      -392.2277
  23   2.0000     -14.407077      -392.0365
  24   2.0000     -14.406940      -392.0328
  25   2.0000     -10.363912      -282.0164
  26   2.0000     -10.360741      -281.9301
  27   2.0000     -10.359561      -281.8980
  28   2.0000     -10.354573      -281.7623
  29   2.0000     -10.343940      -281.4729
  30   2.0000     -10.343645      -281.4649
  31   2.0000     -10.341469      -281.4057
  32   2.0000     -10.340512      -281.3796
  33   2.0000     -10.340006      -281.3659
  34   2.0000     -10.339828      -281.3610
  35   2.0000     -10.338457      -281.3237
  36   2.0000     -10.337844      -281.3070
  37   2.0000     -10.332603      -281.1644
  38   2.0000     -10.332058      -281.1496
  39   2.0000     -10.326493      -280.9982
  40   2.0000     -10.320277      -280.8290
  41   2.0000     -10.318096      -280.7697
  42   2.0000     -10.316934      -280.7380
  43   2.0000     -10.313847      -280.6540
  44   2.0000     -10.312976      -280.6303
  45   2.0000     -10.310911      -280.5742
  46   2.0000     -10.310583      -280.5652
  47   2.0000     -10.310522      -280.5636
  48   2.0000     -10.308949      -280.5208
  49   2.0000     -10.308015      -280.4953
  50   2.0000     -10.306817      -280.4628
  51   2.0000     -10.306425      -280.4521
  52   2.0000     -10.302348      -280.3411
  53   2.0000     -10.301482      -280.3176
  54   2.0000     -10.301350      -280.3140
  55   2.0000     -10.299494      -280.2635
  56   2.0000     -10.297441      -280.2076
  57   2.0000     -10.297319      -280.2043
  58   2.0000     -10.295261      -280.1483
  59   2.0000     -10.293375      -280.0970
  60   2.0000     -10.292893      -280.0839
  61   2.0000     -10.292648      -280.0772
  62   2.0000     -10.292573      -280.0752
  63   2.0000     -10.288886      -279.9748
  64   2.0000     -10.287529      -279.9379
  65   2.0000     -10.285732      -279.8890
  66   2.0000     -10.283979      -279.8413
  67   2.0000     -10.279981      -279.7325
  68   2.0000     -10.278181      -279.6835
  69   2.0000     -10.273581      -279.5583
  70   2.0000     -10.263973      -279.2969
  71   2.0000      -8.793516      -239.2837
  72   2.0000      -8.789373      -239.1710
  73   2.0000      -8.147020      -221.6917
  74   2.0000      -8.072366      -219.6602
  75   2.0000      -8.066958      -219.5131
  76   2.0000      -6.629808      -180.4063
  77   2.0000      -6.625649      -180.2931
  78   2.0000      -6.615250      -180.0101
  79   2.0000      -6.615062      -180.0050
  80   2.0000      -6.611114      -179.8976
  81   2.0000      -6.610929      -179.8925
  82   2.0000      -6.118070      -166.4811
  83   2.0000      -6.110464      -166.2742
  84   2.0000      -6.109695      -166.2532
  85   2.0000      -6.042061      -164.4128
  86   2.0000      -6.037780      -164.2964
  87   2.0000      -6.036659      -164.2658
  88   2.0000      -6.033618      -164.1831
  89   2.0000      -6.032368      -164.1491
  90   2.0000      -6.028165      -164.0347
  91   2.0000      -5.365562      -146.0044
  92   2.0000      -5.362675      -145.9258
  93   2.0000      -3.729092      -101.4737
  94   2.0000      -3.727405      -101.4278
  95   2.0000      -3.726310      -101.3981
  96   2.0000      -3.725911      -101.3872
  97   2.0000      -3.724520      -101.3493
  98   2.0000      -3.723609      -101.3246
  99   2.0000      -2.745712       -74.7146
 100   2.0000      -2.741588       -74.6024
 101   2.0000      -2.741543       -74.6012
 102   2.0000      -2.741428       -74.5980
 103   2.0000      -2.737428       -74.4892
 104   2.0000      -2.737307       -74.4859
 105   2.0000      -2.729876       -74.2837
 106   2.0000      -2.729864       -74.2834
 107   2.0000      -2.725762       -74.1717
 108   2.0000      -2.725733       -74.1710
 109   2.0000      -1.152292       -31.3555
 110   2.0000      -1.127500       -30.6808
 111   2.0000      -1.124097       -30.5882
 112   2.0000      -1.099058       -29.9069
 113   2.0000      -1.023187       -27.8423
 114   2.0000      -1.023012       -27.8376
 115   2.0000      -1.016713       -27.6662
 116   2.0000      -1.012915       -27.5628
 117   2.0000      -1.007291       -27.4098
 118   2.0000      -1.006323       -27.3834
 119   2.0000      -0.993509       -27.0348
 120   2.0000      -0.989167       -26.9166
 121   2.0000      -0.985827       -26.8257
 122   2.0000      -0.982395       -26.7323
 123   2.0000      -0.975450       -26.5434
 124   2.0000      -0.946402       -25.7529
 125   2.0000      -0.939860       -25.5749
 126   2.0000      -0.935351       -25.4522
 127   2.0000      -0.929190       -25.2846
 128   2.0000      -0.908305       -24.7162
 129   2.0000      -0.902475       -24.5576
 130   2.0000      -0.899977       -24.4896
 131   2.0000      -0.891016       -24.2458
 132   2.0000      -0.886968       -24.1356
 133   2.0000      -0.886292       -24.1172
 134   2.0000      -0.880444       -23.9581
 135   2.0000      -0.878509       -23.9055
 136   2.0000      -0.860549       -23.4167
 137   2.0000      -0.850855       -23.1529
 138   2.0000      -0.829711       -22.5776
 139   2.0000      -0.823906       -22.4196
 140   2.0000      -0.820448       -22.3255
 141   2.0000      -0.800782       -21.7904
 142   2.0000      -0.794557       -21.6210
 143   2.0000      -0.779021       -21.1982
 144   2.0000      -0.768135       -20.9020
 145   2.0000      -0.761998       -20.7350
 146   2.0000      -0.753259       -20.4972
 147   2.0000      -0.750179       -20.4134
 148   2.0000      -0.734389       -19.9837
 149   2.0000      -0.722139       -19.6504
 150   2.0000      -0.720964       -19.6184
 151   2.0000      -0.704658       -19.1747
 152   2.0000      -0.693976       -18.8840
 153   2.0000      -0.688499       -18.7350
 154   2.0000      -0.686077       -18.6691
 155   2.0000      -0.682815       -18.5803
 156   2.0000      -0.672705       -18.3052
 157   2.0000      -0.670569       -18.2471
 158   2.0000      -0.666956       -18.1488
 159   2.0000      -0.658250       -17.9119
 160   2.0000      -0.651965       -17.7409
 161   2.0000      -0.647071       -17.6077
 162   2.0000      -0.631143       -17.1743
 163   2.0000      -0.624301       -16.9881
 164   2.0000      -0.621347       -16.9077
 165   2.0000      -0.617132       -16.7930
 166   2.0000      -0.613755       -16.7011
 167   2.0000      -0.607689       -16.5361
 168   2.0000      -0.605547       -16.4778
 169   2.0000      -0.596305       -16.2263
 170   2.0000      -0.594810       -16.1856
 171   2.0000      -0.589807       -16.0495
 172   2.0000      -0.578908       -15.7529
 173   2.0000      -0.577224       -15.7071
 174   2.0000      -0.573664       -15.6102
 175   2.0000      -0.566847       -15.4247
 176   2.0000      -0.565602       -15.3908
 177   2.0000      -0.557778       -15.1779
 178   2.0000      -0.552830       -15.0433
 179   2.0000      -0.547391       -14.8953
 180   2.0000      -0.546948       -14.8832
 181   2.0000      -0.540161       -14.6985
 182   2.0000      -0.539862       -14.6904
 183   2.0000      -0.536785       -14.6067
 184   2.0000      -0.532245       -14.4831
 185   2.0000      -0.530506       -14.4358
 186   2.0000      -0.525641       -14.3034
 187   2.0000      -0.522636       -14.2216
 188   2.0000      -0.520551       -14.1649
 189   2.0000      -0.511979       -13.9317
 190   2.0000      -0.509848       -13.8737
 191   2.0000      -0.508366       -13.8333
 192   2.0000      -0.504019       -13.7151
 193   2.0000      -0.503000       -13.6873
 194   2.0000      -0.500126       -13.6091
 195   2.0000      -0.499574       -13.5941
 196   2.0000      -0.495945       -13.4953
 197   2.0000      -0.492981       -13.4147
 198   2.0000      -0.490936       -13.3590
 199   2.0000      -0.489181       -13.3113
 200   2.0000      -0.484179       -13.1752
 201   2.0000      -0.483228       -13.1493
 202   2.0000      -0.479726       -13.0540
 203   2.0000      -0.475480       -12.9385
 204   2.0000      -0.470131       -12.7929
 205   2.0000      -0.465102       -12.6561
 206   2.0000      -0.463259       -12.6059
 207   2.0000      -0.456584       -12.4243
 208   2.0000      -0.451738       -12.2924
 209   2.0000      -0.450201       -12.2506
 210   2.0000      -0.448800       -12.2125
 211   2.0000      -0.446517       -12.1503
 212   2.0000      -0.442921       -12.0525
 213   2.0000      -0.442469       -12.0402
 214   2.0000      -0.441216       -12.0061
 215   2.0000      -0.440164       -11.9775
 216   2.0000      -0.437862       -11.9148
 217   2.0000      -0.436513       -11.8781
 218   2.0000      -0.434478       -11.8228
 219   2.0000      -0.433943       -11.8082
 220   2.0000      -0.429558       -11.6889
 221   2.0000      -0.428500       -11.6601
 222   2.0000      -0.424921       -11.5627
 223   2.0000      -0.419945       -11.4273
 224   2.0000      -0.419366       -11.4115
 225   2.0000      -0.416567       -11.3354
 226   2.0000      -0.413261       -11.2454
 227   2.0000      -0.409757       -11.1500
 228   2.0000      -0.409323       -11.1383
 229   2.0000      -0.408914       -11.1271
 230   2.0000      -0.407170       -11.0797
 231   2.0000      -0.400397       -10.8953
 232   2.0000      -0.399133       -10.8610
 233   2.0000      -0.395267       -10.7557
 234   2.0000      -0.390096       -10.6150
 235   2.0000      -0.388735       -10.5780
 236   2.0000      -0.385912       -10.5012
 237   2.0000      -0.383675       -10.4403
 238   2.0000      -0.377909       -10.2834
 239   2.0000      -0.375758       -10.2249
 240   2.0000      -0.371691       -10.1142
 241   2.0000      -0.367495       -10.0000
 242   2.0000      -0.360787        -9.8175
 243   2.0000      -0.353289        -9.6135
 244   2.0000      -0.352652        -9.5962
 245   2.0000      -0.344473        -9.3736
 246   2.0000      -0.334084        -9.0909
 247   2.0000      -0.330362        -8.9896
 248   2.0000      -0.329807        -8.9745
 249   2.0000      -0.315774        -8.5926
 250   2.0000      -0.314112        -8.5474
 251   2.0000      -0.310308        -8.4439
 252   2.0000      -0.294816        -8.0223
 253   2.0000      -0.289952        -7.8900
 254   2.0000      -0.282378        -7.6839
 255   2.0000      -0.240751        -6.5512
 256   0.0000      -0.131766        -3.5855
 257   0.0000      -0.086596        -2.3564
 258   0.0000      -0.079507        -2.1635
 259   0.0000      -0.057410        -1.5622
 260   0.0000      -0.055607        -1.5131

MULLIKEN ATOMIC CHARGES
-----------------------
   0 C :    0.300433
   1 C :   -0.353185
   2 C :   -0.186838
   3 N :    0.145804
   4 C :   -0.205280
   5 N :    0.155577
   6 C :    0.016177
   7 C :   -0.016104
   8 C :   -0.074992
   9 C :    0.119840
  10 C :   -0.092375
  11 C :   -0.021144
  12 S :    0.183717
  13 C :   -0.123570
  14 C :    0.037126
  15 Br:    0.019935
  16 C :    0.140642
  17 O :   -0.156435
  18 C :   -0.082450
  19 C :    0.000890
  20 C :   -0.176210
  21 C :    0.077117
  22 C :   -0.005109
  23 C :   -0.284879
  24 Si:    0.550263
  25 C :    0.186716
  26 C :   -0.044022
  27 C :   -0.054026
  28 N :   -0.027132
  29 C :    0.035412
  30 C :    0.040948
  31 N :   -0.028499
  32 C :    0.195422
  33 C :    0.046154
  34 C :    0.042096
  35 N :   -0.353627
  36 S :    0.568692
  37 N :   -0.360655
  38 C :   -0.274471
  39 C :    0.007524
  40 C :    0.042252
  41 C :   -0.189774
  42 Si:    0.567602
  43 C :    0.062905
  44 C :   -0.123972
  45 C :    0.262249
  46 C :   -0.345880
  47 C :   -0.180830
  48 N :    0.151300
  49 C :   -0.175451
  50 N :    0.158932
  51 C :    0.001788
  52 C :    0.002569
  53 C :    0.135495
  54 O :   -0.146618
  55 C :   -0.073785
  56 C :    0.112380
  57 C :   -0.087962
  58 C :   -0.022966
  59 S :    0.183853
  60 C :   -0.124307
  61 C :    0.040836
  62 Br:    0.023378
  63 H :   -0.013884
  64 H :   -0.008250
  65 H :   -0.004243
  66 H :    0.018172
  67 H :    0.005806
  68 H :    0.003341
  69 H :   -0.075304
  70 H :   -0.063632
  71 H :    0.020430
  72 H :    0.020310
  73 H :    0.002455
  74 H :   -0.001133
  75 H :   -0.057098
  76 H :   -0.078343
  77 H :    0.023736
  78 H :   -0.008780
  79 H :   -0.004313
  80 H :   -0.002747
Sum of atomic charges:   -0.0000000

LOEWDIN ATOMIC CHARGES
----------------------
   0 C :    0.075155
   1 C :   -0.147612
   2 C :   -0.018268
   3 N :   -0.060404
   4 C :   -0.025233
   5 N :   -0.058075
   6 C :   -0.020577
   7 C :   -0.049546
   8 C :    0.019181
   9 C :   -0.034076
  10 C :   -0.144671
  11 C :   -0.011200
  12 S :    0.430325
  13 C :   -0.272992
  14 C :   -0.071055
  15 Br:    0.133818
  16 C :    0.081368
  17 O :   -0.146768
  18 C :   -0.102395
  19 C :    0.059713
  20 C :   -0.191810
  21 C :    0.053442
  22 C :    0.001430
  23 C :   -0.143394
  24 Si:    0.545168
  25 C :   -0.036519
  26 C :   -0.001185
  27 C :   -0.005659
  28 N :   -0.021497
  29 C :    0.014165
  30 C :    0.017094
  31 N :   -0.022931
  32 C :   -0.023113
  33 C :   -0.036465
  34 C :   -0.034952
  35 N :   -0.268938
  36 S :    0.687389
  37 N :   -0.267413
  38 C :   -0.147783
  39 C :    0.014617
  40 C :    0.015550
  41 C :   -0.169902
  42 Si:    0.545331
  43 C :    0.064180
  44 C :   -0.095720
  45 C :    0.069842
  46 C :   -0.145712
  47 C :   -0.021110
  48 N :   -0.057436
  49 C :   -0.010084
  50 N :   -0.051123
  51 C :   -0.018824
  52 C :   -0.051466
  53 C :    0.081829
  54 O :   -0.145589
  55 C :    0.021848
  56 C :   -0.033438
  57 C :   -0.143930
  58 C :   -0.012884
  59 S :    0.430991
  60 C :   -0.272081
  61 C :   -0.069974
  62 Br:    0.136549
  63 H :    0.039399
  64 H :    0.040436
  65 H :    0.038249
  66 H :    0.041413
  67 H :    0.030686
  68 H :    0.026351
  69 H :   -0.087023
  70 H :   -0.080443
  71 H :    0.029828
  72 H :    0.030126
  73 H :    0.026561
  74 H :    0.026956
  75 H :   -0.078146
  76 H :   -0.085716
  77 H :    0.045056
  78 H :    0.041465
  79 H :    0.040579
  80 H :    0.039039

  Mayer bond orders larger than 0.100000
B(  0-C ,  1-C ) :   1.6172 B(  0-C ,  6-C ) :   0.9969 B(  0-C , 18-C ) :   1.0868
B(  1-C ,  2-C ) :   1.1452 B(  1-C ,  4-C ) :   1.1434 B(  2-C ,  3-N ) :   2.9698
B(  4-C ,  5-N ) :   2.9966 B(  6-C ,  7-C ) :   1.2739 B(  6-C , 11-C ) :   1.4131
B(  7-C ,  8-C ) :   1.4260 B(  7-C , 16-C ) :   0.9407 B(  8-C ,  9-C ) :   1.2434
B(  8-C , 63-H ) :   1.0164 B(  9-C , 10-C ) :   1.3094 B(  9-C , 14-C ) :   1.1622
B( 10-C , 11-C ) :   1.3275 B( 10-C , 12-S ) :   1.0848 B( 11-C , 64-H ) :   0.9803
B( 12-S , 13-C ) :   1.0856 B( 13-C , 14-C ) :   1.6196 B( 13-C , 15-Br) :   1.0166
B( 14-C , 65-H ) :   0.9999 B( 16-C , 17-O ) :   2.2050 B( 16-C , 18-C ) :   0.9526
B( 18-C , 19-C ) :   1.5276 B( 19-C , 20-C ) :   1.2259 B( 19-C , 66-H ) :   0.9420
B( 20-C , 21-C ) :   1.5533 B( 20-C , 24-Si) :   0.8651 B( 21-C , 22-C ) :   1.1441
B( 21-C , 67-H ) :   0.9861 B( 22-C , 23-C ) :   1.5557 B( 22-C , 68-H ) :   0.9868
B( 23-C , 24-Si) :   0.8904 B( 23-C , 25-C ) :   1.2165 B( 24-Si, 35-N ) :   0.1145
B( 24-Si, 69-H ) :   0.9598 B( 24-Si, 70-H ) :   0.9587 B( 25-C , 26-C ) :   1.2013
B( 25-C , 32-C ) :   0.1307 B( 25-C , 34-C ) :   1.2004 B( 26-C , 27-C ) :   1.1133
B( 26-C , 31-N ) :   1.4662 B( 27-C , 28-N ) :   1.4694 B( 27-C , 32-C ) :   1.1992
B( 28-N , 29-C ) :   1.6648 B( 29-C , 30-C ) :   1.1973 B( 29-C , 71-H ) :   0.9740
B( 30-C , 31-N ) :   1.6671 B( 30-C , 72-H ) :   0.9739 B( 32-C , 33-C ) :   1.2036
B( 32-C , 38-C ) :   1.2223 B( 33-C , 34-C ) :   1.1269 B( 33-C , 37-N ) :   1.4028
B( 34-C , 35-N ) :   1.4106 B( 35-N , 36-S ) :   1.2752 B( 35-N , 37-N ) :   0.1594
B( 36-S , 37-N ) :   1.2754 B( 37-N , 42-Si) :   0.1200 B( 38-C , 39-C ) :   1.5782
B( 38-C , 42-Si) :   0.8917 B( 39-C , 40-C ) :   1.1296 B( 39-C , 73-H ) :   0.9847
B( 40-C , 41-C ) :   1.6150 B( 40-C , 74-H ) :   0.9927 B( 41-C , 42-Si) :   0.8364
B( 41-C , 43-C ) :   1.1232 B( 42-Si, 75-H ) :   0.9683 B( 42-Si, 76-H ) :   0.9499
B( 43-C , 44-C ) :   1.6512 B( 43-C , 77-H ) :   0.9361 B( 44-C , 45-C ) :   1.0415
B( 44-C , 53-C ) :   0.9447 B( 45-C , 46-C ) :   1.6467 B( 45-C , 51-C ) :   1.0132
B( 46-C , 47-C ) :   1.1276 B( 46-C , 49-C ) :   1.1738 B( 47-C , 48-N ) :   2.9876
B( 49-C , 50-N ) :   2.9661 B( 51-C , 52-C ) :   1.2758 B( 51-C , 58-C ) :   1.4131
B( 52-C , 53-C ) :   0.9147 B( 52-C , 55-C ) :   1.4271 B( 53-C , 54-O ) :   2.2656
B( 55-C , 56-C ) :   1.2489 B( 55-C , 78-H ) :   1.0170 B( 56-C , 57-C ) :   1.3090
B( 56-C , 61-C ) :   1.1631 B( 57-C , 58-C ) :   1.3257 B( 57-C , 59-S ) :   1.0831
B( 58-C , 79-H ) :   0.9844 B( 59-S , 60-C ) :   1.0865 B( 60-C , 61-C ) :   1.6195
B( 60-C , 62-Br) :   1.0186 B( 61-C , 80-H ) :   1.0007

-----------------------------------------------------------------------------
         ABSORPTION SPECTRUM VIA TRANSITION ELECTRIC DIPOLE MOMENTS
-----------------------------------------------------------------------------
State   Energy  Wavelength   fosc         T2         TX        TY        TZ
        (cm-1)    (nm)                  (au**2)     (au)      (au)      (au)
-----------------------------------------------------------------------------
   0    9199.7   1087.0   0.946656349  33.87625   0.74541   5.16111  -2.58526
   1   17979.5    556.2   0.009703173   0.17767   0.04906  -0.41267  -0.07048
   2   18243.9    548.1   0.253847147   4.58067   0.18348  -1.91957   0.92858
   3   19460.2    513.9   0.425494939   7.19817  -0.40113  -2.08083   1.64541
   4   21498.4    465.2   0.003180985   0.04871   0.09750  -0.11491  -0.16125
   5   22837.3    437.9   0.034731913   0.50068  -0.65045  -0.27854  -0.00306
   6   23422.5    426.9   0.008528662   0.11987  -0.05135  -0.16256  -0.30135
   7   24852.1    402.4   0.005681503   0.07526  -0.06403  -0.20363   0.17233
   8   25106.9    398.3   0.111120932   1.45706   0.83218   0.78112   0.39293
   9   25866.4    386.6   0.215850408   2.74722   0.39762   1.46791  -0.65905
  10   26513.5    377.2   0.062068979   0.77069   0.15126   0.71755  -0.48264
  11   27248.8    367.0   0.006437996   0.07778  -0.07098  -0.24602   0.11053
  12   27516.2    363.4   0.000298049   0.00357   0.01592   0.05689  -0.00873
  13   27652.5    361.6   0.148674021   1.77001   0.57291   1.18457  -0.19643
  14   28191.5    354.7   0.002211736   0.02583   0.13457   0.08161  -0.03256
  15   29316.5    341.1   0.079942302   0.89772  -0.64311  -0.26430   0.64364
  16   29538.7    338.5   0.153425612   1.70995   0.58711   0.36591   1.10966
  17   29936.7    334.0   0.077419968   0.85138  -0.60089  -0.65474   0.24823
  18   30339.8    329.6   0.076117295   0.82594  -0.67260  -0.60588  -0.08033
  19   30606.1    326.7   0.189464087   2.03796  -0.13564  -1.20623   0.75138
  20   31163.3    320.9   0.307457929   3.24801   0.96817   1.16797  -0.97289
  21   31453.4    317.9   0.269916782   2.82513  -0.98469  -1.24415  -0.55462
  22   32087.3    311.7   0.061645894   0.63248   0.54086   0.58117  -0.04689
  23   32377.9    308.9   0.036505725   0.37118   0.39972   0.45449   0.06961
  24   32436.9    308.3   0.041736814   0.42360  -0.33782  -0.54963   0.08592
  25   32671.6    306.1   0.004283247   0.04316   0.11540  -0.07277  -0.15667
  26   32779.0    305.1   0.053890359   0.54124  -0.32452  -0.10132  -0.65243
  27   33740.0    296.4   0.151200497   1.47531  -0.44028  -0.42122  -1.05073
  28   34341.7    291.2   0.005685882   0.05451  -0.06519  -0.03875  -0.22081
  29   34550.7    289.4   0.074534615   0.71019  -0.52335  -0.31994  -0.57788
  30   35102.5    284.9   0.021799119   0.20444  -0.05145  -0.19738   0.40353
  31   35202.8    284.1   0.187842164   1.75668   0.21615   0.86208  -0.98325
  32   35317.2    283.1   0.041684722   0.38857  -0.55727  -0.27606   0.04248
  33   35434.3    282.2   0.315695247   2.93305   1.22011   0.82015   0.87849
  34   35653.9    280.5   0.243691148   2.25014   1.10280   0.99544   0.20749
  35   35871.4    278.8   0.006475794   0.05943  -0.08927   0.18244   0.13483
  36   36496.5    274.0   0.032410279   0.29235  -0.25824  -0.41447   0.23211
  37   36572.3    273.4   0.004581589   0.04124   0.18509   0.07339   0.03997
  38   37203.3    268.8   0.018857526   0.16687  -0.26141  -0.30487   0.07476
  39   37312.2    268.0   0.057187071   0.50457  -0.13305  -0.57753  -0.39157
  40   37652.5    265.6   0.121670013   1.06381  -0.01746  -0.31149  -0.98310
  41   38081.7    262.6   0.040897109   0.35355   0.32350   0.38180   0.32113
  42   38336.0    260.9   0.010306181   0.08850   0.01172  -0.21560   0.20466
  43   38810.8    257.7   0.077320130   0.65587   0.21414   0.68375  -0.37749
  44   39120.3    255.6   0.033436737   0.28138   0.21813   0.25781  -0.40907
  45   39558.1    252.8   0.061325920   0.51037   0.24881   0.37121   0.55738
  46   39699.9    251.9   0.100259284   0.83140  -0.08983   0.49210  -0.76235
  47   39962.5    250.2   0.067952568   0.55979   0.13463  -0.45721   0.57674
  48   40059.3    249.6   0.005520518   0.04537   0.08828   0.12411  -0.14890
  49   40176.8    248.9   0.004598592   0.03768  -0.11353  -0.13593  -0.07946
  50   40245.6    248.5   0.021165926   0.17314  -0.00994   0.40435  -0.09766

FINAL SINGLE POINT ENERGY     -9270.016265102906

DIPOLE MOMENT
-------------
                                X             Y             Z
Electronic contribution:    -32.28103      -8.78210     -37.20420
Nuclear contribution   :     32.47589       9.58717      34.42732
                        -----------------------------------------
Total Dipole Moment    :      0.19486       0.80507      -2.77689
                        -----------------------------------------
Magnitude (a.u.)       :      2.89779
Magnitude (Debye)      :      7.36560

Rotational constants in cm-1:     0.003220     0.000168     0.000162
Rotational constants in MHz :    96.525096     5.046829     4.859981

                             ****ORCA TERMINATED NORMALLY****
TOTAL RUN TIME: 0 days 0 hours 16 minutes 49 seconds 85 msec
