                         Program Version 4.2.0 -  RELEASE  -
|  1> # ORCA input file
|  2> # SCF done       -217.462359460254          0.000599210167
|  3> ! CAM-B3LYP def2-SVP def2/J RIJCOSX Grid4 TightSCF
|  4> %maxcore 5000
|  5> %tddft
|  6>     Mode sTDDFT
|  7>     Ethresh 5.0
|  8>     maxcore 5000
|  9> end
| 10>
| 11> %pal
| 12>   nprocs 6
| 13>   end
| 14> * xyz 0 1
| 15>    C       -9.37330        -4.65394         4.97155
| 16>    C       -9.42895        -4.53624         6.33595
| 17>    C       -9.23011        -5.61072         7.22877
| 18>    N       -9.07608        -6.44275         8.00415
| 19>    C       -9.73416        -3.35221         7.04076
| 20>    N       -9.99905        -2.43741         7.68243
| 21>    C       -9.17599        -5.89551         4.23633
| 22>    C       -9.36463        -5.63863         2.85659
| 23>    C       -9.25335        -6.61631         1.89777
| 24>    C       -8.93640        -7.91087         2.32157
| 25>    C       -8.74375        -8.15782         3.70271
| 26>    C       -8.85964        -7.16927         4.67176
| 27>    S       -8.35159        -9.82261         4.00557
| 28>    C       -8.45107       -10.16090         2.29777
| 29>    C       -8.76231        -9.08379         1.53774
| 30>   Br       -8.13323       -11.90240         1.68062
| 31>    C       -9.67286        -4.21027         2.65401
| 32>    O       -9.88368        -3.67099         1.58966
| 33>    C       -9.59720        -3.59331         4.00225
| 34>    C       -9.55211        -2.26115         4.30260
| 35>    C       -9.83736        -1.13692         3.49978
| 36>    C      -10.51895        -0.99859         2.29716
| 37>    C      -10.61837         0.33010         1.90443
| 38>    C       -9.99761         1.22221         2.80635
| 39>    S       -9.32622         0.42814         4.14697
| 40>    C      -10.13781         2.54016         2.30643
| 41>    C      -10.85846         2.48766         1.10026
| 42>    C      -11.18886         1.09971         0.80966
| 43>    C      -11.89810         0.63322        -0.25647
| 44>    C      -12.20752        -0.73275        -0.43914
| 45>    N      -12.49142        -1.83069        -0.60329
| 46>    C      -12.39478         1.50164        -1.25274
| 47>    N      -12.79399         2.20856        -2.06227
| 48>    C      -11.05539         3.74764         0.54028
| 49>    C      -10.47874         4.75041         1.30318
| 50>    S       -9.68701         4.12804         2.74069
| 51>    C      -10.51155         6.14109         1.00625
| 52>    C       -9.82782         7.18278         1.62005
| 53>    C       -8.94149         6.97873         2.68879
| 54>    N       -8.21985         6.78410         3.55886
| 55>    C      -10.12251         8.44605         1.03590
| 56>    C      -11.03811         8.31902        -0.00316
| 57>    S      -11.53597         6.69987        -0.30062
| 58>    S      -11.48558         9.80114        -0.78174
| 59>    C      -10.41259        10.62429         0.30206
| 60>    C       -9.74571         9.81060         1.21123
| 61>    C       -8.87131        10.57000         2.03796
| 62>    C       -8.05132        10.03606         3.04364
| 63>    N       -7.37137         9.62643         3.87175
| 64>    C       -8.90158        11.92628         1.73916
| 65>    S      -10.01453        12.29208         0.43571
| 66>    C       -8.15759        12.99061         2.31860
| 67>    C       -8.27756        14.33089         1.98770
| 68>    C       -7.38299        15.12577         2.69940
| 69>    C       -6.57671        14.38080         3.57885
| 70>    S       -6.92530        12.71124         3.53830
| 71>    C       -5.68583        15.26744         4.23672
| 72>    C       -5.93131        16.57303         3.76646
| 73>    C       -7.01657        16.52938         2.80130
| 74>    C       -7.58330        17.59017         2.15880
| 75>    C       -8.64601        17.43201         1.24448
| 76>    N       -9.50442        17.29415         0.49734
| 77>    C       -7.13000        18.90852         2.37830
| 78>    N       -6.74473        19.97237         2.56355
| 79>    C       -5.10550        17.52340         4.35201
| 80>    C       -4.23148        16.96174         5.27230
| 81>    S       -4.43221        15.21682         5.38302
| 82>    C       -3.21608        17.58488         6.03094
| 83>    C       -3.03937        18.90467         6.31315
| 84>    C       -3.88775        20.07399         6.20913
| 85>    C       -5.25205        20.11461         6.33630
| 86>    C       -6.00153        21.30968         6.37424
| 87>    N       -6.65378        22.25239         6.41787
| 88>    C       -6.05579        18.97715         6.54389
| 89>    N       -6.74450        18.07822         6.73321
| 90>    C       -3.01362        21.24262         6.22599
| 91>    C       -1.70358        20.82884         6.57771
| 92>    C       -1.68353        19.36313         6.73646
| 93>    O       -0.76301        18.66108         7.08336
| 94>    C       -0.66148        21.71463         6.70919
| 95>    C       -0.92201        23.06801         6.47000
| 96>    C       -2.23002        23.46793         6.10209
| 97>    C       -3.28656        22.57386         5.97761
| 98>    S       -2.32397        25.18156         5.83883
| 99>    C       -0.63092        25.33834         6.22589
|100>    C       -0.02352        24.16768         6.53455
|101>   Br        0.17508        27.03036         6.18287
|102>    H       -9.40650        -6.38829         0.85466
|103>    H       -8.69837        -7.40581         5.71014
|104>    H       -8.86448        -9.11316         0.46836
|105>    H       -9.22830        -2.00154         5.30420
|106>    H      -10.91041        -1.83680         1.75091
|107>    H      -11.58141         3.94291        -0.37726
|108>    H       -8.98328        14.69280         1.26109
|109>    H       -5.09586        18.56651         4.09404
|110>    H       -2.41827        16.93692         6.38208
|111>    H        0.32408        21.37492         6.98614
|112>    H       -4.26399        22.92037         5.68518
|113>    H        1.01517        24.08130         6.79639
|114> *
|115>
|116>                          ****END OF INPUT****

CARTESIAN COORDINATES (ANGSTROEM)
---------------------------------
  C     -9.373300   -4.653940    4.971550
  C     -9.428950   -4.536240    6.335950
  C     -9.230110   -5.610720    7.228770
  N     -9.076080   -6.442750    8.004150
  C     -9.734160   -3.352210    7.040760
  N     -9.999050   -2.437410    7.682430
  C     -9.175990   -5.895510    4.236330
  C     -9.364630   -5.638630    2.856590
  C     -9.253350   -6.616310    1.897770
  C     -8.936400   -7.910870    2.321570
  C     -8.743750   -8.157820    3.702710
  C     -8.859640   -7.169270    4.671760
  S     -8.351590   -9.822610    4.005570
  C     -8.451070  -10.160900    2.297770
  C     -8.762310   -9.083790    1.537740
  Br    -8.133230  -11.902400    1.680620
  C     -9.672860   -4.210270    2.654010
  O     -9.883680   -3.670990    1.589660
  C     -9.597200   -3.593310    4.002250
  C     -9.552110   -2.261150    4.302600
  C     -9.837360   -1.136920    3.499780
  C    -10.518950   -0.998590    2.297160
  C    -10.618370    0.330100    1.904430
  C     -9.997610    1.222210    2.806350
  S     -9.326220    0.428140    4.146970
  C    -10.137810    2.540160    2.306430
  C    -10.858460    2.487660    1.100260
  C    -11.188860    1.099710    0.809660
  C    -11.898100    0.633220   -0.256470
  C    -12.207520   -0.732750   -0.439140
  N    -12.491420   -1.830690   -0.603290
  C    -12.394780    1.501640   -1.252740
  N    -12.793990    2.208560   -2.062270
  C    -11.055390    3.747640    0.540280
  C    -10.478740    4.750410    1.303180
  S     -9.687010    4.128040    2.740690
  C    -10.511550    6.141090    1.006250
  C     -9.827820    7.182780    1.620050
  C     -8.941490    6.978730    2.688790
  N     -8.219850    6.784100    3.558860
  C    -10.122510    8.446050    1.035900
  C    -11.038110    8.319020   -0.003160
  S    -11.535970    6.699870   -0.300620
  S    -11.485580    9.801140   -0.781740
  C    -10.412590   10.624290    0.302060
  C     -9.745710    9.810600    1.211230
  C     -8.871310   10.570000    2.037960
  C     -8.051320   10.036060    3.043640
  N     -7.371370    9.626430    3.871750
  C     -8.901580   11.926280    1.739160
  S    -10.014530   12.292080    0.435710
  C     -8.157590   12.990610    2.318600
  C     -8.277560   14.330890    1.987700
  C     -7.382990   15.125770    2.699400
  C     -6.576710   14.380800    3.578850
  S     -6.925300   12.711240    3.538300
  C     -5.685830   15.267440    4.236720
  C     -5.931310   16.573030    3.766460
  C     -7.016570   16.529380    2.801300
  C     -7.583300   17.590170    2.158800
  C     -8.646010   17.432010    1.244480
  N     -9.504420   17.294150    0.497340
  C     -7.130000   18.908520    2.378300
  N     -6.744730   19.972370    2.563550
  C     -5.105500   17.523400    4.352010
  C     -4.231480   16.961740    5.272300
  S     -4.432210   15.216820    5.383020
  C     -3.216080   17.584880    6.030940
  C     -3.039370   18.904670    6.313150
  C     -3.887750   20.073990    6.209130
  C     -5.252050   20.114610    6.336300
  C     -6.001530   21.309680    6.374240
  N     -6.653780   22.252390    6.417870
  C     -6.055790   18.977150    6.543890
  N     -6.744500   18.078220    6.733210
  C     -3.013620   21.242620    6.225990
  C     -1.703580   20.828840    6.577710
  C     -1.683530   19.363130    6.736460
  O     -0.763010   18.661080    7.083360
  C     -0.661480   21.714630    6.709190
  C     -0.922010   23.068010    6.470000
  C     -2.230020   23.467930    6.102090
  C     -3.286560   22.573860    5.977610
  S     -2.323970   25.181560    5.838830
  C     -0.630920   25.338340    6.225890
  C     -0.023520   24.167680    6.534550
  Br     0.175080   27.030360    6.182870
  H     -9.406500   -6.388290    0.854660
  H     -8.698370   -7.405810    5.710140
  H     -8.864480   -9.113160    0.468360
  H     -9.228300   -2.001540    5.304200
  H    -10.910410   -1.836800    1.750910
  H    -11.581410    3.942910   -0.377260
  H     -8.983280   14.692800    1.261090
  H     -5.095860   18.566510    4.094040
  H     -2.418270   16.936920    6.382080
  H      0.324080   21.374920    6.986140
  H     -4.263990   22.920370    5.685180
  H      1.015170   24.081300    6.796390

 Total Charge           Charge          ....    0
 Multiplicity           Mult            ....    1
 Number of Electrons    NEL             ....  696
 Basis Dimension        Dim             .... 1350

ORBITAL ENERGIES
----------------

  NO   OCC          E(Eh)            E(eV)
   0   2.0000    -482.887809    -13140.0453
   1   2.0000    -482.887432    -13140.0351
   2   2.0000     -89.005398     -2421.9600
   3   2.0000     -89.004097     -2421.9246
   4   2.0000     -89.003725     -2421.9145
   5   2.0000     -89.003671     -2421.9130
   6   2.0000     -89.002759     -2421.8882
   7   2.0000     -89.002110     -2421.8705
   8   2.0000     -89.001939     -2421.8659
   9   2.0000     -88.978467     -2421.2272
  10   2.0000     -88.978288     -2421.2223
  11   2.0000     -62.565521     -1702.4944
  12   2.0000     -62.565179     -1702.4851
  13   2.0000     -56.399474     -1534.7077
  14   2.0000     -56.399133     -1534.6984
  15   2.0000     -56.396750     -1534.6336
  16   2.0000     -56.396722     -1534.6328
  17   2.0000     -56.396407     -1534.6243
  18   2.0000     -56.396375     -1534.6234
  19   2.0000     -19.223605      -523.1009
  20   2.0000     -19.220267      -523.0101
  21   2.0000     -14.440199      -392.9378
  22   2.0000     -14.439465      -392.9178
  23   2.0000     -14.439086      -392.9075
  24   2.0000     -14.435579      -392.8121
  25   2.0000     -14.424563      -392.5123
  26   2.0000     -14.423906      -392.4944
  27   2.0000     -14.421848      -392.4384
  28   2.0000     -14.420156      -392.3924
  29   2.0000     -14.418349      -392.3432
  30   2.0000     -14.417644      -392.3241
  31   2.0000     -10.375210      -282.3238
  32   2.0000     -10.375097      -282.3208
  33   2.0000     -10.374543      -282.3057
  34   2.0000     -10.371436      -282.2211
  35   2.0000     -10.362342      -281.9737
  36   2.0000     -10.362203      -281.9699
  37   2.0000     -10.361749      -281.9575
  38   2.0000     -10.361280      -281.9448
  39   2.0000     -10.359452      -281.8950
  40   2.0000     -10.358915      -281.8804
  41   2.0000     -10.354599      -281.7630
  42   2.0000     -10.354067      -281.7485
  43   2.0000     -10.351667      -281.6832
  44   2.0000     -10.348952      -281.6093
  45   2.0000     -10.348696      -281.6023
  46   2.0000     -10.348534      -281.5979
  47   2.0000     -10.347779      -281.5774
  48   2.0000     -10.346727      -281.5488
  49   2.0000     -10.346480      -281.5420
  50   2.0000     -10.345834      -281.5244
  51   2.0000     -10.344801      -281.4963
  52   2.0000     -10.344168      -281.4791
  53   2.0000     -10.342057      -281.4217
  54   2.0000     -10.340896      -281.3901
  55   2.0000     -10.340313      -281.3742
  56   2.0000     -10.339624      -281.3555
  57   2.0000     -10.339172      -281.3432
  58   2.0000     -10.334681      -281.2210
  59   2.0000     -10.334426      -281.2140
  60   2.0000     -10.333839      -281.1980
  61   2.0000     -10.332721      -281.1676
  62   2.0000     -10.329431      -281.0781
  63   2.0000     -10.329058      -281.0680
  64   2.0000     -10.328969      -281.0655
  65   2.0000     -10.327476      -281.0249
  66   2.0000     -10.326924      -281.0099
  67   2.0000     -10.323012      -280.9034
  68   2.0000     -10.322981      -280.9026
  69   2.0000     -10.322688      -280.8946
  70   2.0000     -10.322081      -280.8781
  71   2.0000     -10.321155      -280.8529
  72   2.0000     -10.320601      -280.8378
  73   2.0000     -10.319945      -280.8200
  74   2.0000     -10.319774      -280.8153
  75   2.0000     -10.318944      -280.7927
  76   2.0000     -10.318188      -280.7722
  77   2.0000     -10.318171      -280.7717
  78   2.0000     -10.315472      -280.6983
  79   2.0000     -10.314448      -280.6704
  80   2.0000     -10.313362      -280.6408
  81   2.0000     -10.312667      -280.6219
  82   2.0000     -10.311868      -280.6002
  83   2.0000     -10.310913      -280.5742
  84   2.0000     -10.310652      -280.5671
  85   2.0000     -10.309206      -280.5278
  86   2.0000     -10.309094      -280.5247
  87   2.0000     -10.306941      -280.4661
  88   2.0000     -10.305676      -280.4317
  89   2.0000     -10.305146      -280.4173
  90   2.0000     -10.304375      -280.3963
  91   2.0000     -10.299235      -280.2564
  92   2.0000     -10.299037      -280.2511
  93   2.0000     -10.296966      -280.1947
  94   2.0000     -10.296235      -280.1748
  95   2.0000      -8.794956      -239.3229
  96   2.0000      -8.794637      -239.3142
  97   2.0000      -8.099193      -220.3902
  98   2.0000      -8.098726      -220.3775
  99   2.0000      -8.098682      -220.3763
 100   2.0000      -8.097876      -220.3544
 101   2.0000      -8.097763      -220.3513
 102   2.0000      -8.096729      -220.3232
 103   2.0000      -8.096689      -220.3221
 104   2.0000      -8.074456      -219.7171
 105   2.0000      -8.074264      -219.7119
 106   2.0000      -6.631266      -180.4459
 107   2.0000      -6.630977      -180.4381
 108   2.0000      -6.616690      -180.0493
 109   2.0000      -6.616479      -180.0436
 110   2.0000      -6.616353      -180.0401
 111   2.0000      -6.616148      -180.0345
 112   2.0000      -6.068754      -165.1392
 113   2.0000      -6.068503      -165.1324
 114   2.0000      -6.068316      -165.1273
 115   2.0000      -6.067427      -165.1031
 116   2.0000      -6.067200      -165.0969
 117   2.0000      -6.065830      -165.0596
 118   2.0000      -6.065806      -165.0590
 119   2.0000      -6.064397      -165.0206
 120   2.0000      -6.064127      -165.0133
 121   2.0000      -6.064116      -165.0130
 122   2.0000      -6.063182      -164.9876
 123   2.0000      -6.062781      -164.9766
 124   2.0000      -6.061654      -164.9460
 125   2.0000      -6.061641      -164.9456
 126   2.0000      -6.061580      -164.9440
 127   2.0000      -6.060255      -164.9079
 128   2.0000      -6.060146      -164.9050
 129   2.0000      -6.059549      -164.8887
 130   2.0000      -6.059327      -164.8827
 131   2.0000      -6.059277      -164.8813
 132   2.0000      -6.059198      -164.8792
 133   2.0000      -6.044122      -164.4689
 134   2.0000      -6.043963      -164.4646
 135   2.0000      -6.039880      -164.3535
 136   2.0000      -6.039658      -164.3474
 137   2.0000      -6.035685      -164.2393
 138   2.0000      -6.035491      -164.2341
 139   2.0000      -2.747149       -74.7537
 140   2.0000      -2.746787       -74.7439
 141   2.0000      -2.743037       -74.6418
 142   2.0000      -2.742890       -74.6378
 143   2.0000      -2.742762       -74.6343
 144   2.0000      -2.742611       -74.6302
 145   2.0000      -2.731295       -74.3223
 146   2.0000      -2.731287       -74.3221
 147   2.0000      -2.730980       -74.3137
 148   2.0000      -2.730953       -74.3130
 149   2.0000      -1.139392       -31.0044
 150   2.0000      -1.136098       -30.9148
 151   2.0000      -1.062041       -28.8996
 152   2.0000      -1.058608       -28.8062
 153   2.0000      -1.055741       -28.7282
 154   2.0000      -1.033904       -28.1340
 155   2.0000      -1.031137       -28.0587
 156   2.0000      -1.029673       -28.0188
 157   2.0000      -1.027146       -27.9501
 158   2.0000      -1.026794       -27.9405
 159   2.0000      -1.018307       -27.7095
 160   2.0000      -1.017201       -27.6794
 161   2.0000      -1.016727       -27.6666
 162   2.0000      -1.015286       -27.6273
 163   2.0000      -1.013993       -27.5922
 164   2.0000      -1.009116       -27.4594
 165   2.0000      -1.007191       -27.4071
 166   2.0000      -1.000091       -27.2139
 167   2.0000      -0.998096       -27.1596
 168   2.0000      -0.998043       -27.1581
 169   2.0000      -0.993923       -27.0460
 170   2.0000      -0.993498       -27.0345
 171   2.0000      -0.976499       -26.5719
 172   2.0000      -0.970085       -26.3973
 173   2.0000      -0.958806       -26.0904
 174   2.0000      -0.947292       -25.7771
 175   2.0000      -0.946926       -25.7672
 176   2.0000      -0.929173       -25.2841
 177   2.0000      -0.926949       -25.2236
 178   2.0000      -0.913767       -24.8649
 179   2.0000      -0.912301       -24.8250
 180   2.0000      -0.912030       -24.8176
 181   2.0000      -0.902744       -24.5649
 182   2.0000      -0.900292       -24.4982
 183   2.0000      -0.890268       -24.2254
 184   2.0000      -0.889442       -24.2029
 185   2.0000      -0.889290       -24.1988
 186   2.0000      -0.885028       -24.0828
 187   2.0000      -0.881274       -23.9807
 188   2.0000      -0.871267       -23.7084
 189   2.0000      -0.870074       -23.6759
 190   2.0000      -0.867696       -23.6112
 191   2.0000      -0.865732       -23.5578
 192   2.0000      -0.847757       -23.0686
 193   2.0000      -0.844417       -22.9777
 194   2.0000      -0.832755       -22.6604
 195   2.0000      -0.832580       -22.6556
 196   2.0000      -0.814762       -22.1708
 197   2.0000      -0.801924       -21.8215
 198   2.0000      -0.793315       -21.5872
 199   2.0000      -0.787957       -21.4414
 200   2.0000      -0.782321       -21.2880
 201   2.0000      -0.770884       -20.9768
 202   2.0000      -0.764787       -20.8109
 203   2.0000      -0.761952       -20.7338
 204   2.0000      -0.746993       -20.3267
 205   2.0000      -0.736077       -20.0297
 206   2.0000      -0.722719       -19.6662
 207   2.0000      -0.721626       -19.6364
 208   2.0000      -0.716034       -19.4843
 209   2.0000      -0.709462       -19.3054
 210   2.0000      -0.706596       -19.2275
 211   2.0000      -0.700892       -19.0722
 212   2.0000      -0.699160       -19.0251
 213   2.0000      -0.696311       -18.9476
 214   2.0000      -0.692988       -18.8572
 215   2.0000      -0.688337       -18.7306
 216   2.0000      -0.688031       -18.7223
 217   2.0000      -0.682188       -18.5633
 218   2.0000      -0.666282       -18.1305
 219   2.0000      -0.663912       -18.0660
 220   2.0000      -0.663294       -18.0492
 221   2.0000      -0.655405       -17.8345
 222   2.0000      -0.648812       -17.6551
 223   2.0000      -0.646050       -17.5799
 224   2.0000      -0.644856       -17.5474
 225   2.0000      -0.634955       -17.2780
 226   2.0000      -0.632710       -17.2169
 227   2.0000      -0.630244       -17.1498
 228   2.0000      -0.627788       -17.0830
 229   2.0000      -0.626977       -17.0609
 230   2.0000      -0.622937       -16.9510
 231   2.0000      -0.609605       -16.5882
 232   2.0000      -0.604302       -16.4439
 233   2.0000      -0.601251       -16.3609
 234   2.0000      -0.598659       -16.2903
 235   2.0000      -0.593466       -16.1490
 236   2.0000      -0.588621       -16.0172
 237   2.0000      -0.576444       -15.6858
 238   2.0000      -0.568451       -15.4683
 239   2.0000      -0.563917       -15.3449
 240   2.0000      -0.561037       -15.2666
 241   2.0000      -0.559656       -15.2290
 242   2.0000      -0.557820       -15.1791
 243   2.0000      -0.555404       -15.1133
 244   2.0000      -0.553558       -15.0631
 245   2.0000      -0.551194       -14.9987
 246   2.0000      -0.546058       -14.8590
 247   2.0000      -0.544788       -14.8244
 248   2.0000      -0.542763       -14.7693
 249   2.0000      -0.540518       -14.7082
 250   2.0000      -0.539716       -14.6864
 251   2.0000      -0.537600       -14.6288
 252   2.0000      -0.531820       -14.4716
 253   2.0000      -0.530877       -14.4459
 254   2.0000      -0.529072       -14.3968
 255   2.0000      -0.526626       -14.3302
 256   2.0000      -0.522249       -14.2111
 257   2.0000      -0.520805       -14.1718
 258   2.0000      -0.517010       -14.0686
 259   2.0000      -0.515044       -14.0151
 260   2.0000      -0.514723       -14.0063
 261   2.0000      -0.513385       -13.9699
 262   2.0000      -0.511761       -13.9257
 263   2.0000      -0.510235       -13.8842
 264   2.0000      -0.508094       -13.8259
 265   2.0000      -0.506376       -13.7792
 266   2.0000      -0.505037       -13.7427
 267   2.0000      -0.503447       -13.6995
 268   2.0000      -0.502197       -13.6655
 269   2.0000      -0.498282       -13.5589
 270   2.0000      -0.497109       -13.5270
 271   2.0000      -0.495095       -13.4722
 272   2.0000      -0.490506       -13.3473
 273   2.0000      -0.489779       -13.3276
 274   2.0000      -0.487275       -13.2594
 275   2.0000      -0.485679       -13.2160
 276   2.0000      -0.482575       -13.1315
 277   2.0000      -0.477639       -12.9972
 278   2.0000      -0.475317       -12.9340
 279   2.0000      -0.474757       -12.9188
 280   2.0000      -0.472915       -12.8687
 281   2.0000      -0.470175       -12.7941
 282   2.0000      -0.469755       -12.7827
 283   2.0000      -0.469489       -12.7755
 284   2.0000      -0.467571       -12.7233
 285   2.0000      -0.465326       -12.6622
 286   2.0000      -0.463053       -12.6003
 287   2.0000      -0.461456       -12.5568
 288   2.0000      -0.461279       -12.5520
 289   2.0000      -0.460375       -12.5274
 290   2.0000      -0.456172       -12.4131
 291   2.0000      -0.455366       -12.3911
 292   2.0000      -0.454843       -12.3769
 293   2.0000      -0.454434       -12.3658
 294   2.0000      -0.452468       -12.3123
 295   2.0000      -0.451707       -12.2916
 296   2.0000      -0.450694       -12.2640
 297   2.0000      -0.450188       -12.2502
 298   2.0000      -0.449050       -12.2193
 299   2.0000      -0.447980       -12.1902
 300   2.0000      -0.447482       -12.1766
 301   2.0000      -0.447383       -12.1739
 302   2.0000      -0.446985       -12.1631
 303   2.0000      -0.446670       -12.1545
 304   2.0000      -0.445126       -12.1125
 305   2.0000      -0.442355       -12.0371
 306   2.0000      -0.442090       -12.0299
 307   2.0000      -0.441463       -12.0128
 308   2.0000      -0.437299       -11.8995
 309   2.0000      -0.435994       -11.8640
 310   2.0000      -0.433788       -11.8040
 311   2.0000      -0.431250       -11.7349
 312   2.0000      -0.430653       -11.7187
 313   2.0000      -0.427953       -11.6452
 314   2.0000      -0.427231       -11.6256
 315   2.0000      -0.425197       -11.5702
 316   2.0000      -0.420862       -11.4522
 317   2.0000      -0.416623       -11.3369
 318   2.0000      -0.415331       -11.3017
 319   2.0000      -0.414007       -11.2657
 320   2.0000      -0.412141       -11.2149
 321   2.0000      -0.401122       -10.9151
 322   2.0000      -0.398774       -10.8512
 323   2.0000      -0.395491       -10.7619
 324   2.0000      -0.391744       -10.6599
 325   2.0000      -0.390470       -10.6252
 326   2.0000      -0.388170       -10.5626
 327   2.0000      -0.378821       -10.3082
 328   2.0000      -0.377075       -10.2607
 329   2.0000      -0.376886       -10.2556
 330   2.0000      -0.368179       -10.0187
 331   2.0000      -0.361871        -9.8470
 332   2.0000      -0.358817        -9.7639
 333   2.0000      -0.357401        -9.7254
 334   2.0000      -0.349783        -9.5181
 335   2.0000      -0.346028        -9.4159
 336   2.0000      -0.339934        -9.2501
 337   2.0000      -0.336672        -9.1613
 338   2.0000      -0.332650        -9.0519
 339   2.0000      -0.331627        -9.0240
 340   2.0000      -0.319125        -8.6838
 341   2.0000      -0.318534        -8.6678
 342   2.0000      -0.311410        -8.4739
 343   2.0000      -0.310376        -8.4458
 344   2.0000      -0.297238        -8.0883
 345   2.0000      -0.296754        -8.0751
 346   2.0000      -0.269543        -7.3346
 347   2.0000      -0.267857        -7.2888
 348   0.0000      -0.120143        -3.2692
 349   0.0000      -0.118861        -3.2344
 350   0.0000      -0.094229        -2.5641
 351   0.0000      -0.093530        -2.5451
 352   0.0000      -0.069120        -1.8809

MULLIKEN ATOMIC CHARGES
-----------------------
   0 C :    0.293833
   1 C :   -0.341851
   2 C :   -0.183908
   3 N :    0.152431
   4 C :   -0.202655
   5 N :    0.157834
   6 C :    0.020091
   7 C :   -0.018564
   8 C :   -0.068461
   9 C :    0.118215
  10 C :   -0.090495
  11 C :   -0.021346
  12 S :    0.188887
  13 C :   -0.122072
  14 C :    0.037227
  15 Br:    0.027184
  16 C :    0.153603
  17 O :   -0.149677
  18 C :   -0.086345
  19 C :    0.030701
  20 C :   -0.112896
  21 C :    0.016980
  22 C :   -0.015774
  23 C :   -0.083476
  24 S :    0.218712
  25 C :   -0.093861
  26 C :    0.037192
  27 C :    0.306199
  28 C :   -0.293362
  29 C :   -0.187484
  30 N :    0.192913
  31 C :   -0.190925
  32 N :    0.171590
  33 C :   -0.065873
  34 C :   -0.094871
  35 S :    0.236197
  36 C :   -0.073597
  37 C :    0.015524
  38 C :   -0.373017
  39 N :    0.225701
  40 C :    0.134359
  41 C :   -0.225168
  42 S :    0.185468
  43 S :    0.207174
  44 C :   -0.224902
  45 C :    0.139379
  46 C :    0.015985
  47 C :   -0.372165
  48 N :    0.221299
  49 C :   -0.072833
  50 S :    0.181645
  51 C :   -0.093168
  52 C :   -0.065994
  53 C :    0.036711
  54 C :   -0.094496
  55 S :    0.233490
  56 C :   -0.072008
  57 C :   -0.006484
  58 C :    0.303699
  59 C :   -0.284795
  60 C :   -0.189554
  61 N :    0.174451
  62 C :   -0.184460
  63 N :    0.174365
  64 C :    0.002167
  65 C :   -0.113589
  66 S :    0.226452
  67 C :    0.082952
  68 C :   -0.134223
  69 C :    0.267029
  70 C :   -0.328406
  71 C :   -0.171752
  72 N :    0.160964
  73 C :   -0.200719
  74 N :    0.167689
  75 C :   -0.002931
  76 C :    0.004271
  77 C :    0.133748
  78 O :   -0.142421
  79 C :   -0.069322
  80 C :    0.109682
  81 C :   -0.087794
  82 C :   -0.015853
  83 S :    0.190006
  84 C :   -0.126897
  85 C :    0.043726
  86 Br:    0.026286
  87 H :   -0.005642
  88 H :   -0.004110
  89 H :   -0.000796
  90 H :    0.020497
  91 H :    0.036526
  92 H :    0.019381
  93 H :    0.019919
  94 H :    0.025394
  95 H :    0.022727
  96 H :   -0.007994
  97 H :    0.003148
  98 H :   -0.002615
Sum of atomic charges:   -0.0000000

LOEWDIN ATOMIC CHARGES
----------------------
   0 C :    0.075396
   1 C :   -0.140449
   2 C :   -0.018619
   3 N :   -0.050706
   4 C :   -0.025727
   5 N :   -0.050655
   6 C :   -0.021577
   7 C :   -0.050888
   8 C :    0.024425
   9 C :   -0.031470
  10 C :   -0.143335
  11 C :   -0.009183
  12 S :    0.434749
  13 C :   -0.270534
  14 C :   -0.069750
  15 Br:    0.139455
  16 C :    0.085953
  17 O :   -0.136347
  18 C :   -0.092342
  19 C :    0.041851
  20 C :   -0.175025
  21 C :    0.020356
  22 C :   -0.072667
  23 C :   -0.161814
  24 S :    0.504951
  25 C :   -0.184522
  26 C :   -0.056690
  27 C :    0.076524
  28 C :   -0.093520
  29 C :   -0.021690
  30 N :   -0.014966
  31 C :   -0.014952
  32 N :   -0.031459
  33 C :   -0.030799
  34 C :   -0.182452
  35 S :    0.530895
  36 C :   -0.141624
  37 C :   -0.103970
  38 C :   -0.059319
  39 N :   -0.023881
  40 C :   -0.061204
  41 C :   -0.330956
  42 S :    0.467756
  43 S :    0.437704
  44 C :   -0.331149
  45 C :   -0.061272
  46 C :   -0.105775
  47 C :   -0.059197
  48 N :   -0.024956
  49 C :   -0.139115
  50 S :    0.466407
  51 C :   -0.185318
  52 C :   -0.028902
  53 C :   -0.059839
  54 C :   -0.179190
  55 S :    0.531034
  56 C :   -0.161716
  57 C :   -0.064463
  58 C :    0.082119
  59 C :   -0.096799
  60 C :   -0.016274
  61 N :   -0.029891
  62 C :   -0.013373
  63 N :   -0.029275
  64 C :    0.009141
  65 C :   -0.178898
  66 S :    0.509194
  67 C :    0.040990
  68 C :   -0.088315
  69 C :    0.064956
  70 C :   -0.135947
  71 C :   -0.019324
  72 N :   -0.044079
  73 C :   -0.016137
  74 N :   -0.045052
  75 C :   -0.018004
  76 C :   -0.053891
  77 C :    0.084027
  78 O :   -0.141464
  79 C :    0.023909
  80 C :   -0.032856
  81 C :   -0.142396
  82 C :   -0.008936
  83 S :    0.436362
  84 C :   -0.271154
  85 C :   -0.069991
  86 Br:    0.138990
  87 H :    0.042699
  88 H :    0.041486
  89 H :    0.039780
  90 H :    0.043953
  91 H :    0.044869
  92 H :    0.036409
  93 H :    0.036373
  94 H :    0.042756
  95 H :    0.046507
  96 H :    0.041904
  97 H :    0.042952
  98 H :    0.039205

  Mayer bond orders larger than 0.100000
B(  0-C ,  1-C ) :   1.6349 B(  0-C ,  6-C ) :   1.0059 B(  0-C , 18-C ) :   1.0700
B(  1-C ,  2-C ) :   1.1413 B(  1-C ,  4-C ) :   1.1383 B(  2-C ,  3-N ) :   2.9733
B(  4-C ,  5-N ) :   2.9912 B(  6-C ,  7-C ) :   1.2719 B(  6-C , 11-C ) :   1.4082
B(  7-C ,  8-C ) :   1.4225 B(  7-C , 16-C ) :   0.9492 B(  8-C ,  9-C ) :   1.2462
B(  8-C , 87-H ) :   1.0176 B(  9-C , 10-C ) :   1.3016 B(  9-C , 14-C ) :   1.1646
B( 10-C , 11-C ) :   1.3309 B( 10-C , 12-S ) :   1.0878 B( 11-C , 88-H ) :   0.9810
B( 12-S , 13-C ) :   1.0858 B( 13-C , 14-C ) :   1.6177 B( 13-C , 15-Br) :   1.0206
B( 14-C , 89-H ) :   1.0006 B( 16-C , 17-O ) :   2.1879 B( 16-C , 18-C ) :   0.9410
B( 18-C , 19-C ) :   1.6098 B( 19-C , 20-C ) :   1.1951 B( 19-C , 90-H ) :   0.9214
B( 20-C , 21-C ) :   1.4086 B( 20-C , 24-S ) :   1.0813 B( 21-C , 22-C ) :   1.3228
B( 21-C , 91-H ) :   0.9743 B( 22-C , 23-C ) :   1.3874 B( 22-C , 27-C ) :   0.9939
B( 23-C , 24-S ) :   1.1698 B( 23-C , 25-C ) :   1.1931 B( 25-C , 26-C ) :   1.4258
B( 25-C , 35-S ) :   1.1248 B( 26-C , 27-C ) :   0.9899 B( 26-C , 33-C ) :   1.3179
B( 27-C , 28-C ) :   1.7212 B( 28-C , 29-C ) :   1.1319 B( 28-C , 31-C ) :   1.1367
B( 29-C , 30-N ) :   2.9969 B( 31-C , 32-N ) :   2.9861 B( 33-C , 34-C ) :   1.4320
B( 33-C , 92-H ) :   0.9838 B( 34-C , 35-S ) :   1.1204 B( 34-C , 36-C ) :   1.1871
B( 36-C , 37-C ) :   1.4913 B( 36-C , 42-S ) :   1.1466 B( 37-C , 38-C ) :   1.1525
B( 37-C , 40-C ) :   1.2528 B( 38-C , 39-N ) :   2.9666 B( 40-C , 41-C ) :   1.4212
B( 40-C , 45-C ) :   1.0723 B( 41-C , 42-S ) :   1.0849 B( 41-C , 43-S ) :   1.0878
B( 43-S , 44-C ) :   1.0874 B( 44-C , 45-C ) :   1.4236 B( 44-C , 50-S ) :   1.0834
B( 45-C , 46-C ) :   1.2510 B( 46-C , 47-C ) :   1.1514 B( 46-C , 49-C ) :   1.4922
B( 47-C , 48-N ) :   2.9624 B( 49-C , 50-S ) :   1.1462 B( 49-C , 51-C ) :   1.1951
B( 51-C , 52-C ) :   1.4310 B( 51-C , 55-S ) :   1.1164 B( 52-C , 53-C ) :   1.3177
B( 52-C , 93-H ) :   0.9845 B( 53-C , 54-C ) :   1.4283 B( 53-C , 58-C ) :   0.9903
B( 54-C , 55-S ) :   1.1267 B( 54-C , 56-C ) :   1.1875 B( 56-C , 57-C ) :   1.4124
B( 56-C , 66-S ) :   1.1580 B( 57-C , 58-C ) :   1.0003 B( 57-C , 64-C ) :   1.3569
B( 58-C , 59-C ) :   1.7179 B( 59-C , 60-C ) :   1.1345 B( 59-C , 62-C ) :   1.1346
B( 60-C , 61-N ) :   2.9896 B( 62-C , 63-N ) :   2.9840 B( 64-C , 65-C ) :   1.3984
B( 64-C , 94-H ) :   0.9791 B( 65-C , 66-S ) :   1.0944 B( 65-C , 67-C ) :   1.1313
B( 67-C , 68-C ) :   1.6810 B( 67-C , 95-H ) :   0.9266 B( 68-C , 69-C ) :   1.0348
B( 68-C , 77-C ) :   0.9411 B( 69-C , 70-C ) :   1.6503 B( 69-C , 75-C ) :   1.0120
B( 70-C , 71-C ) :   1.1245 B( 70-C , 73-C ) :   1.1717 B( 71-C , 72-N ) :   2.9941
B( 73-C , 74-N ) :   2.9944 B( 75-C , 76-C ) :   1.2730 B( 75-C , 82-C ) :   1.4167
B( 76-C , 77-C ) :   0.9224 B( 76-C , 79-C ) :   1.4247 B( 77-C , 78-O ) :   2.2638
B( 79-C , 80-C ) :   1.2537 B( 79-C , 96-H ) :   1.0163 B( 80-C , 81-C ) :   1.3032
B( 80-C , 85-C ) :   1.1658 B( 81-C , 82-C ) :   1.3284 B( 81-C , 83-S ) :   1.0862
B( 82-C , 97-H ) :   0.9834 B( 83-S , 84-C ) :   1.0885 B( 84-C , 85-C ) :   1.6171
B( 84-C , 86-Br) :   1.0201 B( 85-C , 98-H ) :   0.9999

-----------------------------------------------------------------------------
         ABSORPTION SPECTRUM VIA TRANSITION ELECTRIC DIPOLE MOMENTS
-----------------------------------------------------------------------------
State   Energy  Wavelength   fosc         T2         TX        TY        TZ
        (cm-1)    (nm)                  (au**2)     (au)      (au)      (au)
-----------------------------------------------------------------------------
   0   13882.8    720.3   0.350984239   8.32313  -1.08526  -2.57290  -0.72492
   1   14475.2    690.8   0.241174240   5.48506  -0.35232   2.14660  -0.86779
   2   20728.5    482.4   1.399315129  22.22401  -1.44590  -4.30949  -1.24966
   3   21791.9    458.9   1.145079695  17.29882  -0.76368   3.59628  -1.94483
   4   23085.8    433.2   0.004581691   0.06534  -0.12828   0.14490  -0.16698
   5   23823.8    419.7   0.001248693   0.01726   0.08259   0.01009   0.10165
   6   25031.2    399.5   0.025302738   0.33278  -0.51276  -0.18531   0.18848
   7   25196.7    396.9   0.051368374   0.67116   0.00091   0.55277   0.60466
   8   26204.3    381.6   0.013541443   0.17013  -0.09265   0.35609  -0.18638
   9   26356.3    379.4   0.027140476   0.33901  -0.45768   0.32014   0.16446
  10   27462.0    364.1   1.084425616  12.99998  -1.71423  -2.97016  -1.11336
  11   27888.0    358.6   0.068165379   0.80468   0.83854  -0.31252   0.06221
  12   28498.8    350.9   0.203447404   2.35018  -0.29920  -1.48774   0.21744
  13   28636.9    349.2   0.099154520   1.13989  -0.29238   1.00785   0.19658
  14   28951.9    345.4   0.016956221   0.19281  -0.01071  -0.43344  -0.06947
  15   29201.6    342.4   0.124889966   1.40798   0.96021   0.69670  -0.02411
  16   29922.2    334.2   0.141020567   1.55154   0.42225   1.17154   0.02739
  17   30055.5    332.7   0.100537423   1.10124  -0.47502   0.75855   0.54790
  18   30090.1    332.3   0.020208958   0.22110   0.06750  -0.38332  -0.26384
  19   30451.6    328.4   0.033124326   0.35811   0.43179  -0.34577  -0.22827
  20   30661.2    326.1   0.048394410   0.51962   0.57815  -0.30800   0.30082
  21   30777.1    324.9   0.229226321   2.45196  -1.22745   0.40685  -0.88306
  22   31037.2    322.2   0.157064198   1.66598   0.04969  -1.20526  -0.45918
  23   31171.7    320.8   0.038653106   0.40823   0.13668  -0.35797   0.51128
  24   31272.2    319.8   0.391036930   4.11656  -0.87517  -0.36091  -1.79454
  25   31473.1    317.7   0.093623757   0.97931   0.63083  -0.13390   0.75063
  26   32260.4    310.0   0.511053973   5.21522   0.80453   2.11155   0.33062
  27   32324.2    309.4   0.146790560   1.49502   0.42486  -1.02321  -0.51725
  28   32394.4    308.7   0.091971847   0.93468  -0.48579   0.83450   0.04797
  29   32430.0    308.4   0.118707888   1.20506   0.19516   1.05575  -0.22884
  30   33209.5    301.1   0.103909669   1.03007  -0.27981  -0.92383   0.31357
  31   33270.8    300.6   0.093997926   0.93010  -0.35934   0.02130  -0.89472
  32   33686.6    296.9   0.011888863   0.11619  -0.14703   0.09153  -0.29359
  33   33746.2    296.3   0.016268764   0.15871   0.34076  -0.00923   0.20618
  34   33903.2    295.0   0.016250469   0.15780   0.33592   0.04969   0.20612
  35   33947.5    294.6   0.043338968   0.42029   0.63477   0.09081  -0.09542
  36   33992.8    294.2   0.039056261   0.37825   0.56520  -0.13427   0.20193
  37   34038.7    293.8   0.065507618   0.63357  -0.68009  -0.01702  -0.41323
  38   34250.6    292.0   0.012583557   0.12095  -0.15784   0.30875   0.02672
  39   34300.5    291.5   0.416130966   3.99397  -0.48207  -0.82395  -1.75576
  40   34370.6    290.9   0.192281108   1.84172  -1.13775  -0.45927   0.57993
  41   34943.1    286.2   0.160391063   1.51110   0.54059   1.10255  -0.05698
  42   35199.6    284.1   0.066456343   0.62155  -0.09275  -0.75462  -0.20857
  43   35881.1    278.7   0.132357110   1.21439  -0.77334   0.57872  -0.53048
  44   36207.4    276.2   0.028688259   0.26084  -0.25592   0.36948  -0.24256
  45   36741.5    272.2   0.050225034   0.45003  -0.36606   0.37436  -0.41938
  46   37104.1    269.5   0.087734717   0.77844   0.43888   0.33182   0.68972
  47   37365.7    267.6   0.019635870   0.17300   0.37364   0.09909   0.15356
  48   38402.0    260.4   0.004079659   0.03497   0.15297  -0.10758   0.00098
  49   38545.5    259.4   0.003726971   0.03183   0.13761  -0.07404   0.08610
  50   38615.3    259.0   0.042608985   0.36326  -0.07193   0.51926  -0.29741
  51   38645.2    258.8   0.031273480   0.26641   0.03866  -0.44452   0.25946
  52   38760.9    258.0   0.037605533   0.31940  -0.37619   0.24604  -0.34256
  53   38788.4    257.8   0.000079447   0.00067   0.01525  -0.02013   0.00605
  54   38836.1    257.5   0.001291596   0.01095   0.03113  -0.04626  -0.08854
  55   39018.1    256.3   0.030131399   0.25423   0.18607  -0.41540   0.21691
  56   39072.4    255.9   0.037294181   0.31423   0.22387  -0.45902   0.23111
  57   39212.2    255.0   0.143514482   1.20490   0.37685  -0.95636   0.38504
  58   39404.4    253.8   0.024767957   0.20693  -0.39217   0.01662   0.22991
  59   39560.0    252.8   0.002867333   0.02386  -0.01453   0.13048   0.08140
  60   39858.4    250.9   0.063265891   0.52255   0.03687   0.68503   0.22787
  61   40206.5    248.7   0.004143058   0.03392   0.02830  -0.15372   0.09743
  62   40308.2    248.1   0.006394486   0.05223  -0.13872  -0.14968   0.10285

FINAL SINGLE POINT ENERGY    -11870.351263462890

DIPOLE MOMENT
-------------
                                X             Y             Z
Electronic contribution:     55.11815      -9.44038       3.10130
Nuclear contribution   :    -53.41633       9.59822      -5.67956
                        -----------------------------------------
Total Dipole Moment    :      1.70183       0.15784      -2.57827
                        -----------------------------------------
Magnitude (a.u.)       :      3.09331
Magnitude (Debye)      :      7.86258

Rotational constants in cm-1:     0.001136     0.000083     0.000079
Rotational constants in MHz :    34.046078     2.479220     2.356799

                             ****ORCA TERMINATED NORMALLY****
TOTAL RUN TIME: 0 days 0 hours 11 minutes 35 seconds 920 msec
