                         Program Version 4.2.0 -  RELEASE  -
|  1> # ORCA input file
|  2> # SCF done       -217.302365680756          0.000770658528
|  3> ! CAM-B3LYP def2-SVP def2/J RIJCOSX Grid4 TightSCF
|  4> %maxcore 5000
|  5> %tddft
|  6>     Mode sTDDFT
|  7>     Ethresh 5.0
|  8>     maxcore 5000
|  9> end
| 10>
| 11> %pal
| 12>   nprocs 6
| 13>   end
| 14> * xyz 0 1
| 15>    C       -5.53595         1.15546        -4.83548
| 16>    C       -5.67774         1.21565        -6.19367
| 17>    F       -5.66431         2.39883        -6.82018
| 18>    C       -5.83939         0.03800        -6.95100
| 19>    F       -5.97694         0.12672        -8.28041
| 20>    C       -5.85595        -1.18432        -6.33938
| 21>    C       -5.71126        -1.27893        -4.94179
| 22>    C       -5.54915        -0.08912        -4.17454
| 23>    C       -5.40385        -0.15866        -2.76955
| 24>    C       -5.41857        -1.38045        -2.15034
| 25>    C       -5.57801        -2.56253        -2.92652
| 26>    C       -5.72241        -2.52856        -4.28342
| 27>    C       -5.55459        -3.73043        -2.03196
| 28>    O       -5.66069        -4.89880        -2.36686
| 29>    C       -5.38003        -3.20741        -0.67407
| 30>    C       -5.29456        -1.76000        -0.74378
| 31>    C       -5.13076        -0.88225         0.29575
| 32>    C       -5.00921        -1.22676         1.65879
| 33>    N       -4.90398        -1.42075         2.78575
| 34>    C       -5.06067         0.51903         0.14151
| 35>    N       -4.99486         1.66356         0.08637
| 36>    C       -5.31567        -3.96700         0.46765
| 37>    C       -5.39478        -5.35592         0.64095
| 38>    C       -5.32297        -5.94136         1.91286
| 39>    C       -5.43393        -7.31612         1.87064
| 40>    C       -5.58803        -7.80053         0.54771
| 41>    S       -5.59820        -6.56718        -0.62625
| 42>    C       -5.70867        -9.20905         0.61300
| 43>    C       -5.63754        -9.61604         1.95874
| 44>    C       -5.45335        -8.44141         2.79377
| 45>    C       -5.32540        -8.40668         4.15054
| 46>    C       -5.35971        -9.57582         4.94105
| 47>    N       -5.38529       -10.51904         5.59213
| 48>    C       -5.14584        -7.19883         4.85864
| 49>    N       -4.99778        -6.22242         5.44052
| 50>    C       -5.77215       -10.99267         2.12082
| 51>    C       -5.94109       -11.64692         0.91395
| 52>    S       -5.92631       -10.52876        -0.44649
| 53>    C       -6.13758       -13.04740         0.69184
| 54>    C       -6.17877       -13.58990        -0.58535
| 55>    C       -6.40725       -14.93936        -0.82552
| 56>    C       -6.63049       -15.85707         0.19144
| 57>    C       -6.57677       -15.35591         1.52632
| 58>    C       -6.32288       -13.95621         1.77661
| 59>    N       -6.29685       -13.63783         3.06361
| 60>   Se       -6.57512       -15.06024         4.03513
| 61>    N       -6.73039       -16.07936         2.62714
| 62>    C       -6.91772       -17.23361        -0.07687
| 63>    C       -7.37529       -18.18973         0.81206
| 64>    C       -7.58164       -19.42236         0.19920
| 65>    C       -7.26570       -19.41619        -1.17206
| 66>    S       -6.73340       -17.88286        -1.70187
| 67>    C       -7.51303       -20.70656        -1.69687
| 68>    C       -7.99151       -21.53147        -0.65542
| 69>    C       -8.05193       -20.74811         0.56766
| 70>    C       -8.46723       -21.16284         1.79800
| 71>    C       -8.90381       -22.48398         2.03612
| 72>    N       -9.25447       -23.55645         2.23834
| 73>    C       -8.48729       -20.30284         2.91754
| 74>    N       -8.50880       -19.61292         3.83273
| 75>    C       -8.25533       -22.82733        -1.07480
| 76>    C       -8.01497       -23.00625        -2.43246
| 77>    S       -7.40042       -21.53131        -3.18021
| 78>    C       -8.13422       -24.23837        -3.10693
| 79>    C       -8.09944       -24.54456        -4.43449
| 80>    C       -7.76161       -25.94017        -4.83197
| 81>    O       -7.73935       -26.91172        -4.11361
| 82>    C       -7.40169       -25.85703        -6.26191
| 83>    C       -6.90520       -26.83159        -7.07822
| 84>    C       -6.60528       -26.51416        -8.42195
| 85>    C       -6.82160       -25.18612        -8.89235
| 86>    C       -6.51317       -24.87589       -10.23207
| 87>    C       -6.01714       -25.83861       -11.06573
| 88>    C       -5.80557       -27.15194       -10.59984
| 89>    C       -6.09336       -27.48405        -9.30570
| 90>    F       -5.31704       -28.07463       -11.43896
| 91>    F       -5.72558       -25.54146       -12.33857
| 92>    C       -7.34497       -24.19929        -8.02524
| 93>    C       -7.63713       -24.53262        -6.73019
| 94>    C       -8.22326       -23.75643        -5.63943
| 95>    C       -8.99810       -22.63629        -5.79800
| 96>    C       -9.81057       -22.11228        -4.77247
| 97>    N      -10.51667       -21.69720        -3.96788
| 98>    C       -9.14699       -21.95403        -7.02183
| 99>    N       -9.27884       -21.35365        -7.99109
|100>    H       -5.41349         2.06660        -4.27092
|101>    H       -5.98041        -2.07636        -6.93310
|102>    H       -5.28429         0.76103        -2.22063
|103>    H       -5.84254        -3.44193        -4.84595
|104>    H       -5.18717        -3.43462         1.40237
|105>    H       -5.19921        -5.35423         2.80582
|106>    H       -5.75608       -11.51756         3.05748
|107>    H       -6.03348       -12.93449        -1.43183
|108>    H       -6.43111       -15.28358        -1.84939
|109>    H       -7.54549       -17.97014         1.84925
|110>    H       -8.62748       -23.61762        -0.44801
|111>    H       -8.17487       -25.10479        -2.45147
|112>    H       -6.74473       -27.83141        -6.70469
|113>    H       -6.67304       -23.87691       -10.60661
|114>    H       -5.92617       -28.49352        -8.96405
|115>    H       -7.49370       -23.20065        -8.40440
|116> *
|117>
|118>                          ****END OF INPUT****

CARTESIAN COORDINATES (ANGSTROEM)
---------------------------------
  C     -5.535950    1.155460   -4.835480
  C     -5.677740    1.215650   -6.193670
  F     -5.664310    2.398830   -6.820180
  C     -5.839390    0.038000   -6.951000
  F     -5.976940    0.126720   -8.280410
  C     -5.855950   -1.184320   -6.339380
  C     -5.711260   -1.278930   -4.941790
  C     -5.549150   -0.089120   -4.174540
  C     -5.403850   -0.158660   -2.769550
  C     -5.418570   -1.380450   -2.150340
  C     -5.578010   -2.562530   -2.926520
  C     -5.722410   -2.528560   -4.283420
  C     -5.554590   -3.730430   -2.031960
  O     -5.660690   -4.898800   -2.366860
  C     -5.380030   -3.207410   -0.674070
  C     -5.294560   -1.760000   -0.743780
  C     -5.130760   -0.882250    0.295750
  C     -5.009210   -1.226760    1.658790
  N     -4.903980   -1.420750    2.785750
  C     -5.060670    0.519030    0.141510
  N     -4.994860    1.663560    0.086370
  C     -5.315670   -3.967000    0.467650
  C     -5.394780   -5.355920    0.640950
  C     -5.322970   -5.941360    1.912860
  C     -5.433930   -7.316120    1.870640
  C     -5.588030   -7.800530    0.547710
  S     -5.598200   -6.567180   -0.626250
  C     -5.708670   -9.209050    0.613000
  C     -5.637540   -9.616040    1.958740
  C     -5.453350   -8.441410    2.793770
  C     -5.325400   -8.406680    4.150540
  C     -5.359710   -9.575820    4.941050
  N     -5.385290  -10.519040    5.592130
  C     -5.145840   -7.198830    4.858640
  N     -4.997780   -6.222420    5.440520
  C     -5.772150  -10.992670    2.120820
  C     -5.941090  -11.646920    0.913950
  S     -5.926310  -10.528760   -0.446490
  C     -6.137580  -13.047400    0.691840
  C     -6.178770  -13.589900   -0.585350
  C     -6.407250  -14.939360   -0.825520
  C     -6.630490  -15.857070    0.191440
  C     -6.576770  -15.355910    1.526320
  C     -6.322880  -13.956210    1.776610
  N     -6.296850  -13.637830    3.063610
  Se    -6.575120  -15.060240    4.035130
  N     -6.730390  -16.079360    2.627140
  C     -6.917720  -17.233610   -0.076870
  C     -7.375290  -18.189730    0.812060
  C     -7.581640  -19.422360    0.199200
  C     -7.265700  -19.416190   -1.172060
  S     -6.733400  -17.882860   -1.701870
  C     -7.513030  -20.706560   -1.696870
  C     -7.991510  -21.531470   -0.655420
  C     -8.051930  -20.748110    0.567660
  C     -8.467230  -21.162840    1.798000
  C     -8.903810  -22.483980    2.036120
  N     -9.254470  -23.556450    2.238340
  C     -8.487290  -20.302840    2.917540
  N     -8.508800  -19.612920    3.832730
  C     -8.255330  -22.827330   -1.074800
  C     -8.014970  -23.006250   -2.432460
  S     -7.400420  -21.531310   -3.180210
  C     -8.134220  -24.238370   -3.106930
  C     -8.099440  -24.544560   -4.434490
  C     -7.761610  -25.940170   -4.831970
  O     -7.739350  -26.911720   -4.113610
  C     -7.401690  -25.857030   -6.261910
  C     -6.905200  -26.831590   -7.078220
  C     -6.605280  -26.514160   -8.421950
  C     -6.821600  -25.186120   -8.892350
  C     -6.513170  -24.875890  -10.232070
  C     -6.017140  -25.838610  -11.065730
  C     -5.805570  -27.151940  -10.599840
  C     -6.093360  -27.484050   -9.305700
  F     -5.317040  -28.074630  -11.438960
  F     -5.725580  -25.541460  -12.338570
  C     -7.344970  -24.199290   -8.025240
  C     -7.637130  -24.532620   -6.730190
  C     -8.223260  -23.756430   -5.639430
  C     -8.998100  -22.636290   -5.798000
  C     -9.810570  -22.112280   -4.772470
  N    -10.516670  -21.697200   -3.967880
  C     -9.146990  -21.954030   -7.021830
  N     -9.278840  -21.353650   -7.991090
  H     -5.413490    2.066600   -4.270920
  H     -5.980410   -2.076360   -6.933100
  H     -5.284290    0.761030   -2.220630
  H     -5.842540   -3.441930   -4.845950
  H     -5.187170   -3.434620    1.402370
  H     -5.199210   -5.354230    2.805820
  H     -5.756080  -11.517560    3.057480
  H     -6.033480  -12.934490   -1.431830
  H     -6.431110  -15.283580   -1.849390
  H     -7.545490  -17.970140    1.849250
  H     -8.627480  -23.617620   -0.448010
  H     -8.174870  -25.104790   -2.451470
  H     -6.744730  -27.831410   -6.704690
  H     -6.673040  -23.876910  -10.606610
  H     -5.926170  -28.493520   -8.964050
  H     -7.493700  -23.200650   -8.404400

 Total Charge           Charge          ....    0
 Multiplicity           Mult            ....    1
 Number of Electrons    NEL             ....  620
 Basis Dimension        Dim             .... 1304

ORBITAL ENERGIES
----------------

  NO   OCC          E(Eh)            E(eV)
   0   2.0000    -453.996286    -12353.8670
   1   2.0000     -89.003215     -2421.9006
   2   2.0000     -89.000067     -2421.8149
   3   2.0000     -88.997878     -2421.7554
   4   2.0000     -88.996036     -2421.7053
   5   2.0000     -58.210036     -1583.9756
   6   2.0000     -52.280751     -1422.6315
   7   2.0000     -52.278349     -1422.5662
   8   2.0000     -52.277915     -1422.5544
   9   2.0000     -24.802407      -674.9078
  10   2.0000     -24.802158      -674.9010
  11   2.0000     -24.801474      -674.8824
  12   2.0000     -24.801213      -674.8753
  13   2.0000     -19.231050      -523.3035
  14   2.0000     -19.220634      -523.0201
  15   2.0000     -14.451749      -393.2521
  16   2.0000     -14.451681      -393.2502
  17   2.0000     -14.437436      -392.8626
  18   2.0000     -14.436776      -392.8446
  19   2.0000     -14.434566      -392.7845
  20   2.0000     -14.434064      -392.7709
  21   2.0000     -14.423722      -392.4894
  22   2.0000     -14.422445      -392.4547
  23   2.0000     -14.421603      -392.4318
  24   2.0000     -14.418743      -392.3540
  25   2.0000     -10.385723      -282.6099
  26   2.0000     -10.385490      -282.6036
  27   2.0000     -10.385115      -282.5934
  28   2.0000     -10.384940      -282.5886
  29   2.0000     -10.378811      -282.4218
  30   2.0000     -10.373518      -282.2778
  31   2.0000     -10.372454      -282.2488
  32   2.0000     -10.370546      -282.1969
  33   2.0000     -10.360264      -281.9171
  34   2.0000     -10.357993      -281.8553
  35   2.0000     -10.352750      -281.7127
  36   2.0000     -10.351469      -281.6778
  37   2.0000     -10.350599      -281.6541
  38   2.0000     -10.347554      -281.5713
  39   2.0000     -10.346885      -281.5531
  40   2.0000     -10.344202      -281.4800
  41   2.0000     -10.343946      -281.4731
  42   2.0000     -10.342355      -281.4298
  43   2.0000     -10.340819      -281.3880
  44   2.0000     -10.339981      -281.3652
  45   2.0000     -10.337238      -281.2905
  46   2.0000     -10.336742      -281.2771
  47   2.0000     -10.336634      -281.2741
  48   2.0000     -10.335715      -281.2491
  49   2.0000     -10.335258      -281.2367
  50   2.0000     -10.334670      -281.2207
  51   2.0000     -10.333712      -281.1946
  52   2.0000     -10.333354      -281.1849
  53   2.0000     -10.332793      -281.1696
  54   2.0000     -10.331685      -281.1394
  55   2.0000     -10.326237      -280.9912
  56   2.0000     -10.324197      -280.9357
  57   2.0000     -10.323976      -280.9297
  58   2.0000     -10.323523      -280.9173
  59   2.0000     -10.323410      -280.9143
  60   2.0000     -10.321819      -280.8710
  61   2.0000     -10.320961      -280.8476
  62   2.0000     -10.319131      -280.7978
  63   2.0000     -10.315412      -280.6966
  64   2.0000     -10.315111      -280.6884
  65   2.0000     -10.314990      -280.6852
  66   2.0000     -10.314858      -280.6816
  67   2.0000     -10.314796      -280.6799
  68   2.0000     -10.314758      -280.6788
  69   2.0000     -10.313724      -280.6507
  70   2.0000     -10.313588      -280.6470
  71   2.0000     -10.312297      -280.6119
  72   2.0000     -10.311499      -280.5902
  73   2.0000     -10.311443      -280.5886
  74   2.0000     -10.311093      -280.5791
  75   2.0000     -10.308437      -280.5068
  76   2.0000     -10.307907      -280.4924
  77   2.0000     -10.307481      -280.4808
  78   2.0000     -10.306704      -280.4597
  79   2.0000     -10.305609      -280.4299
  80   2.0000     -10.305247      -280.4200
  81   2.0000     -10.305246      -280.4200
  82   2.0000     -10.304740      -280.4062
  83   2.0000     -10.304731      -280.4060
  84   2.0000     -10.304398      -280.3969
  85   2.0000     -10.303280      -280.3665
  86   2.0000     -10.301755      -280.3250
  87   2.0000     -10.298988      -280.2497
  88   2.0000     -10.298985      -280.2496
  89   2.0000      -8.097377      -220.3408
  90   2.0000      -8.094438      -220.2609
  91   2.0000      -8.092314      -220.2031
  92   2.0000      -8.088155      -220.0899
  93   2.0000      -7.985786      -217.3043
  94   2.0000      -6.066617      -165.0810
  95   2.0000      -6.063697      -165.0016
  96   2.0000      -6.062359      -164.9652
  97   2.0000      -6.061540      -164.9429
  98   2.0000      -6.059838      -164.8966
  99   2.0000      -6.059509      -164.8876
 100   2.0000      -6.057585      -164.8353
 101   2.0000      -6.057361      -164.8292
 102   2.0000      -6.056866      -164.8157
 103   2.0000      -6.054773      -164.7588
 104   2.0000      -6.052820      -164.7056
 105   2.0000      -6.050760      -164.6496
 106   2.0000      -5.935947      -161.5253
 107   2.0000      -5.929192      -161.3415
 108   2.0000      -5.925670      -161.2457
 109   2.0000      -2.289999       -62.3140
 110   2.0000      -2.289361       -62.2967
 111   2.0000      -2.285021       -62.1786
 112   2.0000      -2.279874       -62.0385
 113   2.0000      -2.279621       -62.0316
 114   2.0000      -1.324907       -36.0526
 115   2.0000      -1.324867       -36.0515
 116   2.0000      -1.310012       -35.6473
 117   2.0000      -1.309989       -35.6466
 118   2.0000      -1.146536       -31.1988
 119   2.0000      -1.136646       -30.9297
 120   2.0000      -1.108784       -30.1715
 121   2.0000      -1.056155       -28.7394
 122   2.0000      -1.052083       -28.6286
 123   2.0000      -1.029871       -28.0242
 124   2.0000      -1.027179       -27.9510
 125   2.0000      -1.026551       -27.9339
 126   2.0000      -1.025029       -27.8925
 127   2.0000      -1.014771       -27.6133
 128   2.0000      -1.011959       -27.5368
 129   2.0000      -1.011516       -27.5248
 130   2.0000      -1.009740       -27.4764
 131   2.0000      -1.009512       -27.4702
 132   2.0000      -1.008173       -27.4338
 133   2.0000      -1.001362       -27.2484
 134   2.0000      -0.998795       -27.1786
 135   2.0000      -0.988332       -26.8939
 136   2.0000      -0.987429       -26.8693
 137   2.0000      -0.985083       -26.8055
 138   2.0000      -0.980866       -26.6907
 139   2.0000      -0.966539       -26.3009
 140   2.0000      -0.960562       -26.1382
 141   2.0000      -0.938899       -25.5488
 142   2.0000      -0.938063       -25.5260
 143   2.0000      -0.927681       -25.2435
 144   2.0000      -0.923196       -25.1214
 145   2.0000      -0.909216       -24.7410
 146   2.0000      -0.905836       -24.6491
 147   2.0000      -0.897925       -24.4338
 148   2.0000      -0.896998       -24.4085
 149   2.0000      -0.889899       -24.2154
 150   2.0000      -0.885674       -24.1004
 151   2.0000      -0.883228       -24.0339
 152   2.0000      -0.875386       -23.8205
 153   2.0000      -0.871455       -23.7135
 154   2.0000      -0.864406       -23.5217
 155   2.0000      -0.863233       -23.4898
 156   2.0000      -0.858963       -23.3736
 157   2.0000      -0.845583       -23.0095
 158   2.0000      -0.845423       -23.0051
 159   2.0000      -0.832035       -22.6408
 160   2.0000      -0.822452       -22.3801
 161   2.0000      -0.803548       -21.8657
 162   2.0000      -0.787228       -21.4216
 163   2.0000      -0.784272       -21.3411
 164   2.0000      -0.780343       -21.2342
 165   2.0000      -0.774156       -21.0659
 166   2.0000      -0.771651       -20.9977
 167   2.0000      -0.764185       -20.7945
 168   2.0000      -0.747971       -20.3533
 169   2.0000      -0.745102       -20.2753
 170   2.0000      -0.733151       -19.9501
 171   2.0000      -0.726132       -19.7591
 172   2.0000      -0.723153       -19.6780
 173   2.0000      -0.720182       -19.5972
 174   2.0000      -0.715858       -19.4795
 175   2.0000      -0.713293       -19.4097
 176   2.0000      -0.707096       -19.2411
 177   2.0000      -0.700114       -19.0511
 178   2.0000      -0.695041       -18.9130
 179   2.0000      -0.693398       -18.8683
 180   2.0000      -0.689910       -18.7734
 181   2.0000      -0.686899       -18.6915
 182   2.0000      -0.681673       -18.5493
 183   2.0000      -0.671139       -18.2626
 184   2.0000      -0.664456       -18.0808
 185   2.0000      -0.659742       -17.9525
 186   2.0000      -0.655564       -17.8388
 187   2.0000      -0.649985       -17.6870
 188   2.0000      -0.647577       -17.6215
 189   2.0000      -0.647095       -17.6083
 190   2.0000      -0.641105       -17.4454
 191   2.0000      -0.638343       -17.3702
 192   2.0000      -0.634077       -17.2541
 193   2.0000      -0.631967       -17.1967
 194   2.0000      -0.623268       -16.9600
 195   2.0000      -0.621561       -16.9135
 196   2.0000      -0.620323       -16.8799
 197   2.0000      -0.618618       -16.8335
 198   2.0000      -0.605575       -16.4785
 199   2.0000      -0.603119       -16.4117
 200   2.0000      -0.597871       -16.2689
 201   2.0000      -0.595255       -16.1977
 202   2.0000      -0.590673       -16.0730
 203   2.0000      -0.589378       -16.0378
 204   2.0000      -0.589372       -16.0376
 205   2.0000      -0.585691       -15.9374
 206   2.0000      -0.583348       -15.8737
 207   2.0000      -0.580033       -15.7835
 208   2.0000      -0.574873       -15.6431
 209   2.0000      -0.562677       -15.3112
 210   2.0000      -0.559923       -15.2363
 211   2.0000      -0.559400       -15.2220
 212   2.0000      -0.559120       -15.2144
 213   2.0000      -0.556738       -15.1496
 214   2.0000      -0.555475       -15.1152
 215   2.0000      -0.552501       -15.0343
 216   2.0000      -0.550993       -14.9933
 217   2.0000      -0.550905       -14.9909
 218   2.0000      -0.550207       -14.9719
 219   2.0000      -0.546493       -14.8708
 220   2.0000      -0.543097       -14.7784
 221   2.0000      -0.540403       -14.7051
 222   2.0000      -0.538079       -14.6419
 223   2.0000      -0.537273       -14.6200
 224   2.0000      -0.535592       -14.5742
 225   2.0000      -0.533450       -14.5159
 226   2.0000      -0.528094       -14.3702
 227   2.0000      -0.524680       -14.2773
 228   2.0000      -0.521792       -14.1987
 229   2.0000      -0.519191       -14.1279
 230   2.0000      -0.516985       -14.0679
 231   2.0000      -0.515617       -14.0307
 232   2.0000      -0.515272       -14.0213
 233   2.0000      -0.510778       -13.8990
 234   2.0000      -0.509632       -13.8678
 235   2.0000      -0.509091       -13.8531
 236   2.0000      -0.507395       -13.8069
 237   2.0000      -0.503976       -13.7139
 238   2.0000      -0.502109       -13.6631
 239   2.0000      -0.500144       -13.6096
 240   2.0000      -0.499277       -13.5860
 241   2.0000      -0.498985       -13.5781
 242   2.0000      -0.497133       -13.5277
 243   2.0000      -0.491642       -13.3783
 244   2.0000      -0.488884       -13.3032
 245   2.0000      -0.488590       -13.2952
 246   2.0000      -0.487745       -13.2722
 247   2.0000      -0.483663       -13.1611
 248   2.0000      -0.480755       -13.0820
 249   2.0000      -0.479639       -13.0516
 250   2.0000      -0.474968       -12.9245
 251   2.0000      -0.472606       -12.8603
 252   2.0000      -0.469146       -12.7661
 253   2.0000      -0.468525       -12.7492
 254   2.0000      -0.467712       -12.7271
 255   2.0000      -0.464975       -12.6526
 256   2.0000      -0.464112       -12.6291
 257   2.0000      -0.462481       -12.5848
 258   2.0000      -0.460837       -12.5400
 259   2.0000      -0.457351       -12.4451
 260   2.0000      -0.457148       -12.4396
 261   2.0000      -0.454475       -12.3669
 262   2.0000      -0.452594       -12.3157
 263   2.0000      -0.452395       -12.3103
 264   2.0000      -0.451128       -12.2758
 265   2.0000      -0.450216       -12.2510
 266   2.0000      -0.448494       -12.2041
 267   2.0000      -0.447711       -12.1828
 268   2.0000      -0.446948       -12.1621
 269   2.0000      -0.446063       -12.1380
 270   2.0000      -0.445651       -12.1268
 271   2.0000      -0.444183       -12.0868
 272   2.0000      -0.443040       -12.0557
 273   2.0000      -0.439527       -11.9601
 274   2.0000      -0.438065       -11.9203
 275   2.0000      -0.436066       -11.8660
 276   2.0000      -0.433116       -11.7857
 277   2.0000      -0.432661       -11.7733
 278   2.0000      -0.432380       -11.7657
 279   2.0000      -0.431252       -11.7350
 280   2.0000      -0.430939       -11.7264
 281   2.0000      -0.424611       -11.5542
 282   2.0000      -0.421638       -11.4733
 283   2.0000      -0.419949       -11.4274
 284   2.0000      -0.414160       -11.2699
 285   2.0000      -0.411517       -11.1979
 286   2.0000      -0.407659       -11.0930
 287   2.0000      -0.404857       -11.0167
 288   2.0000      -0.400031       -10.8854
 289   2.0000      -0.394112       -10.7243
 290   2.0000      -0.393182       -10.6990
 291   2.0000      -0.382630       -10.4119
 292   2.0000      -0.380127       -10.3438
 293   2.0000      -0.372815       -10.1448
 294   2.0000      -0.360784        -9.8174
 295   2.0000      -0.356877        -9.7111
 296   2.0000      -0.355778        -9.6812
 297   2.0000      -0.347636        -9.4597
 298   2.0000      -0.347438        -9.4543
 299   2.0000      -0.344499        -9.3743
 300   2.0000      -0.339855        -9.2479
 301   2.0000      -0.331136        -9.0107
 302   2.0000      -0.328428        -8.9370
 303   2.0000      -0.322621        -8.7790
 304   2.0000      -0.322348        -8.7715
 305   2.0000      -0.315127        -8.5750
 306   2.0000      -0.306813        -8.3488
 307   2.0000      -0.303112        -8.2481
 308   2.0000      -0.281090        -7.6489
 309   2.0000      -0.255811        -6.9610
 310   0.0000      -0.126438        -3.4406
 311   0.0000      -0.115423        -3.1408
 312   0.0000      -0.096710        -2.6316
 313   0.0000      -0.095025        -2.5858
 314   0.0000      -0.087827        -2.3899

MULLIKEN ATOMIC CHARGES
-----------------------
   0 C :   -0.106343
   1 C :    0.242086
   2 F :   -0.169601
   3 C :    0.237332
   4 F :   -0.171166
   5 C :   -0.103257
   6 C :    0.115763
   7 C :    0.111206
   8 C :   -0.081945
   9 C :    0.048867
  10 C :   -0.005314
  11 C :   -0.079911
  12 C :    0.167813
  13 O :   -0.190650
  14 C :   -0.094715
  15 C :    0.332324
  16 C :   -0.353879
  17 C :   -0.190737
  18 N :    0.154020
  19 C :   -0.182728
  20 N :    0.148543
  21 C :   -0.027727
  22 C :   -0.054251
  23 C :   -0.060533
  24 C :    0.047673
  25 C :   -0.067369
  26 S :    0.243446
  27 C :   -0.095326
  28 C :    0.032344
  29 C :    0.307859
  30 C :   -0.295656
  31 C :   -0.185160
  32 N :    0.174220
  33 C :   -0.196207
  34 N :    0.184495
  35 C :   -0.049763
  36 C :   -0.110149
  37 S :    0.171633
  38 C :    0.154540
  39 C :   -0.068798
  40 C :   -0.064197
  41 C :    0.148615
  42 C :    0.008559
  43 C :    0.006556
  44 N :   -0.285413
  45 Se:    0.584326
  46 N :   -0.289641
  47 C :   -0.107478
  48 C :   -0.048402
  49 C :    0.031725
  50 C :   -0.095426
  51 S :    0.176044
  52 C :   -0.078357
  53 C :    0.025698
  54 C :    0.305835
  55 C :   -0.297165
  56 C :   -0.193872
  57 N :    0.183745
  58 C :   -0.184037
  59 N :    0.177496
  60 C :   -0.005805
  61 C :   -0.075920
  62 S :    0.212168
  63 C :    0.033529
  64 C :   -0.140364
  65 C :    0.141638
  66 O :   -0.138841
  67 C :    0.015127
  68 C :   -0.084209
  69 C :    0.114269
  70 C :    0.112968
  71 C :   -0.108497
  72 C :    0.242389
  73 C :    0.241188
  74 C :   -0.104199
  75 F :   -0.170769
  76 F :   -0.170143
  77 C :   -0.083687
  78 C :    0.039306
  79 C :    0.256078
  80 C :   -0.325750
  81 C :   -0.214338
  82 N :    0.172524
  83 C :   -0.169846
  84 N :    0.151141
  85 H :    0.009694
  86 H :   -0.001432
  87 H :   -0.005842
  88 H :   -0.011429
  89 H :    0.016807
  90 H :    0.030085
  91 H :    0.022069
  92 H :   -0.004748
  93 H :   -0.005205
  94 H :    0.022840
  95 H :    0.020884
  96 H :    0.034978
  97 H :   -0.007858
  98 H :    0.005139
  99 H :    0.000263
 100 H :   -0.003790
Sum of atomic charges:   -0.0000000

LOEWDIN ATOMIC CHARGES
----------------------
   0 C :   -0.028579
   1 C :    0.067192
   2 F :   -0.047546
   3 C :    0.067883
   4 F :   -0.048629
   5 C :   -0.033200
   6 C :   -0.009353
   7 C :   -0.006136
   8 C :    0.018629
   9 C :   -0.021578
  10 C :   -0.052920
  11 C :    0.030014
  12 C :    0.085516
  13 O :   -0.176682
  14 C :   -0.113093
  15 C :    0.075655
  16 C :   -0.140084
  17 C :   -0.023563
  18 N :   -0.046280
  19 C :   -0.017181
  20 N :   -0.052824
  21 C :    0.058403
  22 C :   -0.183721
  23 C :    0.014419
  24 C :   -0.076360
  25 C :   -0.164777
  26 S :    0.547358
  27 C :   -0.184933
  28 C :   -0.055925
  29 C :    0.076786
  30 C :   -0.097619
  31 C :   -0.016265
  32 N :   -0.029873
  33 C :   -0.020325
  34 N :   -0.023117
  35 C :   -0.019788
  36 C :   -0.147295
  37 S :    0.478060
  38 C :   -0.040270
  39 C :   -0.019415
  40 C :   -0.018778
  41 C :   -0.040983
  42 C :   -0.030046
  43 C :   -0.030012
  44 N :   -0.239488
  45 Se:    0.614217
  46 N :   -0.240448
  47 C :   -0.146967
  48 C :   -0.018100
  49 C :   -0.055476
  50 C :   -0.186159
  51 S :    0.479416
  52 C :   -0.148820
  53 C :   -0.073743
  54 C :    0.078633
  55 C :   -0.094904
  56 C :   -0.017709
  57 N :   -0.026001
  58 C :   -0.016015
  59 N :   -0.027689
  60 C :    0.016680
  61 C :   -0.179422
  62 S :    0.515418
  63 C :    0.053577
  64 C :   -0.105352
  65 C :    0.082917
  66 O :   -0.140858
  67 C :   -0.053514
  68 C :    0.031412
  69 C :   -0.009184
  70 C :   -0.005765
  71 C :   -0.030582
  72 C :    0.067397
  73 C :    0.067366
  74 C :   -0.032079
  75 F :   -0.048589
  76 F :   -0.048219
  77 C :    0.013352
  78 C :   -0.020327
  79 C :    0.062458
  80 C :   -0.146484
  81 C :   -0.039862
  82 N :   -0.047489
  83 C :   -0.019980
  84 N :   -0.051082
  85 H :    0.048420
  86 H :    0.044494
  87 H :    0.040439
  88 H :    0.039761
  89 H :    0.054020
  90 H :    0.048765
  91 H :    0.038918
  92 H :    0.026522
  93 H :    0.026894
  94 H :    0.039322
  95 H :    0.047875
  96 H :    0.056254
  97 H :    0.041324
  98 H :    0.047005
  99 H :    0.045268
 100 H :    0.039421

  Mayer bond orders larger than 0.100000
B(  0-C ,  1-C ) :   1.4391 B(  0-C ,  5-C ) :   0.1079 B(  0-C ,  7-C ) :   1.1902
B(  0-C , 85-H ) :   1.0071 B(  1-C ,  2-F ) :   1.1371 B(  1-C ,  3-C ) :   1.1918
B(  3-C ,  4-F ) :   1.1336 B(  3-C ,  5-C ) :   1.4427 B(  5-C ,  6-C ) :   1.1927
B(  5-C , 86-H ) :   1.0071 B(  6-C ,  7-C ) :   1.2562 B(  6-C , 11-C ) :   1.1867
B(  7-C ,  8-C ) :   1.2142 B(  8-C ,  9-C ) :   1.4553 B(  8-C , 87-H ) :   0.9892
B(  9-C , 10-C ) :   1.2202 B(  9-C , 15-C ) :   0.9812 B( 10-C , 11-C ) :   1.4696
B( 10-C , 12-C ) :   0.9613 B( 11-C , 88-H ) :   1.0169 B( 12-C , 13-O ) :   2.1124
B( 12-C , 14-C ) :   0.9868 B( 14-C , 15-C ) :   1.0832 B( 14-C , 21-C ) :   1.4734
B( 15-C , 16-C ) :   1.6244 B( 16-C , 17-C ) :   1.1419 B( 16-C , 19-C ) :   1.1500
B( 17-C , 18-N ) :   2.9585 B( 19-C , 20-N ) :   2.9581 B( 21-C , 22-C ) :   1.2804
B( 21-C , 89-H ) :   0.9397 B( 22-C , 23-C ) :   1.3174 B( 22-C , 26-S ) :   1.0661
B( 23-C , 24-C ) :   1.3407 B( 23-C , 90-H ) :   1.0085 B( 24-C , 25-C ) :   1.3489
B( 24-C , 29-C ) :   0.9821 B( 25-C , 26-S ) :   1.1263 B( 25-C , 27-C ) :   1.2048
B( 27-C , 28-C ) :   1.4248 B( 27-C , 37-S ) :   1.1179 B( 28-C , 29-C ) :   0.9998
B( 28-C , 35-C ) :   1.2469 B( 29-C , 30-C ) :   1.7164 B( 30-C , 31-C ) :   1.1369
B( 30-C , 33-C ) :   1.1336 B( 31-C , 32-N ) :   2.9855 B( 33-C , 34-N ) :   2.9945
B( 35-C , 36-C ) :   1.4690 B( 35-C , 91-H ) :   0.9809 B( 36-C , 37-S ) :   1.1005
B( 36-C , 38-C ) :   1.1258 B( 38-C , 39-C ) :   1.4402 B( 38-C , 41-C ) :   0.1153
B( 38-C , 43-C ) :   1.1643 B( 39-C , 40-C ) :   1.2547 B( 39-C , 92-H ) :   0.9854
B( 40-C , 41-C ) :   1.4401 B( 40-C , 93-H ) :   0.9862 B( 41-C , 42-C ) :   1.1668
B( 41-C , 47-C ) :   1.1193 B( 42-C , 43-C ) :   1.1214 B( 42-C , 46-N ) :   1.5827
B( 43-C , 44-N ) :   1.5870 B( 44-N , 45-Se) :   1.2386 B( 44-N , 46-N ) :   0.1220
B( 45-Se, 46-N ) :   1.2394 B( 47-C , 48-C ) :   1.4704 B( 47-C , 51-S ) :   1.1027
B( 48-C , 49-C ) :   1.2561 B( 48-C , 94-H ) :   0.9807 B( 49-C , 50-C ) :   1.4252
B( 49-C , 54-C ) :   0.9977 B( 50-C , 51-S ) :   1.1161 B( 50-C , 52-C ) :   1.2129
B( 52-C , 53-C ) :   1.3846 B( 52-C , 62-S ) :   1.1672 B( 53-C , 54-C ) :   0.9896
B( 53-C , 60-C ) :   1.3140 B( 54-C , 55-C ) :   1.7175 B( 55-C , 56-C ) :   1.1349
B( 55-C , 58-C ) :   1.1391 B( 56-C , 57-N ) :   2.9940 B( 58-C , 59-N ) :   2.9861
B( 60-C , 61-C ) :   1.3799 B( 60-C , 95-H ) :   1.0013 B( 61-C , 62-S ) :   1.0762
B( 61-C , 63-C ) :   1.1766 B( 63-C , 64-C ) :   1.6076 B( 63-C , 96-H ) :   0.9425
B( 64-C , 65-C ) :   0.9436 B( 64-C , 79-C ) :   1.0436 B( 65-C , 66-O ) :   2.2694
B( 65-C , 67-C ) :   0.9183 B( 67-C , 68-C ) :   1.4776 B( 67-C , 78-C ) :   1.2244
B( 68-C , 69-C ) :   1.1909 B( 68-C , 97-H ) :   1.0166 B( 69-C , 70-C ) :   1.2613
B( 69-C , 74-C ) :   1.1928 B( 70-C , 71-C ) :   1.1884 B( 70-C , 77-C ) :   1.2123
B( 71-C , 72-C ) :   1.4425 B( 71-C , 74-C ) :   0.1088 B( 71-C , 98-H ) :   1.0069
B( 72-C , 73-C ) :   1.1918 B( 72-C , 76-F ) :   1.1356 B( 73-C , 74-C ) :   1.4424
B( 73-C , 75-F ) :   1.1350 B( 74-C , 99-H ) :   1.0071 B( 77-C , 78-C ) :   1.4564
B( 77-C ,100-H ) :   0.9943 B( 78-C , 79-C ) :   0.9987 B( 79-C , 80-C ) :   1.6450
B( 80-C , 81-C ) :   1.1536 B( 80-C , 83-C ) :   1.1337 B( 81-C , 82-N ) :   3.0206
B( 83-C , 84-N ) :   2.9859

-----------------------------------------------------------------------------
         ABSORPTION SPECTRUM VIA TRANSITION ELECTRIC DIPOLE MOMENTS
-----------------------------------------------------------------------------
State   Energy  Wavelength   fosc         T2         TX        TY        TZ
        (cm-1)    (nm)                  (au**2)     (au)      (au)      (au)
-----------------------------------------------------------------------------
   0   12531.8    798.0   0.939449003  24.67941   0.67644   4.76540   1.22998
   1   14209.6    703.7   0.165566140   3.83588   0.07004   1.74579  -0.88498
   2   18246.7    548.0   1.054484088  19.02534   0.57026   4.21981   0.94518
   3   20589.2    485.7   0.583386046   9.32808   0.21148  -1.08658   2.84652
   4   21060.5    474.8   0.008254910   0.12904  -0.07898  -0.13492   0.32341
   5   21937.2    455.8   0.246553016   3.70003   0.00042  -1.84535   0.54288
   6   23236.4    430.4   0.011151114   0.15799   0.05748   0.38077  -0.09847
   7   25740.4    388.5   0.032044208   0.40984  -0.47883   0.29714   0.30375
   8   26438.1    378.2   0.005418291   0.06747  -0.03023  -0.15641   0.20516
   9   27025.3    370.0   0.056457144   0.68774  -0.11983  -0.16506  -0.80383
  10   27487.8    363.8   0.102019478   1.22185  -0.00079   0.46071  -1.00479
  11   27752.4    360.3   0.006265703   0.07433  -0.00731   0.27062   0.03222
  12   28314.9    353.2   0.021109347   0.24543   0.17476  -0.02067   0.46310
  13   28344.3    352.8   0.008400228   0.09757  -0.03637   0.05231   0.30579
  14   28464.0    351.3   0.064342382   0.74418   0.32739  -0.68948  -0.40201
  15   28969.9    345.2   0.042275651   0.48042  -0.08727  -0.49195   0.48040
  16   29180.7    342.7   0.253347727   2.85823   0.00888  -1.66800  -0.27556
  17   29339.3    340.8   0.036040345   0.40440  -0.37195   0.19161   0.47890
  18   29526.5    338.7   0.159229696   1.77536  -0.22193   0.12667   1.30770
  19   29857.1    334.9   0.172412552   1.90107  -0.64634   0.03768   1.21733
  20   30163.8    331.5   0.476743911   5.20324   0.07294  -0.38029   2.24795
  21   30334.5    329.7   0.028908764   0.31374   0.00166   0.20852   0.51986
  22   31228.5    320.2   0.553169161   5.83152  -0.21348   1.96930   1.38124
  23   31919.4    313.3   0.245211824   2.52908   0.28307   1.13903  -1.07311
  24   32219.2    310.4   0.044192645   0.45155   0.50530   0.29221  -0.33292
  25   32480.4    307.9   0.091419391   0.92660   0.53435  -0.34195   0.72398
  26   32516.0    307.5   0.023106107   0.23394  -0.01626   0.21975  -0.43056
  27   32791.1    305.0   0.271909652   2.72989   0.50529  -0.01483  -1.57300
  28   33087.1    302.2   0.400305074   3.98297   0.45895   1.02816   1.64780
  29   33127.6    301.9   0.338331820   3.36224   0.28116  -1.80497   0.15896
  30   33244.3    300.8   0.365612192   3.62059  -0.27816  -0.75964   1.72226
  31   33577.4    297.8   0.001057396   0.01037  -0.07615   0.01243   0.06644
  32   33828.8    295.6   0.106343437   1.03490  -0.30079  -0.82815   0.50852
  33   34091.5    293.3   0.056361441   0.54427   0.46127  -0.51132  -0.26468
  34   34218.3    292.2   0.025158061   0.24204   0.28932  -0.39250  -0.06544
  35   34342.8    291.2   0.243319308   2.33247   0.00522  -0.36426  -1.48316
  36   34467.6    290.1   0.139559349   1.33298   0.36322   0.22108  -1.07339
  37   34711.9    288.1   0.061381405   0.58215  -0.00426   0.22608  -0.72871
  38   34863.1    286.8   0.449190490   4.24170  -0.02301   0.20857  -2.04882
  39   35011.6    285.6   0.008357432   0.07858   0.07690   0.14873  -0.22483
  40   35368.4    282.7   0.020726246   0.19292  -0.06142  -0.13961   0.41190
  41   35542.7    281.4   0.080417414   0.74486   0.36296  -0.77840  -0.08496
  42   35807.0    279.3   0.235466455   2.16489  -0.59199   0.86036   1.03644
  43   35856.5    278.9   0.022796464   0.20930  -0.17339   0.23610   0.35142
  44   35985.7    277.9   0.072033920   0.65900  -0.04602   0.22141  -0.77965
  45   36203.0    276.2   0.053951446   0.49061   0.44025   0.24652   0.48582
  46   36348.0    275.1   0.178127379   1.61334  -0.16169   1.25079  -0.15076
  47   36654.6    272.8   0.155416553   1.39587  -0.26698  -0.90068  -0.71650
  48   36893.2    271.1   0.183054571   1.63347  -0.47114   0.85954   0.82017
  49   37089.1    269.6   0.034345579   0.30486   0.24003  -0.44879  -0.21408
  50   37425.4    267.2   0.052025656   0.45764   0.10548   0.45658   0.48791
  51   37483.4    266.8   0.025428612   0.22334   0.10162  -0.00862   0.46145
  52   37590.2    266.0   0.042845090   0.37523   0.08888  -0.60419  -0.04786
  53   37878.2    264.0   0.011636450   0.10114  -0.03063   0.01057  -0.31636
  54   38110.4    262.4   0.007356391   0.06355  -0.15220  -0.16186  -0.11910
  55   38354.1    260.7   0.097340524   0.83552   0.06149   0.06313  -0.90981
  56   38644.8    258.8   0.012377081   0.10544  -0.07261   0.26445   0.17388
  57   38838.9    257.5   0.042089859   0.35677  -0.04391   0.56617   0.18519
  58   38934.0    256.8   0.125380385   1.06017   0.18095   1.00822  -0.10451
  59   39172.3    255.3   0.053493946   0.44957   0.07278  -0.17775   0.64240
  60   39242.2    254.8   0.002203543   0.01849  -0.03546   0.10445   0.07949
  61   39502.2    253.2   0.011105912   0.09256  -0.06021   0.09396  -0.28303
  62   39563.1    252.8   0.018999037   0.15809   0.02980   0.28085   0.27988
  63   39789.2    251.3   0.105772634   0.87515  -0.08665  -0.73215   0.57585
  64   39917.8    250.5   0.010882950   0.08975  -0.05507  -0.26124   0.13592
  65   40197.5    248.8   0.064782149   0.53056   0.00043   0.54448   0.48384
  66   40234.8    248.5   0.006073246   0.04969  -0.01735   0.00132   0.22224

FINAL SINGLE POINT ENERGY     -7534.835961468208

DIPOLE MOMENT
-------------
                                X             Y             Z
Electronic contribution:      2.12306     -10.20465      47.74752
Nuclear contribution   :     -0.71675       8.69617     -50.49335
                        -----------------------------------------
Total Dipole Moment    :      1.40631      -1.50848      -2.74582
                        -----------------------------------------
Magnitude (a.u.)       :      3.43406
Magnitude (Debye)      :      8.72868

Rotational constants in cm-1:     0.000740     0.000152     0.000128
Rotational constants in MHz :    22.181223     4.568445     3.845974

                             ****ORCA TERMINATED NORMALLY****
TOTAL RUN TIME: 0 days 0 hours 15 minutes 40 seconds 921 msec
