                         Program Version 4.2.0 -  RELEASE  -
|  1> # ORCA input file
|  2> # SCF done       -220.850810478770          0.000907863194
|  3> ! CAM-B3LYP def2-SVP def2/J RIJCOSX Grid4 TightSCF
|  4> %maxcore 5000
|  5> %tddft
|  6>     Mode sTDDFT
|  7>     Ethresh 5.0
|  8>     maxcore 5000
|  9> end
| 10>
| 11> %pal
| 12>   nprocs 6
| 13>   end
| 14> * xyz 0 1
| 15>    C       -7.45223         2.37301        -3.69180
| 16>    C       -7.90881         2.60813        -4.95856
| 17>    F       -8.13715         3.86124        -5.36981
| 18>    C       -8.14563         1.53879        -5.84606
| 19>    F       -8.59384         1.79881        -7.08065
| 20>    C       -7.92246         0.24844        -5.45405
| 21>    C       -7.45364        -0.02601        -4.15470
| 22>    C       -7.21316         1.05415        -3.25648
| 23>    C       -6.74423         0.80334        -1.94621
| 24>    C       -6.52703        -0.48824        -1.54479
| 25>    C       -6.77597        -1.56020        -2.44762
| 26>    C       -7.22261        -1.35008        -3.72049
| 27>    C       -6.49043        -2.83512        -1.77121
| 28>    O       -6.57121        -3.94866        -2.25990
| 29>    C       -6.11036        -2.49360        -0.39483
| 30>    C       -6.06225        -1.04659        -0.27700
| 31>    C       -5.62071        -0.31731         0.79476
| 32>    C       -5.10533        -0.85409         1.99421
| 33>    N       -4.66390        -1.21567         2.99049
| 34>    C       -5.59173         1.09358         0.82903
| 35>    N       -5.54616         2.23685         0.91734
| 36>    C       -5.93772        -3.39070         0.62679
| 37>    C       -5.99361        -4.79428         0.61991
| 38>    C       -5.91071        -5.53748         1.80441
| 39>    C       -6.00063        -6.89739         1.58094
| 40>    C       -6.12348        -7.20744         0.20400
| 41>    S       -6.16823        -5.83072        -0.79523
| 42>    C       -6.21796        -8.61531         0.07480
| 43>    C       -6.17053        -9.18847         1.36264
| 44>    C       -6.02027        -8.13193         2.34928
| 45>    C       -5.92655        -8.27512         3.70199
| 46>    C       -5.96488        -9.54300         4.31994
| 47>    N       -5.99641       -10.57505         4.81862
| 48>    C       -5.79188        -7.17007         4.56946
| 49>    N       -5.68233        -6.27861         5.28158
| 50>    C       -6.28894       -10.56898         1.33293
| 51>    C       -6.41604       -11.06187         0.03574
| 52>    S       -6.35374        -9.78012        -1.16302
| 53>    C       -6.61745       -12.43927        -0.24809
| 54>    C       -6.91743       -13.14267        -1.41945
| 55>    N       -6.99475       -12.50435        -2.67969
| 56>    O       -6.30098       -11.51113        -2.84698
| 57>    O       -7.74006       -12.94870        -3.52669
| 58>    C       -7.14040       -14.53619        -1.23498
| 59>    C       -7.45574       -15.50924        -2.31816
| 60>    C       -7.00757       -14.89719         0.08973
| 61>    S       -6.63370       -13.52858         1.10189
| 62>    C       -7.18055       -16.17141         0.71011
| 63>    C       -7.06259       -17.43655         0.16809
| 64>    C       -7.34704       -18.43289         1.10488
| 65>    C       -7.68126       -17.91925         2.36786
| 66>    S       -7.63488       -16.21522         2.40874
| 67>    C       -7.98315       -19.00257         3.23015
| 68>    C       -7.82502       -20.20547         2.51525
| 69>    C       -7.41674       -19.88587         1.15653
| 70>    C       -7.16065       -20.75760         0.14016
| 71>    C       -7.24835       -22.15652         0.30683
| 72>    N       -7.31077       -23.29311         0.44012
| 73>    C       -6.78259       -20.30947        -1.14355
| 74>    N       -6.47479       -19.93469        -2.18235
| 75>    C       -8.11217       -21.32896         3.28410
| 76>    C       -8.53558       -20.99652         4.56139
| 77>    S       -8.50364       -19.25395         4.82841
| 78>    C       -8.88803       -21.90856         5.58457
| 79>    C       -9.63355       -21.69752         6.70225
| 80>    C       -9.50225       -22.62693         7.86094
| 81>    O       -8.96876       -23.71047         7.86119
| 82>    C      -10.10219       -21.90445         9.00138
| 83>    C      -10.13225       -22.25627        10.32014
| 84>    C      -10.74587       -21.38623        11.24923
| 85>    C      -11.31205       -20.16002        10.79292
| 86>    C      -11.91473       -19.29344        11.72682
| 87>    C      -11.95781       -19.63005        13.05063
| 88>    C      -11.40020       -20.84420        13.50062
| 89>    C      -10.80663       -21.70461        12.62000
| 90>    F      -11.45635       -21.14761        14.80353
| 91>    F      -12.53199       -18.80662        13.93607
| 92>    C      -11.27322       -19.82556         9.42014
| 93>    C      -10.68376       -20.68969         8.53706
| 94>    C      -10.53836       -20.63369         7.08564
| 95>    C      -11.33727       -19.90779         6.24161
| 96>    C      -11.36243       -20.09550         4.84432
| 97>    N      -11.43226       -20.25097         3.70900
| 98>    C      -12.28215       -18.95851         6.68156
| 99>    N      -13.05030       -18.16396         6.99043
|100>    H       -7.27551         3.20310        -3.02577
|101>    H       -8.10889        -0.55888        -6.14483
|102>    H       -6.57590         1.64271        -1.29139
|103>    H       -7.40107        -2.18227        -4.38432
|104>    H       -5.75992        -2.98125         1.61423
|105>    H       -5.79832        -5.07126         2.76737
|106>    H       -6.29558       -11.20419         2.20096
|107>    H       -7.84079       -15.00289        -3.19719
|108>    H       -8.19800       -16.22512        -1.97201
|109>    H       -6.55784       -16.05779        -2.60371
|110>    H       -6.75403       -17.62754        -0.84123
|111>    H       -8.06139       -22.34600         2.93939
|112>    H       -8.44586       -22.89724         5.50125
|113>    H       -9.69480       -23.18598        10.65057
|114>    H      -12.34989       -18.36248        11.39852
|115>    H      -10.38454       -22.62955        12.98056
|116>    H      -11.70175       -18.88885         9.10069
|117> *
|118>
|119>                          ****END OF INPUT****

CARTESIAN COORDINATES (ANGSTROEM)
---------------------------------
  C     -7.452230    2.373010   -3.691800
  C     -7.908810    2.608130   -4.958560
  F     -8.137150    3.861240   -5.369810
  C     -8.145630    1.538790   -5.846060
  F     -8.593840    1.798810   -7.080650
  C     -7.922460    0.248440   -5.454050
  C     -7.453640   -0.026010   -4.154700
  C     -7.213160    1.054150   -3.256480
  C     -6.744230    0.803340   -1.946210
  C     -6.527030   -0.488240   -1.544790
  C     -6.775970   -1.560200   -2.447620
  C     -7.222610   -1.350080   -3.720490
  C     -6.490430   -2.835120   -1.771210
  O     -6.571210   -3.948660   -2.259900
  C     -6.110360   -2.493600   -0.394830
  C     -6.062250   -1.046590   -0.277000
  C     -5.620710   -0.317310    0.794760
  C     -5.105330   -0.854090    1.994210
  N     -4.663900   -1.215670    2.990490
  C     -5.591730    1.093580    0.829030
  N     -5.546160    2.236850    0.917340
  C     -5.937720   -3.390700    0.626790
  C     -5.993610   -4.794280    0.619910
  C     -5.910710   -5.537480    1.804410
  C     -6.000630   -6.897390    1.580940
  C     -6.123480   -7.207440    0.204000
  S     -6.168230   -5.830720   -0.795230
  C     -6.217960   -8.615310    0.074800
  C     -6.170530   -9.188470    1.362640
  C     -6.020270   -8.131930    2.349280
  C     -5.926550   -8.275120    3.701990
  C     -5.964880   -9.543000    4.319940
  N     -5.996410  -10.575050    4.818620
  C     -5.791880   -7.170070    4.569460
  N     -5.682330   -6.278610    5.281580
  C     -6.288940  -10.568980    1.332930
  C     -6.416040  -11.061870    0.035740
  S     -6.353740   -9.780120   -1.163020
  C     -6.617450  -12.439270   -0.248090
  C     -6.917430  -13.142670   -1.419450
  N     -6.994750  -12.504350   -2.679690
  O     -6.300980  -11.511130   -2.846980
  O     -7.740060  -12.948700   -3.526690
  C     -7.140400  -14.536190   -1.234980
  C     -7.455740  -15.509240   -2.318160
  C     -7.007570  -14.897190    0.089730
  S     -6.633700  -13.528580    1.101890
  C     -7.180550  -16.171410    0.710110
  C     -7.062590  -17.436550    0.168090
  C     -7.347040  -18.432890    1.104880
  C     -7.681260  -17.919250    2.367860
  S     -7.634880  -16.215220    2.408740
  C     -7.983150  -19.002570    3.230150
  C     -7.825020  -20.205470    2.515250
  C     -7.416740  -19.885870    1.156530
  C     -7.160650  -20.757600    0.140160
  C     -7.248350  -22.156520    0.306830
  N     -7.310770  -23.293110    0.440120
  C     -6.782590  -20.309470   -1.143550
  N     -6.474790  -19.934690   -2.182350
  C     -8.112170  -21.328960    3.284100
  C     -8.535580  -20.996520    4.561390
  S     -8.503640  -19.253950    4.828410
  C     -8.888030  -21.908560    5.584570
  C     -9.633550  -21.697520    6.702250
  C     -9.502250  -22.626930    7.860940
  O     -8.968760  -23.710470    7.861190
  C    -10.102190  -21.904450    9.001380
  C    -10.132250  -22.256270   10.320140
  C    -10.745870  -21.386230   11.249230
  C    -11.312050  -20.160020   10.792920
  C    -11.914730  -19.293440   11.726820
  C    -11.957810  -19.630050   13.050630
  C    -11.400200  -20.844200   13.500620
  C    -10.806630  -21.704610   12.620000
  F    -11.456350  -21.147610   14.803530
  F    -12.531990  -18.806620   13.936070
  C    -11.273220  -19.825560    9.420140
  C    -10.683760  -20.689690    8.537060
  C    -10.538360  -20.633690    7.085640
  C    -11.337270  -19.907790    6.241610
  C    -11.362430  -20.095500    4.844320
  N    -11.432260  -20.250970    3.709000
  C    -12.282150  -18.958510    6.681560
  N    -13.050300  -18.163960    6.990430
  H     -7.275510    3.203100   -3.025770
  H     -8.108890   -0.558880   -6.144830
  H     -6.575900    1.642710   -1.291390
  H     -7.401070   -2.182270   -4.384320
  H     -5.759920   -2.981250    1.614230
  H     -5.798320   -5.071260    2.767370
  H     -6.295580  -11.204190    2.200960
  H     -7.840790  -15.002890   -3.197190
  H     -8.198000  -16.225120   -1.972010
  H     -6.557840  -16.057790   -2.603710
  H     -6.754030  -17.627540   -0.841230
  H     -8.061390  -22.346000    2.939390
  H     -8.445860  -22.897240    5.501250
  H     -9.694800  -23.185980   10.650570
  H    -12.349890  -18.362480   11.398520
  H    -10.384540  -22.629550   12.980560
  H    -11.701750  -18.888850    9.100690

 Total Charge           Charge          ....    0
 Multiplicity           Mult            ....    1
 Number of Electrons    NEL             ....  606
 Basis Dimension        Dim             .... 1295

ORBITAL ENERGIES
----------------

  NO   OCC          E(Eh)            E(eV)
   0   2.0000     -89.006882     -2422.0004
   1   2.0000     -89.005343     -2421.9585
   2   2.0000     -89.004123     -2421.9253
   3   2.0000     -88.999143     -2421.7898
   4   2.0000     -88.998836     -2421.7814
   5   2.0000     -24.803374      -674.9341
   6   2.0000     -24.803203      -674.9295
   7   2.0000     -24.802765      -674.9176
   8   2.0000     -24.802366      -674.9067
   9   2.0000     -19.267688      -524.3004
  10   2.0000     -19.267096      -524.2843
  11   2.0000     -19.233983      -523.3833
  12   2.0000     -19.224090      -523.1141
  13   2.0000     -14.673949      -399.2985
  14   2.0000     -14.442690      -393.0056
  15   2.0000     -14.440999      -392.9596
  16   2.0000     -14.440431      -392.9441
  17   2.0000     -14.437395      -392.8615
  18   2.0000     -14.425698      -392.5432
  19   2.0000     -14.425142      -392.5281
  20   2.0000     -14.423774      -392.4908
  21   2.0000     -14.421425      -392.4269
  22   2.0000     -10.386962      -282.6436
  23   2.0000     -10.386950      -282.6433
  24   2.0000     -10.386566      -282.6328
  25   2.0000     -10.386300      -282.6256
  26   2.0000     -10.381809      -282.5034
  27   2.0000     -10.378262      -282.4069
  28   2.0000     -10.376158      -282.3496
  29   2.0000     -10.374008      -282.2911
  30   2.0000     -10.365486      -282.0592
  31   2.0000     -10.365229      -282.0522
  32   2.0000     -10.362833      -281.9870
  33   2.0000     -10.355130      -281.7774
  34   2.0000     -10.354368      -281.7567
  35   2.0000     -10.354024      -281.7473
  36   2.0000     -10.353089      -281.7219
  37   2.0000     -10.350460      -281.6503
  38   2.0000     -10.349773      -281.6316
  39   2.0000     -10.349269      -281.6179
  40   2.0000     -10.348887      -281.6075
  41   2.0000     -10.347312      -281.5647
  42   2.0000     -10.342775      -281.4412
  43   2.0000     -10.342711      -281.4395
  44   2.0000     -10.341774      -281.4140
  45   2.0000     -10.340856      -281.3890
  46   2.0000     -10.340667      -281.3839
  47   2.0000     -10.339603      -281.3549
  48   2.0000     -10.337752      -281.3045
  49   2.0000     -10.337144      -281.2880
  50   2.0000     -10.336679      -281.2753
  51   2.0000     -10.336326      -281.2657
  52   2.0000     -10.334637      -281.2198
  53   2.0000     -10.327936      -281.0374
  54   2.0000     -10.327510      -281.0258
  55   2.0000     -10.327026      -281.0127
  56   2.0000     -10.325995      -280.9846
  57   2.0000     -10.324214      -280.9361
  58   2.0000     -10.322760      -280.8966
  59   2.0000     -10.321839      -280.8715
  60   2.0000     -10.321719      -280.8683
  61   2.0000     -10.320715      -280.8409
  62   2.0000     -10.318811      -280.7891
  63   2.0000     -10.317955      -280.7658
  64   2.0000     -10.317729      -280.7597
  65   2.0000     -10.317251      -280.7467
  66   2.0000     -10.316803      -280.7345
  67   2.0000     -10.316759      -280.7333
  68   2.0000     -10.316471      -280.7254
  69   2.0000     -10.315875      -280.7092
  70   2.0000     -10.315221      -280.6914
  71   2.0000     -10.314435      -280.6701
  72   2.0000     -10.310291      -280.5573
  73   2.0000     -10.310053      -280.5508
  74   2.0000     -10.309847      -280.5452
  75   2.0000     -10.309444      -280.5342
  76   2.0000     -10.309246      -280.5288
  77   2.0000     -10.308762      -280.5157
  78   2.0000     -10.306722      -280.4602
  79   2.0000     -10.306708      -280.4598
  80   2.0000     -10.306123      -280.4439
  81   2.0000     -10.305721      -280.4329
  82   2.0000     -10.301533      -280.3190
  83   2.0000     -10.301248      -280.3112
  84   2.0000     -10.283279      -279.8222
  85   2.0000      -8.101688      -220.4581
  86   2.0000      -8.099541      -220.3997
  87   2.0000      -8.096618      -220.3202
  88   2.0000      -8.094311      -220.2574
  89   2.0000      -8.091388      -220.1779
  90   2.0000      -6.070968      -165.1994
  91   2.0000      -6.068819      -165.1410
  92   2.0000      -6.066704      -165.0834
  93   2.0000      -6.066123      -165.0676
  94   2.0000      -6.064529      -165.0242
  95   2.0000      -6.064001      -165.0099
  96   2.0000      -6.063772      -165.0036
  97   2.0000      -6.061967      -164.9545
  98   2.0000      -6.061361      -164.9380
  99   2.0000      -6.060738      -164.9211
 100   2.0000      -6.059529      -164.8882
 101   2.0000      -6.059096      -164.8764
 102   2.0000      -6.056077      -164.7942
 103   2.0000      -6.056029      -164.7929
 104   2.0000      -6.054046      -164.7390
 105   2.0000      -1.347894       -36.6781
 106   2.0000      -1.326240       -36.0888
 107   2.0000      -1.326120       -36.0856
 108   2.0000      -1.311334       -35.6832
 109   2.0000      -1.311220       -35.6801
 110   2.0000      -1.165439       -31.7132
 111   2.0000      -1.149788       -31.2873
 112   2.0000      -1.140152       -31.0251
 113   2.0000      -1.061557       -28.8864
 114   2.0000      -1.057001       -28.7625
 115   2.0000      -1.040608       -28.3164
 116   2.0000      -1.034265       -28.1438
 117   2.0000      -1.030928       -28.0530
 118   2.0000      -1.029708       -28.0198
 119   2.0000      -1.027444       -27.9582
 120   2.0000      -1.019444       -27.7405
 121   2.0000      -1.016580       -27.6625
 122   2.0000      -1.014296       -27.6004
 123   2.0000      -1.011889       -27.5349
 124   2.0000      -1.011415       -27.5220
 125   2.0000      -1.006841       -27.3975
 126   2.0000      -1.003070       -27.2949
 127   2.0000      -1.001144       -27.2425
 128   2.0000      -0.989595       -26.9282
 129   2.0000      -0.988823       -26.9072
 130   2.0000      -0.974745       -26.5242
 131   2.0000      -0.969739       -26.3879
 132   2.0000      -0.942744       -25.6534
 133   2.0000      -0.940943       -25.6044
 134   2.0000      -0.937141       -25.5009
 135   2.0000      -0.931813       -25.3559
 136   2.0000      -0.924763       -25.1641
 137   2.0000      -0.914278       -24.8788
 138   2.0000      -0.908717       -24.7274
 139   2.0000      -0.902619       -24.5615
 140   2.0000      -0.899502       -24.4767
 141   2.0000      -0.898205       -24.4414
 142   2.0000      -0.888996       -24.1908
 143   2.0000      -0.887812       -24.1586
 144   2.0000      -0.877684       -23.8830
 145   2.0000      -0.874721       -23.8024
 146   2.0000      -0.869764       -23.6675
 147   2.0000      -0.868224       -23.6256
 148   2.0000      -0.847527       -23.0624
 149   2.0000      -0.847225       -23.0542
 150   2.0000      -0.842076       -22.9141
 151   2.0000      -0.833869       -22.6907
 152   2.0000      -0.819094       -22.2887
 153   2.0000      -0.804767       -21.8988
 154   2.0000      -0.791776       -21.5453
 155   2.0000      -0.790235       -21.5034
 156   2.0000      -0.779262       -21.2048
 157   2.0000      -0.777348       -21.1527
 158   2.0000      -0.776193       -21.1213
 159   2.0000      -0.772956       -21.0332
 160   2.0000      -0.760588       -20.6967
 161   2.0000      -0.744256       -20.2522
 162   2.0000      -0.736960       -20.0537
 163   2.0000      -0.726733       -19.7754
 164   2.0000      -0.725212       -19.7340
 165   2.0000      -0.720619       -19.6090
 166   2.0000      -0.717797       -19.5323
 167   2.0000      -0.711312       -19.3558
 168   2.0000      -0.704891       -19.1811
 169   2.0000      -0.700647       -19.0656
 170   2.0000      -0.696679       -18.9576
 171   2.0000      -0.695433       -18.9237
 172   2.0000      -0.692166       -18.8348
 173   2.0000      -0.686587       -18.6830
 174   2.0000      -0.677416       -18.4334
 175   2.0000      -0.676472       -18.4077
 176   2.0000      -0.667652       -18.1677
 177   2.0000      -0.662723       -18.0336
 178   2.0000      -0.660749       -17.9799
 179   2.0000      -0.654681       -17.8148
 180   2.0000      -0.650550       -17.7024
 181   2.0000      -0.649246       -17.6669
 182   2.0000      -0.647562       -17.6211
 183   2.0000      -0.643630       -17.5141
 184   2.0000      -0.639959       -17.4142
 185   2.0000      -0.636629       -17.3236
 186   2.0000      -0.633813       -17.2469
 187   2.0000      -0.631965       -17.1966
 188   2.0000      -0.627289       -17.0694
 189   2.0000      -0.623023       -16.9533
 190   2.0000      -0.621412       -16.9095
 191   2.0000      -0.615107       -16.7379
 192   2.0000      -0.607681       -16.5358
 193   2.0000      -0.599957       -16.3256
 194   2.0000      -0.597216       -16.2511
 195   2.0000      -0.595408       -16.2019
 196   2.0000      -0.590682       -16.0733
 197   2.0000      -0.590531       -16.0692
 198   2.0000      -0.585860       -15.9421
 199   2.0000      -0.583514       -15.8782
 200   2.0000      -0.582635       -15.8543
 201   2.0000      -0.572057       -15.5665
 202   2.0000      -0.567963       -15.4551
 203   2.0000      -0.564261       -15.3543
 204   2.0000      -0.560980       -15.2650
 205   2.0000      -0.560053       -15.2398
 206   2.0000      -0.559383       -15.2216
 207   2.0000      -0.556386       -15.1400
 208   2.0000      -0.552175       -15.0254
 209   2.0000      -0.551981       -15.0202
 210   2.0000      -0.550525       -14.9806
 211   2.0000      -0.549872       -14.9628
 212   2.0000      -0.545525       -14.8445
 213   2.0000      -0.544192       -14.8082
 214   2.0000      -0.542522       -14.7628
 215   2.0000      -0.539258       -14.6739
 216   2.0000      -0.537739       -14.6326
 217   2.0000      -0.537034       -14.6134
 218   2.0000      -0.534420       -14.5423
 219   2.0000      -0.533756       -14.5242
 220   2.0000      -0.528728       -14.3874
 221   2.0000      -0.524694       -14.2777
 222   2.0000      -0.522082       -14.2066
 223   2.0000      -0.520793       -14.1715
 224   2.0000      -0.520061       -14.1516
 225   2.0000      -0.517545       -14.0831
 226   2.0000      -0.515298       -14.0220
 227   2.0000      -0.513672       -13.9777
 228   2.0000      -0.511856       -13.9283
 229   2.0000      -0.510665       -13.8959
 230   2.0000      -0.508312       -13.8319
 231   2.0000      -0.507652       -13.8139
 232   2.0000      -0.505544       -13.7566
 233   2.0000      -0.505059       -13.7433
 234   2.0000      -0.502389       -13.6707
 235   2.0000      -0.498999       -13.5785
 236   2.0000      -0.497772       -13.5451
 237   2.0000      -0.494130       -13.4460
 238   2.0000      -0.492201       -13.3935
 239   2.0000      -0.488998       -13.3063
 240   2.0000      -0.486363       -13.2346
 241   2.0000      -0.479453       -13.0466
 242   2.0000      -0.477187       -12.9849
 243   2.0000      -0.476856       -12.9759
 244   2.0000      -0.474141       -12.9020
 245   2.0000      -0.472511       -12.8577
 246   2.0000      -0.470760       -12.8100
 247   2.0000      -0.470636       -12.8067
 248   2.0000      -0.470089       -12.7918
 249   2.0000      -0.469550       -12.7771
 250   2.0000      -0.466171       -12.6852
 251   2.0000      -0.465193       -12.6586
 252   2.0000      -0.459953       -12.5160
 253   2.0000      -0.458951       -12.4887
 254   2.0000      -0.456844       -12.4314
 255   2.0000      -0.455858       -12.4045
 256   2.0000      -0.453967       -12.3531
 257   2.0000      -0.452930       -12.3248
 258   2.0000      -0.451880       -12.2963
 259   2.0000      -0.451609       -12.2889
 260   2.0000      -0.450965       -12.2714
 261   2.0000      -0.450104       -12.2479
 262   2.0000      -0.449494       -12.2313
 263   2.0000      -0.449039       -12.2190
 264   2.0000      -0.446688       -12.1550
 265   2.0000      -0.443773       -12.0757
 266   2.0000      -0.442710       -12.0468
 267   2.0000      -0.440275       -11.9805
 268   2.0000      -0.438212       -11.9244
 269   2.0000      -0.437302       -11.8996
 270   2.0000      -0.435585       -11.8529
 271   2.0000      -0.435519       -11.8511
 272   2.0000      -0.434931       -11.8351
 273   2.0000      -0.431888       -11.7523
 274   2.0000      -0.427914       -11.6441
 275   2.0000      -0.425289       -11.5727
 276   2.0000      -0.417365       -11.3571
 277   2.0000      -0.415201       -11.2982
 278   2.0000      -0.412927       -11.2363
 279   2.0000      -0.409526       -11.1438
 280   2.0000      -0.408512       -11.1162
 281   2.0000      -0.401694       -10.9306
 282   2.0000      -0.398121       -10.8334
 283   2.0000      -0.395613       -10.7652
 284   2.0000      -0.391875       -10.6635
 285   2.0000      -0.389014       -10.5856
 286   2.0000      -0.382503       -10.4084
 287   2.0000      -0.369864       -10.0645
 288   2.0000      -0.363274        -9.8852
 289   2.0000      -0.360092        -9.7986
 290   2.0000      -0.357171        -9.7191
 291   2.0000      -0.351702        -9.5703
 292   2.0000      -0.349469        -9.5095
 293   2.0000      -0.342686        -9.3250
 294   2.0000      -0.335749        -9.1362
 295   2.0000      -0.332139        -9.0380
 296   2.0000      -0.324662        -8.8345
 297   2.0000      -0.324449        -8.8287
 298   2.0000      -0.320615        -8.7244
 299   2.0000      -0.308604        -8.3975
 300   2.0000      -0.305763        -8.3202
 301   2.0000      -0.285428        -7.7669
 302   2.0000      -0.262895        -7.1537
 303   0.0000      -0.126383        -3.4391
 304   0.0000      -0.119135        -3.2418
 305   0.0000      -0.099505        -2.7077
 306   0.0000      -0.098791        -2.6882
 307   0.0000      -0.079962        -2.1759

MULLIKEN ATOMIC CHARGES
-----------------------
   0 C :   -0.109501
   1 C :    0.243307
   2 F :   -0.169347
   3 C :    0.240317
   4 F :   -0.169390
   5 C :   -0.105398
   6 C :    0.115913
   7 C :    0.115061
   8 C :   -0.082791
   9 C :    0.045683
  10 C :    0.001107
  11 C :   -0.080997
  12 C :    0.172501
  13 O :   -0.188502
  14 C :   -0.093386
  15 C :    0.322119
  16 C :   -0.346368
  17 C :   -0.197267
  18 N :    0.160471
  19 C :   -0.182288
  20 N :    0.148863
  21 C :   -0.026819
  22 C :   -0.055591
  23 C :   -0.054895
  24 C :    0.044158
  25 C :   -0.073175
  26 S :    0.254702
  27 C :   -0.087003
  28 C :    0.040688
  29 C :    0.305607
  30 C :   -0.292569
  31 C :   -0.186998
  32 N :    0.167480
  33 C :   -0.195667
  34 N :    0.187766
  35 C :   -0.084965
  36 C :   -0.057114
  37 S :    0.249810
  38 C :   -0.107474
  39 C :    0.114154
  40 N :    0.264387
  41 O :   -0.263084
  42 O :   -0.216153
  43 C :   -0.098336
  44 C :    0.101462
  45 C :   -0.103411
  46 S :    0.152307
  47 C :   -0.067696
  48 C :   -0.044565
  49 C :    0.013088
  50 C :   -0.098686
  51 S :    0.202187
  52 C :   -0.080813
  53 C :    0.028017
  54 C :    0.301153
  55 C :   -0.286275
  56 C :   -0.190309
  57 N :    0.181016
  58 C :   -0.183032
  59 N :    0.173803
  60 C :    0.009467
  61 C :   -0.100478
  62 S :    0.210920
  63 C :    0.052379
  64 C :   -0.139763
  65 C :    0.143470
  66 O :   -0.135868
  67 C :    0.010710
  68 C :   -0.081357
  69 C :    0.113504
  70 C :    0.112455
  71 C :   -0.104914
  72 C :    0.241683
  73 C :    0.238544
  74 C :   -0.102485
  75 F :   -0.170186
  76 F :   -0.168634
  77 C :   -0.079345
  78 C :    0.038878
  79 C :    0.244320
  80 C :   -0.322842
  81 C :   -0.204312
  82 N :    0.172703
  83 C :   -0.171711
  84 N :    0.155183
  85 H :    0.009788
  86 H :    0.000942
  87 H :   -0.004676
  88 H :   -0.008909
  89 H :    0.022744
  90 H :    0.027888
  91 H :    0.025555
  92 H :    0.049948
  93 H :    0.032997
  94 H :    0.053269
  95 H :    0.006065
  96 H :    0.020084
  97 H :    0.035607
  98 H :   -0.006674
  99 H :    0.005856
 100 H :    0.001721
 101 H :   -0.001788
Sum of atomic charges:   -0.0000000

LOEWDIN ATOMIC CHARGES
----------------------
   0 C :   -0.028728
   1 C :    0.067950
   2 F :   -0.046850
   3 C :    0.068323
   4 F :   -0.047427
   5 C :   -0.032786
   6 C :   -0.008961
   7 C :   -0.005684
   8 C :    0.019043
   9 C :   -0.022073
  10 C :   -0.053218
  11 C :    0.031558
  12 C :    0.086345
  13 O :   -0.172307
  14 C :   -0.107633
  15 C :    0.075272
  16 C :   -0.137579
  17 C :   -0.024294
  18 N :   -0.044934
  19 C :   -0.017316
  20 N :   -0.050450
  21 C :    0.057754
  22 C :   -0.181459
  23 C :    0.012203
  24 C :   -0.074624
  25 C :   -0.167938
  26 S :    0.556652
  27 C :   -0.186597
  28 C :   -0.060578
  29 C :    0.078079
  30 C :   -0.101606
  31 C :   -0.015106
  32 N :   -0.034568
  33 C :   -0.020879
  34 N :   -0.022626
  35 C :   -0.026528
  36 C :   -0.193466
  37 S :    0.543644
  38 C :   -0.144651
  39 C :   -0.078238
  40 N :    0.288857
  41 O :   -0.225921
  42 O :   -0.176702
  43 C :   -0.029374
  44 C :   -0.052323
  45 C :   -0.193051
  46 S :    0.472600
  47 C :   -0.171514
  48 C :   -0.028344
  49 C :   -0.055372
  50 C :   -0.185084
  51 S :    0.480753
  52 C :   -0.152314
  53 C :   -0.070873
  54 C :    0.080144
  55 C :   -0.093929
  56 C :   -0.017764
  57 N :   -0.022820
  58 C :   -0.014903
  59 N :   -0.029283
  60 C :    0.015821
  61 C :   -0.178341
  62 S :    0.512296
  63 C :    0.053193
  64 C :   -0.099173
  65 C :    0.083379
  66 O :   -0.137740
  67 C :   -0.054609
  68 C :    0.032457
  69 C :   -0.008749
  70 C :   -0.005291
  71 C :   -0.029802
  72 C :    0.068136
  73 C :    0.068225
  74 C :   -0.031997
  75 F :   -0.047604
  76 F :   -0.046782
  77 C :    0.014991
  78 C :   -0.021065
  79 C :    0.060158
  80 C :   -0.142453
  81 C :   -0.035693
  82 N :   -0.047569
  83 C :   -0.020324
  84 N :   -0.047640
  85 H :    0.048522
  86 H :    0.045277
  87 H :    0.040650
  88 H :    0.040802
  89 H :    0.054533
  90 H :    0.048316
  91 H :    0.032814
  92 H :    0.037749
  93 H :    0.041854
  94 H :    0.045004
  95 H :    0.041551
  96 H :    0.048070
  97 H :    0.055875
  98 H :    0.041650
  99 H :    0.047458
 100 H :    0.045592
 101 H :    0.039952

  Mayer bond orders larger than 0.100000
B(  0-C ,  1-C ) :   1.4385 B(  0-C ,  5-C ) :   0.1084 B(  0-C ,  7-C ) :   1.1892
B(  0-C , 85-H ) :   1.0071 B(  1-C ,  2-F ) :   1.1361 B(  1-C ,  3-C ) :   1.1920
B(  3-C ,  4-F ) :   1.1358 B(  3-C ,  5-C ) :   1.4413 B(  5-C ,  6-C ) :   1.1922
B(  5-C , 86-H ) :   1.0072 B(  6-C ,  7-C ) :   1.2574 B(  6-C , 11-C ) :   1.1871
B(  7-C ,  8-C ) :   1.2139 B(  8-C ,  9-C ) :   1.4535 B(  8-C , 87-H ) :   0.9903
B(  9-C , 10-C ) :   1.2220 B(  9-C , 15-C ) :   0.9833 B( 10-C , 11-C ) :   1.4660
B( 10-C , 12-C ) :   0.9607 B( 11-C , 88-H ) :   1.0171 B( 12-C , 13-O ) :   2.1141
B( 12-C , 14-C ) :   0.9813 B( 14-C , 15-C ) :   1.0719 B( 14-C , 21-C ) :   1.4963
B( 15-C , 16-C ) :   1.6369 B( 16-C , 17-C ) :   1.1414 B( 16-C , 19-C ) :   1.1456
B( 17-C , 18-N ) :   2.9749 B( 19-C , 20-N ) :   2.9631 B( 21-C , 22-C ) :   1.2649
B( 21-C , 89-H ) :   0.9438 B( 22-C , 23-C ) :   1.3261 B( 22-C , 26-S ) :   1.0759
B( 23-C , 24-C ) :   1.3333 B( 23-C , 90-H ) :   1.0091 B( 24-C , 25-C ) :   1.3539
B( 24-C , 29-C ) :   0.9872 B( 25-C , 26-S ) :   1.1319 B( 25-C , 27-C ) :   1.1983
B( 27-C , 28-C ) :   1.3963 B( 27-C , 37-S ) :   1.1131 B( 28-C , 29-C ) :   0.9936
B( 28-C , 35-C ) :   1.3457 B( 29-C , 30-C ) :   1.7161 B( 30-C , 31-C ) :   1.1345
B( 30-C , 33-C ) :   1.1337 B( 31-C , 32-N ) :   2.9829 B( 33-C , 34-N ) :   2.9965
B( 35-C , 36-C ) :   1.3926 B( 35-C , 91-H ) :   0.9771 B( 36-C , 37-S ) :   1.1141
B( 36-C , 38-C ) :   1.1918 B( 38-C , 39-C ) :   1.4426 B( 38-C , 45-C ) :   0.1062
B( 38-C , 46-S ) :   1.1815 B( 39-C , 40-N ) :   0.9440 B( 39-C , 43-C ) :   1.2436
B( 40-N , 41-O ) :   1.4509 B( 40-N , 42-O ) :   1.5424 B( 41-O , 42-O ) :   0.2483
B( 43-C , 44-C ) :   1.1178 B( 43-C , 45-C ) :   1.5799 B( 44-C , 92-H ) :   0.9227
B( 44-C , 93-H ) :   0.9272 B( 44-C , 94-H ) :   0.9327 B( 45-C , 46-S ) :   1.0792
B( 45-C , 47-C ) :   1.0914 B( 47-C , 48-C ) :   1.4744 B( 47-C , 51-S ) :   1.1134
B( 48-C , 49-C ) :   1.2799 B( 48-C , 95-H ) :   0.9946 B( 49-C , 50-C ) :   1.4396
B( 49-C , 54-C ) :   0.9965 B( 50-C , 51-S ) :   1.1176 B( 50-C , 52-C ) :   1.2037
B( 52-C , 53-C ) :   1.4074 B( 52-C , 62-S ) :   1.1582 B( 53-C , 54-C ) :   0.9900
B( 53-C , 60-C ) :   1.3019 B( 54-C , 55-C ) :   1.7213 B( 55-C , 56-C ) :   1.1306
B( 55-C , 58-C ) :   1.1354 B( 56-C , 57-N ) :   2.9949 B( 58-C , 59-N ) :   2.9832
B( 60-C , 61-C ) :   1.4034 B( 60-C , 96-H ) :   1.0017 B( 61-C , 62-S ) :   1.0876
B( 61-C , 63-C ) :   1.1327 B( 63-C , 64-C ) :   1.6450 B( 63-C , 97-H ) :   0.9465
B( 64-C , 65-C ) :   0.9369 B( 64-C , 79-C ) :   1.0358 B( 65-C , 66-O ) :   2.2788
B( 65-C , 67-C ) :   0.9177 B( 67-C , 68-C ) :   1.4766 B( 67-C , 78-C ) :   1.2200
B( 68-C , 69-C ) :   1.1959 B( 68-C , 98-H ) :   1.0160 B( 69-C , 70-C ) :   1.2533
B( 69-C , 74-C ) :   1.1933 B( 70-C , 71-C ) :   1.1896 B( 70-C , 77-C ) :   1.2171
B( 71-C , 72-C ) :   1.4437 B( 71-C , 74-C ) :   0.1083 B( 71-C , 99-H ) :   1.0063
B( 72-C , 73-C ) :   1.1912 B( 72-C , 76-F ) :   1.1367 B( 73-C , 74-C ) :   1.4443
B( 73-C , 75-F ) :   1.1343 B( 74-C ,100-H ) :   1.0066 B( 77-C , 78-C ) :   1.4571
B( 77-C ,101-H ) :   0.9933 B( 78-C , 79-C ) :   1.0021 B( 79-C , 80-C ) :   1.6560
B( 80-C , 81-C ) :   1.1551 B( 80-C , 83-C ) :   1.1317 B( 81-C , 82-N ) :   3.0178
B( 83-C , 84-N ) :   2.9890

-----------------------------------------------------------------------------
         ABSORPTION SPECTRUM VIA TRANSITION ELECTRIC DIPOLE MOMENTS
-----------------------------------------------------------------------------
State   Energy  Wavelength   fosc         T2         TX        TY        TZ
        (cm-1)    (nm)                  (au**2)     (au)      (au)      (au)
-----------------------------------------------------------------------------
   0   13318.1    750.9   0.550682678  13.61245   0.88101   3.23148  -1.54719
   1   14752.0    677.9   0.256132285   5.71596  -0.00506   2.37758   0.25106
   2   19386.8    515.8   1.281457358  21.76077   0.94270   4.35962  -1.36595
   3   20718.4    482.7   0.503399735   7.99896  -1.25387   1.69585   1.88437
   4   21839.7    457.9   0.007805862   0.11767   0.30411  -0.13527  -0.08297
   5   23392.8    427.5   0.041572703   0.58506   0.17166   0.68391  -0.29640
   6   24404.7    409.8   0.125548757   1.69361   0.14003  -0.71024   1.08146
   7   25591.5    390.8   0.068013828   0.87494   0.03175   0.19054   0.91522
   8   26466.2    377.8   0.026159900   0.32540  -0.20236   0.44541  -0.29337
   9   27573.4    362.7   0.008776703   0.10479  -0.20013  -0.18142   0.17838
  10   27764.0    360.2   0.030368239   0.36009   0.26257  -0.33009   0.42684
  11   28150.1    355.2   0.063449993   0.74204   0.29604  -0.43201   0.68393
  12   28314.5    353.2   0.213408047   2.48129   0.25405  -1.18235   1.00936
  13   28407.7    352.0   0.055752592   0.64611   0.14279   0.29851  -0.73254
  14   28801.5    347.2   0.045194576   0.51659   0.10270  -0.65466   0.27832
  15   29043.5    344.3   0.028167299   0.31928  -0.06996  -0.33879   0.44677
  16   29123.3    343.4   0.058241715   0.65837   0.02817   0.68491   0.43413
  17   29522.3    338.7   0.419319721   4.67596  -0.14428  -1.72869   1.29104
  18   29958.3    333.8   0.101001344   1.10991   0.53394  -0.15466   0.89493
  19   30325.9    329.8   0.951261671  10.32671  -0.67770   1.16398   2.91763
  20   30606.9    326.7   0.073427276   0.78979   0.01145  -0.49823   0.73582
  21   31151.8    321.0   0.212707179   2.24789  -0.11602  -1.26470   0.79684
  22   31551.9    316.9   0.112454171   1.17335  -0.26848  -0.50339  -0.92080
  23   31811.5    314.4   0.099509681   1.02981  -0.11427  -0.96289   0.29931
  24   32156.0    311.0   0.221279884   2.26545   0.05730   1.46615   0.33554
  25   32667.1    306.1   0.086662430   0.87337  -0.27410   0.06941  -0.89074
  26   32952.2    303.5   0.384735525   3.84373  -0.76555   0.54942  -1.71924
  27   33016.9    302.9   0.559853749   5.58230  -0.00179  -0.69966   2.25672
  28   33241.3    300.8   0.145164047   1.43766  -0.33242   0.93375  -0.67473
  29   33709.4    296.7   0.002327293   0.02273   0.05313  -0.09373  -0.10545
  30   34030.0    293.9   0.051962810   0.50270  -0.02037   0.13648   0.69545
  31   34131.2    293.0   0.100946924   0.97368   0.15152   0.57661  -0.78629
  32   34219.0    292.2   0.132585626   1.27557  -0.38806   0.83644  -0.65218
  33   34407.1    290.6   0.463185570   4.43183  -0.00498   0.20540   2.09514
  34   34471.2    290.1   0.085360644   0.81522   0.41873  -0.79394   0.09776
  35   34816.8    287.2   0.189718503   1.79389  -0.02637  -0.10860   1.33469
  36   35179.9    284.3   0.031997042   0.29943  -0.13930   0.52878   0.02028
  37   35222.9    283.9   0.192954163   1.80345   0.06457  -0.12368   1.33566
  38   35554.2    281.3   0.031946235   0.29580   0.19901   0.35309  -0.36266
  39   35632.6    280.6   0.234169750   2.16351   0.36968  -0.41476   1.36192
  40   35844.4    279.0   0.207187533   1.90291   0.21402  -0.38015   1.30866
  41   36079.0    277.2   0.013352262   0.12184   0.19896  -0.15934   0.23846
  42   36355.9    275.1   0.014697093   0.13309  -0.15914  -0.04312  -0.32543
  43   36579.1    273.4   0.065499958   0.58950  -0.14372  -0.05416   0.75227
  44   36649.5    272.9   0.098410826   0.88400   0.26054   0.07237   0.90049
  45   36830.6    271.5   0.033916815   0.30317  -0.25887  -0.46954   0.12523
  46   37177.9    269.0   0.048307477   0.42776  -0.18921   0.40393  -0.47834
  47   37259.6    268.4   0.047113998   0.41628   0.00009   0.20083   0.61315
  48   37377.0    267.5   0.059257429   0.52193  -0.05174  -0.52692  -0.49154
  49   37499.6    266.7   0.025921534   0.22757   0.24457  -0.15038   0.38097
  50   37699.9    265.3   0.024459300   0.21359  -0.14023   0.09023   0.43102
  51   37753.2    264.9   0.089471202   0.78020  -0.39274  -0.50491  -0.60911
  52   37961.3    263.4   0.022715071   0.19699  -0.06238  -0.14236   0.41573
  53   38225.5    261.6   0.021583087   0.18588   0.16116   0.30261   0.26141
  54   38340.5    260.8   0.166734428   1.43167  -0.27160  -1.10201  -0.37877
  55   38528.4    259.5   0.008310063   0.07101   0.00576  -0.18431  -0.19236
  56   38736.9    258.2   0.027448791   0.23328  -0.02317   0.20849   0.43505
  57   38804.1    257.7   0.020919164   0.17748   0.00450   0.40438   0.11804
  58   39124.8    255.6   0.073526438   0.61868  -0.24225  -0.65927  -0.35407
  59   39330.7    254.3   0.064093603   0.53649  -0.30545   0.57886   0.32879
  60   39688.7    252.0   0.063474464   0.52651   0.14219   0.42490   0.57075
  61   39843.8    251.0   0.008564466   0.07076  -0.01672  -0.24997   0.08944
  62   40029.9    249.8   0.156368536   1.28600   0.32758  -1.08456   0.04918
  63   40323.9    248.0   0.134319482   1.09661  -0.46639   0.89959  -0.26426

FINAL SINGLE POINT ENERGY     -5589.580747239932

DIPOLE MOMENT
-------------
                                X             Y             Z
Electronic contribution:     -4.80911      17.39154       8.49850
Nuclear contribution   :      5.03222     -18.22316      -9.01167
                        -----------------------------------------
Total Dipole Moment    :      0.22311      -0.83162      -0.51317
                        -----------------------------------------
Magnitude (a.u.)       :      1.00235
Magnitude (Debye)      :      2.54778

Rotational constants in cm-1:     0.000994     0.000160     0.000143
Rotational constants in MHz :    29.799647     4.795460     4.294677

                             ****ORCA TERMINATED NORMALLY****
TOTAL RUN TIME: 0 days 0 hours 11 minutes 38 seconds 2 msec
