                         Program Version 4.2.0 -  RELEASE  -
|  1> # ORCA input file
|  2> # SCF done       -199.379007314936          0.000867639130
|  3> ! CAM-B3LYP def2-SVP def2/J RIJCOSX Grid4 TightSCF
|  4> %maxcore 5000
|  5> %tddft
|  6>     Mode sTDDFT
|  7>     Ethresh 5.0
|  8>     maxcore 5000
|  9> end
| 10>
| 11> %pal
| 12>   nprocs 6
| 13>   end
| 14> * xyz 0 1
| 15>    C      -12.72557       -13.74555        -0.62813
| 16>    C      -13.08200       -12.85138         0.34823
| 17>    C      -14.13567       -11.92541         0.21531
| 18>    N      -14.96839       -11.13958         0.13483
| 19>    C      -12.50492       -12.84986         1.63728
| 20>    N      -12.13993       -12.87421         2.72518
| 21>    C      -13.48252       -14.03977        -1.84285
| 22>    C      -13.08101       -15.29768        -2.33004
| 23>    C      -13.65504       -15.85333        -3.45475
| 24>    C      -14.64371       -15.13332        -4.11492
| 25>    C      -15.04048       -13.87812        -3.64125
| 26>    C      -14.46806       -13.32470        -2.50064
| 27>   Cl      -16.25428       -12.99594        -4.47628
| 28>   Cl      -15.37834       -15.79071        -5.52164
| 29>    C      -12.00107       -15.84015        -1.47243
| 30>    O      -11.45380       -16.91454        -1.55929
| 31>    C      -11.69182       -14.74819        -0.51493
| 32>    C      -10.53828       -14.76910         0.21372
| 33>    C       -9.86905       -13.68083         0.82323
| 34>    C       -8.88817       -13.79505         1.77998
| 35>    C       -8.43163       -12.47077         2.09405
| 36>    C       -7.56410       -11.71168         2.79427
| 37>    C       -7.82738       -10.31392         2.34490
| 38>    N       -8.77893       -10.24770         1.44331
| 39>    C       -9.19100       -11.54057         1.24048
| 40>    C      -10.04646       -12.24717         0.47175
| 41>    C       -7.08517        -9.19785         2.81477
| 42>    C       -7.37066        -7.92526         2.44402
| 43>    C       -6.64640        -6.74015         2.79746
| 44>    C       -7.17865        -5.50776         2.46159
| 45>    C       -6.47402        -4.32627         2.74502
| 46>    C       -6.78453        -2.99160         2.49867
| 47>    C       -8.05517        -2.48578         1.90438
| 48>    C       -8.74812        -1.47680         2.83426
| 49>    N       -8.79664        -2.01512         4.18247
| 50>    C       -7.82698        -1.89699         0.50032
| 51>    N       -7.48441        -2.97371        -0.40896
| 52>    C       -5.64131        -2.21434         2.91768
| 53>    C       -5.36747        -0.89702         2.84412
| 54>    C       -4.06035        -0.33839         3.29574
| 55>    C       -3.12177        -1.33911         3.88139
| 56>    C       -3.40366        -2.65285         3.94696
| 57>    C       -4.64039        -3.14276         3.46419
| 58>    C       -5.15922        -4.41775         3.36192
| 59>    C       -4.64486        -5.68577         3.71687
| 60>    C       -5.37022        -6.80095         3.45172
| 61>    C       -4.31770         0.84206         4.20424
| 62>    C       -4.14544         0.81119         5.52749
| 63>    C       -4.31769         1.92959         6.41286
| 64>    C       -4.06869         1.91399         7.75675
| 65>    C       -4.29415         3.25000         8.26231
| 66>    C       -4.23906         4.08243         9.31706
| 67>    C       -4.65728         5.41606         8.77387
| 68>    N       -4.93845         5.36173         7.49092
| 69>    C       -4.72108         4.06330         7.11487
| 70>    C       -4.73317         3.28754         6.00452
| 71>    C       -4.72749         6.62735         9.49641
| 72>    C       -4.37988         6.76259        10.80943
| 73>    C       -4.42327         8.00606        11.46916
| 74>    C       -4.04466         8.20930        12.77188
| 75>    C       -4.04459         9.46684        13.49184
| 76>    C       -4.44899        10.69156        13.02601
| 77>    C       -4.41448        11.87912        13.78762
| 78>    N       -4.42008        12.88106        14.34793
| 79>    C       -4.95590        10.95826        11.73656
| 80>    N       -5.37643        11.26641        10.71331
| 81>    C       -3.52914         9.20663        14.83548
| 82>    C       -3.23222         7.83811        14.95271
| 83>    C       -3.53962         7.15161        13.67984
| 84>    O       -3.39680         5.96873        13.45185
| 85>    C       -2.72728         7.29783        16.11746
| 86>    C       -2.50976         8.14511        17.19661
| 87>    C       -2.79984         9.50972        17.08932
| 88>    C       -3.31020        10.04909        15.91330
| 89>   Cl       -2.52376        10.54791        18.42915
| 90>   Cl       -1.88174         7.51319        18.66443
| 91>    H      -13.34268       -16.82204        -3.81146
| 92>    H      -14.79375       -12.35455        -2.16149
| 93>    H      -10.03275       -15.72872         0.25400
| 94>    H       -8.54962       -14.70686         2.23584
| 95>    H       -6.82134       -11.98879         3.51850
| 96>    H      -10.68851       -11.88479        -0.30803
| 97>    H       -6.27140        -9.42149         3.49028
| 98>    H       -8.23557        -7.79217         1.80727
| 99>    H       -8.13613        -5.46063         1.96374
|100>    H       -8.72744        -3.33951         1.77578
|101>    H       -9.74227        -1.24450         2.41399
|102>    H       -8.18141        -0.54377         2.87743
|103>    H       -9.29889        -2.89681         4.19138
|104>    H       -9.28015        -1.37591         4.80332
|105>    H       -7.06248        -1.10424         0.55307
|106>    H       -8.75852        -1.44657         0.14506
|107>    H       -6.61759        -3.41584        -0.12086
|108>    H       -7.36734        -2.62770        -1.35407
|109>    H       -6.07365        -0.18071         2.44967
|110>    H       -3.57331         0.07728         2.39545
|111>    H       -2.17920        -0.94891         4.23487
|112>    H       -2.69019        -3.35102         4.36008
|113>    H       -3.67579        -5.75411         4.18916
|114>    H       -4.97163        -7.76868         3.71144
|115>    H       -4.66724         1.73633         3.70931
|116>    H       -3.81709        -0.10633         5.99876
|117>    H       -3.75297         1.06942         8.33994
|118>    H       -3.96331         3.89313        10.33588
|119>    H       -4.98363         3.57986         5.00270
|120>    H       -5.06075         7.48958         8.93291
|121>    H       -4.04250         5.90823        11.37557
|122>    H       -4.76946         8.85095        10.88803
|123>    H       -2.50756         6.24403        16.18460
|124>    H       -3.52055        11.10494        15.87031
|125> *
|126>
|127>                          ****END OF INPUT****

CARTESIAN COORDINATES (ANGSTROEM)
---------------------------------
  C    -12.725570  -13.745550   -0.628130
  C    -13.082000  -12.851380    0.348230
  C    -14.135670  -11.925410    0.215310
  N    -14.968390  -11.139580    0.134830
  C    -12.504920  -12.849860    1.637280
  N    -12.139930  -12.874210    2.725180
  C    -13.482520  -14.039770   -1.842850
  C    -13.081010  -15.297680   -2.330040
  C    -13.655040  -15.853330   -3.454750
  C    -14.643710  -15.133320   -4.114920
  C    -15.040480  -13.878120   -3.641250
  C    -14.468060  -13.324700   -2.500640
  Cl   -16.254280  -12.995940   -4.476280
  Cl   -15.378340  -15.790710   -5.521640
  C    -12.001070  -15.840150   -1.472430
  O    -11.453800  -16.914540   -1.559290
  C    -11.691820  -14.748190   -0.514930
  C    -10.538280  -14.769100    0.213720
  C     -9.869050  -13.680830    0.823230
  C     -8.888170  -13.795050    1.779980
  C     -8.431630  -12.470770    2.094050
  C     -7.564100  -11.711680    2.794270
  C     -7.827380  -10.313920    2.344900
  N     -8.778930  -10.247700    1.443310
  C     -9.191000  -11.540570    1.240480
  C    -10.046460  -12.247170    0.471750
  C     -7.085170   -9.197850    2.814770
  C     -7.370660   -7.925260    2.444020
  C     -6.646400   -6.740150    2.797460
  C     -7.178650   -5.507760    2.461590
  C     -6.474020   -4.326270    2.745020
  C     -6.784530   -2.991600    2.498670
  C     -8.055170   -2.485780    1.904380
  C     -8.748120   -1.476800    2.834260
  N     -8.796640   -2.015120    4.182470
  C     -7.826980   -1.896990    0.500320
  N     -7.484410   -2.973710   -0.408960
  C     -5.641310   -2.214340    2.917680
  C     -5.367470   -0.897020    2.844120
  C     -4.060350   -0.338390    3.295740
  C     -3.121770   -1.339110    3.881390
  C     -3.403660   -2.652850    3.946960
  C     -4.640390   -3.142760    3.464190
  C     -5.159220   -4.417750    3.361920
  C     -4.644860   -5.685770    3.716870
  C     -5.370220   -6.800950    3.451720
  C     -4.317700    0.842060    4.204240
  C     -4.145440    0.811190    5.527490
  C     -4.317690    1.929590    6.412860
  C     -4.068690    1.913990    7.756750
  C     -4.294150    3.250000    8.262310
  C     -4.239060    4.082430    9.317060
  C     -4.657280    5.416060    8.773870
  N     -4.938450    5.361730    7.490920
  C     -4.721080    4.063300    7.114870
  C     -4.733170    3.287540    6.004520
  C     -4.727490    6.627350    9.496410
  C     -4.379880    6.762590   10.809430
  C     -4.423270    8.006060   11.469160
  C     -4.044660    8.209300   12.771880
  C     -4.044590    9.466840   13.491840
  C     -4.448990   10.691560   13.026010
  C     -4.414480   11.879120   13.787620
  N     -4.420080   12.881060   14.347930
  C     -4.955900   10.958260   11.736560
  N     -5.376430   11.266410   10.713310
  C     -3.529140    9.206630   14.835480
  C     -3.232220    7.838110   14.952710
  C     -3.539620    7.151610   13.679840
  O     -3.396800    5.968730   13.451850
  C     -2.727280    7.297830   16.117460
  C     -2.509760    8.145110   17.196610
  C     -2.799840    9.509720   17.089320
  C     -3.310200   10.049090   15.913300
  Cl    -2.523760   10.547910   18.429150
  Cl    -1.881740    7.513190   18.664430
  H    -13.342680  -16.822040   -3.811460
  H    -14.793750  -12.354550   -2.161490
  H    -10.032750  -15.728720    0.254000
  H     -8.549620  -14.706860    2.235840
  H     -6.821340  -11.988790    3.518500
  H    -10.688510  -11.884790   -0.308030
  H     -6.271400   -9.421490    3.490280
  H     -8.235570   -7.792170    1.807270
  H     -8.136130   -5.460630    1.963740
  H     -8.727440   -3.339510    1.775780
  H     -9.742270   -1.244500    2.413990
  H     -8.181410   -0.543770    2.877430
  H     -9.298890   -2.896810    4.191380
  H     -9.280150   -1.375910    4.803320
  H     -7.062480   -1.104240    0.553070
  H     -8.758520   -1.446570    0.145060
  H     -6.617590   -3.415840   -0.120860
  H     -7.367340   -2.627700   -1.354070
  H     -6.073650   -0.180710    2.449670
  H     -3.573310    0.077280    2.395450
  H     -2.179200   -0.948910    4.234870
  H     -2.690190   -3.351020    4.360080
  H     -3.675790   -5.754110    4.189160
  H     -4.971630   -7.768680    3.711440
  H     -4.667240    1.736330    3.709310
  H     -3.817090   -0.106330    5.998760
  H     -3.752970    1.069420    8.339940
  H     -3.963310    3.893130   10.335880
  H     -4.983630    3.579860    5.002700
  H     -5.060750    7.489580    8.932910
  H     -4.042500    5.908230   11.375570
  H     -4.769460    8.850950   10.888030
  H     -2.507560    6.244030   16.184600
  H     -3.520550   11.104940   15.870310

 Total Charge           Charge          ....    0
 Multiplicity           Mult            ....    1
 Number of Electrons    NEL             ....  546
 Basis Dimension        Dim             .... 1250

ORBITAL ENERGIES
----------------

  NO   OCC          E(Eh)            E(eV)
   0   2.0000    -101.605617     -2764.8294
   1   2.0000    -101.603900     -2764.7827
   2   2.0000    -101.598764     -2764.6429
   3   2.0000    -101.598026     -2764.6228
   4   2.0000     -19.231075      -523.3042
   5   2.0000     -19.218721      -522.9680
   6   2.0000     -14.426056      -392.5529
   7   2.0000     -14.423814      -392.4919
   8   2.0000     -14.416983      -392.3060
   9   2.0000     -14.415176      -392.2569
  10   2.0000     -14.410799      -392.1378
  11   2.0000     -14.385907      -391.4604
  12   2.0000     -14.379164      -391.2769
  13   2.0000     -14.376748      -391.2112
  14   2.0000     -10.381621      -282.4983
  15   2.0000     -10.370142      -282.1859
  16   2.0000     -10.362315      -281.9729
  17   2.0000     -10.361929      -281.9624
  18   2.0000     -10.355354      -281.7835
  19   2.0000     -10.354688      -281.7654
  20   2.0000     -10.354427      -281.7583
  21   2.0000     -10.352376      -281.7025
  22   2.0000     -10.346553      -281.5440
  23   2.0000     -10.342406      -281.4312
  24   2.0000     -10.329586      -281.0823
  25   2.0000     -10.327968      -281.0383
  26   2.0000     -10.325892      -280.9818
  27   2.0000     -10.324888      -280.9545
  28   2.0000     -10.322583      -280.8918
  29   2.0000     -10.318770      -280.7880
  30   2.0000     -10.315893      -280.7097
  31   2.0000     -10.315694      -280.7043
  32   2.0000     -10.315286      -280.6932
  33   2.0000     -10.314841      -280.6811
  34   2.0000     -10.314310      -280.6666
  35   2.0000     -10.313230      -280.6373
  36   2.0000     -10.310453      -280.5617
  37   2.0000     -10.309107      -280.5251
  38   2.0000     -10.308601      -280.5113
  39   2.0000     -10.308137      -280.4987
  40   2.0000     -10.308014      -280.4953
  41   2.0000     -10.307262      -280.4748
  42   2.0000     -10.305100      -280.4160
  43   2.0000     -10.301298      -280.3126
  44   2.0000     -10.301063      -280.3062
  45   2.0000     -10.300824      -280.2997
  46   2.0000     -10.299633      -280.2673
  47   2.0000     -10.299613      -280.2667
  48   2.0000     -10.299473      -280.2629
  49   2.0000     -10.298729      -280.2427
  50   2.0000     -10.297915      -280.2205
  51   2.0000     -10.297761      -280.2163
  52   2.0000     -10.297545      -280.2104
  53   2.0000     -10.294127      -280.1174
  54   2.0000     -10.288491      -279.9641
  55   2.0000     -10.287267      -279.9308
  56   2.0000     -10.286663      -279.9143
  57   2.0000     -10.286135      -279.9000
  58   2.0000     -10.285868      -279.8927
  59   2.0000     -10.285536      -279.8837
  60   2.0000     -10.284739      -279.8620
  61   2.0000     -10.281733      -279.7802
  62   2.0000     -10.280269      -279.7403
  63   2.0000     -10.277936      -279.6769
  64   2.0000     -10.277126      -279.6548
  65   2.0000     -10.275458      -279.6094
  66   2.0000     -10.275347      -279.6064
  67   2.0000     -10.272643      -279.5328
  68   2.0000     -10.270772      -279.4819
  69   2.0000     -10.269771      -279.4547
  70   2.0000     -10.268577      -279.4222
  71   2.0000     -10.267882      -279.4033
  72   2.0000     -10.266996      -279.3792
  73   2.0000     -10.264867      -279.3212
  74   2.0000     -10.263669      -279.2886
  75   2.0000     -10.263254      -279.2773
  76   2.0000      -9.560642      -260.1583
  77   2.0000      -9.558955      -260.1124
  78   2.0000      -9.553783      -259.9717
  79   2.0000      -9.553047      -259.9516
  80   2.0000      -7.331019      -199.4872
  81   2.0000      -7.329363      -199.4421
  82   2.0000      -7.324167      -199.3007
  83   2.0000      -7.323445      -199.2811
  84   2.0000      -7.320917      -199.2123
  85   2.0000      -7.320166      -199.1918
  86   2.0000      -7.319195      -199.1654
  87   2.0000      -7.318464      -199.1455
  88   2.0000      -7.314037      -199.0251
  89   2.0000      -7.313328      -199.0058
  90   2.0000      -7.313298      -199.0050
  91   2.0000      -7.312576      -198.9853
  92   2.0000      -1.145250       -31.1638
  93   2.0000      -1.133647       -30.8481
  94   2.0000      -1.065194       -28.9854
  95   2.0000      -1.048055       -28.5190
  96   2.0000      -1.037547       -28.2331
  97   2.0000      -1.030253       -28.0346
  98   2.0000      -1.023744       -27.8575
  99   2.0000      -1.014335       -27.6015
 100   2.0000      -1.002948       -27.2916
 101   2.0000      -0.998563       -27.1723
 102   2.0000      -0.993569       -27.0364
 103   2.0000      -0.988736       -26.9049
 104   2.0000      -0.987195       -26.8629
 105   2.0000      -0.969644       -26.3853
 106   2.0000      -0.967019       -26.3139
 107   2.0000      -0.965805       -26.2809
 108   2.0000      -0.963475       -26.2175
 109   2.0000      -0.960502       -26.1366
 110   2.0000      -0.953799       -25.9542
 111   2.0000      -0.948355       -25.8060
 112   2.0000      -0.945048       -25.7161
 113   2.0000      -0.931618       -25.3506
 114   2.0000      -0.928126       -25.2556
 115   2.0000      -0.919126       -25.0107
 116   2.0000      -0.900479       -24.5033
 117   2.0000      -0.899832       -24.4857
 118   2.0000      -0.884949       -24.0807
 119   2.0000      -0.878810       -23.9136
 120   2.0000      -0.869830       -23.6693
 121   2.0000      -0.867906       -23.6169
 122   2.0000      -0.866597       -23.5813
 123   2.0000      -0.862955       -23.4822
 124   2.0000      -0.859774       -23.3956
 125   2.0000      -0.852446       -23.1962
 126   2.0000      -0.845248       -23.0004
 127   2.0000      -0.840192       -22.8628
 128   2.0000      -0.833130       -22.6706
 129   2.0000      -0.819277       -22.2937
 130   2.0000      -0.805319       -21.9139
 131   2.0000      -0.797393       -21.6982
 132   2.0000      -0.791866       -21.5478
 133   2.0000      -0.779933       -21.2230
 134   2.0000      -0.775149       -21.0929
 135   2.0000      -0.767776       -20.8922
 136   2.0000      -0.763801       -20.7841
 137   2.0000      -0.759733       -20.6734
 138   2.0000      -0.751158       -20.4401
 139   2.0000      -0.733844       -19.9689
 140   2.0000      -0.721874       -19.6432
 141   2.0000      -0.717690       -19.5293
 142   2.0000      -0.711714       -19.3667
 143   2.0000      -0.705686       -19.2027
 144   2.0000      -0.703167       -19.1341
 145   2.0000      -0.700205       -19.0536
 146   2.0000      -0.692023       -18.8309
 147   2.0000      -0.684514       -18.6266
 148   2.0000      -0.680431       -18.5155
 149   2.0000      -0.677633       -18.4393
 150   2.0000      -0.666136       -18.1265
 151   2.0000      -0.662494       -18.0274
 152   2.0000      -0.652423       -17.7533
 153   2.0000      -0.651411       -17.7258
 154   2.0000      -0.648954       -17.6589
 155   2.0000      -0.648083       -17.6352
 156   2.0000      -0.643732       -17.5168
 157   2.0000      -0.636657       -17.3243
 158   2.0000      -0.629343       -17.1253
 159   2.0000      -0.624646       -16.9975
 160   2.0000      -0.621126       -16.9017
 161   2.0000      -0.616375       -16.7724
 162   2.0000      -0.609618       -16.5886
 163   2.0000      -0.601304       -16.3623
 164   2.0000      -0.597859       -16.2686
 165   2.0000      -0.596766       -16.2388
 166   2.0000      -0.591399       -16.0928
 167   2.0000      -0.587604       -15.9895
 168   2.0000      -0.582436       -15.8489
 169   2.0000      -0.581020       -15.8104
 170   2.0000      -0.575334       -15.6556
 171   2.0000      -0.574554       -15.6344
 172   2.0000      -0.571833       -15.5604
 173   2.0000      -0.569602       -15.4997
 174   2.0000      -0.562206       -15.2984
 175   2.0000      -0.557932       -15.1821
 176   2.0000      -0.555489       -15.1156
 177   2.0000      -0.553080       -15.0501
 178   2.0000      -0.550752       -14.9867
 179   2.0000      -0.549400       -14.9499
 180   2.0000      -0.547009       -14.8849
 181   2.0000      -0.543942       -14.8014
 182   2.0000      -0.542735       -14.7686
 183   2.0000      -0.542096       -14.7512
 184   2.0000      -0.534005       -14.5310
 185   2.0000      -0.532311       -14.4849
 186   2.0000      -0.530731       -14.4419
 187   2.0000      -0.527298       -14.3485
 188   2.0000      -0.525626       -14.3030
 189   2.0000      -0.523045       -14.2328
 190   2.0000      -0.521356       -14.1868
 191   2.0000      -0.520237       -14.1564
 192   2.0000      -0.515764       -14.0347
 193   2.0000      -0.514970       -14.0131
 194   2.0000      -0.514559       -14.0019
 195   2.0000      -0.512530       -13.9466
 196   2.0000      -0.507519       -13.8103
 197   2.0000      -0.506756       -13.7895
 198   2.0000      -0.505753       -13.7622
 199   2.0000      -0.503875       -13.7111
 200   2.0000      -0.503110       -13.6903
 201   2.0000      -0.502232       -13.6664
 202   2.0000      -0.496003       -13.4969
 203   2.0000      -0.491754       -13.3813
 204   2.0000      -0.490107       -13.3365
 205   2.0000      -0.489405       -13.3174
 206   2.0000      -0.485248       -13.2043
 207   2.0000      -0.484494       -13.1837
 208   2.0000      -0.481629       -13.1058
 209   2.0000      -0.480341       -13.0707
 210   2.0000      -0.475869       -12.9490
 211   2.0000      -0.474931       -12.9235
 212   2.0000      -0.473529       -12.8854
 213   2.0000      -0.471892       -12.8408
 214   2.0000      -0.468932       -12.7603
 215   2.0000      -0.459500       -12.5036
 216   2.0000      -0.457155       -12.4398
 217   2.0000      -0.456840       -12.4312
 218   2.0000      -0.454986       -12.3808
 219   2.0000      -0.451579       -12.2881
 220   2.0000      -0.451434       -12.2841
 221   2.0000      -0.451033       -12.2732
 222   2.0000      -0.445605       -12.1255
 223   2.0000      -0.444590       -12.0979
 224   2.0000      -0.441156       -12.0045
 225   2.0000      -0.440209       -11.9787
 226   2.0000      -0.437898       -11.9158
 227   2.0000      -0.437005       -11.8915
 228   2.0000      -0.435859       -11.8603
 229   2.0000      -0.434500       -11.8233
 230   2.0000      -0.434087       -11.8121
 231   2.0000      -0.433954       -11.8085
 232   2.0000      -0.431833       -11.7508
 233   2.0000      -0.429908       -11.6984
 234   2.0000      -0.429153       -11.6779
 235   2.0000      -0.427017       -11.6197
 236   2.0000      -0.426188       -11.5972
 237   2.0000      -0.425982       -11.5915
 238   2.0000      -0.421860       -11.4794
 239   2.0000      -0.418921       -11.3994
 240   2.0000      -0.418455       -11.3867
 241   2.0000      -0.412994       -11.2381
 242   2.0000      -0.412121       -11.2144
 243   2.0000      -0.408350       -11.1118
 244   2.0000      -0.404373       -11.0035
 245   2.0000      -0.394250       -10.7281
 246   2.0000      -0.392176       -10.6716
 247   2.0000      -0.389817       -10.6075
 248   2.0000      -0.387878       -10.5547
 249   2.0000      -0.386606       -10.5201
 250   2.0000      -0.380356       -10.3500
 251   2.0000      -0.370832       -10.0909
 252   2.0000      -0.364759        -9.9256
 253   2.0000      -0.361482        -9.8364
 254   2.0000      -0.354752        -9.6533
 255   2.0000      -0.351292        -9.5591
 256   2.0000      -0.349101        -9.4995
 257   2.0000      -0.348791        -9.4911
 258   2.0000      -0.343477        -9.3465
 259   2.0000      -0.342043        -9.3075
 260   2.0000      -0.337806        -9.1922
 261   2.0000      -0.334741        -9.1088
 262   2.0000      -0.333037        -9.0624
 263   2.0000      -0.324643        -8.8340
 264   2.0000      -0.319525        -8.6947
 265   2.0000      -0.309402        -8.4193
 266   2.0000      -0.306895        -8.3510
 267   2.0000      -0.303315        -8.2536
 268   2.0000      -0.301427        -8.2023
 269   2.0000      -0.291607        -7.9350
 270   2.0000      -0.263988        -7.1835
 271   2.0000      -0.255511        -6.9528
 272   2.0000      -0.222571        -6.0565
 273   0.0000      -0.120023        -3.2660
 274   0.0000      -0.105622        -2.8741
 275   0.0000      -0.083900        -2.2830
 276   0.0000      -0.081449        -2.2163
 277   0.0000      -0.069578        -1.8933

MULLIKEN ATOMIC CHARGES
-----------------------
   0 C :    0.259106
   1 C :   -0.327679
   2 C :   -0.178739
   3 N :    0.161038
   4 C :   -0.201649
   5 N :    0.173609
   6 C :    0.020116
   7 C :   -0.004702
   8 C :   -0.028858
   9 C :    0.059379
  10 C :    0.051057
  11 C :   -0.016022
  12 Cl:   -0.037960
  13 Cl:   -0.044946
  14 C :    0.143427
  15 O :   -0.135609
  16 C :   -0.121635
  17 C :    0.040264
  18 C :    0.010647
  19 C :    0.019481
  20 C :    0.115955
  21 C :   -0.071296
  22 C :    0.008795
  23 N :   -0.061673
  24 C :    0.156518
  25 C :   -0.122255
  26 C :   -0.019088
  27 C :    0.034511
  28 C :    0.108481
  29 C :   -0.086308
  30 C :    0.040956
  31 C :   -0.005643
  32 C :   -0.080236
  33 C :    0.155379
  34 N :   -0.211935
  35 C :    0.160976
  36 N :   -0.225418
  37 C :    0.104734
  38 C :   -0.117249
  39 C :    0.179119
  40 C :   -0.066884
  41 C :    0.018614
  42 C :    0.004607
  43 C :    0.040307
  44 C :    0.001954
  45 C :   -0.003465
  46 C :   -0.113912
  47 C :    0.056835
  48 C :    0.067497
  49 C :   -0.034856
  50 C :    0.118200
  51 C :   -0.083740
  52 C :    0.001688
  53 N :   -0.035692
  54 C :    0.115546
  55 C :   -0.086826
  56 C :    0.050359
  57 C :   -0.011295
  58 C :   -0.019182
  59 C :   -0.070771
  60 C :    0.325921
  61 C :   -0.342620
  62 C :   -0.188661
  63 N :    0.159939
  64 C :   -0.192105
  65 N :    0.161641
  66 C :    0.033437
  67 C :   -0.012660
  68 C :    0.150180
  69 O :   -0.147176
  70 C :   -0.030102
  71 C :    0.061943
  72 C :    0.047178
  73 C :   -0.015037
  74 Cl:   -0.031346
  75 Cl:   -0.039411
  76 H :   -0.000352
  77 H :    0.002240
  78 H :    0.019676
  79 H :   -0.004225
  80 H :   -0.010010
  81 H :    0.001083
  82 H :   -0.024867
  83 H :    0.009742
  84 H :   -0.025851
  85 H :   -0.010885
  86 H :   -0.010467
  87 H :   -0.021150
  88 H :    0.092415
  89 H :    0.090793
  90 H :   -0.031409
  91 H :   -0.008745
  92 H :    0.098672
  93 H :    0.091374
  94 H :   -0.005038
  95 H :    0.040156
  96 H :   -0.008696
  97 H :   -0.037091
  98 H :   -0.040060
  99 H :   -0.031615
 100 H :   -0.004249
 101 H :   -0.002261
 102 H :   -0.015505
 103 H :   -0.000626
 104 H :   -0.009988
 105 H :    0.016429
 106 H :    0.030571
 107 H :    0.014318
 108 H :    0.000230
 109 H :    0.000632
Sum of atomic charges:   -0.0000000

LOEWDIN ATOMIC CHARGES
----------------------
   0 C :    0.061341
   1 C :   -0.128059
   2 C :   -0.020502
   3 N :   -0.044233
   4 C :   -0.021124
   5 N :   -0.039694
   6 C :   -0.010604
   7 C :   -0.046113
   8 C :    0.001671
   9 C :   -0.135967
  10 C :   -0.129775
  11 C :   -0.015308
  12 Cl:    0.161240
  13 Cl:    0.156694
  14 C :    0.083596
  15 O :   -0.136567
  16 C :   -0.092614
  17 C :    0.070295
  18 C :   -0.029454
  19 C :    0.045200
  20 C :   -0.025743
  21 C :    0.019414
  22 C :    0.030761
  23 N :   -0.113707
  24 C :    0.000741
  25 C :    0.000005
  26 C :   -0.069008
  27 C :    0.052885
  28 C :   -0.038493
  29 C :    0.012602
  30 C :   -0.027321
  31 C :   -0.012594
  32 C :   -0.041253
  33 C :    0.025778
  34 N :   -0.115006
  35 C :    0.028768
  36 N :   -0.118569
  37 C :   -0.011745
  38 C :    0.069805
  39 C :   -0.030993
  40 C :   -0.037439
  41 C :   -0.015543
  42 C :   -0.036549
  43 C :   -0.028438
  44 C :   -0.009313
  45 C :   -0.023433
  46 C :   -0.007520
  47 C :   -0.020830
  48 C :   -0.014559
  49 C :   -0.016222
  50 C :   -0.017435
  51 C :   -0.004295
  52 C :    0.015322
  53 N :   -0.069383
  54 C :   -0.020284
  55 C :    0.042122
  56 C :    0.030708
  57 C :   -0.020759
  58 C :    0.071961
  59 C :   -0.088575
  60 C :    0.071798
  61 C :   -0.129169
  62 C :   -0.019682
  63 N :   -0.042639
  64 C :   -0.021115
  65 N :   -0.041604
  66 C :   -0.012958
  67 C :   -0.044201
  68 C :    0.086602
  69 O :   -0.140389
  70 C :    0.001493
  71 C :   -0.133225
  72 C :   -0.129030
  73 C :   -0.011984
  74 Cl:    0.164587
  75 Cl:    0.161175
  76 H :    0.045964
  77 H :    0.044380
  78 H :    0.049325
  79 H :    0.032923
  80 H :    0.029495
  81 H :    0.029276
  82 H :    0.023951
  83 H :    0.039882
  84 H :    0.029221
  85 H :    0.028012
  86 H :    0.000913
  87 H :    0.009627
  88 H :    0.054266
  89 H :    0.054980
  90 H :   -0.005654
  91 H :    0.015462
  92 H :    0.052844
  93 H :    0.054534
  94 H :    0.024517
  95 H :    0.063377
  96 H :    0.024906
  97 H :    0.029756
  98 H :    0.026504
  99 H :    0.024108
 100 H :    0.021190
 101 H :    0.036110
 102 H :    0.027850
 103 H :    0.031980
 104 H :    0.030847
 105 H :    0.046192
 106 H :    0.032496
 107 H :    0.044306
 108 H :    0.046142
 109 H :    0.044776

  Mayer bond orders larger than 0.100000
B(  0-C ,  1-C ) :   1.6512 B(  0-C ,  6-C ) :   1.0027 B(  0-C , 16-C ) :   1.0522
B(  1-C ,  2-C ) :   1.1341 B(  1-C ,  4-C ) :   1.1498 B(  2-C ,  3-N ) :   2.9907
B(  4-C ,  5-N ) :   3.0101 B(  6-C ,  7-C ) :   1.3303 B(  6-C , 11-C ) :   1.3522
B(  7-C ,  8-C ) :   1.3507 B(  7-C , 14-C ) :   0.9165 B(  8-C ,  9-C ) :   1.3449
B(  8-C , 76-H ) :   1.0157 B(  9-C , 10-C ) :   1.4110 B(  9-C , 13-Cl) :   1.0443
B( 10-C , 11-C ) :   1.3539 B( 10-C , 12-Cl) :   1.0672 B( 11-C , 77-H ) :   0.9908
B( 14-C , 15-O ) :   2.2786 B( 14-C , 16-C ) :   0.9436 B( 16-C , 17-C ) :   1.6062
B( 17-C , 18-C ) :   1.1153 B( 17-C , 78-H ) :   0.9579 B( 18-C , 19-C ) :   1.5926
B( 18-C , 25-C ) :   0.9544 B( 19-C , 20-C ) :   0.9812 B( 19-C , 79-H ) :   1.0195
B( 20-C , 21-C ) :   1.6029 B( 20-C , 24-C ) :   1.0739 B( 21-C , 22-C ) :   0.9601
B( 21-C , 80-H ) :   1.0091 B( 22-C , 23-N ) :   1.7510 B( 22-C , 26-C ) :   1.1179
B( 23-N , 24-C ) :   1.2132 B( 24-C , 25-C ) :   1.6179 B( 25-C , 81-H ) :   1.0231
B( 26-C , 27-C ) :   1.6339 B( 26-C , 82-H ) :   0.9600 B( 27-C , 28-C ) :   1.0799
B( 27-C , 83-H ) :   0.9870 B( 28-C , 29-C ) :   1.4813 B( 28-C , 45-C ) :   1.1169
B( 29-C , 30-C ) :   1.1269 B( 29-C , 84-H ) :   1.0037 B( 30-C , 31-C ) :   1.4838
B( 30-C , 43-C ) :   1.1146 B( 31-C , 32-C ) :   1.0316 B( 31-C , 37-C ) :   1.0807
B( 32-C , 33-C ) :   1.0427 B( 32-C , 35-C ) :   1.0394 B( 32-C , 85-H ) :   0.8854
B( 33-C , 34-N ) :   1.0965 B( 33-C , 86-H ) :   0.9376 B( 33-C , 87-H ) :   0.9302
B( 34-N , 88-H ) :   0.9694 B( 34-N , 89-H ) :   0.9677 B( 35-C , 36-N ) :   1.0954
B( 35-C , 90-H ) :   0.9320 B( 35-C , 91-H ) :   0.9344 B( 36-N , 92-H ) :   0.9696
B( 36-N , 93-H ) :   0.9666 B( 37-C , 38-C ) :   1.6803 B( 37-C , 42-C ) :   1.0592
B( 38-C , 39-C ) :   0.9707 B( 38-C , 94-H ) :   0.9586 B( 39-C , 40-C ) :   1.0058
B( 39-C , 46-C ) :   0.9452 B( 39-C , 95-H ) :   0.8459 B( 40-C , 41-C ) :   1.7110
B( 40-C , 96-H ) :   0.9711 B( 41-C , 42-C ) :   1.1218 B( 41-C , 97-H ) :   0.9912
B( 42-C , 43-C ) :   1.4534 B( 43-C , 44-C ) :   1.1322 B( 44-C , 45-C ) :   1.6273
B( 44-C , 98-H ) :   0.9883 B( 45-C , 99-H ) :   0.9803 B( 46-C , 47-C ) :   1.8163
B( 46-C , 49-C ) :   0.1071 B( 46-C ,100-H ) :   0.9683 B( 47-C , 48-C ) :   1.0875
B( 47-C ,101-H ) :   0.9622 B( 48-C , 49-C ) :   1.6532 B( 48-C , 55-C ) :   0.9782
B( 49-C , 50-C ) :   0.9652 B( 49-C ,102-H ) :   1.0227 B( 50-C , 51-C ) :   1.6414
B( 50-C , 54-C ) :   1.0782 B( 51-C , 52-C ) :   0.9749 B( 51-C ,103-H ) :   1.0048
B( 52-C , 53-N ) :   1.7389 B( 52-C , 56-C ) :   1.0880 B( 53-N , 54-C ) :   1.2049
B( 54-C , 55-C ) :   1.5965 B( 55-C ,104-H ) :   1.0290 B( 56-C , 57-C ) :   1.5428
B( 56-C ,105-H ) :   0.9890 B( 57-C , 58-C ) :   1.1614 B( 57-C ,106-H ) :   0.9731
B( 58-C , 59-C ) :   1.5422 B( 58-C ,107-H ) :   0.9628 B( 59-C , 60-C ) :   1.0640
B( 59-C , 68-C ) :   0.9473 B( 60-C , 61-C ) :   1.6394 B( 60-C , 66-C ) :   0.9909
B( 61-C , 62-C ) :   1.1414 B( 61-C , 64-C ) :   1.1486 B( 62-C , 63-N ) :   2.9697
B( 64-C , 65-N ) :   2.9634 B( 66-C , 67-C ) :   1.3292 B( 66-C , 73-C ) :   1.3396
B( 67-C , 68-C ) :   0.9463 B( 67-C , 70-C ) :   1.3452 B( 68-C , 69-O ) :   2.1975
B( 70-C , 71-C ) :   1.3408 B( 70-C ,108-H ) :   1.0167 B( 71-C , 72-C ) :   1.4050
B( 71-C , 75-Cl) :   1.0498 B( 72-C , 73-C ) :   1.3609 B( 72-C , 74-Cl) :   1.0804
B( 73-C ,109-H ) :   0.9862

-----------------------------------------------------------------------------
         ABSORPTION SPECTRUM VIA TRANSITION ELECTRIC DIPOLE MOMENTS
-----------------------------------------------------------------------------
State   Energy  Wavelength   fosc         T2         TX        TY        TZ
        (cm-1)    (nm)                  (au**2)     (au)      (au)      (au)
-----------------------------------------------------------------------------
   0   11716.2    853.5   0.072711554   2.04312  -0.04875   1.42678   0.07100
   1   12156.9    822.6   0.015259142   0.41322   0.00208   0.60789   0.20900
   2   13537.1    738.7   0.149287547   3.63057  -0.14815  -1.41309  -1.26956
   3   14074.5    710.5   0.007548191   0.17656   0.05274   0.34709  -0.23088
   4   16556.8    604.0   0.121870861   2.42326  -1.20224  -0.73877  -0.65735
   5   18744.4    533.5   0.444904632   7.81394  -1.89689  -1.81372  -0.96237
   6   21285.5    469.8   0.129994084   2.01055   0.42855   0.94776   0.96366
   7   22564.5    443.2   0.065916455   0.96171   0.64058   0.53408   0.51587
   8   22867.1    437.3   0.400360414   5.76389   0.13811   1.82187   1.55744
   9   23089.0    433.1   0.285855784   4.07583   0.21986   1.40299   1.43497
  10   23599.3    423.7   0.046064468   0.64260   0.49373   0.56478   0.28258
  11   24307.4    411.4   0.186345479   2.52380   0.97994   1.11006   0.57557
  12   24618.3    406.2   1.062738026  14.21160  -0.71774  -2.98553  -2.18703
  13   24867.1    402.1   0.005855221   0.07752  -0.22071  -0.16874  -0.01816
  14   24961.2    400.6   0.302909815   3.99506  -1.40114  -1.42469   0.04587
  15   25507.5    392.0   0.042028728   0.54244   0.11723   0.40199   0.60589
  16   26356.8    379.4   0.039800796   0.49714  -0.22244   0.52765   0.41139
  17   26463.4    377.9   0.063246933   0.78681   0.61029  -0.55969   0.31798
  18   26808.6    373.0   0.014541879   0.17858  -0.00207   0.20334   0.37044
  19   27194.1    367.7   0.111880837   1.35443  -0.33978  -0.91120  -0.63929
  20   27711.6    360.9   0.000271471   0.00323  -0.00353   0.03746   0.04254
  21   28100.7    355.9   0.075264166   0.88175   0.59224   0.35573   0.63597
  22   28364.0    352.6   0.006995096   0.08119   0.17940   0.07442  -0.20849
  23   28394.1    352.2   0.549284465   6.36861  -0.58207  -0.45192  -2.41362
  24   29011.4    344.7   0.002775809   0.03150  -0.12672  -0.04217  -0.11689
  25   29411.1    340.0   0.007038781   0.07879   0.00548   0.27763   0.04099
  26   29506.7    338.9   0.080050118   0.89313  -0.15536   0.78520  -0.50245
  27   29649.0    337.3   0.019405910   0.21548  -0.06583  -0.44463  -0.11596
  28   29758.4    336.0   0.029378244   0.32501   0.30699   0.03712   0.47894
  29   30441.5    328.5   0.115079425   1.24454   0.96153  -0.53518   0.18328
  30   31136.6    321.2   0.001858973   0.01966   0.02669   0.09702   0.09763
  31   31704.1    315.4   0.000813689   0.00845  -0.08262  -0.03974  -0.00656
  32   32222.3    310.3   0.000187672   0.00192  -0.03144   0.00200  -0.03041
  33   32257.0    310.0   0.131218589   1.33921   0.07885   1.12696   0.25088
  34   32418.9    308.5   0.030457943   0.30930   0.04737   0.50382   0.23070
  35   32523.2    307.5   0.316070275   3.19938   1.05767   0.84903   1.16613
  36   32740.7    305.4   0.275498276   2.77017  -0.79231  -0.96286  -1.10241
  37   32944.0    303.5   0.129521403   1.29432  -0.46532  -0.06745  -1.03598
  38   33311.4    300.2   0.040195285   0.39724   0.06131  -0.49046   0.39107
  39   33485.6    298.6   0.238815977   2.34791  -0.60700  -1.40066  -0.13273
  40   33675.5    297.0   0.014560269   0.14234   0.02472   0.31094  -0.21224
  41   33967.6    294.4   0.003596526   0.03486  -0.07105  -0.09288  -0.14554
  42   34208.9    292.3   0.168532257   1.62188   0.48691  -0.84346   0.82059
  43   34406.4    290.6   0.094874031   0.90779   0.26689  -0.54641   0.73348
  44   34525.5    289.6   0.489554468   4.66806  -0.23241  -1.71412  -1.29455
  45   34914.7    286.4   0.010486738   0.09888  -0.05734  -0.19799  -0.23747
  46   34946.3    286.2   0.058849317   0.55439   0.12862   0.19577   0.70677
  47   35122.7    284.7   0.026366919   0.24714  -0.27172   0.37442  -0.18198
  48   35231.3    283.8   0.498063328   4.65405  -0.64048   1.71744  -1.13765
  49   35529.4    281.5   0.045697197   0.42343  -0.15540   0.61361  -0.15087
  50   35785.9    279.4   0.043310103   0.39843  -0.15957  -0.41218  -0.45065
  51   36016.1    277.7   0.098094228   0.89665  -0.21491  -0.31406   0.86708
  52   36191.0    276.3   0.056950917   0.51806   0.08747  -0.65817  -0.27787
  53   36735.8    272.2   0.115697058   1.03683  -0.22282  -0.59026  -0.79924
  54   36898.6    271.0   0.022112812   0.19729   0.11453   0.09660   0.41814
  55   37037.8    270.0   0.037510573   0.33341   0.24300  -0.46299   0.24496
  56   37637.7    265.7   0.022923908   0.20051  -0.35699  -0.24930  -0.10449
  57   37848.1    264.2   0.008179566   0.07115   0.00769  -0.02666   0.26529
  58   38163.8    262.0   0.044625658   0.38495   0.16730   0.58010  -0.14302
  59   38204.4    261.8   0.071248578   0.61396  -0.32465   0.70856  -0.08062
  60   38346.7    260.8   0.000545590   0.00468   0.02452   0.00299   0.06383
  61   38455.3    260.0   0.015281827   0.13083   0.12036   0.33277   0.07486
  62   38717.3    258.3   0.057225944   0.48659  -0.11375  -0.62710  -0.28353
  63   38867.0    257.3   0.010696824   0.09060  -0.26296  -0.01002  -0.14613
  64   38906.6    257.0   0.026076136   0.22065   0.43989  -0.07316   0.14760
  65   39207.4    255.1   0.033155132   0.27839   0.25230  -0.45806   0.07010
  66   39333.8    254.2   0.055978644   0.46852   0.00695   0.39726   0.55737
  67   39423.0    253.7   0.153113973   1.27862  -0.10370  -0.96223  -0.58479
  68   39643.6    252.2   0.227963876   1.89308   0.11401   0.96215   0.97690
  69   39903.5    250.6   0.054022413   0.44570   0.34770   0.56357   0.08479
  70   40021.5    249.9   0.015050140   0.12380  -0.20724  -0.26921  -0.09154
  71   40092.7    249.4   0.076759263   0.63029  -0.49390  -0.61325  -0.10141
  72   40268.8    248.3   0.014946390   0.12219  -0.23973  -0.20877  -0.14539

FINAL SINGLE POINT ENERGY     -4807.664167226065

DIPOLE MOMENT
-------------
                                X             Y             Z
Electronic contribution:    -30.94948      -2.53455      45.16826
Nuclear contribution   :     33.71301       1.99649     -45.44115
                        -----------------------------------------
Total Dipole Moment    :      2.76353      -0.53806      -0.27289
                        -----------------------------------------
Magnitude (a.u.)       :      2.82861
Magnitude (Debye)      :      7.18977

Rotational constants in cm-1:     0.001717     0.000107     0.000106
Rotational constants in MHz :    51.466023     3.211307     3.178332

                             ****ORCA TERMINATED NORMALLY****
TOTAL RUN TIME: 0 days 0 hours 11 minutes 34 seconds 719 msec
