                         Program Version 4.2.0 -  RELEASE  -
|  1> # ORCA input file
|  2> # SCF done       -172.509378596409          0.000596801031
|  3> ! CAM-B3LYP def2-SVP def2/J RIJCOSX Grid4 TightSCF
|  4> %maxcore 5000
|  5> %tddft
|  6>     Mode sTDDFT
|  7>     Ethresh 5.0
|  8>     maxcore 5000
|  9> end
| 10>
| 11> %pal
| 12>   nprocs 6
| 13>   end
| 14> * xyz 0 1
| 15>    C       -2.25365        -1.27564         1.40101
| 16>    C       -2.12220        -2.17475         2.42905
| 17>    C       -1.02191        -3.04154         2.57734
| 18>    N       -0.15041        -3.77055         2.74659
| 19>    C       -3.03031        -2.30410         3.49840
| 20>    N       -3.71077        -2.44684         4.41360
| 21>    C       -1.29338        -1.06004         0.32461
| 22>    C       -1.67969         0.09408        -0.39821
| 23>    C       -1.01065         0.52596        -1.51502
| 24>    C        0.08050        -0.23336        -1.95374
| 25>    C        0.45236        -1.39013        -1.23131
| 26>    C       -0.21173        -1.81441        -0.08640
| 27>    S        1.79561        -2.20538        -1.97760
| 28>    C        1.83513        -0.99633        -3.23346
| 29>    C        0.89757        -0.02947        -3.10077
| 30>   Br        3.09714        -1.13681        -4.61555
| 31>    C       -2.92759         0.63377         0.18148
| 32>    O       -3.48125         1.66790        -0.13060
| 33>    C       -3.34523        -0.34957         1.19226
| 34>    C       -4.62186        -0.55371         1.64612
| 35>    C       -5.81202         0.10140         1.30124
| 36>    S       -5.93595         1.50527         0.26853
| 37>    C       -7.63220         1.31990         0.18475
| 38>    C       -8.11542         0.25102         0.88526
| 39>    C       -9.55589        -0.13300         0.95344
| 40>    C       -7.08471        -0.43366         1.57258
| 41>    C       -7.36624        -1.55904         2.42444
| 42>    C       -6.80586        -1.81828         3.62176
| 43>    C       -7.22192        -2.93057         4.41961
| 44>    C       -6.87668        -3.11068         5.70654
| 45>    C       -7.42392        -4.15982         6.53939
| 46>    C       -7.64762        -5.43170         6.18910
| 47>    C       -7.14874        -6.04342         4.91861
| 48>    C       -8.48490        -6.31616         7.08922
| 49>    N       -7.90496        -7.58256         7.47654
| 50>    C       -8.13931        -8.76031         6.87362
| 51>    C       -8.75039        -8.91969         5.66412
| 52>    C       -9.01654       -10.15562         5.05688
| 53>    C       -9.29643       -10.26932         3.71590
| 54>    C       -9.63583       -11.42080         2.97414
| 55>    C       -9.71387       -11.21743         1.62621
| 56>    C       -9.40235        -9.89960         1.22906
| 57>    S       -9.11676        -8.89665         2.62179
| 58>    C       -9.20088        -9.41869        -0.05715
| 59>    C       -9.39189       -10.08606        -1.27876
| 60>    C       -8.93952        -9.38600        -2.36392
| 61>    C       -8.35279        -8.14431        -2.04706
| 62>    S       -8.47308        -7.84615        -0.32972
| 63>    C       -7.66877        -7.31236        -2.91965
| 64>    C       -6.98589        -6.17451        -2.51993
| 65>    C       -6.08794        -5.47652        -3.31236
| 66>    C       -5.29567        -4.35406        -2.91167
| 67>    C       -5.47027        -3.55804        -1.79740
| 68>    C       -4.63847        -2.47041        -1.49661
| 69>    N       -3.97862        -1.57565        -1.19982
| 70>    C       -6.50108        -3.67459        -0.84899
| 71>    N       -7.31484        -3.67499        -0.03558
| 72>    C       -4.26568        -4.14601        -3.93431
| 73>    C       -4.50212        -5.03859        -4.99241
| 74>    C       -5.66876        -5.88783        -4.66662
| 75>    O       -6.15115        -6.75199        -5.37442
| 76>    C       -3.68105        -5.06705        -6.10142
| 77>    C       -2.59800        -4.20160        -6.14335
| 78>    C       -2.33492        -3.32387        -5.09532
| 79>    C       -3.17814        -3.29238        -3.98537
| 80>    C       -1.13694        -2.42690        -5.15119
| 81>    H       -1.33287         1.40443        -2.05170
| 82>    H        0.10085        -2.70983         0.42534
| 83>    H        0.77959         0.79061        -3.78547
| 84>    H       -4.77760        -1.43580         2.25600
| 85>    H       -8.20893         2.01143        -0.39998
| 86>    H      -10.16160         0.56399         0.38039
| 87>    H       -9.90179        -0.13653         1.98610
| 88>    H       -9.69390        -1.13424         0.54634
| 89>    H       -8.15750        -2.20917         2.07319
| 90>    H       -6.07048        -1.15164         4.05134
| 91>    H       -7.91340        -3.61756         3.95104
| 92>    H       -6.24080        -2.38386         6.19392
| 93>    H       -7.71132        -3.83574         7.53451
| 94>    H       -6.73264        -7.03071         5.11411
| 95>    H       -6.37668        -5.41955         4.47733
| 96>    H       -7.95027        -6.16034         4.18878
| 97>    H       -9.42722        -6.53098         6.57306
| 98>    H       -8.72390        -5.76772         8.00534
| 99>    H       -7.29095        -7.56783         8.27454
|100>    H       -7.77371        -9.62903         7.40644
|101>    H       -9.00193        -8.04729         5.08091
|102>    H       -8.97262       -11.06158         5.64655
|103>    H       -9.80494       -12.36859         3.45473
|104>    H       -9.94473       -11.98589         0.91071
|105>    H       -9.84662       -11.05911        -1.33408
|106>    H       -8.98231        -9.74103        -3.37812
|107>    H       -7.60532        -7.62194        -3.95274
|108>    H       -7.10979        -5.85664        -1.49000
|109>    H       -3.88264        -5.75581        -6.90754
|110>    H       -1.93818        -4.21005        -6.99888
|111>    H       -2.96065        -2.60918        -3.18004
|112>    H       -1.09183        -1.90359        -6.10469
|113>    H       -0.22460        -3.01634        -5.05472
|114>    H       -1.16364        -1.69474        -4.34747
|115> *
|116>
|117>                          ****END OF INPUT****

CARTESIAN COORDINATES (ANGSTROEM)
---------------------------------
  C     -2.253650   -1.275640    1.401010
  C     -2.122200   -2.174750    2.429050
  C     -1.021910   -3.041540    2.577340
  N     -0.150410   -3.770550    2.746590
  C     -3.030310   -2.304100    3.498400
  N     -3.710770   -2.446840    4.413600
  C     -1.293380   -1.060040    0.324610
  C     -1.679690    0.094080   -0.398210
  C     -1.010650    0.525960   -1.515020
  C      0.080500   -0.233360   -1.953740
  C      0.452360   -1.390130   -1.231310
  C     -0.211730   -1.814410   -0.086400
  S      1.795610   -2.205380   -1.977600
  C      1.835130   -0.996330   -3.233460
  C      0.897570   -0.029470   -3.100770
  Br     3.097140   -1.136810   -4.615550
  C     -2.927590    0.633770    0.181480
  O     -3.481250    1.667900   -0.130600
  C     -3.345230   -0.349570    1.192260
  C     -4.621860   -0.553710    1.646120
  C     -5.812020    0.101400    1.301240
  S     -5.935950    1.505270    0.268530
  C     -7.632200    1.319900    0.184750
  C     -8.115420    0.251020    0.885260
  C     -9.555890   -0.133000    0.953440
  C     -7.084710   -0.433660    1.572580
  C     -7.366240   -1.559040    2.424440
  C     -6.805860   -1.818280    3.621760
  C     -7.221920   -2.930570    4.419610
  C     -6.876680   -3.110680    5.706540
  C     -7.423920   -4.159820    6.539390
  C     -7.647620   -5.431700    6.189100
  C     -7.148740   -6.043420    4.918610
  C     -8.484900   -6.316160    7.089220
  N     -7.904960   -7.582560    7.476540
  C     -8.139310   -8.760310    6.873620
  C     -8.750390   -8.919690    5.664120
  C     -9.016540  -10.155620    5.056880
  C     -9.296430  -10.269320    3.715900
  C     -9.635830  -11.420800    2.974140
  C     -9.713870  -11.217430    1.626210
  C     -9.402350   -9.899600    1.229060
  S     -9.116760   -8.896650    2.621790
  C     -9.200880   -9.418690   -0.057150
  C     -9.391890  -10.086060   -1.278760
  C     -8.939520   -9.386000   -2.363920
  C     -8.352790   -8.144310   -2.047060
  S     -8.473080   -7.846150   -0.329720
  C     -7.668770   -7.312360   -2.919650
  C     -6.985890   -6.174510   -2.519930
  C     -6.087940   -5.476520   -3.312360
  C     -5.295670   -4.354060   -2.911670
  C     -5.470270   -3.558040   -1.797400
  C     -4.638470   -2.470410   -1.496610
  N     -3.978620   -1.575650   -1.199820
  C     -6.501080   -3.674590   -0.848990
  N     -7.314840   -3.674990   -0.035580
  C     -4.265680   -4.146010   -3.934310
  C     -4.502120   -5.038590   -4.992410
  C     -5.668760   -5.887830   -4.666620
  O     -6.151150   -6.751990   -5.374420
  C     -3.681050   -5.067050   -6.101420
  C     -2.598000   -4.201600   -6.143350
  C     -2.334920   -3.323870   -5.095320
  C     -3.178140   -3.292380   -3.985370
  C     -1.136940   -2.426900   -5.151190
  H     -1.332870    1.404430   -2.051700
  H      0.100850   -2.709830    0.425340
  H      0.779590    0.790610   -3.785470
  H     -4.777600   -1.435800    2.256000
  H     -8.208930    2.011430   -0.399980
  H    -10.161600    0.563990    0.380390
  H     -9.901790   -0.136530    1.986100
  H     -9.693900   -1.134240    0.546340
  H     -8.157500   -2.209170    2.073190
  H     -6.070480   -1.151640    4.051340
  H     -7.913400   -3.617560    3.951040
  H     -6.240800   -2.383860    6.193920
  H     -7.711320   -3.835740    7.534510
  H     -6.732640   -7.030710    5.114110
  H     -6.376680   -5.419550    4.477330
  H     -7.950270   -6.160340    4.188780
  H     -9.427220   -6.530980    6.573060
  H     -8.723900   -5.767720    8.005340
  H     -7.290950   -7.567830    8.274540
  H     -7.773710   -9.629030    7.406440
  H     -9.001930   -8.047290    5.080910
  H     -8.972620  -11.061580    5.646550
  H     -9.804940  -12.368590    3.454730
  H     -9.944730  -11.985890    0.910710
  H     -9.846620  -11.059110   -1.334080
  H     -8.982310   -9.741030   -3.378120
  H     -7.605320   -7.621940   -3.952740
  H     -7.109790   -5.856640   -1.490000
  H     -3.882640   -5.755810   -6.907540
  H     -1.938180   -4.210050   -6.998880
  H     -2.960650   -2.609180   -3.180040
  H     -1.091830   -1.903590   -6.104690
  H     -0.224600   -3.016340   -5.054720
  H     -1.163640   -1.694740   -4.347470

 Total Charge           Charge          ....    0
 Multiplicity           Mult            ....    1
 Number of Electrons    NEL             ....  508
 Basis Dimension        Dim             .... 1128

ORBITAL ENERGIES
----------------

  NO   OCC          E(Eh)            E(eV)
   0   2.0000    -482.876314    -13139.7325
   1   2.0000     -88.962202     -2420.7846
   2   2.0000     -88.957979     -2420.6697
   3   2.0000     -88.948446     -2420.4103
   4   2.0000     -88.936499     -2420.0852
   5   2.0000     -62.553948     -1702.1795
   6   2.0000     -56.387856     -1534.3916
   7   2.0000     -56.385220     -1534.3198
   8   2.0000     -56.385160     -1534.3182
   9   2.0000     -19.196803      -522.3716
  10   2.0000     -19.186836      -522.1004
  11   2.0000     -14.465897      -393.6371
  12   2.0000     -14.399096      -391.8193
  13   2.0000     -14.395846      -391.7309
  14   2.0000     -14.395215      -391.7137
  15   2.0000     -14.394292      -391.6886
  16   2.0000     -10.348341      -281.5927
  17   2.0000     -10.346123      -281.5323
  18   2.0000     -10.344776      -281.4957
  19   2.0000     -10.336765      -281.2777
  20   2.0000     -10.330755      -281.1141
  21   2.0000     -10.321868      -280.8723
  22   2.0000     -10.319768      -280.8152
  23   2.0000     -10.318226      -280.7732
  24   2.0000     -10.314455      -280.6706
  25   2.0000     -10.313217      -280.6369
  26   2.0000     -10.310778      -280.5705
  27   2.0000     -10.308913      -280.5198
  28   2.0000     -10.308876      -280.5188
  29   2.0000     -10.308874      -280.5187
  30   2.0000     -10.306023      -280.4411
  31   2.0000     -10.303320      -280.3676
  32   2.0000     -10.302164      -280.3361
  33   2.0000     -10.302089      -280.3341
  34   2.0000     -10.300795      -280.2989
  35   2.0000     -10.300083      -280.2795
  36   2.0000     -10.294511      -280.1279
  37   2.0000     -10.293875      -280.1106
  38   2.0000     -10.291290      -280.0402
  39   2.0000     -10.291269      -280.0397
  40   2.0000     -10.287743      -279.9437
  41   2.0000     -10.287677      -279.9419
  42   2.0000     -10.287037      -279.9245
  43   2.0000     -10.284977      -279.8684
  44   2.0000     -10.284396      -279.8527
  45   2.0000     -10.281141      -279.7641
  46   2.0000     -10.278774      -279.6996
  47   2.0000     -10.277376      -279.6616
  48   2.0000     -10.276583      -279.6401
  49   2.0000     -10.276481      -279.6373
  50   2.0000     -10.276262      -279.6313
  51   2.0000     -10.275927      -279.6222
  52   2.0000     -10.273882      -279.5665
  53   2.0000     -10.271619      -279.5050
  54   2.0000     -10.270145      -279.4648
  55   2.0000     -10.269654      -279.4515
  56   2.0000     -10.267212      -279.3850
  57   2.0000     -10.266403      -279.3630
  58   2.0000     -10.265194      -279.3301
  59   2.0000     -10.263026      -279.2711
  60   2.0000     -10.262204      -279.2488
  61   2.0000     -10.261561      -279.2313
  62   2.0000     -10.260491      -279.2021
  63   2.0000     -10.259688      -279.1803
  64   2.0000     -10.259005      -279.1617
  65   2.0000     -10.258922      -279.1594
  66   2.0000     -10.256560      -279.0952
  67   2.0000     -10.256429      -279.0916
  68   2.0000     -10.256112      -279.0830
  69   2.0000     -10.254377      -279.0358
  70   2.0000      -8.783356      -239.0073
  71   2.0000      -8.058068      -219.2712
  72   2.0000      -8.054005      -219.1606
  73   2.0000      -8.044471      -218.9012
  74   2.0000      -8.030875      -218.5312
  75   2.0000      -6.619515      -180.1262
  76   2.0000      -6.605155      -179.7354
  77   2.0000      -6.604977      -179.7306
  78   2.0000      -6.027763      -164.0238
  79   2.0000      -6.023610      -163.9108
  80   2.0000      -6.023520      -163.9083
  81   2.0000      -6.019563      -163.8006
  82   2.0000      -6.019300      -163.7935
  83   2.0000      -6.015228      -163.6827
  84   2.0000      -6.014038      -163.6503
  85   2.0000      -6.010018      -163.5409
  86   2.0000      -6.005742      -163.4245
  87   2.0000      -6.000244      -163.2749
  88   2.0000      -5.995573      -163.1478
  89   2.0000      -5.993239      -163.0843
  90   2.0000      -2.735458       -74.4356
  91   2.0000      -2.731357       -74.3240
  92   2.0000      -2.731231       -74.3206
  93   2.0000      -2.719812       -74.0098
  94   2.0000      -2.719808       -74.0097
  95   2.0000      -1.112557       -30.2742
  96   2.0000      -1.099601       -29.9217
  97   2.0000      -1.060404       -28.8551
  98   2.0000      -1.005780       -27.3687
  99   2.0000      -1.003043       -27.2942
 100   2.0000      -0.996629       -27.1196
 101   2.0000      -0.995652       -27.0931
 102   2.0000      -0.978408       -26.6238
 103   2.0000      -0.976599       -26.5746
 104   2.0000      -0.975754       -26.5516
 105   2.0000      -0.973174       -26.4814
 106   2.0000      -0.970957       -26.4211
 107   2.0000      -0.968135       -26.3443
 108   2.0000      -0.927345       -25.2343
 109   2.0000      -0.925672       -25.1888
 110   2.0000      -0.920745       -25.0548
 111   2.0000      -0.912063       -24.8185
 112   2.0000      -0.892477       -24.2855
 113   2.0000      -0.891732       -24.2653
 114   2.0000      -0.887670       -24.1547
 115   2.0000      -0.882171       -24.0051
 116   2.0000      -0.877222       -23.8704
 117   2.0000      -0.869011       -23.6470
 118   2.0000      -0.863259       -23.4905
 119   2.0000      -0.855209       -23.2714
 120   2.0000      -0.853087       -23.2137
 121   2.0000      -0.845220       -22.9996
 122   2.0000      -0.840476       -22.8705
 123   2.0000      -0.832100       -22.6426
 124   2.0000      -0.824351       -22.4317
 125   2.0000      -0.820214       -22.3191
 126   2.0000      -0.812816       -22.1179
 127   2.0000      -0.805121       -21.9084
 128   2.0000      -0.796451       -21.6725
 129   2.0000      -0.787678       -21.4338
 130   2.0000      -0.769650       -20.9432
 131   2.0000      -0.767007       -20.8713
 132   2.0000      -0.753411       -20.5014
 133   2.0000      -0.749378       -20.3916
 134   2.0000      -0.740055       -20.1379
 135   2.0000      -0.730382       -19.8747
 136   2.0000      -0.727775       -19.8038
 137   2.0000      -0.713400       -19.4126
 138   2.0000      -0.698689       -19.0123
 139   2.0000      -0.694283       -18.8924
 140   2.0000      -0.684118       -18.6158
 141   2.0000      -0.671968       -18.2852
 142   2.0000      -0.671128       -18.2623
 143   2.0000      -0.668531       -18.1917
 144   2.0000      -0.665783       -18.1169
 145   2.0000      -0.661413       -17.9980
 146   2.0000      -0.653280       -17.7767
 147   2.0000      -0.643519       -17.5110
 148   2.0000      -0.640170       -17.4199
 149   2.0000      -0.636479       -17.3195
 150   2.0000      -0.632546       -17.2124
 151   2.0000      -0.625388       -17.0177
 152   2.0000      -0.622039       -16.9265
 153   2.0000      -0.613222       -16.6866
 154   2.0000      -0.609167       -16.5763
 155   2.0000      -0.606937       -16.5156
 156   2.0000      -0.604089       -16.4381
 157   2.0000      -0.602521       -16.3954
 158   2.0000      -0.592038       -16.1102
 159   2.0000      -0.581647       -15.8274
 160   2.0000      -0.579421       -15.7669
 161   2.0000      -0.579096       -15.7580
 162   2.0000      -0.567556       -15.4440
 163   2.0000      -0.566612       -15.4183
 164   2.0000      -0.564181       -15.3521
 165   2.0000      -0.558757       -15.2045
 166   2.0000      -0.547790       -14.9061
 167   2.0000      -0.540823       -14.7165
 168   2.0000      -0.535665       -14.5762
 169   2.0000      -0.533249       -14.5104
 170   2.0000      -0.528402       -14.3786
 171   2.0000      -0.527923       -14.3655
 172   2.0000      -0.525361       -14.2958
 173   2.0000      -0.523315       -14.2401
 174   2.0000      -0.519076       -14.1248
 175   2.0000      -0.512058       -13.9338
 176   2.0000      -0.511551       -13.9200
 177   2.0000      -0.507595       -13.8124
 178   2.0000      -0.506963       -13.7952
 179   2.0000      -0.505747       -13.7621
 180   2.0000      -0.502157       -13.6644
 181   2.0000      -0.500008       -13.6059
 182   2.0000      -0.498891       -13.5755
 183   2.0000      -0.497248       -13.5308
 184   2.0000      -0.495003       -13.4697
 185   2.0000      -0.493059       -13.4168
 186   2.0000      -0.489950       -13.3322
 187   2.0000      -0.489595       -13.3226
 188   2.0000      -0.486390       -13.2353
 189   2.0000      -0.485354       -13.2071
 190   2.0000      -0.481901       -13.1132
 191   2.0000      -0.479585       -13.0502
 192   2.0000      -0.479307       -13.0426
 193   2.0000      -0.478537       -13.0216
 194   2.0000      -0.476351       -12.9622
 195   2.0000      -0.472156       -12.8480
 196   2.0000      -0.469217       -12.7681
 197   2.0000      -0.466737       -12.7006
 198   2.0000      -0.461843       -12.5674
 199   2.0000      -0.460762       -12.5380
 200   2.0000      -0.459471       -12.5028
 201   2.0000      -0.458035       -12.4638
 202   2.0000      -0.456597       -12.4246
 203   2.0000      -0.452702       -12.3186
 204   2.0000      -0.450490       -12.2584
 205   2.0000      -0.445307       -12.1174
 206   2.0000      -0.442026       -12.0281
 207   2.0000      -0.437961       -11.9175
 208   2.0000      -0.436656       -11.8820
 209   2.0000      -0.435813       -11.8591
 210   2.0000      -0.431926       -11.7533
 211   2.0000      -0.431168       -11.7327
 212   2.0000      -0.430091       -11.7034
 213   2.0000      -0.429273       -11.6811
 214   2.0000      -0.428196       -11.6518
 215   2.0000      -0.426095       -11.5946
 216   2.0000      -0.425105       -11.5677
 217   2.0000      -0.424100       -11.5403
 218   2.0000      -0.422769       -11.5041
 219   2.0000      -0.422028       -11.4840
 220   2.0000      -0.419423       -11.4131
 221   2.0000      -0.412404       -11.2221
 222   2.0000      -0.411098       -11.1865
 223   2.0000      -0.410598       -11.1729
 224   2.0000      -0.406095       -11.0504
 225   2.0000      -0.403857       -10.9895
 226   2.0000      -0.401095       -10.9143
 227   2.0000      -0.400018       -10.8850
 228   2.0000      -0.397121       -10.8062
 229   2.0000      -0.393048       -10.6954
 230   2.0000      -0.390770       -10.6334
 231   2.0000      -0.387044       -10.5320
 232   2.0000      -0.385385       -10.4869
 233   2.0000      -0.382187       -10.3998
 234   2.0000      -0.371243       -10.1020
 235   2.0000      -0.365590        -9.9482
 236   2.0000      -0.360796        -9.8178
 237   2.0000      -0.360194        -9.8014
 238   2.0000      -0.344988        -9.3876
 239   2.0000      -0.344502        -9.3744
 240   2.0000      -0.330794        -9.0014
 241   2.0000      -0.326261        -8.8780
 242   2.0000      -0.320734        -8.7276
 243   2.0000      -0.311624        -8.4797
 244   2.0000      -0.310933        -8.4609
 245   2.0000      -0.306631        -8.3438
 246   2.0000      -0.302555        -8.2330
 247   2.0000      -0.296307        -8.0629
 248   2.0000      -0.291836        -7.9413
 249   2.0000      -0.279474        -7.6049
 250   2.0000      -0.270454        -7.3594
 251   2.0000      -0.267768        -7.2864
 252   2.0000      -0.244913        -6.6644
 253   2.0000      -0.211808        -5.7636
 254   0.0000      -0.093669        -2.5489
 255   0.0000      -0.067849        -1.8463
 256   0.0000      -0.045784        -1.2458
 257   0.0000      -0.035569        -0.9679
 258   0.0000      -0.025787        -0.7017

MULLIKEN ATOMIC CHARGES
-----------------------
   0 C :    0.286607
   1 C :   -0.350283
   2 C :   -0.192569
   3 N :    0.137990
   4 C :   -0.200719
   5 N :    0.142807
   6 C :    0.022544
   7 C :    0.025145
   8 C :   -0.084248
   9 C :    0.108827
  10 C :   -0.088711
  11 C :   -0.025983
  12 S :    0.172959
  13 C :   -0.130340
  14 C :    0.038097
  15 Br:    0.010581
  16 C :    0.173483
  17 O :   -0.170325
  18 C :   -0.080574
  19 C :   -0.013524
  20 C :   -0.128520
  21 S :    0.186425
  22 C :   -0.104018
  23 C :   -0.083361
  24 C :    0.122296
  25 C :    0.123227
  26 C :   -0.054108
  27 C :    0.027226
  28 C :   -0.003484
  29 C :    0.022683
  30 C :   -0.008273
  31 C :   -0.194581
  32 C :    0.082476
  33 C :    0.190905
  34 N :   -0.135817
  35 C :    0.085715
  36 C :   -0.080511
  37 C :    0.042064
  38 C :   -0.068997
  39 C :    0.060666
  40 C :    0.009618
  41 C :   -0.020901
  42 S :    0.089929
  43 C :   -0.071784
  44 C :    0.049490
  45 C :    0.009313
  46 C :    0.008985
  47 S :    0.101449
  48 C :   -0.033308
  49 C :   -0.030414
  50 C :   -0.116507
  51 C :    0.320653
  52 C :   -0.376574
  53 C :   -0.168549
  54 N :    0.107071
  55 C :   -0.189565
  56 N :    0.129398
  57 C :    0.041156
  58 C :   -0.014038
  59 C :    0.139135
  60 O :   -0.170535
  61 C :   -0.032090
  62 C :   -0.000670
  63 C :   -0.039140
  64 C :   -0.072734
  65 C :    0.088507
  66 H :   -0.016793
  67 H :   -0.009984
  68 H :   -0.005487
  69 H :    0.017239
  70 H :    0.014573
  71 H :    0.003016
  72 H :    0.025158
  73 H :    0.039149
  74 H :    0.013550
  75 H :    0.008716
  76 H :   -0.007928
  77 H :    0.003664
  78 H :   -0.016268
  79 H :    0.018680
  80 H :    0.045785
  81 H :    0.034300
  82 H :    0.034724
  83 H :    0.008722
  84 H :    0.135570
  85 H :    0.014465
  86 H :    0.009442
  87 H :   -0.004834
  88 H :   -0.007047
  89 H :   -0.011077
  90 H :   -0.009972
  91 H :   -0.005924
  92 H :    0.012318
  93 H :    0.011351
  94 H :   -0.014035
  95 H :   -0.024700
  96 H :   -0.017625
  97 H :    0.022589
  98 H :    0.035701
  99 H :    0.021285
Sum of atomic charges:   -0.0000000

LOEWDIN ATOMIC CHARGES
----------------------
   0 C :    0.088558
   1 C :   -0.157778
   2 C :   -0.019053
   3 N :   -0.070115
   4 C :   -0.014930
   5 N :   -0.069477
   6 C :   -0.013412
   7 C :   -0.033501
   8 C :    0.016272
   9 C :   -0.037926
  10 C :   -0.148158
  11 C :   -0.011938
  12 S :    0.422294
  13 C :   -0.277104
  14 C :   -0.072432
  15 Br:    0.126499
  16 C :    0.086639
  17 O :   -0.157816
  18 C :   -0.102726
  19 C :    0.057885
  20 C :   -0.185888
  21 S :    0.504561
  22 C :   -0.177180
  23 C :   -0.065154
  24 C :   -0.045893
  25 C :   -0.018384
  26 C :   -0.018078
  27 C :   -0.009782
  28 C :   -0.012601
  29 C :   -0.020854
  30 C :   -0.042478
  31 C :   -0.044706
  32 C :   -0.054507
  33 C :    0.042476
  34 N :    0.027302
  35 C :    0.074359
  36 C :   -0.138294
  37 C :    0.011637
  38 C :   -0.186984
  39 C :   -0.004470
  40 C :   -0.059102
  41 C :   -0.135308
  42 S :    0.397215
  43 C :   -0.213860
  44 C :   -0.006929
  45 C :   -0.058895
  46 C :   -0.100668
  47 S :    0.401721
  48 C :   -0.089662
  49 C :    0.047087
  50 C :   -0.124811
  51 C :    0.081051
  52 C :   -0.178786
  53 C :    0.003493
  54 N :   -0.083674
  55 C :   -0.013481
  56 N :   -0.085452
  57 C :   -0.010143
  58 C :   -0.047788
  59 C :    0.082169
  60 O :   -0.162412
  61 C :    0.008361
  62 C :   -0.015237
  63 C :   -0.006211
  64 C :   -0.015102
  65 C :   -0.046029
  66 H :    0.038560
  67 H :    0.039284
  68 H :    0.037048
  69 H :    0.048328
  70 H :    0.021601
  71 H :    0.030312
  72 H :    0.034600
  73 H :    0.039807
  74 H :    0.032401
  75 H :    0.030219
  76 H :    0.028624
  77 H :    0.030948
  78 H :    0.023617
  79 H :    0.028993
  80 H :    0.041796
  81 H :    0.029917
  82 H :    0.035643
  83 H :    0.031478
  84 H :    0.087985
  85 H :    0.033390
  86 H :    0.019716
  87 H :    0.036130
  88 H :    0.036095
  89 H :    0.032220
  90 H :    0.033370
  91 H :    0.035844
  92 H :    0.036886
  93 H :    0.029723
  94 H :    0.035494
  95 H :    0.027421
  96 H :    0.033042
  97 H :    0.034830
  98 H :    0.038603
  99 H :    0.031662

  Mayer bond orders larger than 0.100000
B(  0-C ,  1-C ) :   1.6142 B(  0-C ,  6-C ) :   1.0055 B(  0-C , 18-C ) :   1.0909
B(  1-C ,  2-C ) :   1.1399 B(  1-C ,  4-C ) :   1.1535 B(  2-C ,  3-N ) :   2.9797
B(  4-C ,  5-N ) :   2.9871 B(  6-C ,  7-C ) :   1.2787 B(  6-C , 11-C ) :   1.4203
B(  7-C ,  8-C ) :   1.4382 B(  7-C , 16-C ) :   0.9409 B(  8-C ,  9-C ) :   1.2410
B(  8-C , 66-H ) :   1.0178 B(  9-C , 10-C ) :   1.3205 B(  9-C , 14-C ) :   1.1550
B( 10-C , 11-C ) :   1.3240 B( 10-C , 12-S ) :   1.0740 B( 11-C , 67-H ) :   0.9824
B( 12-S , 13-C ) :   1.0853 B( 13-C , 14-C ) :   1.6169 B( 13-C , 15-Br) :   1.0115
B( 14-C , 68-H ) :   1.0014 B( 16-C , 17-O ) :   2.1667 B( 16-C , 18-C ) :   0.9586
B( 18-C , 19-C ) :   1.5497 B( 19-C , 20-C ) :   1.2760 B( 19-C , 69-H ) :   0.9378
B( 20-C , 21-S ) :   1.1107 B( 20-C , 25-C ) :   1.3542 B( 21-S , 22-C ) :   1.1734
B( 22-C , 23-C ) :   1.5193 B( 22-C , 70-H ) :   0.9638 B( 23-C , 24-C ) :   1.0990
B( 23-C , 25-C ) :   1.3012 B( 24-C , 71-H ) :   0.9488 B( 24-C , 72-H ) :   0.9426
B( 24-C , 73-H ) :   0.9400 B( 25-C , 26-C ) :   1.0699 B( 26-C , 27-C ) :   1.6977
B( 26-C , 74-H ) :   0.9452 B( 27-C , 28-C ) :   1.1187 B( 27-C , 75-H ) :   0.9830
B( 28-C , 29-C ) :   1.7458 B( 28-C , 76-H ) :   0.9844 B( 29-C , 30-C ) :   1.0441
B( 29-C , 77-H ) :   0.9552 B( 30-C , 31-C ) :   1.8654 B( 30-C , 78-H ) :   0.9466
B( 31-C , 32-C ) :   1.0876 B( 31-C , 33-C ) :   1.0463 B( 32-C , 79-H ) :   0.9435
B( 32-C , 80-H ) :   0.9418 B( 32-C , 81-H ) :   0.9364 B( 33-C , 34-N ) :   0.9736
B( 33-C , 82-H ) :   0.9191 B( 33-C , 83-H ) :   0.9373 B( 34-N , 35-C ) :   1.2989
B( 34-N , 84-H ) :   0.9398 B( 35-C , 36-C ) :   1.5288 B( 35-C , 85-H ) :   0.9704
B( 36-C , 37-C ) :   1.2168 B( 36-C , 86-H ) :   0.9513 B( 37-C , 38-C ) :   1.5243
B( 37-C , 87-H ) :   0.9843 B( 38-C , 39-C ) :   1.1852 B( 38-C , 42-S ) :   1.0148
B( 39-C , 40-C ) :   1.5454 B( 39-C , 88-H ) :   0.9968 B( 40-C , 41-C ) :   1.2276
B( 40-C , 89-H ) :   0.9934 B( 41-C , 42-S ) :   1.1116 B( 41-C , 43-C ) :   1.4075
B( 43-C , 44-C ) :   1.2638 B( 43-C , 47-S ) :   1.0396 B( 44-C , 45-C ) :   1.4922
B( 44-C , 90-H ) :   0.9940 B( 45-C , 46-C ) :   1.2233 B( 45-C , 91-H ) :   1.0020
B( 46-C , 47-S ) :   1.1029 B( 46-C , 48-C ) :   1.3582 B( 48-C , 49-C ) :   1.3305
B( 48-C , 92-H ) :   0.9756 B( 49-C , 50-C ) :   1.4180 B( 49-C , 93-H ) :   0.9500
B( 50-C , 51-C ) :   1.1569 B( 50-C , 59-C ) :   0.9713 B( 51-C , 52-C ) :   1.5293
B( 51-C , 57-C ) :   0.9681 B( 52-C , 53-C ) :   1.1754 B( 52-C , 55-C ) :   1.1635
B( 53-C , 54-N ) :   2.8889 B( 55-C , 56-N ) :   2.9484 B( 57-C , 58-C ) :   1.3440
B( 57-C , 64-C ) :   1.3716 B( 58-C , 59-C ) :   0.9383 B( 58-C , 61-C ) :   1.3904
B( 59-C , 60-O ) :   2.1789 B( 61-C , 62-C ) :   1.3364 B( 61-C , 94-H ) :   1.0056
B( 62-C , 63-C ) :   1.3973 B( 62-C , 95-H ) :   0.9939 B( 63-C , 64-C ) :   1.3531
B( 63-C , 65-C ) :   1.0455 B( 64-C , 96-H ) :   0.9826 B( 65-C , 97-H ) :   0.9534
B( 65-C , 98-H ) :   0.9509 B( 65-C , 99-H ) :   0.9615

-----------------------------------------------------------------------------
         ABSORPTION SPECTRUM VIA TRANSITION ELECTRIC DIPOLE MOMENTS
-----------------------------------------------------------------------------
State   Energy  Wavelength   fosc         T2         TX        TY        TZ
        (cm-1)    (nm)                  (au**2)     (au)      (au)      (au)
-----------------------------------------------------------------------------
   0   11602.3    861.9   0.922011085  26.16184   1.71998   2.33271  -4.21449
   1   19386.1    515.8   0.012437835   0.21122  -0.05536  -0.32046  -0.32475
   2   20362.0    491.1   0.018605952   0.30082   0.08444   0.53240   0.10118
   3   20816.9    480.4   0.201234967   3.18245   0.82444   0.74818   1.39391
   4   21097.0    474.0   0.438178826   6.83765   2.35388   0.04441  -1.13794
   5   23357.8    428.1   0.113218548   1.59574  -0.22956  -0.78897  -0.95946
   6   25893.2    386.2   0.059758714   0.75978   0.61937   0.51565   0.33207
   7   25930.6    385.6   0.695078454   8.82464  -1.29078  -2.17545  -1.55755
   8   26449.4    378.1   0.354177550   4.40841  -1.52458   1.04381  -0.99726
   9   26734.0    374.1   0.010874748   0.13392  -0.33223   0.01979  -0.15214
  10   27512.6    363.5   0.105821636   1.26625  -0.84601  -0.53160   0.51760
  11   28098.5    355.9   0.026803750   0.31404  -0.40294  -0.37439  -0.10729
  12   29074.7    343.9   0.035782889   0.40517   0.52969   0.23761  -0.26103
  13   29704.1    336.7   0.193658671   2.14632   1.00872   0.26798  -1.02810
  14   29808.8    335.5   0.504380967   5.57044  -1.42008  -0.47521   1.82428
  15   30136.7    331.8   0.007808983   0.08531   0.03501  -0.13884   0.25456
  16   30359.4    329.4   0.032852112   0.35624   0.29922   0.15614  -0.49227
  17   30403.9    328.9   0.000572110   0.00619   0.06518  -0.03832  -0.02186
  18   30893.8    323.7   0.012176990   0.12976   0.13343  -0.33297   0.03304
  19   30976.0    322.8   0.066588050   0.70770  -0.22748   0.47738  -0.65426
  20   31084.4    321.7   0.026526937   0.28094  -0.22698  -0.47826  -0.02634
  21   32135.6    311.2   0.001050787   0.01076  -0.02473   0.10076   0.00120
  22   32352.6    309.1   0.012563992   0.12785   0.15645   0.13476  -0.29191
  23   32454.1    308.1   0.008521416   0.08644   0.15726   0.15278  -0.19588
  24   32569.3    307.0   0.002199883   0.02224  -0.11863  -0.08839  -0.01875
  25   32925.5    303.7   0.081249377   0.81239   0.81899  -0.31447  -0.20677
  26   33040.2    302.7   0.004253252   0.04238   0.16307   0.08719  -0.09047
  27   33752.5    296.3   0.009460973   0.09228   0.05414   0.11660   0.27523
  28   34357.6    291.1   0.005613952   0.05379   0.12148  -0.19080  -0.05130
  29   34371.4    290.9   0.284921671   2.72900   0.90273   0.94834  -1.00734
  30   34600.9    289.0   0.058539530   0.55698  -0.67305   0.25088  -0.20257
  31   34862.1    286.8   0.476398819   4.49876  -0.30637  -1.10324   1.78543
  32   34939.2    286.2   0.052448715   0.49419  -0.07503  -0.65417   0.24623
  33   35134.3    284.6   0.082324693   0.77139   0.46599   0.42225  -0.61315
  34   35286.9    283.4   0.049067651   0.45778  -0.32264   0.03115   0.59390
  35   35583.9    281.0   0.071725978   0.66359  -0.60826   0.41783  -0.34501
  36   36150.9    276.6   0.022307514   0.20315  -0.02570  -0.18695   0.40931
  37   36705.0    272.4   0.001141149   0.01024   0.00955   0.09419  -0.03568
  38   36999.3    270.3   0.066150551   0.58859  -0.17417  -0.28936   0.68886
  39   37073.3    269.7   0.422630971   3.75297   0.35939  -1.04380  -1.59194
  40   37398.2    267.4   0.006021491   0.05301   0.11960  -0.11143  -0.16213
  41   37901.5    263.8   0.000501570   0.00436   0.01346  -0.03475  -0.05448
  42   38278.4    261.2   0.035999818   0.30962  -0.21400   0.40102   0.32094
  43   38416.2    260.3   0.029848905   0.25579  -0.30372   0.29087   0.28096
  44   38995.5    256.4   0.083114529   0.70168  -0.41021  -0.60209  -0.41340
  45   39372.6    254.0   0.146248435   1.22285  -0.86001   0.20889   0.66302
  46   39539.0    252.9   0.011674685   0.09721  -0.24657  -0.11994   0.14842
  47   40031.1    249.8   0.008693352   0.07149   0.01823  -0.12699   0.23460

FINAL SINGLE POINT ENERGY     -6665.300601769765

DIPOLE MOMENT
-------------
                                X             Y             Z
Electronic contribution:    124.37134      49.29571     -78.90675
Nuclear contribution   :   -126.77615     -52.31305      81.15333
                        -----------------------------------------
Total Dipole Moment    :     -2.40481      -3.01733       2.24658
                        -----------------------------------------
Magnitude (a.u.)       :      4.46481
Magnitude (Debye)      :     11.34864

Rotational constants in cm-1:     0.001217     0.000543     0.000463
Rotational constants in MHz :    36.494842    16.292660    13.886864

                             ****ORCA TERMINATED NORMALLY****
TOTAL RUN TIME: 0 days 0 hours 17 minutes 43 seconds 38 msec
