                         Program Version 4.2.0 -  RELEASE  -
|  1> # ORCA input file
|  2> # SCF done       -182.576655877435          0.000520776347
|  3> ! CAM-B3LYP def2-SVP def2/J RIJCOSX Grid4 TightSCF
|  4> %maxcore 5000
|  5> %tddft
|  6>     Mode sTDDFT
|  7>     Ethresh 5.0
|  8>     maxcore 5000
|  9> end
| 10>
| 11> %pal
| 12>   nprocs 6
| 13>   end
| 14> * xyz 0 1
| 15>    C        0.32791         4.94508         0.35448
| 16>    C        0.79671         4.24661         1.43967
| 17>    C        2.14935         3.90508         1.62627
| 18>    N        3.24190         3.60710         1.81697
| 19>    C       -0.01761         3.82566         2.50836
| 20>    N       -0.64704         3.49033         3.40821
| 21>    C        1.14399         5.46598        -0.74028
| 22>    C        0.29317         6.09670        -1.68541
| 23>    C        0.76050         6.68723        -2.83303
| 24>    C        2.14240         6.67932        -3.04833
| 25>    C        2.98911         6.08557        -2.08420
| 26>    C        2.51098         5.46226        -0.93529
| 27>    S        4.66264         6.26030        -2.51088
| 28>    C        4.20734         7.11480        -3.95998
| 29>    C        2.87027         7.25293        -4.12436
| 30>   Br        5.53149         7.77358        -5.10888
| 31>    C       -1.08734         6.01551        -1.20673
| 32>    O       -2.09221         6.46158        -1.75807
| 33>    C       -1.04297         5.29321         0.06701
| 34>    C       -2.19688         5.01207         0.76644
| 35>    N       -3.36745         5.43443         0.27574
| 36>    C       -4.61719         5.23962         0.74955
| 37>    S       -4.94273         4.33421         2.19323
| 38>    C       -6.64028         4.59138         1.93815
| 39>    N       -7.53205         4.04698         2.87626
| 40>    O       -8.71973         4.23137         2.69451
| 41>    O       -7.04133         3.43047         3.80356
| 42>    C       -6.93263         5.32145         0.82021
| 43>    C       -5.77897         5.71839         0.11129
| 44>    C       -5.73866         6.50613        -1.07577
| 45>    C       -6.79849         6.89378        -1.83455
| 46>    C       -6.64242         7.68778        -2.98888
| 47>    S       -5.08379         8.30413        -3.44000
| 48>    C       -5.68890         9.10003        -4.86274
| 49>    C       -7.08190         8.88377        -4.98225
| 50>    C       -7.61760         8.09455        -3.92131
| 51>    C       -8.99111         7.79676        -3.89792
| 52>    C       -9.78958         8.27520        -4.89961
| 53>    F      -11.10267         8.00126        -4.89339
| 54>    C       -9.25857         9.05563        -5.94726
| 55>    F      -10.08017         9.50319        -6.90940
| 56>    C       -7.92537         9.36071        -5.99608
| 57>    C       -4.83382         9.82056        -5.69862
| 58>    C       -3.49723         9.98868        -5.41194
| 59>    C       -2.55752        10.65655        -6.18580
| 60>    C       -1.23673        10.78498        -5.78800
| 61>    C       -0.15986        11.37014        -6.48264
| 62>    C        1.03681        11.31276        -5.81940
| 63>    C        0.95401        10.69400        -4.55859
| 64>    S       -0.68232        10.17142        -4.24194
| 65>    C        1.94613        10.44314        -3.62225
| 66>    C        3.34245        10.59955        -3.72152
| 67>    C        4.02466        10.11987        -2.64119
| 68>    C        3.19959         9.57077        -1.62823
| 69>    S        1.51482         9.74788        -2.07348
| 70>    C        3.60892         8.92202        -0.49106
| 71>    C        2.78029         8.35625         0.49121
| 72>    S        1.03121         8.52474         0.55818
| 73>    C        0.87081         7.58507         1.98987
| 74>    C        2.10023         7.14975         2.42652
| 75>    C        3.16173         7.58201         1.57730
| 76>    O        4.34818         7.12610         2.02029
| 77>    C        4.06219         6.41468         3.14533
| 78>    N        5.14984         5.81116         3.83290
| 79>    O        4.87850         5.22766         4.86114
| 80>    O        6.25411         5.93528         3.35501
| 81>    C        2.73034         6.38770         3.45196
| 82>    H        0.08558         7.15673        -3.53094
| 83>    H        3.19905         5.00777        -0.24259
| 84>    H        2.41549         7.75066        -4.96128
| 85>    H       -2.20474         4.45722         1.69559
| 86>    H       -3.25961         5.95079        -0.62229
| 87>    H       -7.94196         5.56333         0.54318
| 88>    H       -4.76160         6.82681        -1.41238
| 89>    H       -7.80189         6.58726        -1.58017
| 90>    H       -9.42531         7.20228        -3.11127
| 91>    H       -7.54649         9.95914        -6.80803
| 92>    H       -5.24889        10.25924        -6.59479
| 93>    H       -3.13551         9.55241        -4.48705
| 94>    H       -2.84638        11.08569        -7.13547
| 95>    H       -0.29055        11.81111        -7.45517
| 96>    H        1.96152        11.70617        -6.20187
| 97>    H        3.81048        11.02429        -4.59130
| 98>    H        5.09603        10.12911        -2.54606
| 99>    H        4.67195         8.80577        -0.32607
|100>    H       -0.09517         7.43111         2.42428
|101>    H        2.28433         5.88764         4.28659
|102> *
|103>
|104>                          ****END OF INPUT****

CARTESIAN COORDINATES (ANGSTROEM)
---------------------------------
  C      0.327910    4.945080    0.354480
  C      0.796710    4.246610    1.439670
  C      2.149350    3.905080    1.626270
  N      3.241900    3.607100    1.816970
  C     -0.017610    3.825660    2.508360
  N     -0.647040    3.490330    3.408210
  C      1.143990    5.465980   -0.740280
  C      0.293170    6.096700   -1.685410
  C      0.760500    6.687230   -2.833030
  C      2.142400    6.679320   -3.048330
  C      2.989110    6.085570   -2.084200
  C      2.510980    5.462260   -0.935290
  S      4.662640    6.260300   -2.510880
  C      4.207340    7.114800   -3.959980
  C      2.870270    7.252930   -4.124360
  Br     5.531490    7.773580   -5.108880
  C     -1.087340    6.015510   -1.206730
  O     -2.092210    6.461580   -1.758070
  C     -1.042970    5.293210    0.067010
  C     -2.196880    5.012070    0.766440
  N     -3.367450    5.434430    0.275740
  C     -4.617190    5.239620    0.749550
  S     -4.942730    4.334210    2.193230
  C     -6.640280    4.591380    1.938150
  N     -7.532050    4.046980    2.876260
  O     -8.719730    4.231370    2.694510
  O     -7.041330    3.430470    3.803560
  C     -6.932630    5.321450    0.820210
  C     -5.778970    5.718390    0.111290
  C     -5.738660    6.506130   -1.075770
  C     -6.798490    6.893780   -1.834550
  C     -6.642420    7.687780   -2.988880
  S     -5.083790    8.304130   -3.440000
  C     -5.688900    9.100030   -4.862740
  C     -7.081900    8.883770   -4.982250
  C     -7.617600    8.094550   -3.921310
  C     -8.991110    7.796760   -3.897920
  C     -9.789580    8.275200   -4.899610
  F    -11.102670    8.001260   -4.893390
  C     -9.258570    9.055630   -5.947260
  F    -10.080170    9.503190   -6.909400
  C     -7.925370    9.360710   -5.996080
  C     -4.833820    9.820560   -5.698620
  C     -3.497230    9.988680   -5.411940
  C     -2.557520   10.656550   -6.185800
  C     -1.236730   10.784980   -5.788000
  C     -0.159860   11.370140   -6.482640
  C      1.036810   11.312760   -5.819400
  C      0.954010   10.694000   -4.558590
  S     -0.682320   10.171420   -4.241940
  C      1.946130   10.443140   -3.622250
  C      3.342450   10.599550   -3.721520
  C      4.024660   10.119870   -2.641190
  C      3.199590    9.570770   -1.628230
  S      1.514820    9.747880   -2.073480
  C      3.608920    8.922020   -0.491060
  C      2.780290    8.356250    0.491210
  S      1.031210    8.524740    0.558180
  C      0.870810    7.585070    1.989870
  C      2.100230    7.149750    2.426520
  C      3.161730    7.582010    1.577300
  O      4.348180    7.126100    2.020290
  C      4.062190    6.414680    3.145330
  N      5.149840    5.811160    3.832900
  O      4.878500    5.227660    4.861140
  O      6.254110    5.935280    3.355010
  C      2.730340    6.387700    3.451960
  H      0.085580    7.156730   -3.530940
  H      3.199050    5.007770   -0.242590
  H      2.415490    7.750660   -4.961280
  H     -2.204740    4.457220    1.695590
  H     -3.259610    5.950790   -0.622290
  H     -7.941960    5.563330    0.543180
  H     -4.761600    6.826810   -1.412380
  H     -7.801890    6.587260   -1.580170
  H     -9.425310    7.202280   -3.111270
  H     -7.546490    9.959140   -6.808030
  H     -5.248890   10.259240   -6.594790
  H     -3.135510    9.552410   -4.487050
  H     -2.846380   11.085690   -7.135470
  H     -0.290550   11.811110   -7.455170
  H      1.961520   11.706170   -6.201870
  H      3.810480   11.024290   -4.591300
  H      5.096030   10.129110   -2.546060
  H      4.671950    8.805770   -0.326070
  H     -0.095170    7.431110    2.424280
  H      2.284330    5.887640    4.286590

 Total Charge           Charge          ....    0
 Multiplicity           Mult            ....    1
 Number of Electrons    NEL             ....  534
 Basis Dimension        Dim             .... 1080

ORBITAL ENERGIES
----------------

  NO   OCC          E(Eh)            E(eV)
   0   2.0000    -482.892879    -13140.1833
   1   2.0000     -88.994904     -2421.6745
   2   2.0000     -88.985021     -2421.4055
   3   2.0000     -88.981367     -2421.3061
   4   2.0000     -88.973589     -2421.0944
   5   2.0000     -88.961038     -2420.7529
   6   2.0000     -88.960569     -2420.7402
   7   2.0000     -62.570447     -1702.6284
   8   2.0000     -56.404386     -1534.8414
   9   2.0000     -56.401721     -1534.7689
  10   2.0000     -56.401646     -1534.7668
  11   2.0000     -24.793216      -674.6577
  12   2.0000     -24.793060      -674.6535
  13   2.0000     -19.314442      -525.5727
  14   2.0000     -19.244784      -523.6772
  15   2.0000     -19.243923      -523.6538
  16   2.0000     -19.240533      -523.5615
  17   2.0000     -19.239060      -523.5214
  18   2.0000     -19.238823      -523.5150
  19   2.0000     -14.656062      -398.8117
  20   2.0000     -14.652730      -398.7211
  21   2.0000     -14.500401      -394.5760
  22   2.0000     -14.424540      -392.5117
  23   2.0000     -14.419527      -392.3753
  24   2.0000     -10.387286      -282.6524
  25   2.0000     -10.384077      -282.5651
  26   2.0000     -10.375910      -282.3429
  27   2.0000     -10.375826      -282.3406
  28   2.0000     -10.374985      -282.3177
  29   2.0000     -10.374898      -282.3153
  30   2.0000     -10.363070      -281.9935
  31   2.0000     -10.354426      -281.7583
  32   2.0000     -10.353953      -281.7454
  33   2.0000     -10.351134      -281.6687
  34   2.0000     -10.343420      -281.4588
  35   2.0000     -10.329759      -281.0870
  36   2.0000     -10.327249      -281.0187
  37   2.0000     -10.326263      -280.9919
  38   2.0000     -10.325024      -280.9582
  39   2.0000     -10.323862      -280.9266
  40   2.0000     -10.323492      -280.9165
  41   2.0000     -10.320347      -280.8309
  42   2.0000     -10.320201      -280.8269
  43   2.0000     -10.319783      -280.8156
  44   2.0000     -10.319616      -280.8110
  45   2.0000     -10.318217      -280.7730
  46   2.0000     -10.317791      -280.7614
  47   2.0000     -10.313770      -280.6520
  48   2.0000     -10.313210      -280.6367
  49   2.0000     -10.311200      -280.5820
  50   2.0000     -10.310692      -280.5682
  51   2.0000     -10.310347      -280.5588
  52   2.0000     -10.306021      -280.4411
  53   2.0000     -10.305321      -280.4220
  54   2.0000     -10.303828      -280.3814
  55   2.0000     -10.303786      -280.3803
  56   2.0000     -10.303690      -280.3777
  57   2.0000     -10.303254      -280.3658
  58   2.0000     -10.302747      -280.3520
  59   2.0000     -10.301416      -280.3158
  60   2.0000     -10.300399      -280.2881
  61   2.0000     -10.299239      -280.2566
  62   2.0000     -10.298671      -280.2411
  63   2.0000     -10.298446      -280.2350
  64   2.0000     -10.298436      -280.2347
  65   2.0000     -10.298031      -280.2237
  66   2.0000     -10.297936      -280.2211
  67   2.0000     -10.297454      -280.2080
  68   2.0000     -10.296654      -280.1862
  69   2.0000     -10.294478      -280.1270
  70   2.0000     -10.291457      -280.0448
  71   2.0000      -8.799830      -239.4556
  72   2.0000      -8.090127      -220.1435
  73   2.0000      -8.078527      -219.8279
  74   2.0000      -8.076885      -219.7832
  75   2.0000      -8.068392      -219.5521
  76   2.0000      -8.056497      -219.2284
  77   2.0000      -8.056321      -219.2236
  78   2.0000      -6.636016      -180.5752
  79   2.0000      -6.621635      -180.1839
  80   2.0000      -6.621425      -180.1781
  81   2.0000      -6.059760      -164.8945
  82   2.0000      -6.055453      -164.7773
  83   2.0000      -6.051564      -164.6714
  84   2.0000      -6.047966      -164.5735
  85   2.0000      -6.046570      -164.5355
  86   2.0000      -6.043559      -164.4536
  87   2.0000      -6.042334      -164.4203
  88   2.0000      -6.040912      -164.3816
  89   2.0000      -6.038161      -164.3067
  90   2.0000      -6.037399      -164.2860
  91   2.0000      -6.033468      -164.1790
  92   2.0000      -6.030983      -164.1114
  93   2.0000      -6.026144      -163.9797
  94   2.0000      -6.026101      -163.9785
  95   2.0000      -6.022146      -163.8709
  96   2.0000      -6.021982      -163.8665
  97   2.0000      -6.017638      -163.7482
  98   2.0000      -6.017319      -163.7396
  99   2.0000      -2.751888       -74.8827
 100   2.0000      -2.747892       -74.7739
 101   2.0000      -2.747738       -74.7697
 102   2.0000      -2.736305       -74.4586
 103   2.0000      -2.736282       -74.4580
 104   2.0000      -1.326462       -36.0949
 105   2.0000      -1.325338       -36.0643
 106   2.0000      -1.315607       -35.7995
 107   2.0000      -1.300666       -35.3929
 108   2.0000      -1.234248       -33.5856
 109   2.0000      -1.154304       -31.4102
 110   2.0000      -1.145800       -31.1788
 111   2.0000      -1.142358       -31.0851
 112   2.0000      -1.108363       -30.1601
 113   2.0000      -1.029817       -28.0227
 114   2.0000      -1.020201       -27.7611
 115   2.0000      -1.015938       -27.6451
 116   2.0000      -1.012834       -27.5606
 117   2.0000      -1.011382       -27.5211
 118   2.0000      -1.003605       -27.3095
 119   2.0000      -1.001721       -27.2582
 120   2.0000      -0.996157       -27.1068
 121   2.0000      -0.985643       -26.8207
 122   2.0000      -0.954617       -25.9764
 123   2.0000      -0.948555       -25.8115
 124   2.0000      -0.937416       -25.5084
 125   2.0000      -0.935687       -25.4613
 126   2.0000      -0.922159       -25.0932
 127   2.0000      -0.915730       -24.9183
 128   2.0000      -0.911327       -24.7985
 129   2.0000      -0.902805       -24.5666
 130   2.0000      -0.893917       -24.3247
 131   2.0000      -0.890917       -24.2431
 132   2.0000      -0.885115       -24.0852
 133   2.0000      -0.881993       -24.0002
 134   2.0000      -0.866318       -23.5737
 135   2.0000      -0.858709       -23.3667
 136   2.0000      -0.856755       -23.3135
 137   2.0000      -0.855670       -23.2840
 138   2.0000      -0.841999       -22.9119
 139   2.0000      -0.838434       -22.8150
 140   2.0000      -0.834850       -22.7174
 141   2.0000      -0.828722       -22.5507
 142   2.0000      -0.809183       -22.0190
 143   2.0000      -0.801360       -21.8061
 144   2.0000      -0.789663       -21.4878
 145   2.0000      -0.780926       -21.2501
 146   2.0000      -0.768751       -20.9188
 147   2.0000      -0.762931       -20.7604
 148   2.0000      -0.749032       -20.3822
 149   2.0000      -0.744338       -20.2545
 150   2.0000      -0.738093       -20.0845
 151   2.0000      -0.725341       -19.7375
 152   2.0000      -0.713587       -19.4177
 153   2.0000      -0.711744       -19.3675
 154   2.0000      -0.702377       -19.1126
 155   2.0000      -0.696841       -18.9620
 156   2.0000      -0.689627       -18.7657
 157   2.0000      -0.683585       -18.6013
 158   2.0000      -0.681090       -18.5334
 159   2.0000      -0.667594       -18.1662
 160   2.0000      -0.666273       -18.1302
 161   2.0000      -0.661946       -18.0125
 162   2.0000      -0.655027       -17.8242
 163   2.0000      -0.651672       -17.7329
 164   2.0000      -0.644033       -17.5250
 165   2.0000      -0.640466       -17.4280
 166   2.0000      -0.638850       -17.3840
 167   2.0000      -0.638125       -17.3643
 168   2.0000      -0.637553       -17.3487
 169   2.0000      -0.633011       -17.2251
 170   2.0000      -0.632274       -17.2050
 171   2.0000      -0.627967       -17.0879
 172   2.0000      -0.625211       -17.0129
 173   2.0000      -0.618712       -16.8360
 174   2.0000      -0.612877       -16.6772
 175   2.0000      -0.609288       -16.5796
 176   2.0000      -0.605721       -16.4825
 177   2.0000      -0.604311       -16.4441
 178   2.0000      -0.599854       -16.3229
 179   2.0000      -0.595614       -16.2075
 180   2.0000      -0.586848       -15.9689
 181   2.0000      -0.583674       -15.8826
 182   2.0000      -0.582624       -15.8540
 183   2.0000      -0.580594       -15.7988
 184   2.0000      -0.576005       -15.6739
 185   2.0000      -0.571691       -15.5565
 186   2.0000      -0.565434       -15.3863
 187   2.0000      -0.563801       -15.3418
 188   2.0000      -0.560843       -15.2613
 189   2.0000      -0.556270       -15.1369
 190   2.0000      -0.554123       -15.0784
 191   2.0000      -0.552759       -15.0413
 192   2.0000      -0.547382       -14.8950
 193   2.0000      -0.543830       -14.7984
 194   2.0000      -0.543656       -14.7936
 195   2.0000      -0.542438       -14.7605
 196   2.0000      -0.542356       -14.7583
 197   2.0000      -0.535543       -14.5729
 198   2.0000      -0.530145       -14.4260
 199   2.0000      -0.527478       -14.3534
 200   2.0000      -0.525003       -14.2861
 201   2.0000      -0.523474       -14.2445
 202   2.0000      -0.512968       -13.9586
 203   2.0000      -0.512178       -13.9371
 204   2.0000      -0.510688       -13.8965
 205   2.0000      -0.506744       -13.7892
 206   2.0000      -0.505932       -13.7671
 207   2.0000      -0.503792       -13.7089
 208   2.0000      -0.502216       -13.6660
 209   2.0000      -0.500552       -13.6207
 210   2.0000      -0.500135       -13.6094
 211   2.0000      -0.492452       -13.4003
 212   2.0000      -0.492302       -13.3962
 213   2.0000      -0.483034       -13.1440
 214   2.0000      -0.482734       -13.1358
 215   2.0000      -0.480890       -13.0857
 216   2.0000      -0.479147       -13.0383
 217   2.0000      -0.477554       -12.9949
 218   2.0000      -0.476634       -12.9699
 219   2.0000      -0.470692       -12.8082
 220   2.0000      -0.464566       -12.6415
 221   2.0000      -0.462015       -12.5721
 222   2.0000      -0.459962       -12.5162
 223   2.0000      -0.458129       -12.4663
 224   2.0000      -0.456570       -12.4239
 225   2.0000      -0.455735       -12.4012
 226   2.0000      -0.451105       -12.2752
 227   2.0000      -0.449855       -12.2412
 228   2.0000      -0.445025       -12.1097
 229   2.0000      -0.444592       -12.0980
 230   2.0000      -0.443154       -12.0588
 231   2.0000      -0.439590       -11.9618
 232   2.0000      -0.437560       -11.9066
 233   2.0000      -0.433308       -11.7909
 234   2.0000      -0.430639       -11.7183
 235   2.0000      -0.429695       -11.6926
 236   2.0000      -0.423716       -11.5299
 237   2.0000      -0.418536       -11.3889
 238   2.0000      -0.417293       -11.3551
 239   2.0000      -0.415275       -11.3002
 240   2.0000      -0.403417       -10.9775
 241   2.0000      -0.400669       -10.9028
 242   2.0000      -0.392433       -10.6786
 243   2.0000      -0.391297       -10.6477
 244   2.0000      -0.387062       -10.5325
 245   2.0000      -0.386187       -10.5087
 246   2.0000      -0.382419       -10.4062
 247   2.0000      -0.381353       -10.3771
 248   2.0000      -0.378163       -10.2904
 249   2.0000      -0.376480       -10.2445
 250   2.0000      -0.373294       -10.1579
 251   2.0000      -0.369031       -10.0418
 252   2.0000      -0.366471        -9.9722
 253   2.0000      -0.361414        -9.8346
 254   2.0000      -0.350454        -9.5363
 255   2.0000      -0.347800        -9.4641
 256   2.0000      -0.341770        -9.3000
 257   2.0000      -0.339343        -9.2340
 258   2.0000      -0.333608        -9.0779
 259   2.0000      -0.324588        -8.8325
 260   2.0000      -0.321895        -8.7592
 261   2.0000      -0.313986        -8.5440
 262   2.0000      -0.301823        -8.2130
 263   2.0000      -0.297567        -8.0972
 264   2.0000      -0.282381        -7.6840
 265   2.0000      -0.250640        -6.8203
 266   2.0000      -0.210598        -5.7307
 267   0.0000      -0.107525        -2.9259
 268   0.0000      -0.095197        -2.5905
 269   0.0000      -0.075302        -2.0491
 270   0.0000      -0.066638        -1.8133
 271   0.0000      -0.055044        -1.4978

MULLIKEN ATOMIC CHARGES
-----------------------
   0 C :    0.356907
   1 C :   -0.359855
   2 C :   -0.181367
   3 N :    0.147457
   4 C :   -0.210476
   5 N :    0.149369
   6 C :   -0.015621
   7 C :    0.016435
   8 C :   -0.058867
   9 C :    0.126780
  10 C :   -0.105887
  11 C :    0.002401
  12 S :    0.185910
  13 C :   -0.124696
  14 C :    0.048031
  15 Br:    0.017646
  16 C :    0.164390
  17 O :   -0.227111
  18 C :   -0.151457
  19 C :    0.022506
  20 N :   -0.007649
  21 C :   -0.125885
  22 S :    0.181545
  23 C :    0.003557
  24 N :    0.273954
  25 O :   -0.244404
  26 O :   -0.253678
  27 C :   -0.000122
  28 C :    0.154785
  29 C :   -0.079885
  30 C :    0.017357
  31 C :   -0.098820
  32 S :    0.111013
  33 C :   -0.073056
  34 C :    0.132856
  35 C :    0.134496
  36 C :   -0.119013
  37 C :    0.230521
  38 F :   -0.176256
  39 C :    0.226389
  40 F :   -0.177831
  41 C :   -0.116485
  42 C :   -0.003238
  43 C :   -0.016836
  44 C :    0.011020
  45 C :   -0.033795
  46 C :    0.037040
  47 C :    0.025919
  48 C :   -0.044282
  49 S :    0.065410
  50 C :   -0.043579
  51 C :    0.014351
  52 C :    0.070685
  53 C :   -0.069984
  54 S :    0.054308
  55 C :    0.030884
  56 C :   -0.204386
  57 S :    0.124669
  58 C :   -0.134634
  59 C :    0.118076
  60 C :    0.201088
  61 O :   -0.180395
  62 C :    0.246536
  63 N :    0.275606
  64 O :   -0.238874
  65 O :   -0.230019
  66 C :   -0.065150
  67 H :   -0.021884
  68 H :   -0.007397
  69 H :   -0.003616
  70 H :    0.042350
  71 H :    0.190605
  72 H :    0.012141
  73 H :    0.008452
  74 H :   -0.015174
  75 H :   -0.012115
  76 H :   -0.012041
  77 H :   -0.013093
  78 H :    0.021420
  79 H :   -0.014077
  80 H :   -0.009828
  81 H :   -0.010209
  82 H :   -0.014103
  83 H :   -0.006417
  84 H :    0.008255
  85 H :    0.031132
  86 H :    0.019296
Sum of atomic charges:   -0.0000000

LOEWDIN ATOMIC CHARGES
----------------------
   0 C :    0.082181
   1 C :   -0.158347
   2 C :   -0.017005
   3 N :   -0.061530
   4 C :   -0.024680
   5 N :   -0.059082
   6 C :   -0.024810
   7 C :   -0.058244
   8 C :    0.022194
   9 C :   -0.036918
  10 C :   -0.142716
  11 C :   -0.008587
  12 S :    0.441110
  13 C :   -0.272956
  14 C :   -0.064999
  15 Br:    0.136557
  16 C :    0.096331
  17 O :   -0.177060
  18 C :   -0.146902
  19 C :    0.103683
  20 N :    0.082006
  21 C :   -0.120523
  22 S :    0.467781
  23 C :   -0.196765
  24 N :    0.272677
  25 O :   -0.211121
  26 O :   -0.219932
  27 C :    0.002070
  28 C :   -0.081440
  29 C :   -0.045488
  30 C :   -0.029934
  31 C :   -0.173656
  32 S :    0.482695
  33 C :   -0.162896
  34 C :   -0.044370
  35 C :   -0.040885
  36 C :   -0.040360
  37 C :    0.063282
  38 F :   -0.054062
  39 C :    0.060269
  40 F :   -0.055479
  41 C :   -0.036560
  42 C :   -0.040010
  43 C :   -0.039071
  44 C :   -0.050001
  45 C :   -0.147207
  46 C :   -0.033220
  47 C :   -0.034787
  48 C :   -0.181844
  49 S :    0.382786
  50 C :   -0.180656
  51 C :   -0.039608
  52 C :   -0.026933
  53 C :   -0.159218
  54 S :    0.387885
  55 C :   -0.063505
  56 C :   -0.204534
  57 S :    0.477963
  58 C :   -0.188994
  59 C :   -0.085030
  60 C :    0.021059
  61 O :    0.006822
  62 C :    0.036820
  63 N :    0.274151
  64 O :   -0.199019
  65 O :   -0.190039
  66 C :   -0.011079
  67 H :    0.032292
  68 H :    0.039452
  69 H :    0.038707
  70 H :    0.036446
  71 H :    0.081685
  72 H :    0.045047
  73 H :    0.019990
  74 H :    0.031936
  75 H :    0.039668
  76 H :    0.040039
  77 H :    0.033221
  78 H :    0.012545
  79 H :    0.034188
  80 H :    0.035019
  81 H :    0.033629
  82 H :    0.032011
  83 H :    0.034318
  84 H :    0.045026
  85 H :    0.027235
  86 H :    0.049287

  Mayer bond orders larger than 0.100000
B(  0-C ,  1-C ) :   1.6158 B(  0-C ,  6-C ) :   1.0000 B(  0-C , 18-C ) :   1.0956
B(  1-C ,  2-C ) :   1.1522 B(  1-C ,  4-C ) :   1.1534 B(  2-C ,  3-N ) :   2.9229
B(  4-C ,  5-N ) :   2.9559 B(  6-C ,  7-C ) :   1.2627 B(  6-C , 11-C ) :   1.4369
B(  7-C ,  8-C ) :   1.4196 B(  7-C , 16-C ) :   0.9921 B(  8-C ,  9-C ) :   1.2131
B(  8-C , 67-H ) :   1.0201 B(  9-C , 10-C ) :   1.3228 B(  9-C , 14-C ) :   1.1756
B( 10-C , 11-C ) :   1.3000 B( 10-C , 12-S ) :   1.0869 B( 11-C , 68-H ) :   0.9784
B( 12-S , 13-C ) :   1.0868 B( 13-C , 14-C ) :   1.6074 B( 13-C , 15-Br) :   1.0170
B( 14-C , 69-H ) :   0.9925 B( 16-C , 17-O ) :   2.0041 B( 16-C , 18-C ) :   1.0101
B( 17-O , 71-H ) :   0.1540 B( 18-C , 19-C ) :   1.4371 B( 19-C , 20-N ) :   1.3421
B( 19-C , 70-H ) :   0.9365 B( 20-N , 21-C ) :   1.2086 B( 20-N , 71-H ) :   0.8096
B( 21-C , 22-S ) :   1.1251 B( 21-C , 28-C ) :   1.3460 B( 22-S , 23-C ) :   1.0818
B( 23-C , 24-N ) :   0.9593 B( 23-C , 27-C ) :   1.5135 B( 24-N , 25-O ) :   1.5377
B( 24-N , 26-O ) :   1.5192 B( 25-O , 26-O ) :   0.2637 B( 27-C , 28-C ) :   1.2061
B( 27-C , 72-H ) :   1.0010 B( 28-C , 29-C ) :   1.1091 B( 29-C , 30-C ) :   1.6349
B( 29-C , 73-H ) :   0.9617 B( 30-C , 31-C ) :   1.2149 B( 30-C , 74-H ) :   0.9697
B( 31-C , 32-S ) :   1.1324 B( 31-C , 35-C ) :   1.2964 B( 32-S , 33-C ) :   1.1270
B( 33-C , 34-C ) :   1.2736 B( 33-C , 42-C ) :   1.2547 B( 34-C , 35-C ) :   1.2244
B( 34-C , 41-C ) :   1.1830 B( 35-C , 36-C ) :   1.1707 B( 36-C , 37-C ) :   1.4953
B( 36-C , 41-C ) :   0.1132 B( 36-C , 75-H ) :   0.9994 B( 37-C , 38-F ) :   1.1297
B( 37-C , 39-C ) :   1.1659 B( 39-C , 40-F ) :   1.1272 B( 39-C , 41-C ) :   1.4862
B( 41-C , 76-H ) :   1.0000 B( 42-C , 43-C ) :   1.5144 B( 42-C , 77-H ) :   0.9772
B( 43-C , 44-C ) :   1.2332 B( 43-C , 78-H ) :   0.9615 B( 44-C , 45-C ) :   1.4827
B( 44-C , 79-H ) :   0.9881 B( 45-C , 46-C ) :   1.1842 B( 45-C , 49-S ) :   1.0430
B( 46-C , 47-C ) :   1.5390 B( 46-C , 80-H ) :   0.9986 B( 47-C , 48-C ) :   1.2223
B( 47-C , 81-H ) :   0.9974 B( 48-C , 49-S ) :   1.0569 B( 48-C , 50-C ) :   1.4558
B( 50-C , 51-C ) :   1.2008 B( 50-C , 54-S ) :   1.0500 B( 51-C , 52-C ) :   1.5663
B( 51-C , 82-H ) :   0.9964 B( 52-C , 53-C ) :   1.1442 B( 52-C , 83-H ) :   1.0023
B( 53-C , 54-S ) :   1.0443 B( 53-C , 55-C ) :   1.5407 B( 55-C , 56-C ) :   1.1830
B( 55-C , 84-H ) :   0.9765 B( 56-C , 57-S ) :   1.1093 B( 56-C , 58-C ) :   0.1049
B( 56-C , 60-C ) :   1.4093 B( 57-S , 58-C ) :   1.1775 B( 58-C , 59-C ) :   1.4065
B( 58-C , 85-H ) :   0.9737 B( 59-C , 60-C ) :   1.2458 B( 59-C , 66-C ) :   1.0473
B( 60-C , 61-O ) :   1.1367 B( 61-O , 62-C ) :   1.1175 B( 62-C , 63-N ) :   0.9073
B( 62-C , 66-C ) :   1.5822 B( 63-N , 64-O ) :   1.5469 B( 63-N , 65-O ) :   1.5153
B( 64-O , 65-O ) :   0.2836 B( 66-C , 86-H ) :   1.0306

-----------------------------------------------------------------------------
         ABSORPTION SPECTRUM VIA TRANSITION ELECTRIC DIPOLE MOMENTS
-----------------------------------------------------------------------------
State   Energy  Wavelength   fosc         T2         TX        TY        TZ
        (cm-1)    (nm)                  (au**2)     (au)      (au)      (au)
-----------------------------------------------------------------------------
   0    9088.4   1100.3   0.360600676  13.06214  -3.36642  -1.05266  -0.78821
   1   11078.2    902.7   0.135418138   4.02424   1.41349  -0.93218   1.07579
   2   14033.0    712.6   0.093780621   2.20008  -1.46195   0.03578  -0.24801
   3   16098.5    621.2   0.071058151   1.45312   0.87862  -0.59055   0.57654
   4   18545.5    539.2   0.717658087  12.73960   1.80350  -1.43085   2.72758
   5   19385.5    515.8   0.459859722   7.80952   2.05036   1.21281  -1.46104
   6   20737.5    482.2   0.565173077   8.97223  -1.37705   1.33442  -2.30115
   7   22044.9    453.6   0.045517745   0.67975   0.65860   0.33953  -0.36155
   8   23339.7    428.5   0.156451242   2.20678   1.42958  -0.08247   0.39533
   9   23553.0    424.6   0.519091837   7.25561   2.47061   0.49272  -0.95337
  10   24679.7    405.2   0.074213326   0.98996  -0.93685   0.12630   0.31034
  11   25645.3    389.9   0.044955050   0.57709   0.59483   0.02561  -0.47183
  12   26217.5    381.4   0.047174724   0.59237   0.04551   0.34048  -0.68875
  13   26654.0    375.2   0.037888409   0.46797  -0.54568  -0.28019   0.30282
  14   27212.8    367.5   0.023702156   0.28674   0.19294  -0.11978   0.48494
  15   27461.1    364.2   0.119715689   1.43519   1.16231   0.25137  -0.14506
  16   27710.3    360.9   0.493064595   5.85785  -1.31192  -0.80965   1.86579
  17   28651.7    349.0   0.283445835   3.25684   1.57625   0.59313  -0.64844
  18   29041.8    344.3   0.057964913   0.65708  -0.22743   0.32996  -0.70461
  19   29301.2    341.3   0.011004811   0.12364  -0.28606  -0.05214   0.19772
  20   29693.3    336.8   0.022834475   0.25317   0.06172   0.27529  -0.41662
  21   29718.3    336.5   0.082559729   0.91457  -0.52621  -0.51634   0.60915
  22   30145.3    331.7   0.135841170   1.48350   0.09588   0.42192  -1.13855
  23   30799.7    324.7   0.013264001   0.14178   0.35123   0.10330   0.08800
  24   30852.4    324.1   0.075790664   0.80873   0.89626   0.01590  -0.07212
  25   31124.3    321.3   0.008202546   0.08676   0.25274  -0.14325  -0.04862
  26   31488.9    317.6   0.008314258   0.08692  -0.25327  -0.08800   0.12263
  27   31879.7    313.7   0.053827060   0.55586   0.65403  -0.12571   0.33511
  28   32083.8    311.7   0.189145180   1.94082   1.05561  -0.31720   0.85199
  29   32965.0    303.4   0.109952913   1.09807   0.42095   0.30506  -0.90984
  30   33543.0    298.1   0.087496087   0.85874  -0.68702   0.17103  -0.59791
  31   33802.4    295.8   0.002358066   0.02297  -0.09130   0.05440  -0.10803
  32   33999.7    294.1   0.034308199   0.33220   0.28058   0.28843  -0.41265
  33   34377.9    290.9   0.194832824   1.86577  -0.58948  -0.75837   0.97116
  34   34487.1    290.0   0.001464377   0.01398  -0.00033  -0.07598   0.09058
  35   34611.7    288.9   0.073502099   0.69912  -0.82647  -0.10883  -0.06498
  36   34833.9    287.1   0.009806714   0.09268  -0.21329   0.13483  -0.17032
  37   34931.8    286.3   0.170979269   1.61138  -0.31770  -0.54347   1.10231
  38   35147.4    284.5   0.029755212   0.27871  -0.16299  -0.30168   0.40141
  39   35458.5    282.0   0.129262344   1.20013  -0.99169   0.40980  -0.22079
  40   35712.6    280.0   0.012533742   0.11554   0.17936   0.01341  -0.28843
  41   35862.1    278.8   0.000782458   0.00718   0.04565  -0.00769   0.07100
  42   36110.7    276.9   0.040634964   0.37046  -0.07240  -0.23593   0.55638
  43   36580.1    273.4   0.088158399   0.79340  -0.85119  -0.19279  -0.17810
  44   36679.3    272.6   0.097267363   0.87301  -0.59305   0.54185  -0.47718
  45   36906.0    271.0   0.027277723   0.24333  -0.30906  -0.23177   0.30674
  46   36996.6    270.3   0.004043147   0.03598   0.00562  -0.17412  -0.07503
  47   37345.8    267.8   0.037368391   0.32941  -0.12452   0.28037  -0.48507
  48   37534.3    266.4   0.152257221   1.33544   0.67132  -0.53966   0.77041
  49   37583.6    266.1   0.019405574   0.16998   0.21828  -0.19862   0.28790
  50   37839.5    264.3   0.349108505   3.03732  -0.36600   0.94588  -1.41728
  51   37883.8    264.0   0.081560326   0.70876   0.83453  -0.07549  -0.08136
  52   37979.6    263.3   0.027586890   0.23913   0.43393   0.14310  -0.17422
  53   38060.9    262.7   0.014067763   0.12168  -0.25906   0.12733  -0.19585
  54   38666.7    258.6   0.009148048   0.07789  -0.04433  -0.11130   0.25206
  55   38896.7    257.1   0.000209181   0.00177  -0.02173  -0.00656   0.03543
  56   39012.3    256.3   0.008219481   0.06936   0.24267  -0.07787   0.06639
  57   39138.7    255.5   0.014481914   0.12181  -0.30582   0.04882  -0.16094
  58   39360.6    254.1   0.032183811   0.26919   0.42026   0.19610  -0.23263
  59   39548.1    252.9   0.092891811   0.77326   0.62138  -0.19567   0.59064
  60   39651.2    252.2   0.000139741   0.00116  -0.00262   0.01161  -0.03191
  61   39991.1    250.1   0.043404898   0.35731  -0.12361  -0.31144   0.49502
  62   40225.6    248.6   0.031696400   0.25941   0.30599  -0.21588   0.34521

FINAL SINGLE POINT ENERGY     -7686.547497170683

DIPOLE MOMENT
-------------
                                X             Y             Z
Electronic contribution:     54.33761      -6.68976     -25.66210
Nuclear contribution   :    -54.14955       9.73466      21.34831
                        -----------------------------------------
Total Dipole Moment    :      0.18806       3.04489      -4.31379
                        -----------------------------------------
Magnitude (a.u.)       :      5.28351
Magnitude (Debye)      :     13.42962

Rotational constants in cm-1:     0.001095     0.000627     0.000429
Rotational constants in MHz :    32.830711    18.786817    12.860343

                             ****ORCA TERMINATED NORMALLY****
TOTAL RUN TIME: 0 days 0 hours 12 minutes 23 seconds 599 msec
