                         Program Version 4.2.0 -  RELEASE  -
|  1> # ORCA input file
|  2> # SCF done       -186.968258371233          0.000530173520
|  3> ! CAM-B3LYP def2-SVP def2/J RIJCOSX Grid4 TightSCF
|  4> %maxcore 5000
|  5> %tddft
|  6>     Mode sTDDFT
|  7>     Ethresh 5.0
|  8>     maxcore 5000
|  9> end
| 10>
| 11> %pal
| 12>   nprocs 6
| 13>   end
| 14> * xyz 0 1
| 15>    C       -6.32273        -0.96786         0.28962
| 16>    C       -6.88466        -1.85549         1.16931
| 17>    C       -6.29897        -3.08312         1.54096
| 18>    N       -5.86911        -4.09293         1.87662
| 19>    C       -8.12197        -1.64984         1.81357
| 20>    N       -9.12514        -1.51832         2.35572
| 21>    C       -5.04626        -1.13721        -0.40013
| 22>    C       -4.81339        -0.00504        -1.22446
| 23>    C       -3.68672         0.12655        -2.00052
| 24>    C       -2.74515        -0.90696        -1.96509
| 25>    C       -2.98656        -2.03298        -1.14187
| 26>    C       -4.12542        -2.16542        -0.35527
| 27>    S       -1.69847        -3.19166        -1.24998
| 28>    C       -0.86275        -2.16401        -2.38379
| 29>    C       -1.51419        -1.01048        -2.66784
| 30>   Br        0.78853        -2.70860        -3.08571
| 31>    C       -5.94192         0.92025        -1.08597
| 32>    O       -6.09294         2.00411        -1.64901
| 33>    C       -6.86849         0.30078        -0.13673
| 34>    C       -8.04582         0.91254         0.22412
| 35>    N       -8.36675         2.09525        -0.30711
| 36>    C       -9.47117         2.84734        -0.06800
| 37>    S      -10.67372         2.37184         1.08837
| 38>    C      -11.55261         3.82014         0.72551
| 39>    N      -12.75434         4.04577         1.41601
| 40>    O      -13.36555         5.06469         1.16207
| 41>    O      -13.08822         3.19622         2.22094
| 42>    C      -10.95805         4.60882        -0.22149
| 43>    C       -9.74961         4.06583        -0.70067
| 44>    C       -8.88807         4.64480        -1.70011
| 45>    C       -9.11003         5.80928        -2.33336
| 46>    C       -8.25442         6.39262        -3.33792
| 47>    C       -6.92250         6.29675        -3.44645
| 48>    C       -6.02287         5.60144        -2.47442
| 49>    C       -6.17078         6.97524        -4.57538
| 50>    N       -6.96071         7.43444        -5.68674
| 51>    C       -7.66168         8.60503        -5.62798
| 52>    C       -8.68728         8.91874        -6.43689
| 53>    N       -9.31927        10.14921        -6.39157
| 54>    C      -10.36341        10.51989        -7.14247
| 55>    S      -11.03843         9.45043        -8.33046
| 56>    C      -12.24747        10.64931        -8.70501
| 57>    N      -13.15586        10.33193        -9.71099
| 58>    O      -13.99957        11.16046       -10.00551
| 59>    O      -13.02771         9.23270       -10.23218
| 60>    C      -12.13799        11.78517        -7.95413
| 61>    C      -11.05662        11.75023        -7.05204
| 62>    C      -10.68957        12.80050        -6.16295
| 63>    C      -11.47481        13.86076        -5.84268
| 64>    C      -11.05411        14.88513        -4.96708
| 65>    C      -11.83856        15.84642        -4.39837
| 66>    C      -13.27557        15.96248        -4.30625
| 67>    C      -14.17156        14.92386        -4.25495
| 68>    C      -15.56163        15.09719        -4.09827
| 69>    N      -16.70001        15.19419        -3.98758
| 70>    C      -13.78988        13.56695        -4.22162
| 71>    N      -13.51371        12.45604        -4.13155
| 72>    C      -13.57947        17.36109        -4.02025
| 73>    C      -12.36817        18.03413        -3.71717
| 74>    C      -11.23775        17.09294        -3.86411
| 75>    O      -10.06504        17.29980        -3.64359
| 76>    C      -12.33249        19.36133        -3.36586
| 77>    C      -13.54489        20.05873        -3.32260
| 78>    C      -14.74580        19.38010        -3.63905
| 79>    C      -14.78464        18.03478        -3.98578
| 80>    S      -16.12289        20.43375        -3.53336
| 81>    C      -15.08222        21.75294        -3.06754
| 82>    C      -13.77059        21.42409        -2.99598
| 83>   Br      -15.82526        23.43997        -2.72203
| 84>    H       -3.53477         0.99860        -2.61706
| 85>    H       -4.26318        -3.04210         0.25509
| 86>    H       -1.14218        -0.26377        -3.34524
| 87>    H       -8.73989         0.47462         0.92948
| 88>    H       -7.65812         2.45233        -0.97359
| 89>    H      -11.39430         5.53581        -0.54430
| 90>    H       -8.02177         4.06523        -1.97665
| 91>    H      -10.01577         6.36452        -2.13104
| 92>    H       -8.78299         7.00909        -4.05503
| 93>    H       -6.44123         5.62858        -1.47103
| 94>    H       -5.04540         6.08041        -2.46186
| 95>    H       -5.87437         4.55802        -2.75261
| 96>    H       -5.42489         6.27238        -4.96175
| 97>    H       -5.62663         7.83502        -4.16679
| 98>    H       -7.37721         6.70659        -6.24968
| 99>    H       -7.29363         9.31838        -4.90219
|100>    H       -9.07208         8.22952        -7.17141
|101>    H       -8.98645        10.80624        -5.69757
|102>    H      -12.80936        12.61431        -8.07824
|103>    H       -9.72408        12.72709        -5.67696
|104>    H      -12.46520        13.93285        -6.26584
|105>    H       -9.99033        14.97852        -4.77479
|106>    H      -11.39905        19.84859        -3.13159
|107>    H      -15.72176        17.55929        -4.22412
|108>    H      -12.99278        22.11443        -2.72510
|109> *
|110>
|111>                          ****END OF INPUT****

CARTESIAN COORDINATES (ANGSTROEM)
---------------------------------
  C     -6.322730   -0.967860    0.289620
  C     -6.884660   -1.855490    1.169310
  C     -6.298970   -3.083120    1.540960
  N     -5.869110   -4.092930    1.876620
  C     -8.121970   -1.649840    1.813570
  N     -9.125140   -1.518320    2.355720
  C     -5.046260   -1.137210   -0.400130
  C     -4.813390   -0.005040   -1.224460
  C     -3.686720    0.126550   -2.000520
  C     -2.745150   -0.906960   -1.965090
  C     -2.986560   -2.032980   -1.141870
  C     -4.125420   -2.165420   -0.355270
  S     -1.698470   -3.191660   -1.249980
  C     -0.862750   -2.164010   -2.383790
  C     -1.514190   -1.010480   -2.667840
  Br     0.788530   -2.708600   -3.085710
  C     -5.941920    0.920250   -1.085970
  O     -6.092940    2.004110   -1.649010
  C     -6.868490    0.300780   -0.136730
  C     -8.045820    0.912540    0.224120
  N     -8.366750    2.095250   -0.307110
  C     -9.471170    2.847340   -0.068000
  S    -10.673720    2.371840    1.088370
  C    -11.552610    3.820140    0.725510
  N    -12.754340    4.045770    1.416010
  O    -13.365550    5.064690    1.162070
  O    -13.088220    3.196220    2.220940
  C    -10.958050    4.608820   -0.221490
  C     -9.749610    4.065830   -0.700670
  C     -8.888070    4.644800   -1.700110
  C     -9.110030    5.809280   -2.333360
  C     -8.254420    6.392620   -3.337920
  C     -6.922500    6.296750   -3.446450
  C     -6.022870    5.601440   -2.474420
  C     -6.170780    6.975240   -4.575380
  N     -6.960710    7.434440   -5.686740
  C     -7.661680    8.605030   -5.627980
  C     -8.687280    8.918740   -6.436890
  N     -9.319270   10.149210   -6.391570
  C    -10.363410   10.519890   -7.142470
  S    -11.038430    9.450430   -8.330460
  C    -12.247470   10.649310   -8.705010
  N    -13.155860   10.331930   -9.710990
  O    -13.999570   11.160460  -10.005510
  O    -13.027710    9.232700  -10.232180
  C    -12.137990   11.785170   -7.954130
  C    -11.056620   11.750230   -7.052040
  C    -10.689570   12.800500   -6.162950
  C    -11.474810   13.860760   -5.842680
  C    -11.054110   14.885130   -4.967080
  C    -11.838560   15.846420   -4.398370
  C    -13.275570   15.962480   -4.306250
  C    -14.171560   14.923860   -4.254950
  C    -15.561630   15.097190   -4.098270
  N    -16.700010   15.194190   -3.987580
  C    -13.789880   13.566950   -4.221620
  N    -13.513710   12.456040   -4.131550
  C    -13.579470   17.361090   -4.020250
  C    -12.368170   18.034130   -3.717170
  C    -11.237750   17.092940   -3.864110
  O    -10.065040   17.299800   -3.643590
  C    -12.332490   19.361330   -3.365860
  C    -13.544890   20.058730   -3.322600
  C    -14.745800   19.380100   -3.639050
  C    -14.784640   18.034780   -3.985780
  S    -16.122890   20.433750   -3.533360
  C    -15.082220   21.752940   -3.067540
  C    -13.770590   21.424090   -2.995980
  Br   -15.825260   23.439970   -2.722030
  H     -3.534770    0.998600   -2.617060
  H     -4.263180   -3.042100    0.255090
  H     -1.142180   -0.263770   -3.345240
  H     -8.739890    0.474620    0.929480
  H     -7.658120    2.452330   -0.973590
  H    -11.394300    5.535810   -0.544300
  H     -8.021770    4.065230   -1.976650
  H    -10.015770    6.364520   -2.131040
  H     -8.782990    7.009090   -4.055030
  H     -6.441230    5.628580   -1.471030
  H     -5.045400    6.080410   -2.461860
  H     -5.874370    4.558020   -2.752610
  H     -5.424890    6.272380   -4.961750
  H     -5.626630    7.835020   -4.166790
  H     -7.377210    6.706590   -6.249680
  H     -7.293630    9.318380   -4.902190
  H     -9.072080    8.229520   -7.171410
  H     -8.986450   10.806240   -5.697570
  H    -12.809360   12.614310   -8.078240
  H     -9.724080   12.727090   -5.676960
  H    -12.465200   13.932850   -6.265840
  H     -9.990330   14.978520   -4.774790
  H    -11.399050   19.848590   -3.131590
  H    -15.721760   17.559290   -4.224120
  H    -12.992780   22.114430   -2.725100

 Total Charge           Charge          ....    0
 Multiplicity           Mult            ....    1
 Number of Electrons    NEL             ....  558
 Basis Dimension        Dim             .... 1143

ORBITAL ENERGIES
----------------

  NO   OCC          E(Eh)            E(eV)
   0   2.0000    -482.895311    -13140.2494
   1   2.0000    -482.883479    -13139.9275
   2   2.0000     -88.995824     -2421.6995
   3   2.0000     -88.987407     -2421.4704
   4   2.0000     -88.981721     -2421.3157
   5   2.0000     -88.973156     -2421.0826
   6   2.0000     -62.572998     -1702.6978
   7   2.0000     -62.561201     -1702.3768
   8   2.0000     -56.406961     -1534.9114
   9   2.0000     -56.404224     -1534.8370
  10   2.0000     -56.404195     -1534.8362
  11   2.0000     -56.395148     -1534.5900
  12   2.0000     -56.392436     -1534.5162
  13   2.0000     -56.392404     -1534.5153
  14   2.0000     -19.245311      -523.6915
  15   2.0000     -19.243910      -523.6534
  16   2.0000     -19.243344      -523.6380
  17   2.0000     -19.228162      -523.2249
  18   2.0000     -19.227519      -523.2074
  19   2.0000     -19.210645      -522.7482
  20   2.0000     -14.655501      -398.7965
  21   2.0000     -14.639956      -398.3735
  22   2.0000     -14.504483      -394.6870
  23   2.0000     -14.489345      -394.2751
  24   2.0000     -14.444637      -393.0586
  25   2.0000     -14.427467      -392.5913
  26   2.0000     -14.423087      -392.4721
  27   2.0000     -14.411874      -392.1670
  28   2.0000     -14.410150      -392.1201
  29   2.0000     -10.391253      -282.7604
  30   2.0000     -10.379210      -282.4327
  31   2.0000     -10.377030      -282.3733
  32   2.0000     -10.376343      -282.3546
  33   2.0000     -10.369901      -282.1794
  34   2.0000     -10.361855      -281.9604
  35   2.0000     -10.356306      -281.8094
  36   2.0000     -10.355268      -281.7812
  37   2.0000     -10.353581      -281.7353
  38   2.0000     -10.351295      -281.6731
  39   2.0000     -10.339371      -281.3486
  40   2.0000     -10.337850      -281.3072
  41   2.0000     -10.337616      -281.3008
  42   2.0000     -10.335098      -281.2323
  43   2.0000     -10.332584      -281.1639
  44   2.0000     -10.329660      -281.0843
  45   2.0000     -10.329466      -281.0791
  46   2.0000     -10.326094      -280.9873
  47   2.0000     -10.323073      -280.9051
  48   2.0000     -10.321442      -280.8607
  49   2.0000     -10.319860      -280.8177
  50   2.0000     -10.319580      -280.8100
  51   2.0000     -10.317920      -280.7649
  52   2.0000     -10.316999      -280.7398
  53   2.0000     -10.316693      -280.7315
  54   2.0000     -10.314534      -280.6727
  55   2.0000     -10.314077      -280.6603
  56   2.0000     -10.313520      -280.6451
  57   2.0000     -10.313034      -280.6319
  58   2.0000     -10.312300      -280.6119
  59   2.0000     -10.308700      -280.5140
  60   2.0000     -10.308467      -280.5077
  61   2.0000     -10.308398      -280.5058
  62   2.0000     -10.308065      -280.4967
  63   2.0000     -10.305546      -280.4282
  64   2.0000     -10.304680      -280.4046
  65   2.0000     -10.302744      -280.3519
  66   2.0000     -10.298589      -280.2389
  67   2.0000     -10.297968      -280.2220
  68   2.0000     -10.297416      -280.2069
  69   2.0000     -10.297028      -280.1964
  70   2.0000     -10.294676      -280.1324
  71   2.0000     -10.294345      -280.1234
  72   2.0000     -10.289749      -279.9983
  73   2.0000     -10.289403      -279.9889
  74   2.0000     -10.288898      -279.9752
  75   2.0000     -10.280946      -279.7588
  76   2.0000     -10.279741      -279.7260
  77   2.0000      -8.802421      -239.5260
  78   2.0000      -8.790636      -239.2054
  79   2.0000      -8.091069      -220.1692
  80   2.0000      -8.083278      -219.9572
  81   2.0000      -8.077286      -219.7941
  82   2.0000      -8.069134      -219.5723
  83   2.0000      -6.638749      -180.6495
  84   2.0000      -6.626923      -180.3277
  85   2.0000      -6.624143      -180.2521
  86   2.0000      -6.623930      -180.2463
  87   2.0000      -6.612378      -179.9320
  88   2.0000      -6.612184      -179.9267
  89   2.0000      -6.060694      -164.9199
  90   2.0000      -6.056350      -164.8017
  91   2.0000      -6.052937      -164.7088
  92   2.0000      -6.052554      -164.6984
  93   2.0000      -6.048661      -164.5924
  94   2.0000      -6.047136      -164.5509
  95   2.0000      -6.044590      -164.4817
  96   2.0000      -6.042656      -164.4290
  97   2.0000      -6.038850      -164.3255
  98   2.0000      -6.038396      -164.3131
  99   2.0000      -6.034537      -164.2081
 100   2.0000      -6.030348      -164.0941
 101   2.0000      -2.754644       -74.9577
 102   2.0000      -2.750502       -74.8450
 103   2.0000      -2.750345       -74.8407
 104   2.0000      -2.742804       -74.6355
 105   2.0000      -2.738735       -74.5248
 106   2.0000      -2.738722       -74.5244
 107   2.0000      -2.738692       -74.5236
 108   2.0000      -2.738581       -74.5206
 109   2.0000      -2.727001       -74.2055
 110   2.0000      -2.726995       -74.2053
 111   2.0000      -1.325932       -36.0804
 112   2.0000      -1.307973       -35.5918
 113   2.0000      -1.158625       -31.5278
 114   2.0000      -1.145363       -31.1669
 115   2.0000      -1.127129       -30.6707
 116   2.0000      -1.125132       -30.6164
 117   2.0000      -1.111994       -30.2589
 118   2.0000      -1.094911       -29.7940
 119   2.0000      -1.048961       -28.5437
 120   2.0000      -1.035369       -28.1738
 121   2.0000      -1.024416       -27.8758
 122   2.0000      -1.019893       -27.7527
 123   2.0000      -1.017016       -27.6744
 124   2.0000      -1.009670       -27.4745
 125   2.0000      -1.004870       -27.3439
 126   2.0000      -1.001377       -27.2489
 127   2.0000      -1.000228       -27.2176
 128   2.0000      -0.989961       -26.9382
 129   2.0000      -0.985962       -26.8294
 130   2.0000      -0.953926       -25.9577
 131   2.0000      -0.942840       -25.6560
 132   2.0000      -0.938989       -25.5512
 133   2.0000      -0.928488       -25.2654
 134   2.0000      -0.921648       -25.0793
 135   2.0000      -0.920270       -25.0418
 136   2.0000      -0.905803       -24.6481
 137   2.0000      -0.905338       -24.6355
 138   2.0000      -0.898851       -24.4590
 139   2.0000      -0.898490       -24.4492
 140   2.0000      -0.888535       -24.1783
 141   2.0000      -0.883188       -24.0328
 142   2.0000      -0.882342       -24.0097
 143   2.0000      -0.865355       -23.5475
 144   2.0000      -0.861116       -23.4322
 145   2.0000      -0.859924       -23.3997
 146   2.0000      -0.847662       -23.0661
 147   2.0000      -0.842088       -22.9144
 148   2.0000      -0.827915       -22.5287
 149   2.0000      -0.823391       -22.4056
 150   2.0000      -0.809271       -22.0214
 151   2.0000      -0.796342       -21.6696
 152   2.0000      -0.794978       -21.6324
 153   2.0000      -0.775649       -21.1065
 154   2.0000      -0.774744       -21.0819
 155   2.0000      -0.760449       -20.6929
 156   2.0000      -0.757397       -20.6098
 157   2.0000      -0.747489       -20.3402
 158   2.0000      -0.741107       -20.1665
 159   2.0000      -0.730676       -19.8827
 160   2.0000      -0.723021       -19.6744
 161   2.0000      -0.717595       -19.5268
 162   2.0000      -0.702761       -19.1231
 163   2.0000      -0.701467       -19.0879
 164   2.0000      -0.699374       -19.0309
 165   2.0000      -0.689246       -18.7553
 166   2.0000      -0.680915       -18.5286
 167   2.0000      -0.677560       -18.4374
 168   2.0000      -0.669292       -18.2124
 169   2.0000      -0.661971       -18.0132
 170   2.0000      -0.660620       -17.9764
 171   2.0000      -0.656595       -17.8668
 172   2.0000      -0.644855       -17.5474
 173   2.0000      -0.642999       -17.4969
 174   2.0000      -0.640260       -17.4223
 175   2.0000      -0.637032       -17.3345
 176   2.0000      -0.634448       -17.2642
 177   2.0000      -0.630794       -17.1648
 178   2.0000      -0.625173       -17.0118
 179   2.0000      -0.621363       -16.9081
 180   2.0000      -0.620286       -16.8788
 181   2.0000      -0.615713       -16.7544
 182   2.0000      -0.609845       -16.5947
 183   2.0000      -0.604440       -16.4477
 184   2.0000      -0.600150       -16.3309
 185   2.0000      -0.595450       -16.2030
 186   2.0000      -0.594476       -16.1765
 187   2.0000      -0.589599       -16.0438
 188   2.0000      -0.586853       -15.9691
 189   2.0000      -0.582218       -15.8429
 190   2.0000      -0.576101       -15.6765
 191   2.0000      -0.572386       -15.5754
 192   2.0000      -0.571479       -15.5507
 193   2.0000      -0.568152       -15.4602
 194   2.0000      -0.562524       -15.3071
 195   2.0000      -0.562072       -15.2948
 196   2.0000      -0.559337       -15.2203
 197   2.0000      -0.551645       -15.0110
 198   2.0000      -0.550033       -14.9672
 199   2.0000      -0.544604       -14.8194
 200   2.0000      -0.543211       -14.7815
 201   2.0000      -0.541390       -14.7320
 202   2.0000      -0.538276       -14.6472
 203   2.0000      -0.535328       -14.5670
 204   2.0000      -0.534242       -14.5375
 205   2.0000      -0.533677       -14.5221
 206   2.0000      -0.532113       -14.4795
 207   2.0000      -0.530195       -14.4274
 208   2.0000      -0.521783       -14.1984
 209   2.0000      -0.520180       -14.1548
 210   2.0000      -0.512999       -13.9594
 211   2.0000      -0.510251       -13.8846
 212   2.0000      -0.509113       -13.8537
 213   2.0000      -0.508696       -13.8423
 214   2.0000      -0.505983       -13.7685
 215   2.0000      -0.505085       -13.7441
 216   2.0000      -0.501264       -13.6401
 217   2.0000      -0.496666       -13.5150
 218   2.0000      -0.492406       -13.3990
 219   2.0000      -0.491212       -13.3665
 220   2.0000      -0.490672       -13.3519
 221   2.0000      -0.488305       -13.2875
 222   2.0000      -0.485632       -13.2147
 223   2.0000      -0.482735       -13.1359
 224   2.0000      -0.477479       -12.9929
 225   2.0000      -0.475121       -12.9287
 226   2.0000      -0.471256       -12.8235
 227   2.0000      -0.470167       -12.7939
 228   2.0000      -0.464520       -12.6402
 229   2.0000      -0.461076       -12.5465
 230   2.0000      -0.459082       -12.4923
 231   2.0000      -0.458602       -12.4792
 232   2.0000      -0.454962       -12.3801
 233   2.0000      -0.453336       -12.3359
 234   2.0000      -0.452934       -12.3250
 235   2.0000      -0.450728       -12.2649
 236   2.0000      -0.446861       -12.1597
 237   2.0000      -0.444938       -12.1074
 238   2.0000      -0.443729       -12.0745
 239   2.0000      -0.443387       -12.0652
 240   2.0000      -0.440130       -11.9765
 241   2.0000      -0.438919       -11.9436
 242   2.0000      -0.437285       -11.8991
 243   2.0000      -0.437211       -11.8971
 244   2.0000      -0.432990       -11.7823
 245   2.0000      -0.423527       -11.5248
 246   2.0000      -0.422272       -11.4906
 247   2.0000      -0.420112       -11.4318
 248   2.0000      -0.416936       -11.3454
 249   2.0000      -0.416528       -11.3343
 250   2.0000      -0.411462       -11.1964
 251   2.0000      -0.405975       -11.0471
 252   2.0000      -0.400566       -10.9000
 253   2.0000      -0.396585       -10.7916
 254   2.0000      -0.390470       -10.6252
 255   2.0000      -0.384896       -10.4736
 256   2.0000      -0.384577       -10.4649
 257   2.0000      -0.383468       -10.4347
 258   2.0000      -0.382312       -10.4032
 259   2.0000      -0.376839       -10.2543
 260   2.0000      -0.373144       -10.1538
 261   2.0000      -0.372950       -10.1485
 262   2.0000      -0.371673       -10.1137
 263   2.0000      -0.367633       -10.0038
 264   2.0000      -0.365918        -9.9571
 265   2.0000      -0.361661        -9.8413
 266   2.0000      -0.357205        -9.7200
 267   2.0000      -0.349161        -9.5011
 268   2.0000      -0.346728        -9.4350
 269   2.0000      -0.332832        -9.0568
 270   2.0000      -0.330077        -8.9819
 271   2.0000      -0.325960        -8.8698
 272   2.0000      -0.313717        -8.5367
 273   2.0000      -0.312667        -8.5081
 274   2.0000      -0.304784        -8.2936
 275   2.0000      -0.293761        -7.9936
 276   2.0000      -0.290186        -7.8964
 277   2.0000      -0.274073        -7.4579
 278   2.0000      -0.244069        -6.6415
 279   0.0000      -0.096091        -2.6148
 280   0.0000      -0.088283        -2.4023
 281   0.0000      -0.079497        -2.1632
 282   0.0000      -0.056599        -1.5401
 283   0.0000      -0.048969        -1.3325

MULLIKEN ATOMIC CHARGES
-----------------------
   0 C :    0.326505
   1 C :   -0.343287
   2 C :   -0.184965
   3 N :    0.156501
   4 C :   -0.198113
   5 N :    0.148101
   6 C :    0.009374
   7 C :   -0.003190
   8 C :   -0.068424
   9 C :    0.115162
  10 C :   -0.093900
  11 C :   -0.016241
  12 S :    0.195782
  13 C :   -0.123676
  14 C :    0.038812
  15 Br:    0.030253
  16 C :    0.172313
  17 O :   -0.232551
  18 C :   -0.130292
  19 C :    0.027485
  20 N :   -0.008744
  21 C :   -0.124325
  22 S :    0.180554
  23 C :    0.003756
  24 N :    0.274298
  25 O :   -0.241875
  26 O :   -0.253356
  27 C :    0.007283
  28 C :    0.131943
  29 C :   -0.044032
  30 C :    0.016415
  31 C :   -0.008262
  32 C :   -0.204503
  33 C :    0.071759
  34 C :    0.174813
  35 N :   -0.173287
  36 C :    0.046205
  37 C :    0.028501
  38 N :   -0.025468
  39 C :   -0.098441
  40 S :    0.138207
  41 C :   -0.012057
  42 N :    0.282441
  43 O :   -0.257290
  44 O :   -0.276356
  45 C :    0.025047
  46 C :    0.121180
  47 C :   -0.019418
  48 C :    0.001714
  49 C :    0.028873
  50 C :   -0.116835
  51 C :    0.266830
  52 C :   -0.329222
  53 C :   -0.176906
  54 N :    0.148563
  55 C :   -0.214813
  56 N :    0.159507
  57 C :    0.007566
  58 C :   -0.003295
  59 C :    0.138942
  60 O :   -0.149527
  61 C :   -0.072630
  62 C :    0.112517
  63 C :   -0.088715
  64 C :   -0.021430
  65 S :    0.185861
  66 C :   -0.126206
  67 C :    0.041385
  68 Br:    0.021706
  69 H :   -0.014424
  70 H :   -0.003197
  71 H :   -0.003528
  72 H :    0.047972
  73 H :    0.183718
  74 H :    0.015599
  75 H :   -0.016575
  76 H :   -0.006230
  77 H :   -0.009449
  78 H :    0.030433
  79 H :    0.009040
  80 H :    0.052666
  81 H :    0.024309
  82 H :    0.029099
  83 H :    0.117509
  84 H :    0.002399
  85 H :    0.016572
  86 H :    0.132064
  87 H :    0.011771
  88 H :   -0.024374
  89 H :    0.019939
  90 H :    0.008840
  91 H :   -0.011353
  92 H :   -0.003163
  93 H :   -0.004163
Sum of atomic charges:   -0.0000000

LOEWDIN ATOMIC CHARGES
----------------------
   0 C :    0.078145
   1 C :   -0.146248
   2 C :   -0.020280
   3 N :   -0.050767
   4 C :   -0.020728
   5 N :   -0.050155
   6 C :   -0.017497
   7 C :   -0.052271
   8 C :    0.022904
   9 C :   -0.034116
  10 C :   -0.143270
  11 C :   -0.006372
  12 S :    0.440992
  13 C :   -0.270647
  14 C :   -0.070909
  15 Br:    0.141730
  16 C :    0.099164
  17 O :   -0.186273
  18 C :   -0.148300
  19 C :    0.113664
  20 N :    0.081128
  21 C :   -0.118866
  22 S :    0.473684
  23 C :   -0.197443
  24 N :    0.272738
  25 O :   -0.207937
  26 O :   -0.220165
  27 C :    0.003079
  28 C :   -0.080766
  29 C :   -0.035891
  30 C :   -0.011125
  31 C :   -0.068101
  32 C :   -0.029943
  33 C :   -0.053369
  34 C :    0.035863
  35 N :   -0.022238
  36 C :    0.004608
  37 C :   -0.077195
  38 N :    0.049909
  39 C :   -0.077881
  40 S :    0.443691
  41 C :   -0.215037
  42 N :    0.274259
  43 O :   -0.222643
  44 O :   -0.242923
  45 C :    0.019675
  46 C :   -0.126763
  47 C :    0.030360
  48 C :   -0.042575
  49 C :    0.065073
  50 C :   -0.102555
  51 C :    0.070147
  52 C :   -0.143920
  53 C :   -0.020418
  54 N :   -0.052756
  55 C :   -0.022522
  56 N :   -0.055436
  57 C :   -0.018017
  58 C :   -0.052277
  59 C :    0.081483
  60 O :   -0.150609
  61 C :    0.021135
  62 C :   -0.034378
  63 C :   -0.143714
  64 C :   -0.012552
  65 S :    0.432257
  66 C :   -0.272740
  67 C :   -0.070432
  68 Br:    0.135266
  69 H :    0.039723
  70 H :    0.042733
  71 H :    0.038692
  72 H :    0.037419
  73 H :    0.083844
  74 H :    0.046195
  75 H :    0.028251
  76 H :    0.029619
  77 H :    0.027382
  78 H :    0.036009
  79 H :    0.028801
  80 H :    0.040818
  81 H :    0.032597
  82 H :    0.035221
  83 H :    0.077176
  84 H :    0.026738
  85 H :    0.019852
  86 H :    0.093793
  87 H :    0.046384
  88 H :    0.024803
  89 H :    0.032257
  90 H :    0.041686
  91 H :    0.040549
  92 H :    0.040981
  93 H :    0.038545

  Mayer bond orders larger than 0.100000
B(  0-C ,  1-C ) :   1.6300 B(  0-C ,  6-C ) :   1.0029 B(  0-C , 18-C ) :   1.0982
B(  1-C ,  2-C ) :   1.1424 B(  1-C ,  4-C ) :   1.1491 B(  2-C ,  3-N ) :   2.9693
B(  4-C ,  5-N ) :   2.9543 B(  6-C ,  7-C ) :   1.2732 B(  6-C , 11-C ) :   1.4268
B(  7-C ,  8-C ) :   1.4209 B(  7-C , 16-C ) :   0.9847 B(  8-C ,  9-C ) :   1.2444
B(  8-C , 69-H ) :   1.0171 B(  9-C , 10-C ) :   1.3091 B(  9-C , 14-C ) :   1.1643
B( 10-C , 11-C ) :   1.3183 B( 10-C , 12-S ) :   1.0928 B( 11-C , 70-H ) :   0.9791
B( 12-S , 13-C ) :   1.0892 B( 13-C , 14-C ) :   1.6154 B( 13-C , 15-Br) :   1.0225
B( 14-C , 71-H ) :   1.0001 B( 16-C , 17-O ) :   1.9997 B( 16-C , 18-C ) :   1.0140
B( 17-O , 73-H ) :   0.1429 B( 18-C , 19-C ) :   1.4418 B( 19-C , 20-N ) :   1.3508
B( 19-C , 72-H ) :   0.9312 B( 20-N , 21-C ) :   1.1846 B( 20-N , 73-H ) :   0.8251
B( 21-C , 22-S ) :   1.1311 B( 21-C , 28-C ) :   1.3862 B( 22-S , 23-C ) :   1.0874
B( 23-C , 24-N ) :   0.9586 B( 23-C , 27-C ) :   1.5100 B( 24-N , 25-O ) :   1.5396
B( 24-N , 26-O ) :   1.5179 B( 25-O , 26-O ) :   0.2647 B( 27-C , 28-C ) :   1.2153
B( 27-C , 74-H ) :   0.9992 B( 28-C , 29-C ) :   1.0718 B( 29-C , 30-C ) :   1.7693
B( 29-C , 75-H ) :   0.9650 B( 30-C , 31-C ) :   1.0824 B( 30-C , 76-H ) :   0.9594
B( 31-C , 32-C ) :   1.8485 B( 31-C , 77-H ) :   0.9360 B( 32-C , 33-C ) :   1.0818
B( 32-C , 34-C ) :   0.9938 B( 33-C , 78-H ) :   0.9455 B( 33-C , 79-H ) :   0.9490
B( 33-C , 80-H ) :   0.9358 B( 34-C , 35-N ) :   1.0624 B( 34-C , 81-H ) :   0.9436
B( 34-C , 82-H ) :   0.9238 B( 35-N , 36-C ) :   1.1785 B( 35-N , 83-H ) :   0.9436
B( 36-C , 37-C ) :   1.7004 B( 36-C , 84-H ) :   0.9687 B( 37-C , 38-N ) :   1.0333
B( 37-C , 85-H ) :   0.9607 B( 38-N , 39-C ) :   1.3373 B( 38-N , 86-H ) :   0.9174
B( 39-C , 40-S ) :   1.1340 B( 39-C , 46-C ) :   1.2627 B( 40-S , 41-C ) :   1.0360
B( 41-C , 42-N ) :   0.9902 B( 41-C , 45-C ) :   1.5094 B( 42-N , 43-O ) :   1.5246
B( 42-N , 44-O ) :   1.4958 B( 43-O , 44-O ) :   0.2504 B( 45-C , 46-C ) :   1.2262
B( 45-C , 87-H ) :   0.9975 B( 46-C , 47-C ) :   1.1018 B( 47-C , 48-C ) :   1.6522
B( 47-C , 88-H ) :   0.9752 B( 48-C , 49-C ) :   1.1502 B( 48-C , 89-H ) :   0.9575
B( 49-C , 50-C ) :   1.5853 B( 49-C , 90-H ) :   0.9581 B( 50-C , 51-C ) :   1.0547
B( 50-C , 59-C ) :   0.9472 B( 51-C , 52-C ) :   1.6320 B( 51-C , 57-C ) :   1.0125
B( 52-C , 53-C ) :   1.1297 B( 52-C , 55-C ) :   1.1587 B( 53-C , 54-N ) :   2.9853
B( 55-C , 56-N ) :   3.0139 B( 57-C , 58-C ) :   1.2744 B( 57-C , 64-C ) :   1.4191
B( 58-C , 59-C ) :   0.9208 B( 58-C , 61-C ) :   1.4271 B( 59-C , 60-O ) :   2.2652
B( 61-C , 62-C ) :   1.2500 B( 61-C , 91-H ) :   1.0165 B( 62-C , 63-C ) :   1.3112
B( 62-C , 67-C ) :   1.1629 B( 63-C , 64-C ) :   1.3216 B( 63-C , 65-S ) :   1.0845
B( 64-C , 92-H ) :   0.9832 B( 65-S , 66-C ) :   1.0868 B( 66-C , 67-C ) :   1.6203
B( 66-C , 68-Br) :   1.0176 B( 67-C , 93-H ) :   0.9992

-----------------------------------------------------------------------------
         ABSORPTION SPECTRUM VIA TRANSITION ELECTRIC DIPOLE MOMENTS
-----------------------------------------------------------------------------
State   Energy  Wavelength   fosc         T2         TX        TY        TZ
        (cm-1)    (nm)                  (au**2)     (au)      (au)      (au)
-----------------------------------------------------------------------------
   0   17847.2    560.3   0.742854851  13.70281  -1.51426   3.03895   1.47466
   1   21957.0    455.4   0.789114850  11.83161   2.11044  -2.68350   0.42007
   2   23215.5    430.7   0.101589877   1.44061  -0.76887   0.92154   0.01479
   3   24561.8    407.1   0.113647216   1.52326   1.07035  -0.50100  -0.35581
   4   25429.5    393.2   0.148201500   1.91862   0.96663   0.50659   0.85301
   5   26290.8    380.4   0.534005684   6.68679   1.79714  -1.11110   1.49083
   6   26820.6    372.8   0.010351043   0.12705   0.33526  -0.12105  -0.00119
   7   27769.4    360.1   0.171980869   2.03887   0.13679   1.38319  -0.32702
   8   28887.6    346.2   0.542560300   6.18319  -0.82038   2.07611   1.09541
   9   29290.2    341.4   0.332418211   3.73626   1.59474   0.13202  -1.08427
  10   29887.8    334.6   0.018554406   0.20438   0.04096   0.20602   0.40032
  11   30099.6    332.2   0.139189111   1.52237  -1.02227   0.63723   0.26699
  12   30350.4    329.5   0.026014465   0.28218   0.31289   0.24310  -0.35381
  13   30671.7    326.0   0.004329638   0.04647  -0.17565  -0.10167   0.07268
  14   30789.2    324.8   0.225545701   2.41164   1.30891  -0.71842  -0.42695
  15   31604.9    316.4   0.099164038   1.03294   0.84609   0.15967  -0.53998
  16   31672.0    315.7   0.195256743   2.02958   1.16015   0.08133  -0.82281
  17   32724.0    305.6   0.142559464   1.43418   0.25263   1.13950   0.26814
  18   33428.5    299.1   0.111628554   1.09934  -0.90809   0.34175   0.39740
  19   33431.1    299.1   0.027643544   0.27222  -0.45106   0.19959   0.17007
  20   33655.6    297.1   0.006143205   0.06009   0.22451  -0.00971  -0.09795
  21   33668.2    297.0   0.473442171   4.62938  -0.06214  -2.13812  -0.23227
  22   34169.7    292.7   0.418872901   4.03568   1.43534   0.60647  -1.26795
  23   34321.5    291.4   0.028652214   0.27483   0.40530   0.12878  -0.30656
  24   34436.3    290.4   0.028913331   0.27641   0.35137   0.14009  -0.36513
  25   34849.6    286.9   0.178058821   1.68206   0.18883   1.08443   0.68586
  26   34933.2    286.3   0.065796901   0.62007   0.56150   0.48832  -0.25755
  27   36093.8    277.1   0.068947355   0.62887  -0.01404  -0.54199  -0.57872
  28   36735.4    272.2   0.056456665   0.50595  -0.27859   0.52193  -0.39487
  29   36871.6    271.2   0.000105480   0.00094   0.02847  -0.01145  -0.00039
  30   37121.5    269.4   0.000135884   0.00121  -0.02915  -0.00622   0.01779
  31   37552.9    266.3   0.551286959   4.83293  -1.24223  -1.28820   1.27684
  32   37728.9    265.0   0.148043208   1.29178   0.78161  -0.49842  -0.65762
  33   38020.1    263.0   0.155924433   1.35013   0.68325  -0.93049   0.13224
  34   38201.5    261.8   0.063670457   0.54870   0.20955  -0.65621   0.27235
  35   38535.2    259.5   0.070580728   0.60298   0.77016  -0.08307  -0.05417
  36   39295.0    254.5   0.004768707   0.03995  -0.06277  -0.05316  -0.18217
  37   39536.1    252.9   0.002521586   0.02100   0.03357   0.12358   0.06782
  38   39915.0    250.5   0.002995993   0.02471   0.14622  -0.04479  -0.03640
  39   40205.2    248.7   0.059137183   0.48423  -0.09215  -0.58653   0.36294

FINAL SINGLE POINT ENERGY     -9524.690480571817

DIPOLE MOMENT
-------------
                                X             Y             Z
Electronic contribution:     17.55637      42.48951      14.16355
Nuclear contribution   :    -11.27151     -41.79509     -15.21784
                        -----------------------------------------
Total Dipole Moment    :      6.28486       0.69442      -1.05429
                        -----------------------------------------
Magnitude (a.u.)       :      6.41040
Magnitude (Debye)      :     16.29395

Rotational constants in cm-1:     0.001184     0.000156     0.000149
Rotational constants in MHz :    35.484385     4.665319     4.461356

                             ****ORCA TERMINATED NORMALLY****
TOTAL RUN TIME: 0 days 0 hours 12 minutes 37 seconds 723 msec
