                         Program Version 4.2.0 -  RELEASE  -
|  1> # ORCA input file
|  2> # SCF done       -159.662354587134          0.000456691597
|  3> ! CAM-B3LYP def2-SVP def2/J RIJCOSX Grid4 TightSCF
|  4> %maxcore 5000
|  5> %tddft
|  6>     Mode sTDDFT
|  7>     Ethresh 5.0
|  8>     maxcore 5000
|  9> end
| 10>
| 11> %pal
| 12>   nprocs 6
| 13>   end
| 14> * xyz 0 1
| 15>    C        0.54262       -21.18305        -1.67787
| 16>    O        0.48564       -22.27175        -0.87253
| 17>    C        0.34774       -21.75644         0.36217
| 18>    C        0.19096       -21.91396         1.84906
| 19>    C        0.15341       -20.34836         1.87569
| 20>    C        0.31661       -20.40256         0.36801
| 21>    C        0.44451       -19.98247        -0.98676
| 22>    C        0.45726       -18.66217        -1.54688
| 23>    C        0.36533       -17.55390        -0.79662
| 24>    C        0.33340       -16.21381        -1.33699
| 25>    N        0.42175       -16.03718        -2.66096
| 26>    C        0.35349       -14.79759        -3.10410
| 27>    C        0.18356       -13.70558        -2.26607
| 28>    C        0.10724       -13.98051        -0.89659
| 29>    N        0.19224       -15.23310        -0.45020
| 30>    C       -0.09706       -12.94244         0.09500
| 31>    C       -0.04301       -13.24444         1.40009
| 32>    N       -0.30755       -12.38032         2.42547
| 33>    C       -0.23279       -12.70619         3.73874
| 34>    S        0.53888       -14.17162         4.24411
| 35>    C        0.11488       -13.81026         5.89093
| 36>    N        0.53605       -14.70975         6.87351
| 37>    O        0.26519       -14.45643         8.03257
| 38>    O        1.15769       -15.68646         6.48659
| 39>    C       -0.58903       -12.64596         6.02846
| 40>    C       -0.79332       -11.98225         4.80195
| 41>    C       -1.52175       -10.75207         4.66166
| 42>    C       -2.53350       -10.41034         5.49753
| 43>    C       -3.28523        -9.21924         5.43557
| 44>    C       -4.46376        -9.06092         6.11854
| 45>    C       -5.30066        -7.91839         6.18330
| 46>    C       -6.44959        -8.10751         6.89069
| 47>    C       -6.59634        -9.41863         7.39927
| 48>    S       -5.19985       -10.38504         7.01231
| 49>    C       -7.67836        -9.98212         8.05488
| 50>    C       -8.87923        -9.37577         8.47706
| 51>    C       -9.76463       -10.25063         9.03874
| 52>    C       -9.31389       -11.59001         9.06911
| 53>    S       -7.70083       -11.69572         8.40454
| 54>    C      -10.01265       -12.70152         9.50306
| 55>    C       -9.49960       -13.98913         9.38526
| 56>    C      -10.14804       -15.15080         9.75245
| 57>    C       -9.65825       -16.49425         9.58050
| 58>    C       -8.50168       -16.88536         8.94521
| 59>    C       -8.09604       -18.22643         8.79849
| 60>    N       -7.70878       -19.29688         8.64221
| 61>    C       -7.57159       -16.02865         8.32378
| 62>    N       -6.76947       -15.41006         7.78023
| 63>    C      -10.64114       -17.40286        10.16828
| 64>    C      -11.72962       -16.63961        10.65611
| 65>    C      -11.46903       -15.20532        10.40581
| 66>    O      -12.20446       -14.27989        10.69114
| 67>    C      -12.82290       -17.20997        11.25907
| 68>    C      -12.84345       -18.60318        11.39085
| 69>    C      -11.75027       -19.35644        10.90486
| 70>    C      -10.64411       -18.77865        10.29251
| 71>    S      -11.97744       -21.05897        11.17158
| 72>    C      -13.51855       -20.73837        11.92128
| 73>    C      -13.84780       -19.42625        11.97088
| 74>   Br      -14.54833       -22.16755        12.56703
| 75>    H        0.65464       -21.36596        -2.72797
| 76>    H        1.03977       -22.36185         2.36216
| 77>    H       -0.72831       -22.40006         2.17021
| 78>    H        0.98052       -19.88657         2.40972
| 79>    H       -0.78895       -19.92702         2.21786
| 80>    H        0.53567       -18.57499        -2.62111
| 81>    H        0.28714       -17.61541         0.27897
| 82>    H        0.43104       -14.67681        -4.17814
| 83>    H        0.11602       -12.69960        -2.64747
| 84>    H       -0.31088       -11.94405        -0.25882
| 85>    H        0.20365       -14.25666         1.68871
| 86>    H       -0.66968       -11.46411         2.19157
| 87>    H       -0.91634       -12.27955         6.98404
| 88>    H       -1.26735       -10.09935         3.83613
| 89>    H       -2.83621       -11.12355         6.25317
| 90>    H       -2.93688        -8.40479         4.81479
| 91>    H       -5.02580        -6.99466         5.70518
| 92>    H       -7.20133        -7.35342         7.04032
| 93>    H       -9.05937        -8.32203         8.36002
| 94>    H      -10.73418        -9.97882         9.41651
| 95>    H      -11.00063       -12.56089         9.91642
| 96>    H       -8.50973       -14.07629         8.95372
| 97>    H      -13.63815       -16.60175        11.61852
| 98>    H       -9.83604       -19.39749         9.94034
| 99>    H      -14.76014       -19.05184        12.39804
|100> *
|101>
|102>                          ****END OF INPUT****

CARTESIAN COORDINATES (ANGSTROEM)
---------------------------------
  C      0.542620  -21.183050   -1.677870
  O      0.485640  -22.271750   -0.872530
  C      0.347740  -21.756440    0.362170
  C      0.190960  -21.913960    1.849060
  C      0.153410  -20.348360    1.875690
  C      0.316610  -20.402560    0.368010
  C      0.444510  -19.982470   -0.986760
  C      0.457260  -18.662170   -1.546880
  C      0.365330  -17.553900   -0.796620
  C      0.333400  -16.213810   -1.336990
  N      0.421750  -16.037180   -2.660960
  C      0.353490  -14.797590   -3.104100
  C      0.183560  -13.705580   -2.266070
  C      0.107240  -13.980510   -0.896590
  N      0.192240  -15.233100   -0.450200
  C     -0.097060  -12.942440    0.095000
  C     -0.043010  -13.244440    1.400090
  N     -0.307550  -12.380320    2.425470
  C     -0.232790  -12.706190    3.738740
  S      0.538880  -14.171620    4.244110
  C      0.114880  -13.810260    5.890930
  N      0.536050  -14.709750    6.873510
  O      0.265190  -14.456430    8.032570
  O      1.157690  -15.686460    6.486590
  C     -0.589030  -12.645960    6.028460
  C     -0.793320  -11.982250    4.801950
  C     -1.521750  -10.752070    4.661660
  C     -2.533500  -10.410340    5.497530
  C     -3.285230   -9.219240    5.435570
  C     -4.463760   -9.060920    6.118540
  C     -5.300660   -7.918390    6.183300
  C     -6.449590   -8.107510    6.890690
  C     -6.596340   -9.418630    7.399270
  S     -5.199850  -10.385040    7.012310
  C     -7.678360   -9.982120    8.054880
  C     -8.879230   -9.375770    8.477060
  C     -9.764630  -10.250630    9.038740
  C     -9.313890  -11.590010    9.069110
  S     -7.700830  -11.695720    8.404540
  C    -10.012650  -12.701520    9.503060
  C     -9.499600  -13.989130    9.385260
  C    -10.148040  -15.150800    9.752450
  C     -9.658250  -16.494250    9.580500
  C     -8.501680  -16.885360    8.945210
  C     -8.096040  -18.226430    8.798490
  N     -7.708780  -19.296880    8.642210
  C     -7.571590  -16.028650    8.323780
  N     -6.769470  -15.410060    7.780230
  C    -10.641140  -17.402860   10.168280
  C    -11.729620  -16.639610   10.656110
  C    -11.469030  -15.205320   10.405810
  O    -12.204460  -14.279890   10.691140
  C    -12.822900  -17.209970   11.259070
  C    -12.843450  -18.603180   11.390850
  C    -11.750270  -19.356440   10.904860
  C    -10.644110  -18.778650   10.292510
  S    -11.977440  -21.058970   11.171580
  C    -13.518550  -20.738370   11.921280
  C    -13.847800  -19.426250   11.970880
  Br   -14.548330  -22.167550   12.567030
  H      0.654640  -21.365960   -2.727970
  H      1.039770  -22.361850    2.362160
  H     -0.728310  -22.400060    2.170210
  H      0.980520  -19.886570    2.409720
  H     -0.788950  -19.927020    2.217860
  H      0.535670  -18.574990   -2.621110
  H      0.287140  -17.615410    0.278970
  H      0.431040  -14.676810   -4.178140
  H      0.116020  -12.699600   -2.647470
  H     -0.310880  -11.944050   -0.258820
  H      0.203650  -14.256660    1.688710
  H     -0.669680  -11.464110    2.191570
  H     -0.916340  -12.279550    6.984040
  H     -1.267350  -10.099350    3.836130
  H     -2.836210  -11.123550    6.253170
  H     -2.936880   -8.404790    4.814790
  H     -5.025800   -6.994660    5.705180
  H     -7.201330   -7.353420    7.040320
  H     -9.059370   -8.322030    8.360020
  H    -10.734180   -9.978820    9.416510
  H    -11.000630  -12.560890    9.916420
  H     -8.509730  -14.076290    8.953720
  H    -13.638150  -16.601750   11.618520
  H     -9.836040  -19.397490    9.940340
  H    -14.760140  -19.051840   12.398040

 Total Charge           Charge          ....    0
 Multiplicity           Mult            ....    1
 Number of Electrons    NEL             ....  468
 Basis Dimension        Dim             ....  999

ORBITAL ENERGIES
----------------

  NO   OCC          E(Eh)            E(eV)
   0   2.0000    -482.876602    -13139.7404
   1   2.0000     -88.984948     -2421.4035
   2   2.0000     -88.964489     -2420.8468
   3   2.0000     -88.963442     -2420.8183
   4   2.0000     -88.958146     -2420.6742
   5   2.0000     -62.554336     -1702.1900
   6   2.0000     -56.388274     -1534.4029
   7   2.0000     -56.385579     -1534.3296
   8   2.0000     -56.385542     -1534.3286
   9   2.0000     -19.280413      -524.6467
  10   2.0000     -19.231164      -523.3066
  11   2.0000     -19.230935      -523.3004
  12   2.0000     -19.200198      -522.4640
  13   2.0000     -14.643119      -398.4595
  14   2.0000     -14.488892      -394.2628
  15   2.0000     -14.400487      -391.8572
  16   2.0000     -14.398010      -391.7898
  17   2.0000     -14.397178      -391.7671
  18   2.0000     -14.395363      -391.7177
  19   2.0000     -10.373176      -282.2685
  20   2.0000     -10.350443      -281.6499
  21   2.0000     -10.348007      -281.5836
  22   2.0000     -10.338635      -281.3285
  23   2.0000     -10.336710      -281.2762
  24   2.0000     -10.333649      -281.1929
  25   2.0000     -10.331673      -281.1391
  26   2.0000     -10.326860      -281.0082
  27   2.0000     -10.325765      -280.9784
  28   2.0000     -10.324276      -280.9378
  29   2.0000     -10.323764      -280.9239
  30   2.0000     -10.322907      -280.9006
  31   2.0000     -10.322196      -280.8812
  32   2.0000     -10.313077      -280.6331
  33   2.0000     -10.312877      -280.6277
  34   2.0000     -10.311975      -280.6031
  35   2.0000     -10.309071      -280.5241
  36   2.0000     -10.308545      -280.5098
  37   2.0000     -10.308385      -280.5054
  38   2.0000     -10.307320      -280.4764
  39   2.0000     -10.307017      -280.4682
  40   2.0000     -10.306325      -280.4494
  41   2.0000     -10.304275      -280.3936
  42   2.0000     -10.302196      -280.3370
  43   2.0000     -10.301393      -280.3152
  44   2.0000     -10.297833      -280.2183
  45   2.0000     -10.296521      -280.1826
  46   2.0000     -10.295397      -280.1520
  47   2.0000     -10.294867      -280.1376
  48   2.0000     -10.294285      -280.1217
  49   2.0000     -10.293643      -280.1043
  50   2.0000     -10.291408      -280.0435
  51   2.0000     -10.287722      -279.9432
  52   2.0000     -10.286441      -279.9083
  53   2.0000     -10.278905      -279.7032
  54   2.0000     -10.278739      -279.6987
  55   2.0000     -10.277649      -279.6691
  56   2.0000     -10.276792      -279.6457
  57   2.0000     -10.275148      -279.6010
  58   2.0000     -10.274804      -279.5916
  59   2.0000     -10.274018      -279.5703
  60   2.0000     -10.269857      -279.4570
  61   2.0000     -10.267999      -279.4065
  62   2.0000     -10.253253      -279.0052
  63   2.0000     -10.242366      -278.7089
  64   2.0000      -8.783776      -239.0187
  65   2.0000      -8.080233      -219.8743
  66   2.0000      -8.060436      -219.3356
  67   2.0000      -8.059877      -219.3204
  68   2.0000      -8.054282      -219.1682
  69   2.0000      -6.620039      -180.1404
  70   2.0000      -6.605521      -179.7454
  71   2.0000      -6.605345      -179.7406
  72   2.0000      -6.049933      -164.6270
  73   2.0000      -6.045497      -164.5063
  74   2.0000      -6.041651      -164.4017
  75   2.0000      -6.030114      -164.0877
  76   2.0000      -6.029549      -164.0724
  77   2.0000      -6.025879      -163.9725
  78   2.0000      -6.025498      -163.9621
  79   2.0000      -6.023874      -163.9180
  80   2.0000      -6.021665      -163.8578
  81   2.0000      -6.020820      -163.8349
  82   2.0000      -6.019848      -163.8084
  83   2.0000      -6.015411      -163.6876
  84   2.0000      -2.735883       -74.4472
  85   2.0000      -2.731852       -74.3375
  86   2.0000      -2.731732       -74.3342
  87   2.0000      -2.720176       -74.0198
  88   2.0000      -2.720165       -74.0195
  89   2.0000      -1.312077       -35.7034
  90   2.0000      -1.191279       -32.4163
  91   2.0000      -1.131223       -30.7822
  92   2.0000      -1.113437       -30.2982
  93   2.0000      -1.094641       -29.7867
  94   2.0000      -1.071698       -29.1624
  95   2.0000      -1.014262       -27.5995
  96   2.0000      -1.009226       -27.4624
  97   2.0000      -1.003974       -27.3195
  98   2.0000      -0.998799       -27.1787
  99   2.0000      -0.990760       -26.9600
 100   2.0000      -0.978328       -26.6217
 101   2.0000      -0.974333       -26.5130
 102   2.0000      -0.972187       -26.4546
 103   2.0000      -0.945993       -25.7418
 104   2.0000      -0.935628       -25.4597
 105   2.0000      -0.930243       -25.3132
 106   2.0000      -0.912370       -24.8269
 107   2.0000      -0.907928       -24.7060
 108   2.0000      -0.899304       -24.4713
 109   2.0000      -0.894700       -24.3460
 110   2.0000      -0.887045       -24.1377
 111   2.0000      -0.878772       -23.9126
 112   2.0000      -0.872896       -23.7527
 113   2.0000      -0.870340       -23.6832
 114   2.0000      -0.864142       -23.5145
 115   2.0000      -0.855543       -23.2805
 116   2.0000      -0.845761       -23.0143
 117   2.0000      -0.838008       -22.8034
 118   2.0000      -0.824542       -22.4369
 119   2.0000      -0.821584       -22.3564
 120   2.0000      -0.816394       -22.2152
 121   2.0000      -0.796364       -21.6702
 122   2.0000      -0.783580       -21.3223
 123   2.0000      -0.766835       -20.8666
 124   2.0000      -0.764461       -20.8020
 125   2.0000      -0.745322       -20.2812
 126   2.0000      -0.744509       -20.2591
 127   2.0000      -0.740232       -20.1427
 128   2.0000      -0.728993       -19.8369
 129   2.0000      -0.719863       -19.5885
 130   2.0000      -0.716342       -19.4927
 131   2.0000      -0.707172       -19.2431
 132   2.0000      -0.693916       -18.8824
 133   2.0000      -0.683785       -18.6067
 134   2.0000      -0.677202       -18.4276
 135   2.0000      -0.672595       -18.3022
 136   2.0000      -0.663570       -18.0567
 137   2.0000      -0.661751       -18.0072
 138   2.0000      -0.652549       -17.7568
 139   2.0000      -0.644721       -17.5438
 140   2.0000      -0.640509       -17.4291
 141   2.0000      -0.636032       -17.3073
 142   2.0000      -0.630553       -17.1582
 143   2.0000      -0.628424       -17.1003
 144   2.0000      -0.624412       -16.9911
 145   2.0000      -0.621566       -16.9137
 146   2.0000      -0.619342       -16.8531
 147   2.0000      -0.615436       -16.7469
 148   2.0000      -0.611898       -16.6506
 149   2.0000      -0.609865       -16.5953
 150   2.0000      -0.590146       -16.0587
 151   2.0000      -0.587744       -15.9933
 152   2.0000      -0.586834       -15.9686
 153   2.0000      -0.582014       -15.8374
 154   2.0000      -0.577839       -15.7238
 155   2.0000      -0.574825       -15.6418
 156   2.0000      -0.569650       -15.5010
 157   2.0000      -0.562712       -15.3122
 158   2.0000      -0.560221       -15.2444
 159   2.0000      -0.559363       -15.2210
 160   2.0000      -0.548769       -14.9328
 161   2.0000      -0.540494       -14.7076
 162   2.0000      -0.534316       -14.5395
 163   2.0000      -0.532708       -14.4957
 164   2.0000      -0.529445       -14.4069
 165   2.0000      -0.526212       -14.3189
 166   2.0000      -0.525036       -14.2870
 167   2.0000      -0.517120       -14.0715
 168   2.0000      -0.516374       -14.0513
 169   2.0000      -0.515008       -14.0141
 170   2.0000      -0.513886       -13.9836
 171   2.0000      -0.512585       -13.9481
 172   2.0000      -0.509292       -13.8585
 173   2.0000      -0.508825       -13.8458
 174   2.0000      -0.505386       -13.7523
 175   2.0000      -0.503693       -13.7062
 176   2.0000      -0.496478       -13.5099
 177   2.0000      -0.495358       -13.4794
 178   2.0000      -0.489376       -13.3166
 179   2.0000      -0.485276       -13.2050
 180   2.0000      -0.484148       -13.1743
 181   2.0000      -0.482970       -13.1423
 182   2.0000      -0.480963       -13.0877
 183   2.0000      -0.479650       -13.0520
 184   2.0000      -0.478349       -13.0165
 185   2.0000      -0.475585       -12.9413
 186   2.0000      -0.472913       -12.8686
 187   2.0000      -0.464070       -12.6280
 188   2.0000      -0.463311       -12.6073
 189   2.0000      -0.458819       -12.4851
 190   2.0000      -0.449152       -12.2221
 191   2.0000      -0.446809       -12.1583
 192   2.0000      -0.445888       -12.1332
 193   2.0000      -0.440005       -11.9732
 194   2.0000      -0.439762       -11.9665
 195   2.0000      -0.437940       -11.9170
 196   2.0000      -0.437765       -11.9122
 197   2.0000      -0.436021       -11.8647
 198   2.0000      -0.433091       -11.7850
 199   2.0000      -0.429983       -11.7004
 200   2.0000      -0.428790       -11.6680
 201   2.0000      -0.426466       -11.6047
 202   2.0000      -0.422763       -11.5040
 203   2.0000      -0.412180       -11.2160
 204   2.0000      -0.411228       -11.1901
 205   2.0000      -0.410665       -11.1748
 206   2.0000      -0.409242       -11.1360
 207   2.0000      -0.407674       -11.0934
 208   2.0000      -0.394669       -10.7395
 209   2.0000      -0.393064       -10.6958
 210   2.0000      -0.392205       -10.6725
 211   2.0000      -0.379193       -10.3184
 212   2.0000      -0.378217       -10.2918
 213   2.0000      -0.377141       -10.2625
 214   2.0000      -0.372510       -10.1365
 215   2.0000      -0.368467       -10.0265
 216   2.0000      -0.367804       -10.0085
 217   2.0000      -0.366268        -9.9666
 218   2.0000      -0.360917        -9.8210
 219   2.0000      -0.359891        -9.7931
 220   2.0000      -0.355257        -9.6670
 221   2.0000      -0.349632        -9.5140
 222   2.0000      -0.339058        -9.2262
 223   2.0000      -0.335541        -9.1305
 224   2.0000      -0.325645        -8.8613
 225   2.0000      -0.320508        -8.7215
 226   2.0000      -0.315235        -8.5780
 227   2.0000      -0.303176        -8.2498
 228   2.0000      -0.297586        -8.0977
 229   2.0000      -0.291140        -7.9223
 230   2.0000      -0.281325        -7.6552
 231   2.0000      -0.267850        -7.2886
 232   2.0000      -0.260375        -7.0852
 233   2.0000      -0.226806        -6.1717
 234   0.0000      -0.110204        -2.9988
 235   0.0000      -0.060516        -1.6467
 236   0.0000      -0.055322        -1.5054
 237   0.0000      -0.042925        -1.1680
 238   0.0000      -0.019477        -0.5300

MULLIKEN ATOMIC CHARGES
-----------------------
   0 C :    0.090159
   1 O :   -0.177507
   2 C :   -0.052609
   3 C :    0.150022
   4 C :    0.132391
   5 C :   -0.143827
   6 C :   -0.023533
   7 C :    0.064261
   8 C :    0.020182
   9 C :   -0.057734
  10 N :   -0.079210
  11 C :    0.078262
  12 C :   -0.057631
  13 C :    0.055244
  14 N :   -0.081481
  15 C :   -0.048150
  16 C :    0.110647
  17 N :   -0.023208
  18 C :   -0.101145
  19 S :    0.171133
  20 C :   -0.004183
  21 N :    0.276588
  22 O :   -0.249610
  23 O :   -0.268337
  24 C :    0.010040
  25 C :    0.108262
  26 C :   -0.036014
  27 C :   -0.008875
  28 C :    0.006789
  29 C :   -0.032444
  30 C :    0.052178
  31 C :    0.026225
  32 C :   -0.033524
  33 S :    0.101524
  34 C :   -0.051047
  35 C :    0.044293
  36 C :    0.028614
  37 C :    0.001983
  38 S :    0.104154
  39 C :   -0.017126
  40 C :   -0.043812
  41 C :   -0.085770
  42 C :    0.329942
  43 C :   -0.363046
  44 C :   -0.186129
  45 N :    0.135325
  46 C :   -0.194132
  47 N :    0.135334
  48 C :    0.013421
  49 C :   -0.011252
  50 C :    0.137460
  51 O :   -0.165471
  52 C :   -0.077221
  53 C :    0.119702
  54 C :   -0.094978
  55 C :   -0.024295
  56 S :    0.180464
  57 C :   -0.122587
  58 C :    0.035526
  59 Br:    0.014739
  60 H :    0.001760
  61 H :    0.018946
  62 H :    0.020323
  63 H :    0.017458
  64 H :    0.017311
  65 H :   -0.009226
  66 H :   -0.021168
  67 H :    0.002643
  68 H :   -0.016958
  69 H :   -0.028541
  70 H :    0.045255
  71 H :    0.133338
  72 H :    0.013550
  73 H :   -0.014025
  74 H :    0.021385
  75 H :   -0.007643
  76 H :   -0.003785
  77 H :   -0.004651
  78 H :   -0.005406
  79 H :   -0.000845
  80 H :    0.014289
  81 H :    0.018508
  82 H :   -0.015407
  83 H :   -0.009568
  84 H :   -0.006521
Sum of atomic charges:    0.0000000

LOEWDIN ATOMIC CHARGES
----------------------
   0 C :    0.043649
   1 O :    0.014495
   2 C :   -0.008186
   3 C :   -0.001185
   4 C :    0.005951
   5 C :   -0.079817
   6 C :   -0.078085
   7 C :    0.025944
   8 C :   -0.053477
   9 C :    0.036560
  10 N :   -0.101171
  11 C :    0.050526
  12 C :   -0.085459
  13 C :    0.039769
  14 N :   -0.103692
  15 C :   -0.096763
  16 C :    0.056442
  17 N :    0.041953
  18 C :   -0.092549
  19 S :    0.471597
  20 C :   -0.210673
  21 N :    0.273920
  22 O :   -0.216025
  23 O :   -0.234183
  24 C :    0.006228
  25 C :   -0.112916
  26 C :   -0.011499
  27 C :   -0.035778
  28 C :   -0.031251
  29 C :   -0.149449
  30 C :   -0.015320
  31 C :   -0.033923
  32 C :   -0.150721
  33 S :    0.399939
  34 C :   -0.192321
  35 C :   -0.008984
  36 C :   -0.040877
  37 C :   -0.103658
  38 S :    0.413356
  39 C :   -0.071301
  40 C :    0.048994
  41 C :   -0.106713
  42 C :    0.072814
  43 C :   -0.154778
  44 C :   -0.018530
  45 N :   -0.067452
  46 C :   -0.021594
  47 N :   -0.065931
  48 C :   -0.017960
  49 C :   -0.049073
  50 C :    0.081875
  51 O :   -0.158745
  52 C :    0.017193
  53 C :   -0.035774
  54 C :   -0.145669
  55 C :   -0.013279
  56 S :    0.427886
  57 C :   -0.274682
  58 C :   -0.071039
  59 Br:    0.129809
  60 H :    0.020560
  61 H :    0.029089
  62 H :    0.029585
  63 H :    0.027715
  64 H :    0.027843
  65 H :    0.032596
  66 H :    0.029729
  67 H :    0.024375
  68 H :    0.028582
  69 H :    0.023823
  70 H :    0.028518
  71 H :    0.095715
  72 H :    0.046201
  73 H :    0.023185
  74 H :    0.027045
  75 H :    0.035384
  76 H :    0.037175
  77 H :    0.035170
  78 H :    0.035163
  79 H :    0.038466
  80 H :    0.038475
  81 H :    0.030779
  82 H :    0.038793
  83 H :    0.040203
  84 H :    0.037411

  Mayer bond orders larger than 0.100000
B(  0-C ,  1-O ) :   1.1395 B(  0-C ,  6-C ) :   1.5049 B(  0-C , 60-H ) :   1.0052
B(  1-O ,  2-C ) :   1.1552 B(  2-C ,  3-C ) :   1.1268 B(  2-C ,  5-C ) :   1.6450
B(  3-C ,  4-C ) :   1.1974 B(  3-C , 61-H ) :   0.8869 B(  3-C , 62-H ) :   0.8873
B(  4-C ,  5-C ) :   1.1141 B(  4-C , 63-H ) :   0.8948 B(  4-C , 64-H ) :   0.8949
B(  5-C ,  6-C ) :   1.1826 B(  6-C ,  7-C ) :   1.0668 B(  7-C ,  8-C ) :   1.7140
B(  7-C , 65-H ) :   0.9743 B(  8-C ,  9-C ) :   1.0393 B(  8-C , 66-H ) :   0.9728
B(  9-C , 10-N ) :   1.5150 B(  9-C , 14-N ) :   1.5318 B( 10-N , 11-C ) :   1.5612
B( 11-C , 12-C ) :   1.3644 B( 11-C , 67-H ) :   0.9802 B( 12-C , 13-C ) :   1.3402
B( 12-C , 68-H ) :   0.9754 B( 13-C , 14-N ) :   1.5027 B( 13-C , 15-C ) :   1.0892
B( 15-C , 16-C ) :   1.7201 B( 15-C , 69-H ) :   0.9724 B( 16-C , 17-N ) :   1.1121
B( 16-C , 70-H ) :   0.9280 B( 17-N , 18-C ) :   1.2311 B( 17-N , 71-H ) :   0.9172
B( 18-C , 19-S ) :   1.1490 B( 18-C , 25-C ) :   1.3531 B( 19-S , 20-C ) :   1.0657
B( 20-C , 21-N ) :   0.9751 B( 20-C , 24-C ) :   1.4929 B( 21-N , 22-O ) :   1.5356
B( 21-N , 23-O ) :   1.5064 B( 22-O , 23-O ) :   0.2564 B( 24-C , 25-C ) :   1.2352
B( 24-C , 72-H ) :   1.0009 B( 25-C , 26-C ) :   1.0470 B( 26-C , 27-C ) :   1.6971
B( 26-C , 73-H ) :   0.9732 B( 27-C , 28-C ) :   1.1404 B( 27-C , 74-H ) :   0.9681
B( 28-C , 29-C ) :   1.5782 B( 28-C , 75-H ) :   0.9841 B( 29-C , 30-C ) :   1.1402
B( 29-C , 33-S ) :   1.0287 B( 30-C , 31-C ) :   1.5898 B( 30-C , 76-H ) :   0.9984
B( 31-C , 32-C ) :   1.1922 B( 31-C , 77-H ) :   0.9943 B( 32-C , 33-S ) :   1.0831
B( 32-C , 34-C ) :   1.4663 B( 34-C , 35-C ) :   1.2151 B( 34-C , 38-S ) :   1.0492
B( 35-C , 36-C ) :   1.5443 B( 35-C , 78-H ) :   0.9953 B( 36-C , 37-C ) :   1.1787
B( 36-C , 79-H ) :   1.0009 B( 37-C , 38-S ) :   1.0878 B( 37-C , 39-C ) :   1.4178
B( 39-C , 40-C ) :   1.2594 B( 39-C , 80-H ) :   0.9803 B( 40-C , 41-C ) :   1.4858
B( 40-C , 81-H ) :   0.9389 B( 41-C , 42-C ) :   1.1133 B( 41-C , 50-C ) :   0.9641
B( 42-C , 43-C ) :   1.5826 B( 42-C , 48-C ) :   0.9888 B( 43-C , 44-C ) :   1.1497
B( 43-C , 46-C ) :   1.1549 B( 44-C , 45-N ) :   2.9609 B( 46-C , 47-N ) :   2.9620
B( 48-C , 49-C ) :   1.2779 B( 48-C , 55-C ) :   1.4194 B( 49-C , 50-C ) :   0.9339
B( 49-C , 52-C ) :   1.4307 B( 50-C , 51-O ) :   2.1902 B( 52-C , 53-C ) :   1.2398
B( 52-C , 82-H ) :   1.0156 B( 53-C , 54-C ) :   1.3142 B( 53-C , 58-C ) :   1.1611
B( 54-C , 55-C ) :   1.3223 B( 54-C , 56-S ) :   1.0839 B( 55-C , 83-H ) :   0.9787
B( 56-S , 57-C ) :   1.0850 B( 57-C , 58-C ) :   1.6210 B( 57-C , 59-Br) :   1.0130
B( 58-C , 84-H ) :   0.9999

-----------------------------------------------------------------------------
         ABSORPTION SPECTRUM VIA TRANSITION ELECTRIC DIPOLE MOMENTS
-----------------------------------------------------------------------------
State   Energy  Wavelength   fosc         T2         TX        TY        TZ
        (cm-1)    (nm)                  (au**2)     (au)      (au)      (au)
-----------------------------------------------------------------------------
   0   11651.4    858.3   1.106028971  31.25107  -4.11561  -2.76838   2.57855
   1   20840.2    479.8   0.201828326   3.18828  -0.33261   1.73001   0.29107
   2   21591.1    463.2   0.594293804   9.06153  -1.63184   2.29110   1.07214
   3   24077.1    415.3   0.192263587   2.62886  -0.02545   0.37789  -1.57652
   4   24161.5    413.9   0.172598503   2.35174  -0.59248   0.80245   1.16481
   5   24611.8    406.3   0.188033471   2.51517   1.45638   0.38236  -0.49793
   6   25124.7    398.0   0.059080196   0.77413   0.23080   0.84683  -0.06117
   7   26680.1    374.8   0.000449778   0.00555  -0.00034  -0.07396   0.00897
   8   27613.0    362.1   0.352473321   4.20232  -0.88223   1.83997   0.19618
   9   28353.5    352.7   0.005607718   0.06511   0.02883  -0.24001   0.08171
  10   29644.3    337.3   0.568224458   6.31035   0.19192  -0.03082   2.50451
  11   30386.0    329.1   0.153774197   1.66604  -0.38518   1.23184   0.01589
  12   31062.8    321.9   0.083879829   0.88898   0.48127   0.76357  -0.27261
  13   31294.0    319.5   0.118550875   1.24715  -0.56104  -0.96321   0.06787
  14   31607.7    316.4   0.042835129   0.44615  -0.45227  -0.41896   0.25706
  15   31945.4    313.0   0.010898354   0.11231  -0.20588  -0.20919   0.16176
  16   32223.1    310.3   0.375239623   3.83369  -1.27486  -1.20935   0.86366
  17   32497.2    307.7   0.030022752   0.30414   0.39823  -0.09910  -0.36843
  18   33015.8    302.9   0.187914352   1.87376   1.08721  -0.37793  -0.74088
  19   33464.5    298.8   0.000286607   0.00282  -0.02125   0.00842  -0.04793
  20   34313.6    291.4   0.015861295   0.15218  -0.31756  -0.21831   0.06058
  21   34798.3    287.4   0.000958674   0.00907   0.09391  -0.00193   0.01572
  22   35097.2    284.9   0.072206826   0.67730   0.20605  -0.74551  -0.28116
  23   35404.9    282.4   0.127798596   1.18833  -0.76379   0.76312   0.15039
  24   35685.9    280.2   0.046115597   0.42543  -0.17702   0.59044   0.21326
  25   35776.9    279.5   0.231501369   2.13023  -0.49446  -1.35037   0.24947
  26   35970.5    278.0   0.043389182   0.39711   0.17739  -0.54574   0.26041
  27   36218.4    276.1   0.033157468   0.30139  -0.30084   0.15707   0.43152
  28   36883.1    271.1   0.258526713   2.30756  -0.00688  -1.50583   0.19997
  29   37008.3    270.2   0.009230036   0.08211   0.23645   0.08201  -0.13955
  30   37346.1    267.8   0.027190137   0.23969   0.23045  -0.43195   0.00074
  31   37608.6    265.9   0.074968388   0.65625   0.37029  -0.71424   0.09485
  32   37900.2    263.9   0.021834837   0.18966   0.07424   0.12374  -0.41090
  33   38099.0    262.5   0.098795477   0.85369   0.71103  -0.58498  -0.07691
  34   38374.2    260.6   0.125194860   1.07405  -0.81735   0.15538   0.61794
  35   39037.1    256.2   0.024728254   0.20854   0.32945   0.17224  -0.26522
  36   39245.1    254.8   0.098173784   0.82354  -0.14646  -0.88165  -0.15740
  37   39294.7    254.5   0.008705080   0.07293   0.09425  -0.12492  -0.22010
  38   40198.4    248.8   0.080934815   0.66283   0.07338  -0.19995  -0.78579
  39   40222.2    248.6   0.013265086   0.10857   0.06056   0.07152   0.31590

FINAL SINGLE POINT ENERGY     -6522.250720462906

DIPOLE MOMENT
-------------
                                X             Y             Z
Electronic contribution:   -126.44468     -82.04262     105.56339
Nuclear contribution   :    125.84058      87.13535    -107.37452
                        -----------------------------------------
Total Dipole Moment    :     -0.60410       5.09274      -1.81112
                        -----------------------------------------
Magnitude (a.u.)       :      5.43885
Magnitude (Debye)      :     13.82446

Rotational constants in cm-1:     0.000942     0.000345     0.000271
Rotational constants in MHz :    28.239702    10.348178     8.118061

                             ****ORCA TERMINATED NORMALLY****
TOTAL RUN TIME: 0 days 0 hours 6 minutes 44 seconds 671 msec
