                         Program Version 4.2.0 -  RELEASE  -
|  1> # ORCA input file
|  2> # SCF done        -45.510629543762          0.000895674676
|  3> ! B3LYP/G D3BJ Opt RIJCOSX def2-SVP def2/J
|  4> * xyz 0 1
|  5>    C        0.12404         1.22723        -0.00424
|  6>    S       -1.06606         0.00328        -0.00859
|  7>    C        0.12496        -1.21978        -0.00415
|  8>    C        1.38980        -0.70801         0.00050
|  9>    C        1.38927         0.71642         0.00046
| 10>    C        2.61056         1.58595         0.00479
| 11>    F        2.27808         2.88657         0.00498
| 12>    F        3.38011         1.39141         1.08292
| 13>    F        3.38627         1.39336        -1.06929
| 14>    C        2.61175        -1.57662         0.00516
| 15>    F        2.28026        -2.87749         0.00262
| 16>    F        3.38901        -1.38156        -1.06733
| 17>    F        3.37945        -1.38339         1.08487
| 18>    H       -0.15348         2.26282        -0.00531
| 19>    H       -0.15178        -2.25557        -0.00513
| 20> *
| 21>
| 22>                          ****END OF INPUT****
 Total Charge           Charge          ....    0
 Multiplicity           Mult            ....    1
 Number of Electrons    NEL             ....  108
Dispersion correction           -0.029115813
FINAL SINGLE POINT ENERGY     -1226.384326983899
Dispersion correction            ... done
Dispersion correction           -0.029040113
FINAL SINGLE POINT ENERGY     -1226.385813632252
Dispersion correction            ... done
Dispersion correction           -0.029036931
FINAL SINGLE POINT ENERGY     -1226.385858567212
Dispersion correction            ... done
FINAL SINGLE POINT ENERGY     -1226.385871990254
FINAL SINGLE POINT ENERGY     -1226.385437379686
FINAL SINGLE POINT ENERGY     -1226.385898788279
FINAL SINGLE POINT ENERGY     -1226.385915066014
FINAL SINGLE POINT ENERGY     -1226.385771707480
FINAL SINGLE POINT ENERGY     -1226.386049495945
FINAL SINGLE POINT ENERGY     -1226.386119624000
FINAL SINGLE POINT ENERGY     -1226.386178662956
FINAL SINGLE POINT ENERGY     -1226.386206909607
Dispersion correction            ... done
Dispersion correction           -0.029137940
FINAL SINGLE POINT ENERGY     -1226.386223064419
Dispersion correction            ... done
Dispersion correction           -0.029140408
FINAL SINGLE POINT ENERGY     -1226.386230697027
Dispersion correction            ... done
                    ***********************HURRAY********************

CARTESIAN COORDINATES (ANGSTROEM)
---------------------------------
  C      0.123731    1.240511   -0.003106
  S     -1.075595    0.003314   -0.011120
  C      0.124625   -1.233041   -0.007076
  C      1.395194   -0.714390    0.000550
  C      1.394703    0.722767    0.001210
  C      2.618355    1.596462   -0.045627
  F      2.279806    2.887559    0.115073
  F      3.500035    1.278189    0.915964
  F      3.261824    1.491428   -1.218780
  C      2.619066   -1.587164    0.056894
  F      2.282014   -2.879355   -0.097913
  F      3.503791   -1.273328   -0.903528
  F      3.258296   -1.475590    1.231655
  H     -0.157661    2.291466   -0.004909
  H     -0.155944   -2.284210   -0.007028

 Multiplicity           Mult            ....    1
 Number of Electrons    NEL             ....  108
 Basis Dimension        Dim             ....  196

ORBITAL ENERGIES
----------------

  NO   OCC          E(Eh)            E(eV)
   0   2.0000     -88.912886     -2419.4426
   1   2.0000     -24.728081      -672.8853
   2   2.0000     -24.728066      -672.8849
   3   2.0000     -24.723467      -672.7597
   4   2.0000     -24.723432      -672.7588
   5   2.0000     -24.721443      -672.7047
   6   2.0000     -24.721380      -672.7029
   7   2.0000     -10.446907      -284.2748
   8   2.0000     -10.446849      -284.2732
   9   2.0000     -10.251842      -278.9668
  10   2.0000     -10.251792      -278.9655
  11   2.0000     -10.240402      -278.6555
  12   2.0000     -10.240215      -278.6504
  13   2.0000      -8.008062      -217.9104
  14   2.0000      -5.976042      -162.6164
  15   2.0000      -5.971865      -162.5027
  16   2.0000      -5.969696      -162.4437
  17   2.0000      -1.306591       -35.5542
  18   2.0000      -1.304005       -35.4838
  19   2.0000      -1.215711       -33.0812
  20   2.0000      -1.213635       -33.0247
  21   2.0000      -1.211121       -32.9563
  22   2.0000      -1.208511       -32.8853
  23   2.0000      -0.924229       -25.1495
  24   2.0000      -0.805430       -21.9169
  25   2.0000      -0.787186       -21.4204
  26   2.0000      -0.705467       -19.1967
  27   2.0000      -0.695507       -18.9257
  28   2.0000      -0.628375       -17.0990
  29   2.0000      -0.625235       -17.0135
  30   2.0000      -0.611233       -16.6325
  31   2.0000      -0.600266       -16.3341
  32   2.0000      -0.597359       -16.2550
  33   2.0000      -0.595951       -16.2167
  34   2.0000      -0.584910       -15.9162
  35   2.0000      -0.517874       -14.0921
  36   2.0000      -0.481743       -13.1089
  37   2.0000      -0.479885       -13.0583
  38   2.0000      -0.473979       -12.8976
  39   2.0000      -0.473844       -12.8939
  40   2.0000      -0.470065       -12.7911
  41   2.0000      -0.448207       -12.1963
  42   2.0000      -0.446184       -12.1413
  43   2.0000      -0.444417       -12.0932
  44   2.0000      -0.431211       -11.7338
  45   2.0000      -0.424126       -11.5411
  46   2.0000      -0.417155       -11.3514
  47   2.0000      -0.415817       -11.3150
  48   2.0000      -0.413489       -11.2516
  49   2.0000      -0.411715       -11.2033
  50   2.0000      -0.396626       -10.7928
  51   2.0000      -0.378386       -10.2964
  52   2.0000      -0.294529        -8.0146
  53   2.0000      -0.283514        -7.7148
  54   0.0000      -0.056521        -1.5380
  55   0.0000      -0.010641        -0.2895
  56   0.0000       0.013061         0.3554
  57   0.0000       0.068138         1.8541
  58   0.0000       0.089739         2.4419

MULLIKEN ATOMIC CHARGES
-----------------------
   0 C :   -0.110691
   1 S :    0.149823
   2 C :   -0.110709
   3 C :   -0.084082
   4 C :   -0.084036
   5 C :    0.562027
   6 F :   -0.167125
   7 F :   -0.164227
   8 F :   -0.160117
   9 C :    0.562086
  10 F :   -0.167086
  11 F :   -0.164403
  12 F :   -0.160061
  13 H :    0.049307
  14 H :    0.049293
Sum of atomic charges:   -0.0000000

LOEWDIN ATOMIC CHARGES
----------------------
   0 C :   -0.161888
   1 S :    0.478038
   2 C :   -0.161932
   3 C :   -0.109023
   4 C :   -0.109034
   5 C :    0.168967
   6 F :   -0.059676
   7 F :   -0.056753
   8 F :   -0.057268
   9 C :    0.168953
  10 F :   -0.059644
  11 F :   -0.056941
  12 F :   -0.057132
  13 H :    0.036667
  14 H :    0.036665

  Mayer bond orders larger than 0.100000
B(  0-C ,  1-S ) :   1.1874 B(  0-C ,  4-C ) :   1.5714 B(  0-C , 13-H ) :   0.9651
B(  1-S ,  2-C ) :   1.1873 B(  2-C ,  3-C ) :   1.5715 B(  2-C , 14-H ) :   0.9651
B(  3-C ,  4-C ) :   1.2798 B(  3-C ,  9-C ) :   0.9514 B(  4-C ,  5-C ) :   0.9512
B(  5-C ,  6-F ) :   1.1442 B(  5-C ,  7-F ) :   1.1420 B(  5-C ,  8-F ) :   1.1706
B(  9-C , 10-F ) :   1.1442 B(  9-C , 11-F ) :   1.1418 B(  9-C , 12-F ) :   1.1705

Dispersion correction           -0.029140447
FINAL SINGLE POINT ENERGY     -1226.386233446994

DIPOLE MOMENT
-------------
                                X             Y             Z
Electronic contribution:      8.70100       0.00318       0.03673
Nuclear contribution   :    -10.13727      -0.00380      -0.04226
                        -----------------------------------------
Total Dipole Moment    :     -1.43626      -0.00062      -0.00553
                        -----------------------------------------
Magnitude (a.u.)       :      1.43627
Magnitude (Debye)      :      3.65072

Rotational constants in cm-1:     0.026013     0.025126     0.014762
Rotational constants in MHz :   779.851805   753.259921   442.560883

                             ****ORCA TERMINATED NORMALLY****
TOTAL RUN TIME: 0 days 0 hours 13 minutes 15 seconds 242 msec
