                         Program Version 4.2.0 -  RELEASE  -
|  1> # ORCA input file
|  2> # SCF done        -47.065533211234          0.000405999884
|  3> ! B3LYP/G D3BJ Opt RIJCOSX def2-SVP def2/J
|  4> * xyz 0 1
|  5>    C        3.17687        -1.72686        -1.21099
|  6>    C        2.85557        -0.47212        -0.70032
|  7>    O        3.89074         0.33017        -0.27731
|  8>    C        3.83497         0.76578         1.07514
|  9>    C        4.06696        -0.38385         2.04981
| 10>    C        1.52374        -0.05188        -0.68536
| 11>    O        1.15044         1.19207        -0.21464
| 12>    C        1.54953         2.28242        -1.03280
| 13>    C        0.83312         2.29212        -2.37793
| 14>    C        0.51097        -0.92031        -1.13453
| 15>    O       -0.74666        -0.40536        -1.08861
| 16>    C       -1.85696        -1.23642        -1.34887
| 17>    C       -2.15467        -2.19811        -0.20206
| 18>    C        0.85324        -2.17738        -1.61636
| 19>    C        2.18209        -2.56313        -1.66896
| 20>    H        4.21372        -2.02183        -1.23247
| 21>    H        2.87685         1.24966         1.29096
| 22>    H        4.63683         1.50440         1.15634
| 23>    H        3.26379        -1.11347         1.96686
| 24>    H        4.09427        -0.00321         3.06708
| 25>    H        5.01042        -0.87821         1.82985
| 26>    H        2.63637         2.26911        -1.18679
| 27>    H        1.28307         3.16940        -0.45190
| 28>    H        1.12637         1.42623        -2.96874
| 29>    H        1.08961         3.19572        -2.92462
| 30>    H       -0.24214         2.25762        -2.22272
| 31>    H       -1.72501        -1.78171        -2.29230
| 32>    H       -2.69008        -0.53842        -1.47149
| 33>    H       -1.33132        -2.89259        -0.05372
| 34>    H       -3.05825        -2.76125        -0.41963
| 35>    H       -2.29928        -1.63641         0.71735
| 36>    H        0.09678        -2.85649        -1.97550
| 37>    H        2.43560        -3.53643        -2.06112
| 38> *
| 39>
| 40>                          ****END OF INPUT****
 Total Charge           Charge          ....    0
 Multiplicity           Mult            ....    1
 Number of Electrons    NEL             ....  114
Dispersion correction           -0.058997555
FINAL SINGLE POINT ENERGY      -693.307574262805
Dispersion correction            ... done
Dispersion correction           -0.058482703
FINAL SINGLE POINT ENERGY      -693.310199090108
Dispersion correction            ... done
Dispersion correction           -0.058318574
FINAL SINGLE POINT ENERGY      -693.310458959841
Dispersion correction            ... done
FINAL SINGLE POINT ENERGY      -693.310263336104
FINAL SINGLE POINT ENERGY      -693.310413058999
FINAL SINGLE POINT ENERGY      -693.310444518208
FINAL SINGLE POINT ENERGY      -693.310414859817
FINAL SINGLE POINT ENERGY      -693.310367526618
FINAL SINGLE POINT ENERGY      -693.310158611788
FINAL SINGLE POINT ENERGY      -693.309983386547
FINAL SINGLE POINT ENERGY      -693.310234958392
FINAL SINGLE POINT ENERGY      -693.310233129754
FINAL SINGLE POINT ENERGY      -693.310193162019
FINAL SINGLE POINT ENERGY      -693.310215567445
FINAL SINGLE POINT ENERGY      -693.310224591338
FINAL SINGLE POINT ENERGY      -693.310233354420
FINAL SINGLE POINT ENERGY      -693.310231096585
Dispersion correction            ... done
Dispersion correction           -0.058480968
FINAL SINGLE POINT ENERGY      -693.310219979115
Dispersion correction            ... done
Dispersion correction           -0.058480141
FINAL SINGLE POINT ENERGY      -693.310225669341
Dispersion correction            ... done
                    ***********************HURRAY********************

CARTESIAN COORDINATES (ANGSTROEM)
---------------------------------
  C      3.187962   -1.688312   -1.217216
  C      2.830308   -0.425408   -0.725805
  O      3.819613    0.433076   -0.328325
  C      3.851585    0.778347    1.062423
  C      4.180419   -0.411279    1.946659
  C      1.479807   -0.039949   -0.674824
  O      1.090063    1.177466   -0.196238
  C      1.468326    2.335746   -0.952110
  C      0.964603    2.300693   -2.385509
  C      0.480121   -0.943804   -1.108227
  O     -0.787494   -0.463800   -1.075263
  C     -1.886355   -1.311270   -1.372535
  C     -2.294563   -2.169206   -0.183847
  C      0.845830   -2.217048   -1.565967
  C      2.196938   -2.573413   -1.630482
  H      4.246144   -1.952309   -1.251603
  H      2.893026    1.233449    1.361147
  H      4.632925    1.548944    1.140760
  H      3.390052   -1.175881    1.896409
  H      4.275228   -0.081984    2.994102
  H      5.129441   -0.878399    1.638724
  H      2.565364    2.453316   -0.929806
  H      1.021930    3.176300   -0.400514
  H      1.405987    1.456540   -2.936785
  H      1.252287    3.226630   -2.909253
  H     -0.130574    2.197102   -2.417439
  H     -1.672332   -1.932022   -2.259909
  H     -2.702313   -0.626077   -1.648389
  H     -1.480548   -2.840262    0.128288
  H     -3.168630   -2.788509   -0.441519
  H     -2.559012   -1.530291    0.672127
  H      0.087687   -2.928074   -1.889209
  H      2.473726   -3.561052   -2.006214

 Multiplicity           Mult            ....    1
 Number of Electrons    NEL             ....  114
 Basis Dimension        Dim             ....  300

ORBITAL ENERGIES
----------------

  NO   OCC          E(Eh)            E(eV)
   0   2.0000     -19.158031      -521.3165
   1   2.0000     -19.143330      -520.9165
   2   2.0000     -19.141125      -520.8565
   3   2.0000     -10.245060      -278.7822
   4   2.0000     -10.244491      -278.7668
   5   2.0000     -10.235146      -278.5125
   6   2.0000     -10.231985      -278.4265
   7   2.0000     -10.230740      -278.3926
   8   2.0000     -10.230552      -278.3875
   9   2.0000     -10.187456      -277.2148
  10   2.0000     -10.187280      -277.2100
  11   2.0000     -10.182554      -277.0814
  12   2.0000     -10.178914      -276.9823
  13   2.0000     -10.177281      -276.9379
  14   2.0000     -10.176048      -276.9044
  15   2.0000      -1.059379       -28.8272
  16   2.0000      -1.043600       -28.3978
  17   2.0000      -1.022891       -27.8343
  18   2.0000      -0.837608       -22.7925
  19   2.0000      -0.771158       -20.9843
  20   2.0000      -0.757771       -20.6200
  21   2.0000      -0.747928       -20.3522
  22   2.0000      -0.716041       -19.4845
  23   2.0000      -0.710139       -19.3239
  24   2.0000      -0.645836       -17.5741
  25   2.0000      -0.639448       -17.4003
  26   2.0000      -0.618255       -16.8236
  27   2.0000      -0.581590       -15.8259
  28   2.0000      -0.565213       -15.3802
  29   2.0000      -0.531065       -14.4510
  30   2.0000      -0.505720       -13.7613
  31   2.0000      -0.498222       -13.5573
  32   2.0000      -0.485404       -13.2085
  33   2.0000      -0.480243       -13.0681
  34   2.0000      -0.463504       -12.6126
  35   2.0000      -0.458582       -12.4786
  36   2.0000      -0.447891       -12.1877
  37   2.0000      -0.445826       -12.1316
  38   2.0000      -0.431258       -11.7351
  39   2.0000      -0.426214       -11.5979
  40   2.0000      -0.399311       -10.8658
  41   2.0000      -0.390606       -10.6289
  42   2.0000      -0.386984       -10.5304
  43   2.0000      -0.382242       -10.4013
  44   2.0000      -0.376645       -10.2490
  45   2.0000      -0.374778       -10.1982
  46   2.0000      -0.370328       -10.0771
  47   2.0000      -0.361986        -9.8501
  48   2.0000      -0.359273        -9.7763
  49   2.0000      -0.339053        -9.2261
  50   2.0000      -0.332732        -9.0541
  51   2.0000      -0.316460        -8.6113
  52   2.0000      -0.311051        -8.4641
  53   2.0000      -0.295215        -8.0332
  54   2.0000      -0.259979        -7.0744
  55   2.0000      -0.226826        -6.1723
  56   2.0000      -0.213824        -5.8185
  57   0.0000      -0.000559        -0.0152
  58   0.0000       0.009476         0.2579
  59   0.0000       0.057842         1.5740
  60   0.0000       0.064907         1.7662
  61   0.0000       0.072025         1.9599

MULLIKEN ATOMIC CHARGES
-----------------------
   0 C :   -0.029879
   1 C :    0.137047
   2 O :   -0.349461
   3 C :    0.186504
   4 C :   -0.020416
   5 C :    0.096835
   6 O :   -0.340363
   7 C :    0.197491
   8 C :   -0.024682
   9 C :    0.190610
  10 O :   -0.309636
  11 C :    0.182010
  12 C :   -0.016402
  13 C :   -0.093501
  14 C :    0.028882
  15 H :   -0.037640
  16 H :    0.019214
  17 H :    0.010598
  18 H :    0.034896
  19 H :    0.012016
  20 H :    0.014841
  21 H :    0.017681
  22 H :    0.002945
  23 H :    0.029589
  24 H :    0.009139
  25 H :    0.027230
  26 H :    0.005191
  27 H :    0.011999
  28 H :    0.023586
  29 H :    0.014725
  30 H :    0.028488
  31 H :   -0.034426
  32 H :   -0.025109
Sum of atomic charges:   -0.0000000

LOEWDIN ATOMIC CHARGES
----------------------
   0 C :   -0.064505
   1 C :    0.025029
   2 O :   -0.128955
   3 C :    0.085917
   4 C :   -0.070776
   5 C :   -0.008800
   6 O :   -0.121497
   7 C :    0.088352
   8 C :   -0.071287
   9 C :    0.039846
  10 O :   -0.092615
  11 C :    0.084510
  12 C :   -0.069090
  13 C :   -0.088724
  14 C :   -0.023823
  15 H :    0.027451
  16 H :    0.009956
  17 H :    0.018553
  18 H :    0.029034
  19 H :    0.029199
  20 H :    0.024480
  21 H :    0.008183
  22 H :    0.018047
  23 H :    0.028415
  24 H :    0.028263
  25 H :    0.027374
  26 H :    0.008119
  27 H :    0.022843
  28 H :    0.026714
  29 H :    0.029414
  30 H :    0.030320
  31 H :    0.024011
  32 H :    0.026043

  Mayer bond orders larger than 0.100000
B(  0-C ,  1-C ) :   1.3629 B(  0-C , 14-C ) :   1.3414 B(  0-C , 15-H ) :   0.9990
B(  1-C ,  2-O ) :   1.0761 B(  1-C ,  5-C ) :   1.3360 B(  2-O ,  3-C ) :   0.9327
B(  3-C ,  4-C ) :   1.1116 B(  3-C , 16-H ) :   0.9419 B(  3-C , 17-H ) :   0.9570
B(  4-C , 18-H ) :   0.9659 B(  4-C , 19-H ) :   0.9576 B(  4-C , 20-H ) :   0.9623
B(  5-C ,  6-O ) :   1.1320 B(  5-C ,  9-C ) :   1.3195 B(  6-O ,  7-C ) :   0.9331
B(  7-C ,  8-C ) :   1.1153 B(  7-C , 21-H ) :   0.9458 B(  7-C , 22-H ) :   0.9538
B(  8-C , 23-H ) :   0.9619 B(  8-C , 24-H ) :   0.9565 B(  8-C , 25-H ) :   0.9633
B(  9-C , 10-O ) :   1.1537 B(  9-C , 13-C ) :   1.3183 B( 10-O , 11-C ) :   0.9580
B( 11-C , 12-C ) :   1.1168 B( 11-C , 26-H ) :   0.9431 B( 11-C , 27-H ) :   0.9511
B( 12-C , 28-H ) :   0.9647 B( 12-C , 29-H ) :   0.9594 B( 12-C , 30-H ) :   0.9631
B( 13-C , 14-C ) :   1.3272 B( 13-C , 31-H ) :   0.9951 B( 14-C , 32-H ) :   0.9805

Dispersion correction           -0.058480235
FINAL SINGLE POINT ENERGY      -693.310225774680

DIPOLE MOMENT
-------------
                                X             Y             Z
Electronic contribution:      2.99454      -0.64128      -2.61651
Nuclear contribution   :     -3.42278       0.40818       2.62030
                        -----------------------------------------
Total Dipole Moment    :     -0.42824      -0.23310       0.00378
                        -----------------------------------------
Magnitude (a.u.)       :      0.48759
Magnitude (Debye)      :      1.23934

Rotational constants in cm-1:     0.026575     0.014646     0.011986
Rotational constants in MHz :   796.701072   439.069586   359.336237

                             ****ORCA TERMINATED NORMALLY****
TOTAL RUN TIME: 0 days 1 hours 18 minutes 26 seconds 758 msec
