                         Program Version 4.2.0 -  RELEASE  -
|  1> # ORCA input file
|  2> # SCF done        -24.959015680264          0.000601683556
|  3> ! B3LYP/G D3BJ Opt RIJCOSX def2-SVP def2/J
|  4> * xyz 0 1
|  5>    N       -0.78767         1.12396         0.46386
|  6>    C        0.05523         0.70633        -0.64828
|  7>    C        1.50957         1.09538        -0.41911
|  8>    S        2.39547        -0.36786         0.23697
|  9>    C        0.85705        -1.28837         0.50660
| 10>    C       -0.08494        -0.82640        -0.60091
| 11>    N       -1.47895        -1.13751        -0.34220
| 12>    S       -2.29358         0.29246         0.19667
| 13>    H       -0.95836         2.12315         0.48708
| 14>    H       -0.30488         1.09000        -1.61537
| 15>    H        1.58995         1.90359         0.30717
| 16>    H        2.00208         1.38665        -1.34473
| 17>    H        0.45576        -1.02331         1.48717
| 18>    H        1.07561        -2.35305         0.46453
| 19>    H        0.20650        -1.27384        -1.55830
| 20>    H       -1.56799        -1.87255         0.35273
| 21> *
| 22>
| 23>                          ****END OF INPUT****
 Total Charge           Charge          ....    0
 Multiplicity           Mult            ....    1
 Number of Electrons    NEL             ....   78
 Basis Dimension        Dim             ....  160

ORBITAL ENERGIES
----------------

  NO   OCC          E(Eh)            E(eV)
   0   2.0000     -88.873472     -2418.3701
   1   2.0000     -88.826427     -2417.0900
   2   2.0000     -14.340720      -390.2308
   3   2.0000     -14.338898      -390.1813
   4   2.0000     -10.234667      -278.4995
   5   2.0000     -10.231457      -278.4121
   6   2.0000     -10.214820      -277.9594
   7   2.0000     -10.209305      -277.8093
   8   2.0000      -7.965493      -216.7521
   9   2.0000      -7.922524      -215.5828
  10   2.0000      -5.936966      -161.5531
  11   2.0000      -5.932027      -161.4187
  12   2.0000      -5.921069      -161.1205
  13   2.0000      -5.892159      -160.3338
  14   2.0000      -5.888108      -160.2236
  15   2.0000      -5.880470      -160.0157
  16   2.0000      -0.969502       -26.3815
  17   2.0000      -0.873119       -23.7588
  18   2.0000      -0.833945       -22.6928
  19   2.0000      -0.725165       -19.7327
  20   2.0000      -0.720859       -19.6156
  21   2.0000      -0.642909       -17.4944
  22   2.0000      -0.591015       -16.0823
  23   2.0000      -0.577622       -15.7179
  24   2.0000      -0.530989       -14.4489
  25   2.0000      -0.504975       -13.7411
  26   2.0000      -0.468179       -12.7398
  27   2.0000      -0.452615       -12.3163
  28   2.0000      -0.426650       -11.6097
  29   2.0000      -0.401627       -10.9288
  30   2.0000      -0.393788       -10.7155
  31   2.0000      -0.379308       -10.3215
  32   2.0000      -0.370178       -10.0730
  33   2.0000      -0.347653        -9.4601
  34   2.0000      -0.341735        -9.2991
  35   2.0000      -0.292218        -7.9517
  36   2.0000      -0.266357        -7.2479
  37   2.0000      -0.219272        -5.9667
  38   2.0000      -0.186966        -5.0876
  39   0.0000      -0.007599        -0.2068
  40   0.0000       0.035834         0.9751
  41   0.0000       0.049416         1.3447
  42   0.0000       0.065685         1.7874
  43   0.0000       0.078068         2.1244

MULLIKEN ATOMIC CHARGES
-----------------------
   0 N :   -0.358520
   1 C :   -0.008809
   2 C :    0.072940
   3 S :   -0.129767
   4 C :    0.023446
   5 C :    0.085409
   6 N :   -0.324891
   7 S :    0.212699
   8 H :    0.124994
   9 H :    0.001308
  10 H :    0.036395
  11 H :    0.039320
  12 H :    0.043017
  13 H :    0.043305
  14 H :    0.008351
  15 H :    0.130801
Sum of atomic charges:    0.0000000

LOEWDIN ATOMIC CHARGES
----------------------
   0 N :   -0.236525
   1 C :   -0.014906
   2 C :   -0.121083
   3 S :    0.200712
   4 C :   -0.134087
   5 C :   -0.011263
   6 N :   -0.224710
   7 S :    0.333345
   8 H :    0.051084
   9 H :    0.005409
  10 H :    0.021740
  11 H :    0.022024
  12 H :    0.015988
  13 H :    0.021634
  14 H :    0.020936
  15 H :    0.049701

  Mayer bond orders larger than 0.100000
B(  0-N ,  1-C ) :   0.9213 B(  0-N ,  7-S ) :   0.9525 B(  0-N ,  8-H ) :   0.9320
B(  1-C ,  2-C ) :   1.0476 B(  1-C ,  5-C ) :   1.0649 B(  1-C ,  9-H ) :   0.9050
B(  2-C ,  3-S ) :   0.9935 B(  2-C , 10-H ) :   0.9327 B(  2-C , 11-H ) :   0.9426
B(  3-S ,  4-C ) :   1.0091 B(  4-C ,  5-C ) :   0.9889 B(  4-C , 12-H ) :   0.9365
B(  4-C , 13-H ) :   0.9447 B(  5-C ,  6-N ) :   1.0331 B(  5-C , 14-H ) :   0.9167
B(  6-N ,  7-S ) :   0.9820 B(  6-N , 15-H ) :   0.9438

Dispersion correction           -0.035051720
FINAL SINGLE POINT ENERGY     -1062.684524260487
Dispersion correction            ... done
Dispersion correction           -0.034757899
FINAL SINGLE POINT ENERGY     -1062.686918476571
Dispersion correction            ... done
Dispersion correction           -0.034637434
FINAL SINGLE POINT ENERGY     -1062.687715369127
Dispersion correction            ... done
FINAL SINGLE POINT ENERGY     -1062.688161757379
FINAL SINGLE POINT ENERGY     -1062.688491928416
FINAL SINGLE POINT ENERGY     -1062.688753325231
FINAL SINGLE POINT ENERGY     -1062.689053153456
FINAL SINGLE POINT ENERGY     -1062.689343347905
FINAL SINGLE POINT ENERGY     -1062.689663968729
FINAL SINGLE POINT ENERGY     -1062.689979427513
FINAL SINGLE POINT ENERGY     -1062.699647088578
FINAL SINGLE POINT ENERGY     -1062.699661496017
FINAL SINGLE POINT ENERGY     -1062.699662208850
FINAL SINGLE POINT ENERGY     -1062.699663986816
FINAL SINGLE POINT ENERGY     -1062.699660092972
FINAL SINGLE POINT ENERGY     -1062.699672707844
FINAL SINGLE POINT ENERGY     -1062.699702676485
Dispersion correction           -0.035633074
FINAL SINGLE POINT ENERGY     -1062.699719397982
Dispersion correction            ... done
Dispersion correction           -0.035655510
FINAL SINGLE POINT ENERGY     -1062.699745709750
Dispersion correction            ... done

CARTESIAN COORDINATES (ANGSTROEM)
---------------------------------
  N     -1.048671    1.484223   -0.683182
  C      0.149575    0.658968   -0.762603
  C      1.215100    1.079449    0.253891
  S      2.283244   -0.392039    0.535007
  C      1.022065   -1.600835   -0.095418
  C     -0.241710   -0.809533   -0.400363
  N     -1.102484   -0.701264    0.777677
  S     -2.087000    0.728902    0.567937
  H     -1.567783    1.374729   -1.554814
  H      0.566899    0.713042   -1.780532
  H      0.735007    1.400520    1.190054
  H      1.827528    1.912237   -0.115345
  H      0.833689   -2.371936    0.665072
  H      1.416400   -2.094485   -0.993764
  H     -0.822454   -1.256057   -1.225020
  H     -0.508555   -0.547290    1.595286

Dispersion correction           -0.035667341
FINAL SINGLE POINT ENERGY     -1062.699764815218
Dispersion correction            ... done

DIPOLE MOMENT
-------------
                                X             Y             Z
Electronic contribution:     -2.07436       1.26179       2.73855
Nuclear contribution   :      2.14462      -1.45464      -3.44092
                        -----------------------------------------
Total Dipole Moment    :      0.07025      -0.19285      -0.70237
                        -----------------------------------------
Magnitude (a.u.)       :      0.73175
Magnitude (Debye)      :      1.85995

Rotational constants in cm-1:     0.104066     0.036795     0.032678
Rotational constants in MHz :  3119.811459  1103.097154   979.662725

                             ****ORCA TERMINATED NORMALLY****
TOTAL RUN TIME: 0 days 0 hours 35 minutes 16 seconds 116 msec
