                         Program Version 4.2.0 -  RELEASE  -
|  1> # ORCA input file
|  2> # SCF done        -27.271791223167          0.000576752648
|  3> ! B3LYP/G D3BJ Opt RIJCOSX def2-SVP def2/J
|  4> * xyz 0 1
|  5>    C       -1.10519         1.23819         0.16263
|  6>    S       -2.30376         0.01431         0.00940
|  7>    C       -1.11175        -1.21292        -0.16712
|  8>    C        0.14478        -0.69788        -0.10555
|  9>    C        0.14852         0.71950         0.07819
| 10>    O        1.30184         1.44849         0.15166
| 11>    C        2.41669         0.71713        -0.32053
| 12>    C        2.42028        -0.70215         0.25016
| 13>    O        1.29431        -1.43035        -0.20016
| 14>    H       -1.38458         2.26040         0.30844
| 15>    H       -1.39671        -2.23431        -0.30791
| 16>    H        3.30147         1.26857         0.00003
| 17>    H        2.39148         0.66569        -1.41815
| 18>    H        2.41672        -0.65075         1.34807
| 19>    H        3.29705        -1.25608        -0.08770
| 20> *
| 21>
| 22>                          ****END OF INPUT****
 Total Charge           Charge          ....    0
 Multiplicity           Mult            ....    1
 Number of Electrons    NEL             ....   74
Dispersion correction           -0.028056876
FINAL SINGLE POINT ENERGY      -780.481602473197
Dispersion correction            ... done
Dispersion correction           -0.028006328
FINAL SINGLE POINT ENERGY      -780.483137932217
Dispersion correction            ... done
Dispersion correction           -0.027993683
FINAL SINGLE POINT ENERGY      -780.483205720729
Dispersion correction            ... done
FINAL SINGLE POINT ENERGY      -780.483191028513
Dispersion correction            ... done
Dispersion correction           -0.027984359
FINAL SINGLE POINT ENERGY      -780.483178035399
Dispersion correction            ... done
Dispersion correction           -0.027984073
FINAL SINGLE POINT ENERGY      -780.483190025135
Dispersion correction            ... done
                    ***********************HURRAY********************

CARTESIAN COORDINATES (ANGSTROEM)
---------------------------------
  C     -1.129620    1.257186    0.126125
  S     -2.333663    0.014162    0.010274
  C     -1.135467   -1.231981   -0.129375
  C      0.129906   -0.704703   -0.094308
  C      0.133425    0.726440    0.065867
  O      1.290205    1.437443    0.164246
  C      2.432085    0.722735   -0.296195
  C      2.434662   -0.707719    0.225220
  O      1.282617   -1.419010   -0.214774
  H     -1.404489    2.302555    0.244475
  H     -1.415451   -2.276598   -0.242222
  H      3.312408    1.268889    0.071548
  H      2.452821    0.720621   -1.402426
  H      2.474990   -0.705708    1.330894
  H      3.306718   -1.256473   -0.157886

 Multiplicity           Mult            ....    1
 Number of Electrons    NEL             ....   74
 Basis Dimension        Dim             ....  160

ORBITAL ENERGIES
----------------

  NO   OCC          E(Eh)            E(eV)
   0   2.0000     -88.869061     -2418.2501
   1   2.0000     -19.169178      -521.6198
   2   2.0000     -19.169121      -521.6183
   3   2.0000     -10.257623      -279.1241
   4   2.0000     -10.257540      -279.1219
   5   2.0000     -10.246266      -278.8151
   6   2.0000     -10.246007      -278.8080
   7   2.0000     -10.203049      -277.6391
   8   2.0000     -10.203005      -277.6379
   9   2.0000      -7.963601      -216.7006
  10   2.0000      -5.931902      -161.4153
  11   2.0000      -5.927999      -161.3091
  12   2.0000      -5.924513      -161.2142
  13   2.0000      -1.083490       -29.4833
  14   2.0000      -1.047720       -28.5099
  15   2.0000      -0.873278       -23.7631
  16   2.0000      -0.775567       -21.1042
  17   2.0000      -0.729488       -19.8504
  18   2.0000      -0.701173       -19.0799
  19   2.0000      -0.649154       -17.6644
  20   2.0000      -0.587221       -15.9791
  21   2.0000      -0.548925       -14.9370
  22   2.0000      -0.546481       -14.8705
  23   2.0000      -0.499946       -13.6042
  24   2.0000      -0.489754       -13.3269
  25   2.0000      -0.448715       -12.2102
  26   2.0000      -0.444279       -12.0895
  27   2.0000      -0.428229       -11.6527
  28   2.0000      -0.409491       -11.1428
  29   2.0000      -0.401402       -10.9227
  30   2.0000      -0.392169       -10.6714
  31   2.0000      -0.352275        -9.5859
  32   2.0000      -0.340855        -9.2751
  33   2.0000      -0.326843        -8.8938
  34   2.0000      -0.308073        -8.3831
  35   2.0000      -0.221271        -6.0211
  36   2.0000      -0.217262        -5.9120
  37   0.0000      -0.008754        -0.2382
  38   0.0000       0.049357         1.3431
  39   0.0000       0.052110         1.4180
  40   0.0000       0.076283         2.0758
  41   0.0000       0.087103         2.3702

MULLIKEN ATOMIC CHARGES
-----------------------
   0 C :   -0.164806
   1 S :    0.088216
   2 C :   -0.164372
   3 C :    0.177887
   4 C :    0.177637
   5 O :   -0.313572
   6 C :    0.195155
   7 C :    0.195361
   8 O :   -0.313626
   9 H :    0.017884
  10 H :    0.017836
  11 H :    0.018690
  12 H :    0.024692
  13 H :    0.024312
  14 H :    0.018708
Sum of atomic charges:   -0.0000000

LOEWDIN ATOMIC CHARGES
----------------------
   0 C :   -0.228900
   1 S :    0.420798
   2 C :   -0.228797
   3 C :   -0.021756
   4 C :   -0.021753
   5 O :   -0.111286
   6 C :    0.075476
   7 C :    0.075508
   8 O :   -0.111347
   9 H :    0.027170
  10 H :    0.027162
  11 H :    0.029755
  12 H :    0.019135
  13 H :    0.019054
  14 H :    0.029779

  Mayer bond orders larger than 0.100000
B(  0-C ,  1-S ) :   1.1363 B(  0-C ,  4-C ) :   1.5307 B(  0-C ,  9-H ) :   0.9691
B(  1-S ,  2-C ) :   1.1363 B(  2-C ,  3-C ) :   1.5307 B(  2-C , 10-H ) :   0.9690
B(  3-C ,  4-C ) :   1.1818 B(  3-C ,  8-O ) :   1.1073 B(  4-C ,  5-O ) :   1.1074
B(  5-O ,  6-C ) :   0.9617 B(  6-C ,  7-C ) :   1.0779 B(  6-C , 11-H ) :   0.9457
B(  6-C , 12-H ) :   0.9381 B(  7-C ,  8-O ) :   0.9620 B(  7-C , 13-H ) :   0.9381
B(  7-C , 14-H ) :   0.9456

Dispersion correction           -0.027983400
FINAL SINGLE POINT ENERGY      -780.483191677794

DIPOLE MOMENT
-------------
                                X             Y             Z
Electronic contribution:     -7.11456       0.00999       0.06581
Nuclear contribution   :      7.91477      -0.01140      -0.07303
                        -----------------------------------------
Total Dipole Moment    :      0.80021      -0.00141      -0.00722
                        -----------------------------------------
Magnitude (a.u.)       :      0.80025
Magnitude (Debye)      :      2.03406

Rotational constants in cm-1:     0.113050     0.037847     0.029005
Rotational constants in MHz :  3389.140624  1134.634295   869.541875

                             ****ORCA TERMINATED NORMALLY****
TOTAL RUN TIME: 0 days 0 hours 4 minutes 27 seconds 131 msec
