                         Program Version 4.2.0 -  RELEASE  -
|  1> # ORCA input file
|  2> # SCF done        -29.695865799780          0.000725614911
|  3> ! B3LYP/G D3BJ Opt RIJCOSX def2-SVP def2/J
|  4> * xyz 0 1
|  5>    C        1.69583         0.58755         0.39031
|  6>    C        1.84419         0.59421        -0.98809
|  7>    C        2.26320        -0.70006        -1.40166
|  8>    C        2.55394        -1.22087        -2.65118
|  9>    C        2.94818        -2.55534        -2.71844
| 10>    C        3.31083        -3.37510        -3.80836
| 11>    C        3.62530        -4.64678        -3.32232
| 12>    C        3.47077        -4.65522        -1.94463
| 13>    C        3.04838        -3.36194        -1.53144
| 14>    C        2.75868        -2.84083        -0.28181
| 15>    C        2.36509        -1.50615        -0.21445
| 16>    C        2.00918        -0.68447         0.87622
| 17>    H        1.38965         1.42426         0.99147
| 18>    H        1.67400         1.43125        -1.64131
| 19>    H        2.47907        -0.61578        -3.54469
| 20>    H        3.34008        -3.06959        -4.83906
| 21>    H        3.93710        -5.48187        -3.92286
| 22>    H        3.63970        -5.49262        -1.29153
| 23>    H        2.83472        -3.44558         0.61184
| 24>    H        1.98486        -0.98857         1.90745
| 25> *
| 26>
| 27>                          ****END OF INPUT****
 Total Charge           Charge          ....    0
 Multiplicity           Mult            ....    1
 Number of Electrons    NEL             ....   80
Dispersion correction           -0.042578773
FINAL SINGLE POINT ENERGY      -461.739035819020
Dispersion correction            ... done
Dispersion correction           -0.042532030
FINAL SINGLE POINT ENERGY      -461.742479665120
Dispersion correction            ... done
Dispersion correction           -0.042530078
FINAL SINGLE POINT ENERGY      -461.742543069036
Dispersion correction            ... done
FINAL SINGLE POINT ENERGY      -461.742547109378
FINAL SINGLE POINT ENERGY      -461.742548494830
FINAL SINGLE POINT ENERGY      -461.742549213736
FINAL SINGLE POINT ENERGY      -461.742549970180
FINAL SINGLE POINT ENERGY      -461.742560240541
Dispersion correction            ... done
Dispersion correction           -0.042539537
FINAL SINGLE POINT ENERGY      -461.742599216234
Dispersion correction            ... done
Dispersion correction           -0.042537314
FINAL SINGLE POINT ENERGY      -461.742617463531
Dispersion correction            ... done
                    ***********************HURRAY********************

CARTESIAN COORDINATES (ANGSTROEM)
---------------------------------
  C      1.684256    0.625846    0.398427
  C      1.836306    0.637738   -0.981655
  C      2.265352   -0.676127   -1.404144
  C      2.553818   -1.207684   -2.649437
  C      2.951139   -2.567142   -2.725355
  C      3.308108   -3.378430   -3.814216
  C      3.632636   -4.686307   -3.330916
  C      3.480739   -4.698149   -1.950817
  C      3.052580   -3.384025   -1.528241
  C      2.764156   -2.852458   -0.282945
  C      2.366762   -1.493020   -0.207039
  C      2.008863   -0.682016    0.881730
  H      1.364726    1.464316    1.016017
  H      1.657876    1.485859   -1.643474
  H      2.476082   -0.601238   -3.556989
  H      3.337803   -3.059251   -4.857754
  H      3.951783   -5.524892   -3.948547
  H      3.659040   -5.546309   -1.289014
  H      2.841765   -3.458950    0.624587
  H      1.978959   -1.001260    1.925240

 Multiplicity           Mult            ....    1
 Number of Electrons    NEL             ....   80
 Basis Dimension        Dim             ....  208

ORBITAL ENERGIES
----------------

  NO   OCC          E(Eh)            E(eV)
   0   2.0000     -10.217124      -278.0221
   1   2.0000     -10.217019      -278.0192
   2   2.0000     -10.204069      -277.6668
   3   2.0000     -10.204058      -277.6665
   4   2.0000     -10.197778      -277.4957
   5   2.0000     -10.197766      -277.4953
   6   2.0000     -10.184389      -277.1313
   7   2.0000     -10.184387      -277.1313
   8   2.0000     -10.182581      -277.0821
   9   2.0000     -10.182532      -277.0808
  10   2.0000     -10.181656      -277.0570
  11   2.0000     -10.181604      -277.0555
  12   2.0000      -0.882652       -24.0182
  13   2.0000      -0.855069       -23.2676
  14   2.0000      -0.781253       -21.2590
  15   2.0000      -0.764412       -20.8007
  16   2.0000      -0.700385       -19.0584
  17   2.0000      -0.683777       -18.6065
  18   2.0000      -0.652272       -17.7492
  19   2.0000      -0.610134       -16.6026
  20   2.0000      -0.564083       -15.3495
  21   2.0000      -0.547222       -14.8907
  22   2.0000      -0.534171       -14.5355
  23   2.0000      -0.509736       -13.8706
  24   2.0000      -0.494258       -13.4495
  25   2.0000      -0.464017       -12.6266
  26   2.0000      -0.436853       -11.8874
  27   2.0000      -0.408776       -11.1233
  28   2.0000      -0.403912       -10.9910
  29   2.0000      -0.399423       -10.8688
  30   2.0000      -0.392661       -10.6848
  31   2.0000      -0.388762       -10.5787
  32   2.0000      -0.374399       -10.1879
  33   2.0000      -0.363011        -9.8780
  34   2.0000      -0.361879        -9.8472
  35   2.0000      -0.330809        -9.0018
  36   2.0000      -0.291860        -7.9419
  37   2.0000      -0.279726        -7.6117
  38   2.0000      -0.210394        -5.7251
  39   2.0000      -0.198618        -5.4047
  40   0.0000      -0.120133        -3.2690
  41   0.0000      -0.025486        -0.6935
  42   0.0000       0.063948         1.7401
  43   0.0000       0.071033         1.9329
  44   0.0000       0.076449         2.0803

MULLIKEN ATOMIC CHARGES
-----------------------
   0 C :   -0.000380
   1 C :    0.026325
   2 C :    0.032008
   3 C :   -0.004958
   4 C :    0.045007
   5 C :   -0.004794
   6 C :   -0.000378
   7 C :    0.026317
   8 C :    0.032019
   9 C :   -0.004946
  10 C :    0.045019
  11 C :   -0.004786
  12 H :   -0.020342
  13 H :   -0.022490
  14 H :   -0.032239
  15 H :   -0.018155
  16 H :   -0.020340
  17 H :   -0.022489
  18 H :   -0.032239
  19 H :   -0.018159
Sum of atomic charges:   -0.0000000

LOEWDIN ATOMIC CHARGES
----------------------
   0 C :   -0.065263
   1 C :    0.012440
   2 C :   -0.066045
   3 C :    0.062474
   4 C :   -0.071815
   5 C :    0.027529
   6 C :   -0.065264
   7 C :    0.012439
   8 C :   -0.066044
   9 C :    0.062475
  10 C :   -0.071814
  11 C :    0.027533
  12 H :    0.021500
  13 H :    0.023801
  14 H :    0.031184
  15 H :    0.024193
  16 H :    0.021500
  17 H :    0.023801
  18 H :    0.031184
  19 H :    0.024193

  Mayer bond orders larger than 0.100000
B(  0-C ,  1-C ) :   1.4693 B(  0-C , 11-C ) :   1.2269 B(  0-C , 12-H ) :   0.9974
B(  1-C ,  2-C ) :   1.1381 B(  1-C , 13-H ) :   0.9987 B(  2-C ,  3-C ) :   1.3855
B(  2-C , 10-C ) :   1.1738 B(  3-C ,  4-C ) :   1.1864 B(  3-C , 14-H ) :   0.9993
B(  4-C ,  5-C ) :   1.3313 B(  4-C ,  8-C ) :   1.1738 B(  5-C ,  6-C ) :   1.2269
B(  5-C , 15-H ) :   1.0003 B(  6-C ,  7-C ) :   1.4693 B(  6-C , 16-H ) :   0.9974
B(  7-C ,  8-C ) :   1.1381 B(  7-C , 17-H ) :   0.9987 B(  8-C ,  9-C ) :   1.3855
B(  9-C , 10-C ) :   1.1864 B(  9-C , 18-H ) :   0.9993 B( 10-C , 11-C ) :   1.3313
B( 11-C , 19-H ) :   1.0003

Dispersion correction           -0.042537345
FINAL SINGLE POINT ENERGY      -461.742618692785

DIPOLE MOMENT
-------------
                                X             Y             Z
Electronic contribution:      0.00134       0.00041       0.00017
Nuclear contribution   :     -0.00158      -0.00048      -0.00017
                        -----------------------------------------
Total Dipole Moment    :     -0.00024      -0.00007      -0.00000
                        -----------------------------------------
Magnitude (a.u.)       :      0.00025
Magnitude (Debye)      :      0.00063

Rotational constants in cm-1:     0.098824     0.022903     0.018594
Rotational constants in MHz :  2962.661960   686.617090   557.430132

                             ****ORCA TERMINATED NORMALLY****
TOTAL RUN TIME: 0 days 0 hours 15 minutes 35 seconds 997 msec
