                         Program Version 4.2.0 -  RELEASE  -
|  1> # ORCA input file
|  2> # SCF done        -83.396148712179          0.000407221431
|  3> ! B3LYP/G D3BJ Opt RIJCOSX def2-SVP def2/J
|  4> * xyz 0 1
|  5>    C       -2.22930        -0.79726        -2.82706
|  6>    S       -0.97813        -1.89619        -2.34660
|  7>    C       -1.76499         0.38430        -3.27849
|  8>    C       -0.33997         0.46103        -3.26007
|  9>    C        0.45542         1.54669        -3.66725
| 10>    O       -0.22949         2.64859        -4.06648
| 11>    C        0.30692         3.52335        -5.05508
| 12>    C        0.54388         2.78061        -6.37868
| 13>    C       -0.66030         1.96077        -6.83952
| 14>    C       -0.37144         1.24956        -8.15531
| 15>    C       -0.69076         4.68598        -5.17523
| 16>    C       -0.04360         6.05974        -5.00366
| 17>    C        0.89945         6.41443        -6.14718
| 18>    C        0.23958        -0.72460        -2.76476
| 19>    C        1.61178        -0.89720        -2.66463
| 20>    O        2.14462        -2.08007        -2.22791
| 21>    C        2.75941        -2.04992        -0.93834
| 22>    C        1.70354        -2.25127         0.16168
| 23>    C        0.98313        -3.59511         0.10929
| 24>    C       -0.20893        -3.62243         1.05740
| 25>    C        3.90213        -3.08172        -0.90658
| 26>    C        3.70101        -4.27426        -1.84062
| 27>    C        4.86850        -5.24831        -1.74268
| 28>    C        2.41051         0.17195        -3.08726
| 29>    C        3.83874         0.21247        -3.11361
| 30>    C        1.83249         1.37678        -3.56446
| 31>    S        3.09658         2.52317        -3.97632
| 32>    C        4.32864         1.38358        -3.55780
| 33>    H       -3.24945        -1.11596        -2.73869
| 34>    H       -2.38352         1.19390        -3.61973
| 35>    H        1.26717         3.92334        -4.70214
| 36>    H        1.39802         2.10910        -6.26118
| 37>    H        0.80537         3.51809        -7.13898
| 38>    H       -1.52886         2.61058        -6.96150
| 39>    H       -0.90734         1.22018        -6.07679
| 40>    H       -0.14487         1.96943        -8.93925
| 41>    H       -1.23133         0.66124        -8.46670
| 42>    H        0.48021         0.58091        -8.04840
| 43>    H       -1.44459         4.54568        -4.39878
| 44>    H       -1.19559         4.64789        -6.14062
| 45>    H        0.50192         6.08735        -4.05819
| 46>    H       -0.83516         6.81059        -4.95101
| 47>    H        1.72825         5.71276        -6.20025
| 48>    H        1.30755         7.41228        -6.00401
| 49>    H        0.36922         6.39536        -7.09707
| 50>    H        3.19159        -1.04975        -0.77615
| 51>    H        0.96318        -1.45279         0.05739
| 52>    H        2.19094        -2.12410         1.13106
| 53>    H        1.67434        -4.39455         0.38011
| 54>    H        0.63721        -3.76793        -0.91093
| 55>    H       -0.70261        -4.59048         1.01999
| 56>    H       -0.93215        -2.85889         0.78035
| 57>    H        0.11105        -3.43849         2.08115
| 58>    H        4.02189        -3.43188         0.12008
| 59>    H        4.83366        -2.58528        -1.19137
| 60>    H        3.60976        -3.91017        -2.86428
| 61>    H        2.77414        -4.78930        -1.59435
| 62>    H        5.80429        -4.75587        -1.99985
| 63>    H        4.72382        -6.08432        -2.42265
| 64>    H        4.95718        -5.64036        -0.73136
| 65>    H        4.45051        -0.62367        -2.82742
| 66>    H        5.35399         1.67438        -3.67650
| 67> *
| 68>
| 69>                          ****END OF INPUT****
 Total Charge           Charge          ....    0
 Multiplicity           Mult            ....    1
 Number of Electrons    NEL             ....  226
Dispersion correction           -0.139249894
FINAL SINGLE POINT ENERGY     -1880.989083562039
Dispersion correction            ... done
Dispersion correction           -0.137230356
FINAL SINGLE POINT ENERGY     -1880.995063305544
Dispersion correction            ... done
Dispersion correction           -0.137693560
FINAL SINGLE POINT ENERGY     -1880.996178245850
Dispersion correction            ... done
FINAL SINGLE POINT ENERGY     -1880.996792596208
FINAL SINGLE POINT ENERGY     -1880.996534095460
FINAL SINGLE POINT ENERGY     -1880.996347471109
FINAL SINGLE POINT ENERGY     -1880.996062074302
FINAL SINGLE POINT ENERGY     -1880.995531026302
FINAL SINGLE POINT ENERGY     -1880.995009824804
FINAL SINGLE POINT ENERGY     -1880.994679577545
FINAL SINGLE POINT ENERGY     -1880.996144950262
FINAL SINGLE POINT ENERGY     -1880.996153310984
FINAL SINGLE POINT ENERGY     -1880.996173260341
FINAL SINGLE POINT ENERGY     -1880.995774001851
FINAL SINGLE POINT ENERGY     -1880.996143718553
FINAL SINGLE POINT ENERGY     -1880.996053241307
FINAL SINGLE POINT ENERGY     -1880.996175505114
Dispersion correction            ... done
Dispersion correction           -0.143867630
FINAL SINGLE POINT ENERGY     -1880.996049441637
Dispersion correction            ... done
Dispersion correction           -0.143953243
FINAL SINGLE POINT ENERGY     -1880.996054090688
Dispersion correction            ... done
                    ***********************HURRAY********************

CARTESIAN COORDINATES (ANGSTROEM)
---------------------------------
  C     -1.230990   -1.915494   -4.503401
  S      0.204183   -2.789352   -4.008343
  C     -1.119380   -0.564646   -4.366752
  C      0.162054   -0.165236   -3.840447
  C      0.603725    1.133380   -3.516410
  O     -0.286054    2.148241   -3.677199
  C      0.088662    3.376219   -4.341042
  C      0.782233    3.094412   -5.675040
  C     -0.083118    2.413655   -6.735807
  C      0.735841    1.931293   -7.932210
  C     -1.206876    4.183875   -4.389201
  C     -1.064768    5.647587   -4.828796
  C     -1.033535    5.896697   -6.337690
  C      0.999813   -1.284419   -3.594787
  C      2.280708   -1.175724   -3.048553
  O      2.951657   -2.332721   -2.800778
  C      3.601760   -2.585400   -1.534505
  C      2.908372   -1.941576   -0.320105
  C      1.372318   -2.065022   -0.199376
  C      0.713623   -0.736167    0.179236
  C      3.788881   -4.099401   -1.457424
  C      2.532920   -4.949760   -1.259026
  C      2.850287   -6.445417   -1.260793
  C      2.762907    0.124810   -2.802384
  C      4.058879    0.531860   -2.311404
  C      1.901458    1.255977   -3.004670
  S      2.701136    2.744059   -2.506766
  C      4.162112    1.872683   -2.112036
  H     -2.084786   -2.473475   -4.885988
  H     -1.904527    0.147488   -4.616584
  H      0.798111    3.927510   -3.698590
  H      1.665519    2.467197   -5.469581
  H      1.191139    4.042943   -6.061989
  H     -0.869932    3.105772   -7.079262
  H     -0.608335    1.559056   -6.279451
  H      1.263477    2.768030   -8.421265
  H      0.100609    1.447000   -8.690395
  H      1.498569    1.199454   -7.620103
  H     -1.616010    4.149750   -3.367562
  H     -1.939823    3.659748   -5.025007
  H     -0.165348    6.084138   -4.358074
  H     -1.912723    6.210826   -4.405541
  H     -0.133362    5.485612   -6.816648
  H     -1.057113    6.975317   -6.560097
  H     -1.906339    5.439256   -6.831194
  H      4.615882   -2.151714   -1.590547
  H      3.175894   -0.874546   -0.302155
  H      3.398679   -2.373672    0.568629
  H      1.115314   -2.830433    0.550816
  H      0.936939   -2.424029   -1.141547
  H     -0.368248   -0.851740    0.350174
  H      0.851027    0.011731   -0.617497
  H      1.153988   -0.321468    1.101876
  H      4.499444   -4.299928   -0.636765
  H      4.297761   -4.412714   -2.385472
  H      1.803631   -4.711531   -2.049633
  H      2.047928   -4.684961   -0.305572
  H      3.283017   -6.766101   -2.223511
  H      1.949408   -7.051498   -1.077246
  H      3.584199   -6.697850   -0.477345
  H      4.879127   -0.159950   -2.129593
  H      5.027286    2.424299   -1.746797

 Multiplicity           Mult            ....    1
 Number of Electrons    NEL             ....  226
 Basis Dimension        Dim             ....  570

ORBITAL ENERGIES
----------------

  NO   OCC          E(Eh)            E(eV)
   0   2.0000     -88.872057     -2418.3316
   1   2.0000     -88.867056     -2418.1955
   2   2.0000     -19.154732      -521.2268
   3   2.0000     -19.153889      -521.2038
   4   2.0000     -10.249252      -278.8963
   5   2.0000     -10.248876      -278.8861
   6   2.0000     -10.243315      -278.7348
   7   2.0000     -10.241287      -278.6796
   8   2.0000     -10.218439      -278.0579
   9   2.0000     -10.218009      -278.0462
  10   2.0000     -10.213049      -277.9112
  11   2.0000     -10.210405      -277.8392
  12   2.0000     -10.202493      -277.6239
  13   2.0000     -10.199370      -277.5390
  14   2.0000     -10.195805      -277.4420
  15   2.0000     -10.192276      -277.3459
  16   2.0000     -10.188320      -277.2383
  17   2.0000     -10.182652      -277.0841
  18   2.0000     -10.182520      -277.0804
  19   2.0000     -10.181934      -277.0645
  20   2.0000     -10.181476      -277.0521
  21   2.0000     -10.180785      -277.0333
  22   2.0000     -10.179596      -277.0009
  23   2.0000     -10.177160      -276.9346
  24   2.0000     -10.175888      -276.9000
  25   2.0000     -10.175727      -276.8956
  26   2.0000     -10.175599      -276.8921
  27   2.0000     -10.168102      -276.6881
  28   2.0000      -7.966069      -216.7678
  29   2.0000      -7.960922      -216.6277
  30   2.0000      -5.934638      -161.4897
  31   2.0000      -5.930553      -161.3786
  32   2.0000      -5.929400      -161.3472
  33   2.0000      -5.926640      -161.2721
  34   2.0000      -5.925398      -161.2383
  35   2.0000      -5.921598      -161.1349
  36   2.0000      -1.048129       -28.5210
  37   2.0000      -1.046735       -28.4831
  38   2.0000      -0.890036       -24.2191
  39   2.0000      -0.869330       -23.6557
  40   2.0000      -0.814282       -22.1577
  41   2.0000      -0.810189       -22.0464
  42   2.0000      -0.790627       -21.5141
  43   2.0000      -0.771960       -21.0061
  44   2.0000      -0.768165       -20.9028
  45   2.0000      -0.762892       -20.7594
  46   2.0000      -0.738791       -20.1035
  47   2.0000      -0.728486       -19.8231
  48   2.0000      -0.722059       -19.6482
  49   2.0000      -0.710181       -19.3250
  50   2.0000      -0.681370       -18.5410
  51   2.0000      -0.676946       -18.4206
  52   2.0000      -0.668475       -18.1901
  53   2.0000      -0.637866       -17.3572
  54   2.0000      -0.617539       -16.8041
  55   2.0000      -0.608720       -16.5641
  56   2.0000      -0.594936       -16.1890
  57   2.0000      -0.582978       -15.8636
  58   2.0000      -0.579878       -15.7793
  59   2.0000      -0.573208       -15.5978
  60   2.0000      -0.555032       -15.1032
  61   2.0000      -0.550156       -14.9705
  62   2.0000      -0.539646       -14.6845
  63   2.0000      -0.527542       -14.3551
  64   2.0000      -0.511091       -13.9075
  65   2.0000      -0.500165       -13.6102
  66   2.0000      -0.480802       -13.0833
  67   2.0000      -0.478040       -13.0081
  68   2.0000      -0.470127       -12.7928
  69   2.0000      -0.463387       -12.6094
  70   2.0000      -0.455295       -12.3892
  71   2.0000      -0.450663       -12.2632
  72   2.0000      -0.447607       -12.1800
  73   2.0000      -0.442388       -12.0380
  74   2.0000      -0.433902       -11.8071
  75   2.0000      -0.428130       -11.6500
  76   2.0000      -0.426697       -11.6110
  77   2.0000      -0.423537       -11.5250
  78   2.0000      -0.413458       -11.2508
  79   2.0000      -0.409824       -11.1519
  80   2.0000      -0.406051       -11.0492
  81   2.0000      -0.400525       -10.8989
  82   2.0000      -0.393822       -10.7164
  83   2.0000      -0.390106       -10.6153
  84   2.0000      -0.387188       -10.5359
  85   2.0000      -0.380774       -10.3614
  86   2.0000      -0.378489       -10.2992
  87   2.0000      -0.376804       -10.2533
  88   2.0000      -0.374186       -10.1821
  89   2.0000      -0.373255       -10.1568
  90   2.0000      -0.366602        -9.9757
  91   2.0000      -0.358574        -9.7573
  92   2.0000      -0.357930        -9.7398
  93   2.0000      -0.351885        -9.5753
  94   2.0000      -0.350890        -9.5482
  95   2.0000      -0.345958        -9.4140
  96   2.0000      -0.343875        -9.3573
  97   2.0000      -0.341201        -9.2846
  98   2.0000      -0.337545        -9.1851
  99   2.0000      -0.335783        -9.1371
 100   2.0000      -0.329502        -8.9662
 101   2.0000      -0.326853        -8.8941
 102   2.0000      -0.322982        -8.7888
 103   2.0000      -0.317683        -8.6446
 104   2.0000      -0.316869        -8.6224
 105   2.0000      -0.313826        -8.5396
 106   2.0000      -0.300728        -8.1832
 107   2.0000      -0.295118        -8.0306
 108   2.0000      -0.275501        -7.4968
 109   2.0000      -0.262878        -7.1533
 110   2.0000      -0.252736        -6.8773
 111   2.0000      -0.231703        -6.3050
 112   2.0000      -0.188824        -5.1382
 113   0.0000      -0.042345        -1.1523
 114   0.0000      -0.000750        -0.0204
 115   0.0000       0.011539         0.3140
 116   0.0000       0.029558         0.8043
 117   0.0000       0.040284         1.0962

MULLIKEN ATOMIC CHARGES
-----------------------
   0 C :   -0.059025
   1 S :    0.111463
   2 C :    0.015853
   3 C :    0.046389
   4 C :    0.095609
   5 O :   -0.335435
   6 C :    0.136235
   7 C :    0.031068
   8 C :   -0.019755
   9 C :    0.009720
  10 C :    0.041567
  11 C :   -0.009499
  12 C :    0.008475
  13 C :   -0.131496
  14 C :    0.124373
  15 O :   -0.341384
  16 C :    0.171602
  17 C :    0.001181
  18 C :   -0.012129
  19 C :    0.000632
  20 C :    0.032454
  21 C :   -0.032645
  22 C :    0.029487
  23 C :    0.021625
  24 C :    0.007169
  25 C :   -0.130028
  26 S :    0.081746
  27 C :   -0.051560
  28 H :    0.024274
  29 H :   -0.008716
  30 H :    0.002893
  31 H :    0.008086
  32 H :   -0.006841
  33 H :   -0.001500
  34 H :    0.003680
  35 H :    0.001099
  36 H :    0.008893
  37 H :    0.018757
  38 H :    0.001912
  39 H :   -0.001951
  40 H :   -0.003490
  41 H :    0.001451
  42 H :    0.011472
  43 H :    0.008523
  44 H :    0.010969
  45 H :   -0.016986
  46 H :    0.005936
  47 H :   -0.005542
  48 H :    0.003090
  49 H :    0.018425
  50 H :    0.007560
  51 H :    0.037040
  52 H :   -0.000229
  53 H :   -0.010494
  54 H :   -0.001532
  55 H :    0.017626
  56 H :    0.000410
  57 H :    0.004501
  58 H :    0.007297
  59 H :    0.000539
  60 H :   -0.015829
  61 H :    0.024983
Sum of atomic charges:    0.0000000

LOEWDIN ATOMIC CHARGES
----------------------
   0 C :   -0.169235
   1 S :    0.403488
   2 C :   -0.055549
   3 C :   -0.063539
   4 C :    0.017052
   5 O :   -0.114733
   6 C :    0.080686
   7 C :   -0.044902
   8 C :   -0.039682
   9 C :   -0.053988
  10 C :   -0.035032
  11 C :   -0.034944
  12 C :   -0.057699
  13 C :   -0.174465
  14 C :    0.018568
  15 O :   -0.120430
  16 C :    0.087365
  17 C :   -0.045262
  18 C :   -0.040357
  19 C :   -0.056405
  20 C :   -0.034500
  21 C :   -0.040529
  22 C :   -0.052892
  23 C :   -0.073412
  24 C :   -0.062120
  25 C :   -0.184821
  26 S :    0.393322
  27 C :   -0.170828
  28 H :    0.024761
  29 H :    0.031542
  30 H :   -0.003050
  31 H :    0.025361
  32 H :    0.022581
  33 H :    0.016747
  34 H :    0.022633
  35 H :    0.018911
  36 H :    0.022810
  37 H :    0.024043
  38 H :    0.027341
  39 H :    0.020661
  40 H :    0.019056
  41 H :    0.024865
  42 H :    0.018950
  43 H :    0.023982
  44 H :    0.020613
  45 H :    0.008652
  46 H :    0.023867
  47 H :    0.028671
  48 H :    0.017060
  49 H :    0.017272
  50 H :    0.022591
  51 H :    0.027353
  52 H :    0.017119
  53 H :    0.021139
  54 H :    0.023609
  55 H :    0.018799
  56 H :    0.019175
  57 H :    0.020199
  58 H :    0.022462
  59 H :    0.018353
  60 H :    0.030368
  61 H :    0.026347

  Mayer bond orders larger than 0.100000
B(  0-C ,  1-S ) :   1.0975 B(  0-C ,  2-C ) :   1.6053 B(  0-C , 28-H ) :   0.9636
B(  1-S , 13-C ) :   1.0607 B(  2-C ,  3-C ) :   1.1840 B(  2-C , 29-H ) :   0.9832
B(  3-C ,  4-C ) :   1.2963 B(  3-C , 13-C ) :   1.3168 B(  4-C ,  5-O ) :   1.1898
B(  4-C , 25-C ) :   1.3700 B(  5-O ,  6-C ) :   0.9106 B(  6-C ,  7-C ) :   1.0598
B(  6-C , 10-C ) :   1.0587 B(  6-C , 30-H ) :   0.9128 B(  7-C ,  8-C ) :   1.0784
B(  7-C , 31-H ) :   0.9158 B(  7-C , 32-H ) :   0.9210 B(  8-C ,  9-C ) :   1.1050
B(  8-C , 33-H ) :   0.9371 B(  8-C , 34-H ) :   0.9384 B(  9-C , 35-H ) :   0.9670
B(  9-C , 36-H ) :   0.9658 B(  9-C , 37-H ) :   0.9705 B( 10-C , 11-C ) :   1.0718
B( 10-C , 38-H ) :   0.9265 B( 10-C , 39-H ) :   0.9313 B( 11-C , 12-C ) :   1.1087
B( 11-C , 40-H ) :   0.9422 B( 11-C , 41-H ) :   0.9399 B( 12-C , 42-H ) :   0.9671
B( 12-C , 43-H ) :   0.9599 B( 12-C , 44-H ) :   0.9637 B( 13-C , 14-C ) :   1.3953
B( 14-C , 15-O ) :   1.1982 B( 14-C , 23-C ) :   1.2656 B( 15-O , 16-C ) :   0.9173
B( 16-C , 17-C ) :   1.0569 B( 16-C , 20-C ) :   1.0657 B( 16-C , 45-H ) :   0.9086
B( 17-C , 18-C ) :   1.0563 B( 17-C , 46-H ) :   0.9359 B( 17-C , 47-H ) :   0.9191
B( 18-C , 19-C ) :   1.1138 B( 18-C , 48-H ) :   0.9395 B( 18-C , 49-H ) :   0.9424
B( 19-C , 50-H ) :   0.9609 B( 19-C , 51-H ) :   0.9665 B( 19-C , 52-H ) :   0.9637
B( 20-C , 21-C ) :   1.0949 B( 20-C , 53-H ) :   0.9270 B( 20-C , 54-H ) :   0.9294
B( 21-C , 22-C ) :   1.1027 B( 21-C , 55-H ) :   0.9412 B( 21-C , 56-H ) :   0.9347
B( 22-C , 57-H ) :   0.9691 B( 22-C , 58-H ) :   0.9652 B( 22-C , 59-H ) :   0.9675
B( 23-C , 24-C ) :   1.1711 B( 23-C , 25-C ) :   1.2741 B( 24-C , 27-C ) :   1.6168
B( 24-C , 60-H ) :   0.9834 B( 25-C , 26-S ) :   1.0336 B( 26-S , 27-C ) :   1.0931
B( 27-C , 61-H ) :   0.9616

Dispersion correction           -0.143941566
FINAL SINGLE POINT ENERGY     -1880.996058108727

DIPOLE MOMENT
-------------
                                X             Y             Z
Electronic contribution:      5.35320      -3.57970       2.31361
Nuclear contribution   :     -5.10453       4.01076      -2.17181
                        -----------------------------------------
Total Dipole Moment    :      0.24867       0.43106       0.14180
                        -----------------------------------------
Magnitude (a.u.)       :      0.51745
Magnitude (Debye)      :      1.31525

Rotational constants in cm-1:     0.009534     0.003092     0.002726
Rotational constants in MHz :   285.835296    92.705994    81.718788

                             ****ORCA TERMINATED NORMALLY****
TOTAL RUN TIME: 0 days 9 hours 46 minutes 5 seconds 70 msec
