                         Program Version 4.2.0 -  RELEASE  -
|  1> # ORCA input file
|  2> # SCF done        -18.337889606036          0.000932291180
|  3> ! B3LYP/G D3BJ Opt RIJCOSX def2-SVP def2/J
|  4> * xyz 0 1
|  5>    C        1.32943        -1.19062         0.00223
|  6>    S        1.84699         0.45146        -0.00065
|  7>    C        0.22762         1.00020        -0.00763
|  8>    C       -0.66472        -0.03874        -0.00769
|  9>    C       -0.01904        -1.30790        -0.00210
| 10>    C       -2.06097         0.13121        -0.01240
| 11>    N       -3.20029         0.25939        -0.01673
| 12>    H        2.06035        -1.97433         0.00702
| 13>    H        0.01041         2.04989        -0.01146
| 14>    H       -0.54967        -2.24262        -0.00141
| 15> *
| 16>
| 17>                          ****END OF INPUT****
 Total Charge           Charge          ....    0
 Multiplicity           Mult            ....    1
 Number of Electrons    NEL             ....   56
Dispersion correction           -0.019794432
FINAL SINGLE POINT ENERGY      -644.975835141614
Dispersion correction            ... done
Dispersion correction           -0.019709560
FINAL SINGLE POINT ENERGY      -644.977982488728
Dispersion correction            ... done
Dispersion correction           -0.019699313
FINAL SINGLE POINT ENERGY      -644.978029171612
Dispersion correction            ... done
Dispersion correction           -0.019698239
FINAL SINGLE POINT ENERGY      -644.978032335611
Dispersion correction            ... done
Dispersion correction           -0.019698975
FINAL SINGLE POINT ENERGY      -644.978030665547
Dispersion correction            ... done
                    ***********************HURRAY********************

CARTESIAN COORDINATES (ANGSTROEM)
---------------------------------
  C      1.350248   -1.202763    0.001892
  S      1.857360    0.454498   -0.000038
  C      0.231523    1.013541   -0.007649
  C     -0.665586   -0.037960   -0.007198
  C     -0.012855   -1.318617   -0.001729
  C     -2.083327    0.140651   -0.012569
  N     -3.236495    0.276707   -0.017376
  H      2.092024   -1.999212    0.006450
  H     -0.001730    2.076988   -0.011802
  H     -0.551051   -2.265894   -0.000802

 Multiplicity           Mult            ....    1
 Number of Electrons    NEL             ....   56
 Basis Dimension        Dim             ....  117

ORBITAL ENERGIES
----------------

  NO   OCC          E(Eh)            E(eV)
   0   2.0000     -88.904125     -2419.2042
   1   2.0000     -14.330066      -389.9409
   2   2.0000     -10.246566      -278.8232
   3   2.0000     -10.244840      -278.7763
   4   2.0000     -10.238783      -278.6115
   5   2.0000     -10.232066      -278.4287
   6   2.0000     -10.224362      -278.2190
   7   2.0000      -7.999392      -217.6745
   8   2.0000      -5.967408      -162.3814
   9   2.0000      -5.963147      -162.2655
  10   2.0000      -5.961010      -162.2073
  11   2.0000      -0.914787       -24.8926
  12   2.0000      -0.893434       -24.3116
  13   2.0000      -0.777803       -21.1651
  14   2.0000      -0.751666       -20.4539
  15   2.0000      -0.624643       -16.9974
  16   2.0000      -0.593306       -16.1447
  17   2.0000      -0.557976       -15.1833
  18   2.0000      -0.462870       -12.5953
  19   2.0000      -0.440017       -11.9735
  20   2.0000      -0.429465       -11.6863
  21   2.0000      -0.422819       -11.5055
  22   2.0000      -0.380793       -10.3619
  23   2.0000      -0.361233        -9.8297
  24   2.0000      -0.359714        -9.7883
  25   2.0000      -0.338742        -9.2176
  26   2.0000      -0.279488        -7.6053
  27   2.0000      -0.266902        -7.2628
  28   0.0000      -0.056980        -1.5505
  29   0.0000      -0.007060        -0.1921
  30   0.0000       0.008409         0.2288
  31   0.0000       0.043508         1.1839
  32   0.0000       0.056536         1.5384

MULLIKEN ATOMIC CHARGES
-----------------------
   0 C :   -0.084442
   1 S :    0.129502
   2 C :   -0.057212
   3 C :   -0.132439
   4 C :    0.094957
   5 C :   -0.113699
   6 N :    0.070152
   7 H :    0.044311
   8 H :    0.044616
   9 H :    0.004253
Sum of atomic charges:   -0.0000000

LOEWDIN ATOMIC CHARGES
----------------------
   0 C :   -0.180017
   1 S :    0.463054
   2 C :   -0.157441
   3 C :   -0.107130
   4 C :   -0.036079
   5 C :   -0.028545
   6 N :   -0.065077
   7 H :    0.032598
   8 H :    0.037794
   9 H :    0.040843

  Mayer bond orders larger than 0.100000
B(  0-C ,  1-S ) :   1.1698 B(  0-C ,  4-C ) :   1.5622 B(  0-C ,  7-H ) :   0.9635
B(  1-S ,  2-C ) :   1.1904 B(  2-C ,  3-C ) :   1.5210 B(  2-C ,  8-H ) :   0.9723
B(  3-C ,  4-C ) :   1.2577 B(  3-C ,  5-C ) :   1.1216 B(  4-C ,  9-H ) :   0.9950
B(  5-C ,  6-N ) :   3.0051

Dispersion correction           -0.019700042
FINAL SINGLE POINT ENERGY      -644.978029545366

DIPOLE MOMENT
-------------
                                X             Y             Z
Electronic contribution:      0.26848       1.79975      -0.00254
Nuclear contribution   :      1.33178      -2.04822       0.00892
                        -----------------------------------------
Total Dipole Moment    :      1.60026      -0.24847       0.00637
                        -----------------------------------------
Magnitude (a.u.)       :      1.61945
Magnitude (Debye)      :      4.11631

Rotational constants in cm-1:     0.234614     0.049254     0.040708
Rotational constants in MHz :  7033.544283  1476.590398  1220.387798

                             ****ORCA TERMINATED NORMALLY****
TOTAL RUN TIME: 0 days 0 hours 1 minutes 53 seconds 477 msec
