                         Program Version 4.2.0 -  RELEASE  -
|  1> # ORCA input file
|  2> # SCF done        -37.500889389852          0.000789526745
|  3> ! B3LYP/G D3BJ Opt RIJCOSX def2-SVP def2/J
|  4> * xyz 0 1
|  5>    N       -2.52076         1.14420        -0.30832
|  6>    C       -3.32202        -0.07663        -0.05490
|  7>    N       -2.44387        -1.24497        -0.08284
|  8>    C       -1.15975        -0.68522         0.28157
|  9>    N        0.02391        -1.48647         0.04004
| 10>    C        1.10155        -0.61297        -0.35841
| 11>    C        1.01554         0.71389         0.43547
| 12>    N       -0.12473         1.53373         0.05028
| 13>    C       -1.15673         0.67153        -0.48069
| 14>    N        2.31185         1.28848         0.16175
| 15>    C        3.21320         0.15122        -0.13055
| 16>    N        2.44347        -1.08434        -0.06886
| 17>    H       -2.54896         1.76938         0.48978
| 18>    H       -4.09880        -0.16731        -0.81860
| 19>    H       -3.80301        -0.02933         0.92813
| 20>    H       -2.38943        -1.61526        -1.02955
| 21>    H       -1.21188        -0.46417         1.35944
| 22>    H       -0.14417        -2.21229        -0.64761
| 23>    H        1.09944        -0.36603        -1.43626
| 24>    H        0.88520         0.46154         1.50570
| 25>    H        0.16164         2.23379        -0.62594
| 26>    H       -1.02890         0.46098        -1.56147
| 27>    H        2.64692         1.85932         0.92625
| 28>    H        4.07703         0.11250         0.53598
| 29>    H        3.57081         0.27189        -1.16175
| 30>    H        2.44891        -1.47640         0.86965
| 31> *
| 32>
| 33>                          ****END OF INPUT****
 Total Charge           Charge          ....    0
 Multiplicity           Mult            ....    1
 Number of Electrons    NEL             ....   92
Dispersion correction           -0.049262106
FINAL SINGLE POINT ENERGY      -565.136115587610
Dispersion correction            ... done
Dispersion correction           -0.048943038
FINAL SINGLE POINT ENERGY      -565.138519924137
Dispersion correction            ... done
Dispersion correction           -0.048965612
FINAL SINGLE POINT ENERGY      -565.138971365041
Dispersion correction            ... done
FINAL SINGLE POINT ENERGY      -565.139167515483
FINAL SINGLE POINT ENERGY      -565.139277019063
FINAL SINGLE POINT ENERGY      -565.139371560824
FINAL SINGLE POINT ENERGY      -565.139425219909
FINAL SINGLE POINT ENERGY      -565.139451670089
Dispersion correction            ... done
Dispersion correction           -0.049046190
FINAL SINGLE POINT ENERGY      -565.139459211698
Dispersion correction            ... done
Dispersion correction           -0.049046739
FINAL SINGLE POINT ENERGY      -565.139460326433
Dispersion correction            ... done
                    ***********************HURRAY********************

CARTESIAN COORDINATES (ANGSTROEM)
---------------------------------
  N     -2.541751    1.166960   -0.180873
  C     -3.354527   -0.068343   -0.098948
  N     -2.444083   -1.240179   -0.048084
  C     -1.159896   -0.658733    0.304706
  N      0.021981   -1.470749    0.036466
  C      1.115997   -0.609626   -0.354103
  C      1.023919    0.732349    0.410356
  N     -0.109397    1.563277   -0.011348
  C     -1.187039    0.695739   -0.447346
  N      2.338822    1.292183    0.171535
  C      3.236628    0.144445   -0.159930
  N      2.455125   -1.086854   -0.050886
  H     -2.521431    1.637565    0.723776
  H     -4.019183   -0.179961   -0.972768
  H     -3.995643   -0.027603    0.797735
  H     -2.368208   -1.627666   -0.990525
  H     -1.195187   -0.414552    1.384726
  H     -0.154162   -2.209301   -0.640249
  H      1.108083   -0.357964   -1.437081
  H      0.874274    0.475006    1.479222
  H      0.197746    2.192556   -0.750751
  H     -1.117461    0.452262   -1.531063
  H      2.676105    1.815579    0.973857
  H      4.121591    0.104748    0.492857
  H      3.596977    0.253782   -1.197221
  H      2.447180   -1.423858    0.914230

 Multiplicity           Mult            ....    1
 Number of Electrons    NEL             ....   92
 Basis Dimension        Dim             ....  238

ORBITAL ENERGIES
----------------

  NO   OCC          E(Eh)            E(eV)
   0   2.0000     -14.322249      -389.7282
   1   2.0000     -14.316300      -389.5663
   2   2.0000     -14.315609      -389.5475
   3   2.0000     -14.313755      -389.4971
   4   2.0000     -14.311760      -389.4428
   5   2.0000     -14.304872      -389.2554
   6   2.0000     -10.238983      -278.6169
   7   2.0000     -10.236898      -278.5602
   8   2.0000     -10.235323      -278.5173
   9   2.0000     -10.235098      -278.5112
  10   2.0000     -10.234781      -278.5026
  11   2.0000     -10.229929      -278.3705
  12   2.0000      -0.982213       -26.7274
  13   2.0000      -0.954382       -25.9701
  14   2.0000      -0.900816       -24.5124
  15   2.0000      -0.889827       -24.2134
  16   2.0000      -0.846963       -23.0470
  17   2.0000      -0.812328       -22.1046
  18   2.0000      -0.724525       -19.7153
  19   2.0000      -0.676575       -18.4106
  20   2.0000      -0.628506       -17.1025
  21   2.0000      -0.627020       -17.0621
  22   2.0000      -0.602698       -16.4003
  23   2.0000      -0.565408       -15.3855
  24   2.0000      -0.547995       -14.9117
  25   2.0000      -0.518949       -14.1213
  26   2.0000      -0.505671       -13.7600
  27   2.0000      -0.494828       -13.4650
  28   2.0000      -0.471952       -12.8425
  29   2.0000      -0.456438       -12.4203
  30   2.0000      -0.452607       -12.3161
  31   2.0000      -0.432519       -11.7694
  32   2.0000      -0.425595       -11.5810
  33   2.0000      -0.410374       -11.1668
  34   2.0000      -0.393117       -10.6973
  35   2.0000      -0.381633       -10.3848
  36   2.0000      -0.379055       -10.3146
  37   2.0000      -0.378159       -10.2902
  38   2.0000      -0.373216       -10.1557
  39   2.0000      -0.361501        -9.8369
  40   2.0000      -0.263300        -7.1647
  41   2.0000      -0.259146        -7.0517
  42   2.0000      -0.241357        -6.5676
  43   2.0000      -0.230937        -6.2841
  44   2.0000      -0.220866        -6.0101
  45   2.0000      -0.218926        -5.9573
  46   0.0000       0.037502         1.0205
  47   0.0000       0.044860         1.2207
  48   0.0000       0.063875         1.7381
  49   0.0000       0.074133         2.0173
  50   0.0000       0.079632         2.1669

MULLIKEN ATOMIC CHARGES
-----------------------
   0 N :   -0.221805
   1 C :    0.213622
   2 N :   -0.223956
   3 C :    0.067395
   4 N :   -0.149449
   5 C :    0.076287
   6 C :    0.063699
   7 N :   -0.150403
   8 C :    0.082072
   9 N :   -0.257781
  10 C :    0.240259
  11 N :   -0.208161
  12 H :    0.092100
  13 H :    0.002216
  14 H :    0.005596
  15 H :    0.087606
  16 H :   -0.020840
  17 H :    0.099348
  18 H :   -0.022297
  19 H :   -0.025911
  20 H :    0.096692
  21 H :   -0.041735
  22 H :    0.104811
  23 H :   -0.001841
  24 H :   -0.000387
  25 H :    0.092862
Sum of atomic charges:    0.0000000

LOEWDIN ATOMIC CHARGES
----------------------
   0 N :   -0.124919
   1 C :    0.085160
   2 N :   -0.117222
   3 C :    0.039485
   4 N :   -0.095161
   5 C :    0.040115
   6 C :    0.041541
   7 N :   -0.106625
   8 C :    0.031428
   9 N :   -0.129518
  10 C :    0.086178
  11 N :   -0.108515
  12 H :    0.049800
  13 H :    0.010073
  14 H :    0.011953
  15 H :    0.045421
  16 H :    0.006906
  17 H :    0.060459
  18 H :   -0.000272
  19 H :   -0.004504
  20 H :    0.056924
  21 H :   -0.009627
  22 H :    0.058209
  23 H :    0.011827
  24 H :    0.009468
  25 H :    0.051418

  Mayer bond orders larger than 0.100000
B(  0-N ,  1-C ) :   1.0366 B(  0-N ,  8-C ) :   1.0643 B(  0-N , 12-H ) :   0.9349
B(  1-C ,  2-N ) :   1.0293 B(  1-C , 13-H ) :   0.9553 B(  1-C , 14-H ) :   0.9567
B(  2-N ,  3-C ) :   1.0757 B(  2-N , 15-H ) :   0.9344 B(  3-C ,  4-N ) :   1.0858
B(  3-C ,  8-C ) :   0.9753 B(  3-C , 16-H ) :   0.8765 B(  4-N ,  5-C ) :   1.1164
B(  4-N , 17-H ) :   0.9271 B(  5-C ,  6-C ) :   0.9929 B(  5-C , 11-N ) :   1.0720
B(  5-C , 18-H ) :   0.8706 B(  6-C ,  7-N ) :   1.0779 B(  6-C ,  9-N ) :   1.0851
B(  6-C , 19-H ) :   0.8879 B(  7-N ,  8-C ) :   1.1167 B(  7-N , 20-H ) :   0.9149
B(  8-C , 21-H ) :   0.8755 B(  9-N , 10-C ) :   0.9875 B(  9-N , 22-H ) :   0.9413
B( 10-C , 11-N ) :   1.0719 B( 10-C , 23-H ) :   0.9551 B( 10-C , 24-H ) :   0.9498
B( 11-N , 25-H ) :   0.9295

Dispersion correction           -0.049048047
FINAL SINGLE POINT ENERGY      -565.139460658991

DIPOLE MOMENT
-------------
                                X             Y             Z
Electronic contribution:      0.08179      -0.10650       0.29955
Nuclear contribution   :      0.30250       0.13277      -0.23748
                        -----------------------------------------
Total Dipole Moment    :      0.38429       0.02627       0.06207
                        -----------------------------------------
Magnitude (a.u.)       :      0.39015
Magnitude (Debye)      :      0.99169

Rotational constants in cm-1:     0.079515     0.021780     0.017971
Rotational constants in MHz :  2383.798809   652.942336   538.755679

                             ****ORCA TERMINATED NORMALLY****
TOTAL RUN TIME: 0 days 0 hours 16 minutes 31 seconds 271 msec
