                         Program Version 4.2.0 -  RELEASE  -
|  1> # ORCA input file
|  2> # SCF done        -45.846516138010          0.000989038211
|  3> ! B3LYP/G D3BJ Opt RIJCOSX def2-SVP def2/J
|  4> * xyz 0 1
|  5>    C        1.64971         1.09478         0.04345
|  6>    S        2.78600        -0.18516         0.13365
|  7>    C        1.52638        -1.35073         0.11470
|  8>    C        0.29563        -0.77641         0.04674
|  9>    C        0.36618         0.64236        -0.00006
| 10>    C       -0.85658         1.51509        -0.03912
| 11>    C       -0.99346         2.22739         1.30761
| 12>    F        0.00799         3.09845         1.50883
| 13>    F       -2.12948         2.93650         1.39797
| 14>    F       -0.98272         1.39712         2.36007
| 15>    C       -2.11523         0.70818        -0.38362
| 16>    C       -2.17978        -0.61801         0.37114
| 17>    C       -1.00791        -1.52229        -0.03804
| 18>    C       -1.17273        -1.95957        -1.40950
| 19>    N       -1.29162        -2.27985        -2.49974
| 20>    H        1.99049         2.11074         0.03335
| 21>    H        1.76517        -2.39492         0.15109
| 22>    H       -0.72360         2.32004        -0.77152
| 23>    H       -2.10635         0.50456        -1.45697
| 24>    H       -3.00120         1.30605        -0.16288
| 25>    H       -3.12240        -1.11852         0.14097
| 26>    H       -2.13890        -0.45080         1.44795
| 27>    H       -0.97547        -2.41596         0.59597
| 28> *
| 29>
| 30>                          ****END OF INPUT****
 Total Charge           Charge          ....    0
 Multiplicity           Mult            ....    1
 Number of Electrons    NEL             ....  118
Dispersion correction           -0.052712775
FINAL SINGLE POINT ENERGY     -1137.734923093155
Dispersion correction            ... done
Dispersion correction           -0.052073569
FINAL SINGLE POINT ENERGY     -1137.738543743387
Dispersion correction            ... done
Dispersion correction           -0.051915235
FINAL SINGLE POINT ENERGY     -1137.738616886404
Dispersion correction            ... done
FINAL SINGLE POINT ENERGY     -1137.738619955940
FINAL SINGLE POINT ENERGY     -1137.738543025428
FINAL SINGLE POINT ENERGY     -1137.738610753706
FINAL SINGLE POINT ENERGY     -1137.738610720523
Dispersion correction            ... done
Dispersion correction           -0.051944309
FINAL SINGLE POINT ENERGY     -1137.738565588685
Dispersion correction            ... done
Dispersion correction           -0.051945399
FINAL SINGLE POINT ENERGY     -1137.738549615413
Dispersion correction            ... done
                    ***********************HURRAY********************

CARTESIAN COORDINATES (ANGSTROEM)
---------------------------------
  C      1.676769    1.084768    0.156065
  S      2.815270   -0.207996    0.249792
  C      1.564292   -1.388560    0.127169
  C      0.324874   -0.806485    0.019668
  C      0.382545    0.629649    0.038814
  C     -0.858322    1.499577   -0.018477
  C     -0.999072    2.346741    1.244952
  F      0.030403    3.202940    1.377329
  F     -2.119797    3.092276    1.208853
  F     -1.053837    1.600848    2.364646
  C     -2.142865    0.684557   -0.291364
  C     -2.151279   -0.683003    0.389763
  C     -0.985623   -1.556024   -0.123500
  C     -1.217224   -1.946641   -1.525482
  N     -1.415148   -2.236309   -2.629696
  H      2.016937    2.116428    0.215494
  H      1.804711   -2.450660    0.124406
  H     -0.742453    2.245499   -0.821332
  H     -2.240205    0.541730   -1.378984
  H     -3.014159    1.273718    0.026132
  H     -3.106481   -1.194311    0.197433
  H     -2.041403   -0.571456    1.479052
  H     -0.937814   -2.488246    0.461306

 Multiplicity           Mult            ....    1
 Number of Electrons    NEL             ....  118
 Basis Dimension        Dim             ....  254

ORBITAL ENERGIES
----------------

  NO   OCC          E(Eh)            E(eV)
   0   2.0000     -88.891071     -2418.8490
   1   2.0000     -24.727342      -672.8652
   2   2.0000     -24.727237      -672.8623
   3   2.0000     -24.726594      -672.8448
   4   2.0000     -14.329158      -389.9162
   5   2.0000     -10.438097      -284.0350
   6   2.0000     -10.254079      -279.0277
   7   2.0000     -10.236111      -278.5387
   8   2.0000     -10.229603      -278.3617
   9   2.0000     -10.227711      -278.3102
  10   2.0000     -10.226526      -278.2779
  11   2.0000     -10.221001      -278.1276
  12   2.0000     -10.218952      -278.0718
  13   2.0000     -10.218024      -278.0466
  14   2.0000     -10.214335      -277.9462
  15   2.0000      -7.986129      -217.3136
  16   2.0000      -5.954123      -162.0199
  17   2.0000      -5.949972      -161.9070
  18   2.0000      -5.947800      -161.8479
  19   2.0000      -1.305341       -35.5201
  20   2.0000      -1.213721       -33.0270
  21   2.0000      -1.212659       -32.9981
  22   2.0000      -0.911827       -24.8121
  23   2.0000      -0.896742       -24.4016
  24   2.0000      -0.850596       -23.1459
  25   2.0000      -0.814902       -22.1746
  26   2.0000      -0.754637       -20.5347
  27   2.0000      -0.728523       -19.8241
  28   2.0000      -0.709992       -19.3199
  29   2.0000      -0.665639       -18.1129
  30   2.0000      -0.624966       -17.0062
  31   2.0000      -0.603143       -16.4123
  32   2.0000      -0.601043       -16.3552
  33   2.0000      -0.594516       -16.1776
  34   2.0000      -0.571808       -15.5597
  35   2.0000      -0.552421       -15.0321
  36   2.0000      -0.516978       -14.0677
  37   2.0000      -0.500055       -13.6072
  38   2.0000      -0.480315       -13.0700
  39   2.0000      -0.478430       -13.0187
  40   2.0000      -0.472705       -12.8629
  41   2.0000      -0.457473       -12.4485
  42   2.0000      -0.452115       -12.3027
  43   2.0000      -0.437132       -11.8950
  44   2.0000      -0.432688       -11.7740
  45   2.0000      -0.422216       -11.4891
  46   2.0000      -0.419822       -11.4239
  47   2.0000      -0.417027       -11.3479
  48   2.0000      -0.411964       -11.2101
  49   2.0000      -0.390198       -10.6178
  50   2.0000      -0.372658       -10.1406
  51   2.0000      -0.369663       -10.0590
  52   2.0000      -0.363631        -9.8949
  53   2.0000      -0.361282        -9.8310
  54   2.0000      -0.355177        -9.6648
  55   2.0000      -0.331646        -9.0245
  56   2.0000      -0.331229        -9.0132
  57   2.0000      -0.267506        -7.2792
  58   2.0000      -0.255462        -6.9515
  59   0.0000      -0.041045        -1.1169
  60   0.0000       0.012089         0.3289
  61   0.0000       0.022550         0.6136
  62   0.0000       0.033203         0.9035
  63   0.0000       0.046928         1.2770

MULLIKEN ATOMIC CHARGES
-----------------------
   0 C :   -0.128251
   1 S :    0.125849
   2 C :   -0.135121
   3 C :    0.005277
   4 C :    0.004611
   5 C :   -0.050961
   6 C :    0.510200
   7 F :   -0.170728
   8 F :   -0.173445
   9 F :   -0.174593
  10 C :    0.040208
  11 C :    0.069117
  12 C :    0.023684
  13 C :   -0.225895
  14 N :    0.062890
  15 H :    0.027655
  16 H :    0.025431
  17 H :    0.033355
  18 H :    0.030111
  19 H :    0.022111
  20 H :    0.021145
  21 H :    0.025651
  22 H :    0.031699
Sum of atomic charges:   -0.0000000

LOEWDIN ATOMIC CHARGES
----------------------
   0 C :   -0.185754
   1 S :    0.457864
   2 C :   -0.189442
   3 C :   -0.057531
   4 C :   -0.067733
   5 C :   -0.055839
   6 C :    0.174008
   7 F :   -0.062343
   8 F :   -0.064336
   9 F :   -0.064820
  10 C :   -0.021224
  11 C :   -0.009178
  12 C :   -0.038384
  13 C :   -0.031183
  14 N :   -0.076281
  15 H :    0.026112
  16 H :    0.028585
  17 H :    0.050170
  18 H :    0.035895
  19 H :    0.031310
  20 H :    0.033520
  21 H :    0.029256
  22 H :    0.057326

  Mayer bond orders larger than 0.100000
B(  0-C ,  1-S ) :   1.1831 B(  0-C ,  4-C ) :   1.5442 B(  0-C , 15-H ) :   0.9611
B(  1-S ,  2-C ) :   1.1755 B(  2-C ,  3-C ) :   1.5440 B(  2-C , 16-H ) :   0.9649
B(  3-C ,  4-C ) :   1.3199 B(  3-C , 12-C ) :   0.9967 B(  4-C ,  5-C ) :   0.9608
B(  5-C ,  6-C ) :   0.9824 B(  5-C , 10-C ) :   1.0502 B(  5-C , 17-H ) :   0.8826
B(  6-C ,  7-F ) :   1.1241 B(  6-C ,  8-F ) :   1.1222 B(  6-C ,  9-F ) :   1.1271
B( 10-C , 11-C ) :   1.0699 B( 10-C , 18-H ) :   0.9296 B( 10-C , 19-H ) :   0.9278
B( 11-C , 12-C ) :   1.0749 B( 11-C , 20-H ) :   0.9312 B( 11-C , 21-H ) :   0.9349
B( 12-C , 13-C ) :   1.0367 B( 12-C , 22-H ) :   0.8613 B( 13-C , 14-N ) :   3.0743

Dispersion correction           -0.051945507
FINAL SINGLE POINT ENERGY     -1137.738554581184

DIPOLE MOMENT
-------------
                                X             Y             Z
Electronic contribution:      4.11161      10.11539       6.40112
Nuclear contribution   :     -3.89965     -10.05104      -5.66111
                        -----------------------------------------
Total Dipole Moment    :      0.21196       0.06435       0.74001
                        -----------------------------------------
Magnitude (a.u.)       :      0.77245
Magnitude (Debye)      :      1.96341

Rotational constants in cm-1:     0.023292     0.016424     0.010932
Rotational constants in MHz :   698.273274   492.366867   327.719243

                             ****ORCA TERMINATED NORMALLY****
TOTAL RUN TIME: 0 days 0 hours 18 minutes 44 seconds 308 msec
