                         Program Version 4.2.0 -  RELEASE  -
|  1> # ORCA input file
|  2> # SCF done        -22.178878248504          0.000517273151
|  3> ! B3LYP/G D3BJ Opt RIJCOSX def2-SVP def2/J
|  4> * xyz 0 1
|  5>    C        0.04667         1.25185         0.02942
|  6>    N       -1.11960         0.66740         0.27221
|  7>    N       -1.16527        -0.62435         0.24704
|  8>    C       -0.03693        -1.29733        -0.02043
|  9>    N        1.13530        -0.69076        -0.25840
| 10>    N        1.17352         0.59983        -0.23309
| 11>    C       -0.11309        -2.74602        -0.04496
| 12>    C        0.93898        -3.51394        -0.30500
| 13>    H        0.08272         2.33019         0.04832
| 14>    H       -1.09382        -3.14760         0.16457
| 15>    H        1.90225        -3.07764        -0.50965
| 16>    H        0.86473        -4.58745        -0.31968
| 17> *
| 18>
| 19>                          ****END OF INPUT****
 Total Charge           Charge          ....    0
 Multiplicity           Mult            ....    1
 Number of Electrons    NEL             ....   56
Dispersion correction           -0.020159307
FINAL SINGLE POINT ENERGY      -373.464247839968
Dispersion correction            ... done
Dispersion correction           -0.020052964
FINAL SINGLE POINT ENERGY      -373.466214809903
Dispersion correction            ... done
Dispersion correction           -0.020041219
FINAL SINGLE POINT ENERGY      -373.466301372446
Dispersion correction            ... done
Dispersion correction           -0.020038899
FINAL SINGLE POINT ENERGY      -373.466307498452
Dispersion correction            ... done
Dispersion correction           -0.020038611
FINAL SINGLE POINT ENERGY      -373.466306098458
Dispersion correction            ... done
                    ***********************HURRAY********************

CARTESIAN COORDINATES (ANGSTROEM)
---------------------------------
  C      0.036903    1.271125    0.030724
  N     -1.141346    0.686340    0.257220
  N     -1.179981   -0.626986    0.235102
  C     -0.030694   -1.286362   -0.016548
  N      1.152862   -0.678661   -0.242838
  N      1.185766    0.629918   -0.217544
  C     -0.098689   -2.750109   -0.040326
  C      0.945585   -3.542647   -0.312794
  H      0.068798    2.364046    0.050682
  H     -1.087611   -3.155561    0.186434
  H      1.925800   -3.116889   -0.540163
  H      0.838066   -4.630034   -0.319599

 Multiplicity           Mult            ....    1
 Number of Electrons    NEL             ....   56
 Basis Dimension        Dim             ....  132

ORBITAL ENERGIES
----------------

  NO   OCC          E(Eh)            E(eV)
   0   2.0000     -14.400957      -391.8700
   1   2.0000     -14.399414      -391.8280
   2   2.0000     -14.398773      -391.8105
   3   2.0000     -14.396723      -391.7547
   4   2.0000     -10.289148      -279.9820
   5   2.0000     -10.281665      -279.7783
   6   2.0000     -10.219028      -278.0739
   7   2.0000     -10.218315      -278.0545
   8   2.0000      -1.096466       -29.8363
   9   2.0000      -1.007995       -27.4289
  10   2.0000      -0.895690       -24.3730
  11   2.0000      -0.792102       -21.5542
  12   2.0000      -0.756148       -20.5758
  13   2.0000      -0.712068       -19.3763
  14   2.0000      -0.615031       -16.7358
  15   2.0000      -0.594168       -16.1681
  16   2.0000      -0.532231       -14.4827
  17   2.0000      -0.502115       -13.6632
  18   2.0000      -0.497059       -13.5257
  19   2.0000      -0.457037       -12.4366
  20   2.0000      -0.398314       -10.8387
  21   2.0000      -0.391759       -10.6603
  22   2.0000      -0.370974       -10.0947
  23   2.0000      -0.370129       -10.0717
  24   2.0000      -0.359399        -9.7797
  25   2.0000      -0.324858        -8.8398
  26   2.0000      -0.285955        -7.7812
  27   2.0000      -0.239994        -6.5306
  28   0.0000      -0.110489        -3.0066
  29   0.0000      -0.089805        -2.4437
  30   0.0000       0.004400         0.1197
  31   0.0000       0.073617         2.0032
  32   0.0000       0.089109         2.4248

MULLIKEN ATOMIC CHARGES
-----------------------
   0 C :    0.078538
   1 N :   -0.054536
   2 N :   -0.054174
   3 C :   -0.049687
   4 N :   -0.054476
   5 N :   -0.057114
   6 C :    0.024434
   7 C :    0.030639
   8 H :    0.041408
   9 H :    0.003313
  10 H :    0.050261
  11 H :    0.041393
Sum of atomic charges:    0.0000000

LOEWDIN ATOMIC CHARGES
----------------------
   0 C :   -0.000017
   1 N :   -0.022769
   2 N :   -0.032821
   3 C :   -0.010849
   4 N :   -0.027994
   5 N :   -0.022609
   6 C :   -0.042786
   7 C :    0.016720
   8 H :    0.033541
   9 H :    0.038882
  10 H :    0.035775
  11 H :    0.034927

  Mayer bond orders larger than 0.100000
B(  0-C ,  1-N ) :   1.4912 B(  0-C ,  5-N ) :   1.4668 B(  0-C ,  8-H ) :   0.9770
B(  1-N ,  2-N ) :   1.3425 B(  1-N ,  4-N ) :   0.1005 B(  2-N ,  3-C ) :   1.4770
B(  3-C ,  4-N ) :   1.4705 B(  3-C ,  6-C ) :   1.0848 B(  4-N ,  5-N ) :   1.3623
B(  6-C ,  7-C ) :   1.9137 B(  6-C ,  9-H ) :   0.9527 B(  7-C , 10-H ) :   0.9389
B(  7-C , 11-H ) :   0.9424

Dispersion correction           -0.020038313
FINAL SINGLE POINT ENERGY      -373.466305177262

DIPOLE MOMENT
-------------
                                X             Y             Z
Electronic contribution:     -1.06222       4.65417       0.38704
Nuclear contribution   :      1.20959      -5.06962      -0.43553
                        -----------------------------------------
Total Dipole Moment    :      0.14738      -0.41545      -0.04850
                        -----------------------------------------
Magnitude (a.u.)       :      0.44348
Magnitude (Debye)      :      1.12723

Rotational constants in cm-1:     0.189513     0.057464     0.044097
Rotational constants in MHz :  5681.459783  1722.721573  1321.999493

                             ****ORCA TERMINATED NORMALLY****
TOTAL RUN TIME: 0 days 0 hours 2 minutes 37 seconds 886 msec
