                         Program Version 4.2.0 -  RELEASE  -
|  1> # ORCA input file
|  2> # SCF done        -28.472342218860          0.000688098144
|  3> ! B3LYP/G D3BJ Opt RIJCOSX def2-SVP def2/J
|  4> * xyz 0 1
|  5>    C       -1.29669        -1.23087         0.00099
|  6>    S       -2.47406         0.02369         0.00056
|  7>    C       -1.26570         1.24843         0.00034
|  8>    C       -0.01734         0.70474         0.00076
|  9>    C       -0.03514        -0.71851         0.00113
| 10>    C        1.27685        -1.35999         0.00148
| 11>    O        1.55660        -2.51930         0.00205
| 12>    S        2.52100        -0.03875         0.00222
| 13>    C        1.31035         1.31312         0.00083
| 14>    O        1.61901         2.46508         0.00082
| 15>    H       -1.59656        -2.26003         0.00118
| 16>    H       -1.53982         2.28475        -0.00001
| 17> *
| 18>
| 19>                          ****END OF INPUT****
 Total Charge           Charge          ....    0
 Multiplicity           Mult            ....    1
 Number of Electrons    NEL             ....   86
Dispersion correction           -0.030818597
FINAL SINGLE POINT ENERGY     -1176.196840714234
Dispersion correction            ... done
Dispersion correction           -0.030774964
FINAL SINGLE POINT ENERGY     -1176.198929329813
Dispersion correction            ... done
Dispersion correction           -0.030772498
FINAL SINGLE POINT ENERGY     -1176.199106155934
Dispersion correction            ... done
FINAL SINGLE POINT ENERGY     -1176.199034719665
Dispersion correction            ... done
Dispersion correction           -0.030776374
FINAL SINGLE POINT ENERGY     -1176.199157209570
Dispersion correction            ... done
Dispersion correction           -0.030777170
FINAL SINGLE POINT ENERGY     -1176.199160286906
Dispersion correction            ... done
                    ***********************HURRAY********************

CARTESIAN COORDINATES (ANGSTROEM)
---------------------------------
  C     -1.306677   -1.245117    0.001180
  S     -2.485815    0.023949   -0.000621
  C     -1.275215    1.262966    0.000582
  C     -0.021618    0.706216    0.000678
  C     -0.039506   -0.719925    0.001090
  C      1.292121   -1.368125    0.001715
  O      1.548045   -2.539009    0.002045
  S      2.566595   -0.039399    0.001755
  C      1.325931    1.320847    0.000808
  O      1.610940    2.485053    0.000939
  H     -1.606772   -2.291763    0.001701
  H     -1.549529    2.316666    0.000478

 Multiplicity           Mult            ....    1
 Number of Electrons    NEL             ....   86
 Basis Dimension        Dim             ....  158

ORBITAL ENERGIES
----------------

  NO   OCC          E(Eh)            E(eV)
   0   2.0000     -88.921129     -2419.6669
   1   2.0000     -88.869336     -2418.2576
   2   2.0000     -19.159295      -521.3509
   3   2.0000     -19.159261      -521.3500
   4   2.0000     -10.321744      -280.8689
   5   2.0000     -10.321646      -280.8663
   6   2.0000     -10.259933      -279.1870
   7   2.0000     -10.259870      -279.1853
   8   2.0000     -10.236286      -278.5435
   9   2.0000     -10.236060      -278.5374
  10   2.0000      -8.015856      -218.1225
  11   2.0000      -7.966465      -216.7785
  12   2.0000      -5.983864      -162.8292
  13   2.0000      -5.979442      -162.7089
  14   2.0000      -5.977755      -162.6630
  15   2.0000      -5.934183      -161.4773
  16   2.0000      -5.931132      -161.3943
  17   2.0000      -5.926793      -161.2762
  18   2.0000      -1.071276       -29.1509
  19   2.0000      -1.068452       -29.0741
  20   2.0000      -0.928712       -25.2715
  21   2.0000      -0.838704       -22.8223
  22   2.0000      -0.769819       -20.9478
  23   2.0000      -0.754877       -20.5412
  24   2.0000      -0.655922       -17.8485
  25   2.0000      -0.625193       -17.0124
  26   2.0000      -0.590344       -16.0641
  27   2.0000      -0.553451       -15.0602
  28   2.0000      -0.492873       -13.4118
  29   2.0000      -0.485109       -13.2005
  30   2.0000      -0.468230       -12.7412
  31   2.0000      -0.456718       -12.4279
  32   2.0000      -0.449818       -12.2402
  33   2.0000      -0.445160       -12.1134
  34   2.0000      -0.427760       -11.6399
  35   2.0000      -0.407664       -11.0931
  36   2.0000      -0.406671       -11.0661
  37   2.0000      -0.386118       -10.5068
  38   2.0000      -0.304134        -8.2759
  39   2.0000      -0.292924        -7.9709
  40   2.0000      -0.286003        -7.7825
  41   2.0000      -0.279039        -7.5930
  42   2.0000      -0.277825        -7.5600
  43   0.0000      -0.090568        -2.4645
  44   0.0000      -0.081801        -2.2259
  45   0.0000      -0.014100        -0.3837
  46   0.0000       0.026452         0.7198
  47   0.0000       0.036637         0.9970

MULLIKEN ATOMIC CHARGES
-----------------------
   0 C :   -0.112282
   1 S :    0.151494
   2 C :   -0.113618
   3 C :    0.070280
   4 C :    0.069089
   5 C :    0.068731
   6 O :   -0.139879
   7 S :   -0.028199
   8 C :    0.068288
   9 O :   -0.139518
  10 H :    0.052564
  11 H :    0.053050
Sum of atomic charges:   -0.0000000

LOEWDIN ATOMIC CHARGES
----------------------
   0 C :   -0.140996
   1 S :    0.486689
   2 C :   -0.141291
   3 C :   -0.113107
   4 C :   -0.113222
   5 C :   -0.038823
   6 O :   -0.121670
   7 S :    0.259780
   8 C :   -0.038835
   9 O :   -0.121657
  10 H :    0.041524
  11 H :    0.041607

  Mayer bond orders larger than 0.100000
B(  0-C ,  1-S ) :   1.1891 B(  0-C ,  4-C ) :   1.5260 B(  0-C , 10-H ) :   0.9675
B(  1-S ,  2-C ) :   1.1892 B(  2-C ,  3-C ) :   1.5259 B(  2-C , 11-H ) :   0.9674
B(  3-C ,  4-C ) :   1.2403 B(  3-C ,  8-C ) :   0.8737 B(  4-C ,  5-C ) :   0.8736
B(  5-C ,  6-O ) :   2.1865 B(  5-C ,  7-S ) :   0.9947 B(  6-O ,  7-S ) :   0.1268
B(  7-S ,  8-C ) :   0.9948 B(  7-S ,  9-O ) :   0.1268 B(  8-C ,  9-O ) :   2.1867

Dispersion correction           -0.030777928
FINAL SINGLE POINT ENERGY     -1176.199162559747

DIPOLE MOMENT
-------------
                                X             Y             Z
Electronic contribution:      1.81516      -0.02293      -0.00099
Nuclear contribution   :     -3.45588       0.04312       0.00033
                        -----------------------------------------
Total Dipole Moment    :     -1.64071       0.02019      -0.00066
                        -----------------------------------------
Magnitude (a.u.)       :      1.64084
Magnitude (Debye)      :      4.17068

Rotational constants in cm-1:     0.055075     0.030051     0.019442
Rotational constants in MHz :  1651.114241   900.897121   582.867360

                             ****ORCA TERMINATED NORMALLY****
TOTAL RUN TIME: 0 days 0 hours 4 minutes 26 seconds 625 msec
