                         Program Version 4.2.0 -  RELEASE  -
|  1> # ORCA input file
|  2> # SCF done        -30.375450238649          0.000834714477
|  3> ! B3LYP/G D3BJ Opt RIJCOSX def2-SVP def2/J
|  4> * xyz 0 1
|  5>    C        0.36755         1.03294         0.39006
|  6>    S        1.13500        -0.41364         1.23900
|  7>    C       -0.52365        -0.86101         0.94835
|  8>    C       -0.92624         0.27360         0.33998
|  9>    C       -2.21499         0.66983        -0.20682
| 10>    O       -3.21605        -0.00633        -0.17523
| 11>    O       -2.13925         1.89242        -0.76598
| 12>    C       -3.33878         2.43207        -1.32247
| 13>    C       -3.98499         3.39191        -0.37208
| 14>    C       -4.32645         4.62616        -0.68757
| 15>    H        0.83275         1.23712        -0.56998
| 16>    H        0.36976         1.92164         1.01474
| 17>    H       -1.00571        -1.78339         1.20399
| 18>    H       -4.02457         1.60044        -1.53433
| 19>    H       -3.05151         2.92806        -2.25249
| 20>    H       -4.16048         2.99639         0.61916
| 21>    H       -4.15431         5.02764        -1.67289
| 22>    H       -4.80310         5.28172         0.02022
| 23> *
| 24>
| 25>                          ****END OF INPUT****
 Total Charge           Charge          ....    0
 Multiplicity           Mult            ....    1
 Number of Electrons    NEL             ....   82
Dispersion correction           -0.029578548
FINAL SINGLE POINT ENERGY      -819.746305626325
Dispersion correction            ... done
Dispersion correction           -0.029472137
FINAL SINGLE POINT ENERGY      -819.748494196032
Dispersion correction            ... done
Dispersion correction           -0.029493060
FINAL SINGLE POINT ENERGY      -819.748729496389
Dispersion correction            ... done
FINAL SINGLE POINT ENERGY      -819.748824781446
FINAL SINGLE POINT ENERGY      -819.749017823682
FINAL SINGLE POINT ENERGY      -819.749172203501
FINAL SINGLE POINT ENERGY      -819.749226873338
Dispersion correction            ... done
Dispersion correction           -0.029735913
FINAL SINGLE POINT ENERGY      -819.749256427602
Dispersion correction            ... done
Dispersion correction           -0.029741807
FINAL SINGLE POINT ENERGY      -819.749250073273
Dispersion correction            ... done
                    ***********************HURRAY********************

CARTESIAN COORDINATES (ANGSTROEM)
---------------------------------
  C      0.459466    0.941677    0.246839
  S      1.146397   -0.523512    1.198249
  C     -0.601111   -0.764700    1.108575
  C     -0.916264    0.349237    0.405329
  C     -2.210395    0.810968   -0.097841
  O     -3.274169    0.258073    0.080158
  O     -2.062330    1.949460   -0.813524
  C     -3.249478    2.488623   -1.424405
  C     -4.099098    3.248332   -0.448824
  C     -4.395431    4.543711   -0.573588
  H      0.851346    0.988876   -0.779414
  H      0.642543    1.889858    0.772348
  H     -1.195869   -1.586783    1.508558
  H     -3.825673    1.654906   -1.857844
  H     -2.887382    3.141415   -2.230672
  H     -4.497497    2.660278    0.384325
  H     -4.005549    5.141605   -1.404776
  H     -5.044525    5.055548    0.142167

 Multiplicity           Mult            ....    1
 Number of Electrons    NEL             ....   82
 Basis Dimension        Dim             ....  184

ORBITAL ENERGIES
----------------

  NO   OCC          E(Eh)            E(eV)
   0   2.0000     -88.863309     -2418.0936
   1   2.0000     -19.177015      -521.8331
   2   2.0000     -19.117905      -520.2246
   3   2.0000     -10.314231      -280.6645
   4   2.0000     -10.250352      -278.9263
   5   2.0000     -10.238625      -278.6072
   6   2.0000     -10.237124      -278.5663
   7   2.0000     -10.208834      -277.7965
   8   2.0000     -10.197349      -277.4840
   9   2.0000     -10.195470      -277.4328
  10   2.0000      -7.958693      -216.5671
  11   2.0000      -5.927181      -161.2868
  12   2.0000      -5.924435      -161.2121
  13   2.0000      -5.917692      -161.0286
  14   2.0000      -1.092743       -29.7351
  15   2.0000      -1.002917       -27.2908
  16   2.0000      -0.886321       -24.1180
  17   2.0000      -0.793624       -21.5956
  18   2.0000      -0.731586       -19.9075
  19   2.0000      -0.688147       -18.7254
  20   2.0000      -0.678716       -18.4688
  21   2.0000      -0.602294       -16.3892
  22   2.0000      -0.565852       -15.3976
  23   2.0000      -0.537603       -14.6289
  24   2.0000      -0.529192       -14.4000
  25   2.0000      -0.489294       -13.3144
  26   2.0000      -0.479173       -13.0390
  27   2.0000      -0.464737       -12.6461
  28   2.0000      -0.454094       -12.3565
  29   2.0000      -0.427499       -11.6328
  30   2.0000      -0.418589       -11.3904
  31   2.0000      -0.398989       -10.8571
  32   2.0000      -0.378044       -10.2871
  33   2.0000      -0.370715       -10.0877
  34   2.0000      -0.360521        -9.8103
  35   2.0000      -0.344012        -9.3611
  36   2.0000      -0.319902        -8.7050
  37   2.0000      -0.303888        -8.2692
  38   2.0000      -0.279160        -7.5963
  39   2.0000      -0.273976        -7.4553
  40   2.0000      -0.232830        -6.3356
  41   0.0000      -0.053419        -1.4536
  42   0.0000      -0.009237        -0.2514
  43   0.0000      -0.002162        -0.0588
  44   0.0000       0.066795         1.8176
  45   0.0000       0.070166         1.9093

MULLIKEN ATOMIC CHARGES
-----------------------
   0 C :    0.074587
   1 S :   -0.027372
   2 C :   -0.016065
   3 C :   -0.142521
   4 C :    0.217208
   5 O :   -0.228829
   6 O :   -0.325480
   7 C :    0.296844
   8 C :   -0.107604
   9 C :   -0.022960
  10 H :    0.070556
  11 H :    0.071374
  12 H :    0.032042
  13 H :    0.025783
  14 H :    0.006783
  15 H :    0.028449
  16 H :    0.017531
  17 H :    0.029672
Sum of atomic charges:    0.0000000

LOEWDIN ATOMIC CHARGES
----------------------
   0 C :   -0.061202
   1 S :    0.262052
   2 C :   -0.082536
   3 C :   -0.140696
   4 C :    0.072479
   5 O :   -0.192069
   6 O :   -0.102872
   7 C :    0.092637
   8 C :   -0.039746
   9 C :   -0.044062
  10 H :    0.036310
  11 H :    0.037048
  12 H :    0.029090
  13 H :    0.027317
  14 H :    0.024329
  15 H :    0.032322
  16 H :    0.022036
  17 H :    0.027562

  Mayer bond orders larger than 0.100000
B(  0-C ,  1-S ) :   0.9920 B(  0-C ,  3-C ) :   1.0378 B(  0-C , 10-H ) :   0.9307
B(  0-C , 11-H ) :   0.9298 B(  1-S ,  2-C ) :   1.0894 B(  1-S ,  3-C ) :   0.1213
B(  2-C ,  3-C ) :   1.6716 B(  2-C , 12-H ) :   0.9986 B(  3-C ,  4-C ) :   1.0157
B(  4-C ,  5-O ) :   2.0753 B(  4-C ,  6-O ) :   1.1952 B(  6-O ,  7-C ) :   0.8886
B(  7-C ,  8-C ) :   1.0656 B(  7-C , 13-H ) :   0.9220 B(  7-C , 14-H ) :   0.9515
B(  8-C ,  9-C ) :   2.0068 B(  8-C , 15-H ) :   0.9594 B(  9-C , 16-H ) :   0.9515
B(  9-C , 17-H ) :   0.9533

Dispersion correction           -0.029740454
FINAL SINGLE POINT ENERGY      -819.749248989142

DIPOLE MOMENT
-------------
                                X             Y             Z
Electronic contribution:      7.27113      -8.76553       3.67270
Nuclear contribution   :     -6.87213       9.30825      -3.95851
                        -----------------------------------------
Total Dipole Moment    :      0.39900       0.54271      -0.28580
                        -----------------------------------------
Magnitude (a.u.)       :      0.73173
Magnitude (Debye)      :      1.85990

Rotational constants in cm-1:     0.114706     0.016207     0.015092
Rotational constants in MHz :  3438.799927   485.887449   452.438116

                             ****ORCA TERMINATED NORMALLY****
TOTAL RUN TIME: 0 days 0 hours 8 minutes 43 seconds 335 msec
