                         Program Version 4.2.0 -  RELEASE  -
|  1> # ORCA input file
|  2> # SCF done        -42.549119220648          0.000201478982
|  3> ! B3LYP/G D3BJ Opt RIJCOSX def2-SVP def2/J
|  4> * xyz 0 1
|  5>    C       -1.66023        -1.04875         0.09874
|  6>    S       -2.67021         0.30067         0.37020
|  7>    C       -1.33639         1.36196         0.51016
|  8>    C       -0.13939         0.70354         0.35491
|  9>    C       -0.33025        -0.70295         0.11462
| 10>    C        0.80517        -1.52897        -0.07287
| 11>    C        2.04415        -0.97719        -0.01968
| 12>    S        3.48068        -2.00579        -0.25324
| 13>    C        3.76895        -1.66015        -2.03595
| 14>    C        4.98512        -2.42829        -2.51034
| 15>    C        2.24141         0.41573         0.23977
| 16>    S        3.92656         0.91635         0.31293
| 17>    C        3.82199         2.68732         0.76021
| 18>    C        5.22679         3.22893         0.94490
| 19>    C        1.16939         1.24209         0.41301
| 20>    H       -2.09066        -2.01753        -0.05580
| 21>    H       -1.50186         2.40332         0.69933
| 22>    H        0.68310        -2.58541        -0.25407
| 23>    H        3.91354        -0.58523        -2.14044
| 24>    H        2.86906        -1.96578        -2.57095
| 25>    H        5.86597        -2.11912        -1.95307
| 26>    H        5.15331        -2.23936        -3.56871
| 27>    H        4.84074        -3.49601        -2.36237
| 28>    H        3.25064         2.76185         1.68600
| 29>    H        3.30388         3.21123        -0.04386
| 30>    H        5.74362         2.68240         1.73042
| 31>    H        5.18536         4.28105         1.21937
| 32>    H        5.79755         3.12984         0.02431
| 33>    H        1.27829         2.29764         0.60091
| 34> *
| 35>
| 36>                          ****END OF INPUT****
 Total Charge           Charge          ....    0
 Multiplicity           Mult            ....    1
 Number of Electrons    NEL             ....  134
Dispersion correction           -0.069154667
FINAL SINGLE POINT ENERGY     -1659.670841166760
Dispersion correction            ... done
Dispersion correction           -0.068659984
FINAL SINGLE POINT ENERGY     -1659.675609000746
Dispersion correction            ... done
Dispersion correction           -0.068772848
FINAL SINGLE POINT ENERGY     -1659.675460701922
Dispersion correction            ... done
FINAL SINGLE POINT ENERGY     -1659.675040745705
FINAL SINGLE POINT ENERGY     -1659.675141144718
FINAL SINGLE POINT ENERGY     -1659.675410637694
FINAL SINGLE POINT ENERGY     -1659.675411682623
FINAL SINGLE POINT ENERGY     -1659.675448068551
FINAL SINGLE POINT ENERGY     -1659.675439427677
Dispersion correction            ... done
Dispersion correction           -0.068955201
FINAL SINGLE POINT ENERGY     -1659.675421073419
Dispersion correction            ... done
Dispersion correction           -0.068930512
FINAL SINGLE POINT ENERGY     -1659.675424678541
Dispersion correction            ... done
                    ***********************HURRAY********************

CARTESIAN COORDINATES (ANGSTROEM)
---------------------------------
  C     -1.810540   -0.980359    0.211570
  S     -2.745806    0.431745    0.483811
  C     -1.364382    1.449034    0.560017
  C     -0.189540    0.726689    0.384246
  C     -0.452619   -0.685025    0.172439
  C      0.648996   -1.563318   -0.065047
  C      1.933676   -1.079961   -0.069621
  S      3.295379   -2.198525   -0.356416
  C      3.740352   -1.750267   -2.093196
  C      5.199183   -2.093069   -2.357795
  C      2.202857    0.323795    0.207033
  S      3.917850    0.769200    0.286293
  C      3.853503    2.554686    0.673232
  C      5.282963    3.067270    0.827425
  C      1.159956    1.200656    0.403966
  H     -2.289111   -1.949228    0.082131
  H     -1.477028    2.515405    0.745258
  H      0.475904   -2.622705   -0.263940
  H      3.562797   -0.671988   -2.211995
  H      3.064737   -2.290805   -2.773259
  H      5.859027   -1.514370   -1.695343
  H      5.465089   -1.857943   -3.401549
  H      5.402778   -3.163355   -2.190518
  H      3.280653    2.693880    1.604216
  H      3.325869    3.090090   -0.132798
  H      5.823180    2.508373    1.606625
  H      5.279939    4.131001    1.112126
  H      5.847463    2.965117   -0.112637
  H      1.333159    2.257365    0.602167

 Multiplicity           Mult            ....    1
 Number of Electrons    NEL             ....  134
 Basis Dimension        Dim             ....  292

ORBITAL ENERGIES
----------------

  NO   OCC          E(Eh)            E(eV)
   0   2.0000     -88.885531     -2418.6983
   1   2.0000     -88.845199     -2417.6008
   2   2.0000     -88.832272     -2417.2490
   3   2.0000     -10.222611      -278.1714
   4   2.0000     -10.218884      -278.0700
   5   2.0000     -10.217569      -278.0342
   6   2.0000     -10.214472      -277.9499
   7   2.0000     -10.210779      -277.8494
   8   2.0000     -10.208656      -277.7917
   9   2.0000     -10.201835      -277.6060
  10   2.0000     -10.200888      -277.5803
  11   2.0000     -10.200502      -277.5698
  12   2.0000     -10.195264      -277.4272
  13   2.0000     -10.193398      -277.3765
  14   2.0000     -10.184890      -277.1449
  15   2.0000      -7.980189      -217.1520
  16   2.0000      -7.939312      -216.0397
  17   2.0000      -7.926571      -215.6930
  18   2.0000      -5.947989      -161.8530
  19   2.0000      -5.943741      -161.7374
  20   2.0000      -5.942462      -161.7026
  21   2.0000      -5.908418      -160.7762
  22   2.0000      -5.904519      -160.6701
  23   2.0000      -5.898364      -160.5026
  24   2.0000      -5.895740      -160.4312
  25   2.0000      -5.892283      -160.3372
  26   2.0000      -5.885150      -160.1431
  27   2.0000      -0.892889       -24.2968
  28   2.0000      -0.851192       -23.1621
  29   2.0000      -0.804927       -21.9032
  30   2.0000      -0.790599       -21.5133
  31   2.0000      -0.762335       -20.7442
  32   2.0000      -0.747343       -20.3362
  33   2.0000      -0.718781       -19.5590
  34   2.0000      -0.682714       -18.5776
  35   2.0000      -0.673305       -18.3215
  36   2.0000      -0.625912       -17.0319
  37   2.0000      -0.598649       -16.2901
  38   2.0000      -0.582069       -15.8389
  39   2.0000      -0.567061       -15.4305
  40   2.0000      -0.553766       -15.0687
  41   2.0000      -0.512731       -13.9521
  42   2.0000      -0.479301       -13.0424
  43   2.0000      -0.467400       -12.7186
  44   2.0000      -0.464248       -12.6328
  45   2.0000      -0.450697       -12.2641
  46   2.0000      -0.442916       -12.0523
  47   2.0000      -0.435979       -11.8636
  48   2.0000      -0.419619       -11.4184
  49   2.0000      -0.410984       -11.1834
  50   2.0000      -0.407446       -11.0872
  51   2.0000      -0.392327       -10.6758
  52   2.0000      -0.389247       -10.5919
  53   2.0000      -0.379508       -10.3269
  54   2.0000      -0.370651       -10.0859
  55   2.0000      -0.360918        -9.8211
  56   2.0000      -0.358237        -9.7481
  57   2.0000      -0.355922        -9.6851
  58   2.0000      -0.347465        -9.4550
  59   2.0000      -0.336840        -9.1659
  60   2.0000      -0.322986        -8.7889
  61   2.0000      -0.311322        -8.4715
  62   2.0000      -0.291659        -7.9364
  63   2.0000      -0.270299        -7.3552
  64   2.0000      -0.230209        -6.2643
  65   2.0000      -0.219301        -5.9675
  66   2.0000      -0.197713        -5.3800
  67   0.0000      -0.060930        -1.6580
  68   0.0000       0.004502         0.1225
  69   0.0000       0.021034         0.5724
  70   0.0000       0.031319         0.8522
  71   0.0000       0.044379         1.2076

MULLIKEN ATOMIC CHARGES
-----------------------
   0 C :   -0.140187
   1 S :    0.132903
   2 C :   -0.150794
   3 C :    0.117611
   4 C :    0.105320
   5 C :    0.010321
   6 C :   -0.105270
   7 S :   -0.043820
   8 C :   -0.088887
   9 C :    0.012614
  10 C :    0.019060
  11 S :   -0.006670
  12 C :   -0.133724
  13 C :    0.026811
  14 C :   -0.064336
  15 H :    0.019028
  16 H :    0.014008
  17 H :   -0.031566
  18 H :    0.050570
  19 H :    0.040795
  20 H :    0.028036
  21 H :    0.018169
  22 H :    0.022959
  23 H :    0.055179
  24 H :    0.054825
  25 H :    0.026962
  26 H :    0.024861
  27 H :    0.025967
  28 H :   -0.040744
Sum of atomic charges:   -0.0000000

LOEWDIN ATOMIC CHARGES
----------------------
   0 C :   -0.205670
   1 S :    0.476611
   2 C :   -0.219175
   3 C :   -0.045672
   4 C :   -0.058631
   5 C :   -0.018841
   6 C :   -0.182390
   7 S :    0.246471
   8 C :   -0.124871
   9 C :   -0.069655
  10 C :   -0.164588
  11 S :    0.301501
  12 C :   -0.139599
  13 C :   -0.067704
  14 C :   -0.065908
  15 H :    0.025297
  16 H :    0.022823
  17 H :    0.028734
  18 H :    0.017426
  19 H :    0.016653
  20 H :    0.026233
  21 H :    0.027890
  22 H :    0.023938
  23 H :    0.021000
  24 H :    0.020021
  25 H :    0.026748
  26 H :    0.030859
  27 H :    0.026337
  28 H :    0.024162

  Mayer bond orders larger than 0.100000
B(  0-C ,  1-S ) :   1.2081 B(  0-C ,  2-C ) :   0.1145 B(  0-C ,  4-C ) :   1.4000
B(  0-C , 15-H ) :   0.9664 B(  1-S ,  2-C ) :   1.1899 B(  2-C ,  3-C ) :   1.4133
B(  2-C , 16-H ) :   0.9616 B(  3-C ,  4-C ) :   1.1982 B(  3-C , 14-C ) :   1.1611
B(  4-C ,  5-C ) :   1.1602 B(  5-C ,  6-C ) :   1.5924 B(  5-C , 17-H ) :   0.9869
B(  6-C ,  7-S ) :   1.0180 B(  6-C , 10-C ) :   1.1870 B(  7-S ,  8-C ) :   0.9697
B(  8-C ,  9-C ) :   1.0845 B(  8-C , 18-H ) :   0.9488 B(  8-C , 19-H ) :   0.9492
B(  9-C , 20-H ) :   0.9706 B(  9-C , 21-H ) :   0.9640 B(  9-C , 22-H ) :   0.9695
B( 10-C , 11-S ) :   1.0231 B( 10-C , 14-C ) :   1.5290 B( 11-S , 12-C ) :   0.9973
B( 12-C , 13-C ) :   1.0858 B( 12-C , 23-H ) :   0.9409 B( 12-C , 24-H ) :   0.9412
B( 13-C , 25-H ) :   0.9673 B( 13-C , 26-H ) :   0.9649 B( 13-C , 27-H ) :   0.9689
B( 14-C , 28-H ) :   0.9874

Dispersion correction           -0.068938190
FINAL SINGLE POINT ENERGY     -1659.675427097805

DIPOLE MOMENT
-------------
                                X             Y             Z
Electronic contribution:    -20.11083      -5.61009       5.90406
Nuclear contribution   :     19.93190       6.34770      -6.21796
                        -----------------------------------------
Total Dipole Moment    :     -0.17893       0.73761      -0.31390
                        -----------------------------------------
Magnitude (a.u.)       :      0.82135
Magnitude (Debye)      :      2.08771

Rotational constants in cm-1:     0.020507     0.008912     0.006514
Rotational constants in MHz :   614.770148   267.171934   195.280168

                             ****ORCA TERMINATED NORMALLY****
TOTAL RUN TIME: 0 days 0 hours 28 minutes 34 seconds 562 msec
