                         Program Version 4.2.0 -  RELEASE  -
|  1> # ORCA input file
|  2> # SCF done        -36.858966267344          0.000843677444
|  3> ! B3LYP/G D3BJ Opt RIJCOSX def2-SVP def2/J
|  4> * xyz 0 1
|  5>    C       -1.62431        -1.14444         0.16828
|  6>    S       -2.76074         0.12313         0.24399
|  7>    C       -1.54434         1.31995         0.15808
|  8>    C       -0.28789         0.76952         0.07214
|  9>    C       -0.33272        -0.67148         0.07863
| 10>    C        0.86778        -1.41065         0.00032
| 11>    C        2.05840        -0.73971        -0.08141
| 12>    C        3.35161        -1.45459        -0.15902
| 13>    O        4.42796        -0.91503        -0.25015
| 14>    O        3.20720        -2.79123        -0.11683
| 15>    C        4.40779        -3.54369        -0.18350
| 16>    C        2.09960         0.68506        -0.09165
| 17>    C        0.96638         1.42653        -0.01671
| 18>    H       -1.95363        -2.16372         0.19302
| 19>    H       -1.81380         2.35678         0.17500
| 20>    H        0.83675        -2.48860         0.00615
| 21>    H        4.12646        -4.58152        -0.02338
| 22>    H        5.10791        -3.21097         0.58572
| 23>    H        4.87877        -3.42192        -1.16152
| 24>    H        3.07144         1.14907        -0.15916
| 25>    H        0.99652         2.50543        -0.02260
| 26> *
| 27>
| 28>                          ****END OF INPUT****
 Total Charge           Charge          ....    0
 Multiplicity           Mult            ....    1
 Number of Electrons    NEL             ....  100
Dispersion correction           -0.044409210
FINAL SINGLE POINT ENERGY      -934.064458853252
Dispersion correction            ... done
Dispersion correction           -0.044227876
FINAL SINGLE POINT ENERGY      -934.066802447428
Dispersion correction            ... done
Dispersion correction           -0.044199431
FINAL SINGLE POINT ENERGY      -934.066806097719
Dispersion correction            ... done
FINAL SINGLE POINT ENERGY      -934.066874283361
FINAL SINGLE POINT ENERGY      -934.066891169939
FINAL SINGLE POINT ENERGY      -934.066909349457
FINAL SINGLE POINT ENERGY      -934.066915929938
FINAL SINGLE POINT ENERGY      -934.066927737439
FINAL SINGLE POINT ENERGY      -934.066945639059
Dispersion correction            ... done
Dispersion correction           -0.044206207
FINAL SINGLE POINT ENERGY      -934.066955150845
Dispersion correction            ... done
Dispersion correction           -0.044206791
FINAL SINGLE POINT ENERGY      -934.066960580193
Dispersion correction            ... done
                    ***********************HURRAY********************

CARTESIAN COORDINATES (ANGSTROEM)
---------------------------------
  C     -1.650685   -1.154209    0.169127
  S     -2.781494    0.125209    0.282427
  C     -1.572368    1.339589    0.191064
  C     -0.304169    0.783628    0.076566
  C     -0.348609   -0.670896    0.065443
  C      0.865606   -1.411508   -0.031375
  C      2.064827   -0.738827   -0.114024
  C      3.362832   -1.460904   -0.202831
  O      4.440298   -0.925156   -0.334405
  O      3.220992   -2.798039   -0.109826
  C      4.424611   -3.558228   -0.149016
  C      2.106987    0.698736   -0.110504
  C      0.963322    1.442685   -0.019523
  H     -1.980153   -2.191383    0.181285
  H     -1.843922    2.392887    0.224823
  H      0.848388   -2.501938   -0.037153
  H      4.123831   -4.608254   -0.042203
  H      5.097578   -3.266914    0.671956
  H      4.957398   -3.405545   -1.100381
  H      3.086972    1.172602   -0.181395
  H      1.004897    2.534388   -0.014654

 Multiplicity           Mult            ....    1
 Number of Electrons    NEL             ....  100
 Basis Dimension        Dim             ....  226

ORBITAL ENERGIES
----------------

  NO   OCC          E(Eh)            E(eV)
   0   2.0000     -88.894123     -2418.9321
   1   2.0000     -19.176064      -521.8072
   2   2.0000     -19.117617      -520.2168
   3   2.0000     -10.310602      -280.5657
   4   2.0000     -10.245414      -278.7919
   5   2.0000     -10.221921      -278.1526
   6   2.0000     -10.218779      -278.0671
   7   2.0000     -10.207765      -277.7674
   8   2.0000     -10.207242      -277.7532
   9   2.0000     -10.207171      -277.7512
  10   2.0000     -10.203569      -277.6532
  11   2.0000     -10.198985      -277.5285
  12   2.0000     -10.194651      -277.4105
  13   2.0000      -7.988742      -217.3847
  14   2.0000      -5.956388      -162.0816
  15   2.0000      -5.952224      -161.9683
  16   2.0000      -5.951270      -161.9423
  17   2.0000      -1.094935       -29.7947
  18   2.0000      -1.002575       -27.2814
  19   2.0000      -0.898746       -24.4561
  20   2.0000      -0.838685       -22.8218
  21   2.0000      -0.773054       -21.0359
  22   2.0000      -0.752555       -20.4781
  23   2.0000      -0.724015       -19.7014
  24   2.0000      -0.698067       -18.9954
  25   2.0000      -0.634642       -17.2695
  26   2.0000      -0.598423       -16.2839
  27   2.0000      -0.581056       -15.8113
  28   2.0000      -0.557740       -15.1769
  29   2.0000      -0.525739       -14.3061
  30   2.0000      -0.507909       -13.8209
  31   2.0000      -0.484826       -13.1928
  32   2.0000      -0.476359       -12.9624
  33   2.0000      -0.469416       -12.7734
  34   2.0000      -0.444506       -12.0956
  35   2.0000      -0.434283       -11.8174
  36   2.0000      -0.419137       -11.4053
  37   2.0000      -0.417450       -11.3594
  38   2.0000      -0.415584       -11.3086
  39   2.0000      -0.398732       -10.8500
  40   2.0000      -0.383727       -10.4417
  41   2.0000      -0.363811        -9.8998
  42   2.0000      -0.357123        -9.7178
  43   2.0000      -0.348026        -9.4703
  44   2.0000      -0.340139        -9.2557
  45   2.0000      -0.305315        -8.3080
  46   2.0000      -0.294481        -8.0132
  47   2.0000      -0.277418        -7.5489
  48   2.0000      -0.258372        -7.0307
  49   2.0000      -0.214941        -5.8488
  50   0.0000      -0.074037        -2.0147
  51   0.0000      -0.021276        -0.5789
  52   0.0000       0.016724         0.4551
  53   0.0000       0.043248         1.1768
  54   0.0000       0.067109         1.8261

MULLIKEN ATOMIC CHARGES
-----------------------
   0 C :   -0.134990
   1 S :    0.145595
   2 C :   -0.143935
   3 C :    0.104609
   4 C :    0.103566
   5 C :   -0.013539
   6 C :   -0.043259
   7 C :    0.213830
   8 O :   -0.223816
   9 O :   -0.310637
  10 C :    0.191445
  11 C :    0.018251
  12 C :    0.002764
  13 H :    0.022468
  14 H :    0.020446
  15 H :   -0.014272
  16 H :    0.029335
  17 H :    0.030761
  18 H :    0.029726
  19 H :   -0.004810
  20 H :   -0.023541
Sum of atomic charges:   -0.0000000

LOEWDIN ATOMIC CHARGES
----------------------
   0 C :   -0.202545
   1 S :    0.491402
   2 C :   -0.210902
   3 C :   -0.046126
   4 C :   -0.053934
   5 C :    0.015476
   6 C :   -0.075534
   7 C :    0.087810
   8 O :   -0.181361
   9 O :   -0.098562
  10 C :    0.083435
  11 C :   -0.006499
  12 C :   -0.019436
  13 H :    0.026771
  14 H :    0.026071
  15 H :    0.032579
  16 H :    0.023193
  17 H :    0.021876
  18 H :    0.021574
  19 H :    0.034688
  20 H :    0.030024

  Mayer bond orders larger than 0.100000
B(  0-C ,  1-S ) :   1.2189 B(  0-C ,  2-C ) :   0.1153 B(  0-C ,  4-C ) :   1.3870
B(  0-C , 13-H ) :   0.9654 B(  1-S ,  2-C ) :   1.1990 B(  2-C ,  3-C ) :   1.4121
B(  2-C , 14-H ) :   0.9646 B(  3-C ,  4-C ) :   1.1985 B(  3-C , 12-C ) :   1.1660
B(  4-C ,  5-C ) :   1.1588 B(  5-C ,  6-C ) :   1.4992 B(  5-C , 15-H ) :   0.9983
B(  6-C ,  7-C ) :   0.9447 B(  6-C , 11-C ) :   1.2060 B(  7-C ,  8-O ) :   2.0719
B(  7-C ,  9-O ) :   1.2033 B(  9-O , 10-C ) :   0.9233 B( 10-C , 16-H ) :   0.9793
B( 10-C , 17-H ) :   0.9732 B( 10-C , 18-H ) :   0.9735 B( 11-C , 12-C ) :   1.5383
B( 11-C , 19-H ) :   0.9831 B( 12-C , 20-H ) :   0.9970

Dispersion correction           -0.044206842
FINAL SINGLE POINT ENERGY      -934.066959378217

DIPOLE MOMENT
-------------
                                X             Y             Z
Electronic contribution:     -8.75380       4.09965       0.41754
Nuclear contribution   :      7.98833      -4.54628      -0.29972
                        -----------------------------------------
Total Dipole Moment    :     -0.76547      -0.44664       0.11781
                        -----------------------------------------
Magnitude (a.u.)       :      0.89404
Magnitude (Debye)      :      2.27247

Rotational constants in cm-1:     0.067649     0.011947     0.010177
Rotational constants in MHz :  2028.052710   358.171701   305.101857

                             ****ORCA TERMINATED NORMALLY****
TOTAL RUN TIME: 0 days 0 hours 15 minutes 16 seconds 831 msec
