                         Program Version 4.2.0 -  RELEASE  -
|  1> # ORCA input file
|  2> # SCF done        -28.864702244961          0.000772604953
|  3> ! B3LYP/G D3BJ Opt RIJCOSX def2-SVP def2/J
|  4> * xyz 0 1
|  5>    C       -0.35468        -1.68805        -0.00821
|  6>    N       -1.66224        -1.29625         0.00450
|  7>    C       -1.80691         0.10674         0.01241
|  8>    O       -2.87287         0.67302         0.02391
|  9>    C       -0.43288         0.57836         0.00481
| 10>    C        0.43346        -0.58112        -0.00811
| 11>    C        1.80749        -0.10950        -0.01561
| 12>    O        2.87344        -0.67579        -0.02704
| 13>    N        1.66281         1.29348        -0.00747
| 14>    C        0.35525         1.68527         0.00518
| 15>    H       -0.08559        -2.72824        -0.01562
| 16>    H       -2.45261        -1.92166         0.00782
| 17>    H        2.45318         1.91890        -0.01063
| 18>    H        0.08617         2.72547         0.01271
| 19> *
| 20>
| 21>                          ****END OF INPUT****
 Total Charge           Charge          ....    0
 Multiplicity           Mult            ....    1
 Number of Electrons    NEL             ....   70
Dispersion correction           -0.025821146
FINAL SINGLE POINT ENERGY      -490.654806846770
Dispersion correction            ... done
Dispersion correction           -0.025816478
FINAL SINGLE POINT ENERGY      -490.656840426515
Dispersion correction            ... done
Dispersion correction           -0.025815276
FINAL SINGLE POINT ENERGY      -490.656975341945
Dispersion correction            ... done
FINAL SINGLE POINT ENERGY      -490.657003598263
Dispersion correction            ... done
Dispersion correction           -0.025813356
FINAL SINGLE POINT ENERGY      -490.657005947871
Dispersion correction            ... done
Dispersion correction           -0.025813483
FINAL SINGLE POINT ENERGY      -490.657009246254
Dispersion correction            ... done
                    ***********************HURRAY********************

CARTESIAN COORDINATES (ANGSTROEM)
---------------------------------
  C     -0.352335   -1.697791   -0.007548
  N     -1.675259   -1.309649    0.003516
  C     -1.826840    0.116257    0.013088
  O     -2.894433    0.685692    0.025803
  C     -0.433180    0.576028    0.004460
  C      0.433752   -0.578794   -0.007682
  C      1.827412   -0.119024   -0.016385
  O      2.895008   -0.688458   -0.028946
  N      1.675833    1.306880   -0.006502
  C      0.352910    1.695024    0.004546
  H     -0.069790   -2.750540   -0.014220
  H     -2.475484   -1.930559    0.006186
  H      2.476058    1.927790   -0.009021
  H      0.070369    2.747773    0.011357

 Multiplicity           Mult            ....    1
 Number of Electrons    NEL             ....   70
 Basis Dimension        Dim             ....  160

ORBITAL ENERGIES
----------------

  NO   OCC          E(Eh)            E(eV)
   0   2.0000     -19.117955      -520.2260
   1   2.0000     -19.117951      -520.2259
   2   2.0000     -14.383808      -391.4033
   3   2.0000     -14.383792      -391.4029
   4   2.0000     -10.303805      -280.3808
   5   2.0000     -10.303805      -280.3808
   6   2.0000     -10.265562      -279.3401
   7   2.0000     -10.265522      -279.3391
   8   2.0000     -10.193907      -277.3903
   9   2.0000     -10.193753      -277.3861
  10   2.0000      -1.044131       -28.4123
  11   2.0000      -1.039596       -28.2888
  12   2.0000      -0.971980       -26.4489
  13   2.0000      -0.956861       -26.0375
  14   2.0000      -0.806326       -21.9412
  15   2.0000      -0.738738       -20.1021
  16   2.0000      -0.690530       -18.7903
  17   2.0000      -0.680570       -18.5193
  18   2.0000      -0.587061       -15.9747
  19   2.0000      -0.551865       -15.0170
  20   2.0000      -0.535476       -14.5710
  21   2.0000      -0.512033       -13.9331
  22   2.0000      -0.489695       -13.3253
  23   2.0000      -0.468587       -12.7509
  24   2.0000      -0.461544       -12.5592
  25   2.0000      -0.433167       -11.7871
  26   2.0000      -0.433026       -11.7832
  27   2.0000      -0.431372       -11.7382
  28   2.0000      -0.396355       -10.7854
  29   2.0000      -0.357515        -9.7285
  30   2.0000      -0.347903        -9.4669
  31   2.0000      -0.282584        -7.6895
  32   2.0000      -0.273743        -7.4489
  33   2.0000      -0.266098        -7.2409
  34   2.0000      -0.215931        -5.8758
  35   0.0000      -0.089579        -2.4376
  36   0.0000      -0.004066        -0.1106
  37   0.0000       0.050774         1.3816
  38   0.0000       0.051369         1.3978
  39   0.0000       0.088838         2.4174

MULLIKEN ATOMIC CHARGES
-----------------------
   0 C :    0.066966
   1 N :   -0.156566
   2 C :    0.179513
   3 O :   -0.176476
   4 C :   -0.068437
   5 C :   -0.068447
   6 C :    0.179523
   7 O :   -0.176478
   8 N :   -0.156564
   9 C :    0.066963
  10 H :    0.025211
  11 H :    0.129790
  12 H :    0.129790
  13 H :    0.025212
Sum of atomic charges:   -0.0000000

LOEWDIN ATOMIC CHARGES
----------------------
   0 C :    0.091355
   1 N :    0.014795
   2 C :    0.078754
   3 O :   -0.179098
   4 C :   -0.129680
   5 C :   -0.129680
   6 C :    0.078755
   7 O :   -0.179099
   8 N :    0.014795
   9 C :    0.091356
  10 H :    0.036244
  11 H :    0.087630
  12 H :    0.087630
  13 H :    0.036244

  Mayer bond orders larger than 0.100000
B(  0-C ,  1-N ) :   1.1964 B(  0-C ,  5-C ) :   1.5006 B(  0-C , 10-H ) :   0.9817
B(  1-N ,  2-C ) :   1.0150 B(  1-N , 11-H ) :   0.9274 B(  2-C ,  3-O ) :   2.1888
B(  2-C ,  4-C ) :   0.9567 B(  4-C ,  5-C ) :   1.1974 B(  4-C ,  9-C ) :   1.5006
B(  5-C ,  6-C ) :   0.9567 B(  6-C ,  7-O ) :   2.1888 B(  6-C ,  8-N ) :   1.0150
B(  8-N ,  9-C ) :   1.1964 B(  8-N , 12-H ) :   0.9274 B(  9-C , 13-H ) :   0.9817

Dispersion correction           -0.025813541
FINAL SINGLE POINT ENERGY      -490.657010334413

DIPOLE MOMENT
-------------
                                X             Y             Z
Electronic contribution:     -0.00001       0.00000      -0.00041
Nuclear contribution   :      0.00001      -0.00000       0.00050
                        -----------------------------------------
Total Dipole Moment    :     -0.00000       0.00000       0.00009
                        -----------------------------------------
Magnitude (a.u.)       :      0.00009
Magnitude (Debye)      :      0.00024

Rotational constants in cm-1:     0.103519     0.037689     0.027630
Rotational constants in MHz :  3103.423350  1129.881802   828.313162

                             ****ORCA TERMINATED NORMALLY****
TOTAL RUN TIME: 0 days 0 hours 4 minutes 14 seconds 104 msec
