                         Program Version 4.2.0 -  RELEASE  -
|  1> # ORCA input file
|  2> # SCF done        -35.702489272122          0.000518880164
|  3> ! B3LYP/G D3BJ Opt RIJCOSX def2-SVP def2/J
|  4> * xyz 0 1
|  5>    C       -1.84033         1.10241         0.15772
|  6>    S       -2.86348        -0.21734         0.53003
|  7>    C       -1.60927        -1.33775         0.21443
|  8>    C       -0.45713        -0.72019        -0.17754
|  9>    C       -0.58775         0.70167        -0.20512
| 10>    S        0.63253         1.85678        -0.75579
| 11>    C        2.14308         1.29225         0.01500
| 12>    O        3.14866         1.90603        -0.17128
| 13>    C        2.02626         0.02955         0.83257
| 14>    C        1.89090        -1.14229        -0.13360
| 15>    O        2.81520        -1.78500        -0.52668
| 16>    O        0.64430        -1.44150        -0.54730
| 17>    H       -2.20604         2.10756         0.20549
| 18>    H       -1.77288        -2.39167         0.30879
| 19>    H        1.17066         0.07588         1.50890
| 20>    H        2.95555        -0.09652         1.39034
| 21> *
| 22>
| 23>                          ****END OF INPUT****
 Total Charge           Charge          ....    0
 Multiplicity           Mult            ....    1
 Number of Electrons    NEL             ....  102
Dispersion correction           -0.041250586
FINAL SINGLE POINT ENERGY     -1290.642453133626
Dispersion correction            ... done
Dispersion correction           -0.041025346
FINAL SINGLE POINT ENERGY     -1290.644460986364
Dispersion correction            ... done
Dispersion correction           -0.040923584
FINAL SINGLE POINT ENERGY     -1290.644795018780
Dispersion correction            ... done
FINAL SINGLE POINT ENERGY     -1290.645157913595
FINAL SINGLE POINT ENERGY     -1290.645149805466
FINAL SINGLE POINT ENERGY     -1290.645236701897
FINAL SINGLE POINT ENERGY     -1290.645258483570
Dispersion correction            ... done
Dispersion correction           -0.041002724
FINAL SINGLE POINT ENERGY     -1290.645278858369
Dispersion correction            ... done
Dispersion correction           -0.040999336
FINAL SINGLE POINT ENERGY     -1290.645278747342
Dispersion correction            ... done
                    ***********************HURRAY********************

CARTESIAN COORDINATES (ANGSTROEM)
---------------------------------
  C     -1.846403    1.118716    0.149888
  S     -2.874827   -0.209148    0.541850
  C     -1.623424   -1.352398    0.220606
  C     -0.473885   -0.729877   -0.198761
  C     -0.594013    0.704451   -0.243543
  S      0.630745    1.834627   -0.836936
  C      2.131553    1.319727    0.037819
  O      3.131840    1.967206   -0.084660
  C      2.045868    0.017261    0.828280
  C      1.897876   -1.158650   -0.127247
  O      2.813753   -1.816200   -0.518099
  O      0.632256   -1.437908   -0.577384
  H     -2.208078    2.143306    0.214836
  H     -1.785923   -2.421397    0.339208
  H      1.212984    0.061913    1.545884
  H      2.999940   -0.101759    1.354218

 Multiplicity           Mult            ....    1
 Number of Electrons    NEL             ....  102
 Basis Dimension        Dim             ....  196

ORBITAL ENERGIES
----------------

  NO   OCC          E(Eh)            E(eV)
   0   2.0000     -88.908228     -2419.3159
   1   2.0000     -88.884293     -2418.6646
   2   2.0000     -19.213405      -522.8233
   3   2.0000     -19.159423      -521.3544
   4   2.0000     -19.146163      -520.9936
   5   2.0000     -10.347741      -281.5764
   6   2.0000     -10.323955      -280.9291
   7   2.0000     -10.286345      -279.9057
   8   2.0000     -10.250815      -278.9389
   9   2.0000     -10.247171      -278.8397
  10   2.0000     -10.240364      -278.6545
  11   2.0000     -10.238810      -278.6122
  12   2.0000      -8.003301      -217.7809
  13   2.0000      -7.980023      -217.1475
  14   2.0000      -5.971392      -162.4898
  15   2.0000      -5.967296      -162.3784
  16   2.0000      -5.964599      -162.3050
  17   2.0000      -5.948828      -161.8758
  18   2.0000      -5.944666      -161.7626
  19   2.0000      -5.939570      -161.6239
  20   2.0000      -1.128577       -30.7101
  21   2.0000      -1.073508       -29.2116
  22   2.0000      -1.047861       -28.5137
  23   2.0000      -0.916079       -24.9278
  24   2.0000      -0.835254       -22.7284
  25   2.0000      -0.791851       -21.5474
  26   2.0000      -0.764315       -20.7981
  27   2.0000      -0.728211       -19.8156
  28   2.0000      -0.660625       -17.9765
  29   2.0000      -0.610248       -16.6057
  30   2.0000      -0.588241       -16.0069
  31   2.0000      -0.563171       -15.3247
  32   2.0000      -0.533752       -14.5241
  33   2.0000      -0.513376       -13.9697
  34   2.0000      -0.497647       -13.5417
  35   2.0000      -0.475608       -12.9419
  36   2.0000      -0.471596       -12.8328
  37   2.0000      -0.460142       -12.5211
  38   2.0000      -0.441166       -12.0047
  39   2.0000      -0.429776       -11.6948
  40   2.0000      -0.426941       -11.6177
  41   2.0000      -0.417217       -11.3531
  42   2.0000      -0.403584       -10.9821
  43   2.0000      -0.389903       -10.6098
  44   2.0000      -0.366425        -9.9709
  45   2.0000      -0.349559        -9.5120
  46   2.0000      -0.319738        -8.7005
  47   2.0000      -0.304478        -8.2853
  48   2.0000      -0.287004        -7.8098
  49   2.0000      -0.265245        -7.2177
  50   2.0000      -0.256741        -6.9863
  51   0.0000      -0.063741        -1.7345
  52   0.0000      -0.039390        -1.0719
  53   0.0000      -0.013068        -0.3556
  54   0.0000       0.001289         0.0351
  55   0.0000       0.016806         0.4573

MULLIKEN ATOMIC CHARGES
-----------------------
   0 C :   -0.100342
   1 S :    0.139271
   2 C :   -0.129070
   3 C :    0.207283
   4 C :   -0.102322
   5 S :    0.079447
   6 C :    0.018750
   7 O :   -0.152661
   8 C :    0.044683
   9 C :    0.156946
  10 O :   -0.146880
  11 O :   -0.228645
  12 H :    0.039935
  13 H :    0.039467
  14 H :    0.082725
  15 H :    0.051414
Sum of atomic charges:   -0.0000000

LOEWDIN ATOMIC CHARGES
----------------------
   0 C :   -0.193832
   1 S :    0.467088
   2 C :   -0.205498
   3 C :   -0.012359
   4 C :   -0.239702
   5 S :    0.334543
   6 C :   -0.049795
   7 O :   -0.123916
   8 C :   -0.089556
   9 C :    0.097359
  10 O :   -0.118143
  11 O :   -0.050442
  12 H :    0.032926
  13 H :    0.037130
  14 H :    0.055160
  15 H :    0.059036

  Mayer bond orders larger than 0.100000
B(  0-C ,  1-S ) :   1.1999 B(  0-C ,  4-C ) :   1.5323 B(  0-C , 12-H ) :   0.9647
B(  1-S ,  2-C ) :   1.1577 B(  2-C ,  3-C ) :   1.5570 B(  2-C , 13-H ) :   0.9671
B(  3-C ,  4-C ) :   1.2132 B(  3-C , 11-O ) :   1.0617 B(  4-C ,  5-S ) :   0.9930
B(  5-S ,  6-C ) :   0.9920 B(  5-S ,  7-O ) :   0.1329 B(  6-C ,  7-O ) :   2.1453
B(  6-C ,  8-C ) :   0.9414 B(  8-C ,  9-C ) :   0.9687 B(  8-C , 14-H ) :   0.9063
B(  8-C , 15-H ) :   0.9059 B(  9-C , 10-O ) :   2.2119 B(  9-C , 11-O ) :   1.0446

Dispersion correction           -0.040991803
FINAL SINGLE POINT ENERGY     -1290.645277263927

DIPOLE MOMENT
-------------
                                X             Y             Z
Electronic contribution:     -1.11858       1.02365      -2.52195
Nuclear contribution   :     -0.60312      -0.92897       3.54632
                        -----------------------------------------
Total Dipole Moment    :     -1.72170       0.09468       1.02437
                        -----------------------------------------
Magnitude (a.u.)       :      2.00563
Magnitude (Debye)      :      5.09790

Rotational constants in cm-1:     0.043368     0.019546     0.014544
Rotational constants in MHz :  1300.128541   585.974176   436.019422

                             ****ORCA TERMINATED NORMALLY****
TOTAL RUN TIME: 0 days 0 hours 10 minutes 6 seconds 653 msec
