                         Program Version 4.2.0 -  RELEASE  -
|  1> # ORCA input file
|  2> # SCF done        -29.515545524649          0.000621325951
|  3> ! B3LYP/G D3BJ Opt RIJCOSX def2-SVP def2/J
|  4> * xyz 0 1
|  5>    C        1.32397         1.46458         0.09982
|  6>    C        2.45020         0.68252         0.12234
|  7>    N        2.45899        -0.65163         0.02608
|  8>    C        1.34552        -1.34005        -0.10072
|  9>    C        0.09798        -0.65125        -0.13534
| 10>    C        0.10354         0.78497        -0.03236
| 11>    N       -1.12841         1.29703        -0.08009
| 12>    S       -2.17705         0.09396        -0.23569
| 13>    N       -1.13884        -1.13264        -0.25325
| 14>    C        1.48599        -2.78081        -0.19905
| 15>    C        0.48310        -3.64208        -0.33390
| 16>    H        1.35586         2.53817         0.17707
| 17>    H        3.43132         1.12740         0.22063
| 18>    H        2.51361        -3.11452        -0.15528
| 19>    H       -0.53999        -3.31090        -0.37797
| 20>    H        0.66231        -4.70162        -0.40270
| 21> *
| 22>
| 23>                          ****END OF INPUT****
 Total Charge           Charge          ....    0
 Multiplicity           Mult            ....    1
 Number of Electrons    NEL             ....   84
Dispersion correction           -0.035406516
FINAL SINGLE POINT ENERGY      -831.755883259371
Dispersion correction            ... done
Dispersion correction           -0.035082332
FINAL SINGLE POINT ENERGY      -831.759872027379
Dispersion correction            ... done
Dispersion correction           -0.035072970
FINAL SINGLE POINT ENERGY      -831.760328570972
Dispersion correction            ... done
FINAL SINGLE POINT ENERGY      -831.760484221892
Dispersion correction            ... done
Dispersion correction           -0.035102108
FINAL SINGLE POINT ENERGY      -831.760465227867
Dispersion correction            ... done
Dispersion correction           -0.035101631
FINAL SINGLE POINT ENERGY      -831.760507055933
Dispersion correction            ... done
                    ***********************HURRAY********************

CARTESIAN COORDINATES (ANGSTROEM)
---------------------------------
  C      1.334184    1.488000    0.112406
  C      2.458149    0.697394    0.127470
  N      2.460064   -0.660342    0.021547
  C      1.338273   -1.344019   -0.109300
  C      0.077546   -0.630753   -0.143729
  C      0.089285    0.816653   -0.030224
  N     -1.129615    1.363895   -0.081800
  S     -2.194642    0.129510   -0.258619
  N     -1.151824   -1.136923   -0.277172
  C      1.469442   -2.798916   -0.216877
  C      0.481403   -3.700929   -0.317042
  H      1.380686    2.573376    0.206707
  H      3.446579    1.156685    0.233351
  H      2.514856   -3.120752   -0.204118
  H     -0.568782   -3.404796   -0.332174
  H      0.722495   -4.764954   -0.390837

 Multiplicity           Mult            ....    1
 Number of Electrons    NEL             ....   84
 Basis Dimension        Dim             ....  183

ORBITAL ENERGIES
----------------

  NO   OCC          E(Eh)            E(eV)
   0   2.0000     -88.948800     -2420.4199
   1   2.0000     -14.374795      -391.1581
   2   2.0000     -14.369145      -391.0043
   3   2.0000     -14.334718      -390.0675
   4   2.0000     -10.254592      -279.0416
   5   2.0000     -10.253507      -279.0121
   6   2.0000     -10.252913      -278.9959
   7   2.0000     -10.236882      -278.5597
   8   2.0000     -10.213546      -277.9247
   9   2.0000     -10.199805      -277.5508
  10   2.0000     -10.197688      -277.4932
  11   2.0000      -8.040027      -218.7803
  12   2.0000      -6.009997      -163.5403
  13   2.0000      -6.002679      -163.3412
  14   2.0000      -6.001269      -163.3028
  15   2.0000      -1.030874       -28.0515
  16   2.0000      -0.948207       -25.8020
  17   2.0000      -0.897956       -24.4346
  18   2.0000      -0.806545       -21.9472
  19   2.0000      -0.797377       -21.6977
  20   2.0000      -0.746454       -20.3120
  21   2.0000      -0.676247       -18.4016
  22   2.0000      -0.636680       -17.3250
  23   2.0000      -0.623079       -16.9548
  24   2.0000      -0.569818       -15.5055
  25   2.0000      -0.536049       -14.5866
  26   2.0000      -0.514307       -13.9950
  27   2.0000      -0.475790       -12.9469
  28   2.0000      -0.471580       -12.8323
  29   2.0000      -0.468356       -12.7446
  30   2.0000      -0.446125       -12.1397
  31   2.0000      -0.410243       -11.1633
  32   2.0000      -0.402861       -10.9624
  33   2.0000      -0.397968       -10.8292
  34   2.0000      -0.382603       -10.4112
  35   2.0000      -0.355281        -9.6677
  36   2.0000      -0.331892        -9.0312
  37   2.0000      -0.313164        -8.5216
  38   2.0000      -0.301689        -8.2094
  39   2.0000      -0.294490        -8.0135
  40   2.0000      -0.269275        -7.3273
  41   2.0000      -0.245120        -6.6701
  42   0.0000      -0.109780        -2.9873
  43   0.0000      -0.036192        -0.9848
  44   0.0000      -0.013301        -0.3619
  45   0.0000       0.006772         0.1843
  46   0.0000       0.042457         1.1553

MULLIKEN ATOMIC CHARGES
-----------------------
   0 C :   -0.023517
   1 C :    0.049297
   2 N :   -0.092788
   3 C :   -0.010810
   4 C :   -0.008732
   5 C :    0.086652
   6 N :   -0.280854
   7 S :    0.486362
   8 N :   -0.279564
   9 C :    0.006196
  10 C :    0.003584
  11 H :   -0.004142
  12 H :    0.007803
  13 H :   -0.011940
  14 H :    0.042980
  15 H :    0.029473
Sum of atomic charges:   -0.0000000

LOEWDIN ATOMIC CHARGES
----------------------
   0 C :   -0.045282
   1 C :    0.022124
   2 N :   -0.079078
   3 C :    0.018847
   4 C :   -0.060172
   5 C :   -0.044732
   6 N :   -0.278159
   7 S :    0.623289
   8 N :   -0.267018
   9 C :   -0.032521
  10 C :   -0.013529
  11 H :    0.039946
  12 H :    0.025956
  13 H :    0.034005
  14 H :    0.027195
  15 H :    0.029128

  Mayer bond orders larger than 0.100000
B(  0-C ,  1-C ) :   1.5130 B(  0-C ,  5-C ) :   1.2222 B(  0-C , 11-H ) :   0.9821
B(  1-C ,  2-N ) :   1.3617 B(  1-C , 12-H ) :   0.9675 B(  2-N ,  3-C ) :   1.6534
B(  3-C ,  4-C ) :   1.1138 B(  3-C ,  9-C ) :   1.1299 B(  4-C ,  5-C ) :   1.1585
B(  4-C ,  8-N ) :   1.5188 B(  5-C ,  6-N ) :   1.4924 B(  6-N ,  7-S ) :   1.2484
B(  6-N ,  8-N ) :   0.1613 B(  7-S ,  8-N ) :   1.2425 B(  9-C , 10-C ) :   1.8812
B(  9-C , 13-H ) :   0.9429 B( 10-C , 14-H ) :   0.9293 B( 10-C , 15-H ) :   0.9406

Dispersion correction           -0.035101128
FINAL SINGLE POINT ENERGY      -831.760508335826

DIPOLE MOMENT
-------------
                                X             Y             Z
Electronic contribution:     -6.61188       5.02418      -0.14246
Nuclear contribution   :      6.32989      -4.94137       0.13470
                        -----------------------------------------
Total Dipole Moment    :     -0.28199       0.08281      -0.00775
                        -----------------------------------------
Magnitude (a.u.)       :      0.29400
Magnitude (Debye)      :      0.74729

Rotational constants in cm-1:     0.049061     0.034343     0.020203
Rotational constants in MHz :  1470.818770  1029.568043   605.658844

                             ****ORCA TERMINATED NORMALLY****
TOTAL RUN TIME: 0 days 0 hours 6 minutes 44 seconds 936 msec
