                         Program Version 4.2.0 -  RELEASE  -
|  1> # ORCA input file
|  2> # SCF done        -28.886649639174          0.000583673797
|  3> ! B3LYP/G D3BJ Opt RIJCOSX def2-SVP def2/J
|  4> * xyz 0 1
|  5>    C        1.75157        -1.46432        -0.00218
|  6>    S        3.30121        -0.71779        -0.00122
|  7>    C        2.62399         0.86833        -0.00046
|  8>    C        1.26939         0.80771        -0.00073
|  9>    C        0.75374        -0.53544        -0.00172
| 10>    C       -0.66728        -0.51107        -0.00198
| 11>    C       -1.19920         0.76530        -0.00119
| 12>    S        0.01536         2.03084        -0.00019
| 13>    C       -2.60717         0.79071        -0.00146
| 14>    C       -3.11880        -0.46792        -0.00234
| 15>    S       -1.91090        -1.70482        -0.00309
| 16>    H        1.67132        -2.53199        -0.00294
| 17>    H        3.26442         1.72583         0.00018
| 18>    H       -3.19806         1.68759        -0.00104
| 19>    H       -4.15043        -0.75847        -0.00275
| 20> *
| 21>
| 22>                          ****END OF INPUT****
 Total Charge           Charge          ....    0
 Multiplicity           Mult            ....    1
 Number of Electrons    NEL             ....  100
Dispersion correction           -0.043049161
FINAL SINGLE POINT ENERGY     -1501.297844620605
Dispersion correction            ... done
Dispersion correction           -0.043051303
FINAL SINGLE POINT ENERGY     -1501.300630914361
Dispersion correction            ... done
Dispersion correction           -0.043055096
FINAL SINGLE POINT ENERGY     -1501.300730345416
Dispersion correction            ... done
Dispersion correction           -0.043055113
FINAL SINGLE POINT ENERGY     -1501.300740161011
Dispersion correction            ... done
Dispersion correction           -0.043054050
FINAL SINGLE POINT ENERGY     -1501.300741045409
Dispersion correction            ... done
                    ***********************HURRAY********************

CARTESIAN COORDINATES (ANGSTROEM)
---------------------------------
  C      1.772251   -1.478165   -0.001852
  S      3.330462   -0.727800   -0.003111
  C      2.660387    0.873791   -0.000449
  C      1.290020    0.817093   -0.000741
  C      0.766965   -0.535523   -0.001609
  C     -0.671851   -0.508641   -0.001690
  C     -1.209607    0.773731   -0.000857
  S      0.018860    2.048807    0.000502
  C     -2.634091    0.797477   -0.001449
  C     -3.150348   -0.476576   -0.002777
  S     -1.921435   -1.709322   -0.002614
  H      1.682146   -2.562746   -0.002055
  H      3.310622    1.745702    0.000349
  H     -3.246631    1.698770   -0.001191
  H     -4.198590   -0.772108   -0.003565

 Multiplicity           Mult            ....    1
 Number of Electrons    NEL             ....  100
 Basis Dimension        Dim             ....  186

ORBITAL ENERGIES
----------------

  NO   OCC          E(Eh)            E(eV)
   0   2.0000     -88.883396     -2418.6402
   1   2.0000     -88.882545     -2418.6170
   2   2.0000     -88.871080     -2418.3050
   3   2.0000     -10.224642      -278.2267
   4   2.0000     -10.222491      -278.1681
   5   2.0000     -10.222210      -278.1605
   6   2.0000     -10.220284      -278.1081
   7   2.0000     -10.219880      -278.0971
   8   2.0000     -10.218759      -278.0666
   9   2.0000     -10.212953      -277.9086
  10   2.0000     -10.207544      -277.7614
  11   2.0000      -7.978030      -217.0932
  12   2.0000      -7.976896      -217.0624
  13   2.0000      -7.965320      -216.7474
  14   2.0000      -5.946297      -161.8070
  15   2.0000      -5.945199      -161.7771
  16   2.0000      -5.942007      -161.6902
  17   2.0000      -5.941164      -161.6673
  18   2.0000      -5.939328      -161.6173
  19   2.0000      -5.937982      -161.5807
  20   2.0000      -5.934221      -161.4784
  21   2.0000      -5.930573      -161.3791
  22   2.0000      -5.924720      -161.2198
  23   2.0000      -0.912313       -24.8253
  24   2.0000      -0.878238       -23.8981
  25   2.0000      -0.819884       -22.3102
  26   2.0000      -0.762800       -20.7569
  27   2.0000      -0.733375       -19.9562
  28   2.0000      -0.703872       -19.1533
  29   2.0000      -0.685192       -18.6450
  30   2.0000      -0.605016       -16.4633
  31   2.0000      -0.563195       -15.3253
  32   2.0000      -0.550062       -14.9680
  33   2.0000      -0.536903       -14.6099
  34   2.0000      -0.490337       -13.3427
  35   2.0000      -0.468394       -12.7457
  36   2.0000      -0.427175       -11.6240
  37   2.0000      -0.424979       -11.5643
  38   2.0000      -0.420515       -11.4428
  39   2.0000      -0.402956       -10.9650
  40   2.0000      -0.387465       -10.5435
  41   2.0000      -0.380432       -10.3521
  42   2.0000      -0.368210       -10.0195
  43   2.0000      -0.354349        -9.6423
  44   2.0000      -0.338516        -9.2115
  45   2.0000      -0.321655        -8.7527
  46   2.0000      -0.288096        -7.8395
  47   2.0000      -0.262801        -7.1512
  48   2.0000      -0.227691        -6.1958
  49   2.0000      -0.207370        -5.6428
  50   0.0000      -0.049472        -1.3462
  51   0.0000      -0.001595        -0.0434
  52   0.0000       0.017754         0.4831
  53   0.0000       0.026309         0.7159
  54   0.0000       0.041063         1.1174

MULLIKEN ATOMIC CHARGES
-----------------------
   0 C :   -0.157217
   1 S :    0.105435
   2 C :   -0.161796
   3 C :   -0.003294
   4 C :    0.091915
   5 C :   -0.077913
   6 C :   -0.049925
   7 S :    0.111890
   8 C :    0.018118
   9 C :   -0.087561
  10 S :    0.133836
  11 H :    0.024677
  12 H :    0.025928
  13 H :   -0.006817
  14 H :    0.032724
Sum of atomic charges:   -0.0000000

LOEWDIN ATOMIC CHARGES
----------------------
   0 C :   -0.207812
   1 S :    0.445079
   2 C :   -0.219119
   3 C :   -0.179852
   4 C :   -0.083130
   5 C :   -0.214537
   6 C :   -0.185707
   7 S :    0.355103
   8 C :   -0.073943
   9 C :   -0.179303
  10 S :    0.426209
  11 H :    0.027600
  12 H :    0.028308
  13 H :    0.034316
  14 H :    0.026791

  Mayer bond orders larger than 0.100000
B(  0-C ,  1-S ) :   1.1576 B(  0-C ,  4-C ) :   1.4895 B(  0-C , 11-H ) :   0.9675
B(  1-S ,  2-C ) :   1.1651 B(  2-C ,  3-C ) :   1.5433 B(  2-C , 12-H ) :   0.9712
B(  3-C ,  4-C ) :   1.2268 B(  3-C ,  7-S ) :   1.0186 B(  4-C ,  5-C ) :   1.1662
B(  5-C ,  6-C ) :   1.4801 B(  5-C , 10-S ) :   1.0966 B(  6-C ,  7-S ) :   1.0218
B(  6-C ,  8-C ) :   1.2695 B(  8-C ,  9-C ) :   1.5599 B(  8-C , 13-H ) :   0.9944
B(  9-C , 10-S ) :   1.1520 B(  9-C , 14-H ) :   0.9650

Dispersion correction           -0.043053243
FINAL SINGLE POINT ENERGY     -1501.300741323371

DIPOLE MOMENT
-------------
                                X             Y             Z
Electronic contribution:      2.67676      -0.37704      -0.00024
Nuclear contribution   :     -2.88706       0.28548      -0.00010
                        -----------------------------------------
Total Dipole Moment    :     -0.21030      -0.09157      -0.00034
                        -----------------------------------------
Magnitude (a.u.)       :      0.22937
Magnitude (Debye)      :      0.58301

Rotational constants in cm-1:     0.051888     0.018985     0.013900
Rotational constants in MHz :  1555.550619   569.169608   416.700620

                             ****ORCA TERMINATED NORMALLY****
TOTAL RUN TIME: 0 days 0 hours 5 minutes 27 seconds 699 msec
