                         Program Version 4.2.0 -  RELEASE  -
|  1> # ORCA input file
|  2> # SCF done        -34.027573200464          0.000490994716
|  3> ! B3LYP/G D3BJ Opt RIJCOSX def2-SVP def2/J
|  4> * xyz 0 1
|  5>    C       -2.03492        -1.14020        -0.01962
|  6>    S       -2.03655         0.59377        -0.03722
|  7>    C       -0.30796         0.60566        -0.00587
|  8>    C        0.19415        -0.68523         0.01493
|  9>    C       -0.79636        -1.69890         0.01052
| 10>    C       -0.49824        -3.16354         0.00697
| 11>    C        0.06541        -3.60188        -1.34534
| 12>    S        1.92250        -0.67337         0.05743
| 13>    C        1.92075         1.06062         0.04806
| 14>    C        0.68224         1.61938         0.01650
| 15>    C        0.38577         3.08377        -0.02334
| 16>    C       -0.11575         3.50119        -1.40632
| 17>    H       -2.97874        -1.64916        -0.02898
| 18>    H       -1.41119        -3.72026         0.22668
| 19>    H        0.23595        -3.37734         0.78823
| 20>    H       -0.65631        -3.41004        -2.13673
| 21>    H        0.29251        -4.66512        -1.33139
| 22>    H        0.97884        -3.05543        -1.56950
| 23>    H        2.86428         1.56968         0.07112
| 24>    H        1.28827         3.64355         0.22877
| 25>    H       -0.38270         3.31010         0.72034
| 26>    H        0.63763         3.28938        -2.16198
| 27>    H       -0.33477         4.56594        -1.42210
| 28>    H       -1.02274         2.95736        -1.65949
| 29> *
| 30>
| 31>                          ****END OF INPUT****
 Total Charge           Charge          ....    0
 Multiplicity           Mult            ....    1
 Number of Electrons    NEL             ....  104
Dispersion correction           -0.053243523
FINAL SINGLE POINT ENERGY     -1184.223644974532
Dispersion correction            ... done
Dispersion correction           -0.052862969
FINAL SINGLE POINT ENERGY     -1184.227111823507
Dispersion correction            ... done
Dispersion correction           -0.052809999
FINAL SINGLE POINT ENERGY     -1184.227248891436
Dispersion correction            ... done
FINAL SINGLE POINT ENERGY     -1184.227197125030
FINAL SINGLE POINT ENERGY     -1184.227218934801
Dispersion correction            ... done
Dispersion correction           -0.052825374
FINAL SINGLE POINT ENERGY     -1184.227211606315
Dispersion correction            ... done
Dispersion correction           -0.052834186
FINAL SINGLE POINT ENERGY     -1184.227193472336
Dispersion correction            ... done
                    ***********************HURRAY********************

CARTESIAN COORDINATES (ANGSTROEM)
---------------------------------
  C     -2.053109   -1.156786    0.027272
  S     -2.049754    0.592416    0.011801
  C     -0.307825    0.609750    0.044949
  C      0.195988   -0.688009    0.071449
  C     -0.799717   -1.719416    0.057100
  C     -0.491789   -3.190199   -0.006462
  C      0.035431   -3.609918   -1.386991
  S      1.937381   -0.670583    0.125690
  C      1.940902    1.078633    0.105614
  C      0.687902    1.641162    0.060482
  C      0.384000    3.110533   -0.040681
  C     -0.092216    3.507558   -1.446367
  H     -3.005819   -1.684841    0.005674
  H     -1.394950   -3.768045    0.246672
  H      0.259294   -3.434222    0.764854
  H     -0.729200   -3.442937   -2.161364
  H      0.319301   -4.674201   -1.401832
  H      0.922797   -3.021347   -1.667428
  H      2.893765    1.606537    0.123876
  H      1.277650    3.692374    0.236002
  H     -0.394429    3.367534    0.698771
  H      0.700325    3.328647   -2.189389
  H     -0.375268    4.571339   -1.488354
  H     -0.968591    2.913952   -1.749666

 Multiplicity           Mult            ....    1
 Number of Electrons    NEL             ....  104
 Basis Dimension        Dim             ....  236

ORBITAL ENERGIES
----------------

  NO   OCC          E(Eh)            E(eV)
   0   2.0000     -88.870628     -2418.2927
   1   2.0000     -88.870603     -2418.2921
   2   2.0000     -10.209363      -277.8109
   3   2.0000     -10.209333      -277.8101
   4   2.0000     -10.208103      -277.7766
   5   2.0000     -10.207686      -277.7652
   6   2.0000     -10.201602      -277.5997
   7   2.0000     -10.201568      -277.5988
   8   2.0000     -10.197336      -277.4836
   9   2.0000     -10.197304      -277.4827
  10   2.0000     -10.183613      -277.1102
  11   2.0000     -10.183585      -277.1094
  12   2.0000      -7.964890      -216.7357
  13   2.0000      -7.964870      -216.7351
  14   2.0000      -5.933270      -161.4525
  15   2.0000      -5.933249      -161.4519
  16   2.0000      -5.929358      -161.3460
  17   2.0000      -5.929341      -161.3456
  18   2.0000      -5.925683      -161.2460
  19   2.0000      -5.925664      -161.2455
  20   2.0000      -0.898883       -24.4598
  21   2.0000      -0.836856       -22.7720
  22   2.0000      -0.792629       -21.5685
  23   2.0000      -0.774831       -21.0842
  24   2.0000      -0.718882       -19.5618
  25   2.0000      -0.698324       -19.0024
  26   2.0000      -0.689894       -18.7730
  27   2.0000      -0.618149       -16.8207
  28   2.0000      -0.617163       -16.7939
  29   2.0000      -0.584551       -15.9064
  30   2.0000      -0.525845       -14.3090
  31   2.0000      -0.525682       -14.3045
  32   2.0000      -0.465282       -12.6610
  33   2.0000      -0.461390       -12.5551
  34   2.0000      -0.452844       -12.3225
  35   2.0000      -0.438830       -11.9412
  36   2.0000      -0.427855       -11.6425
  37   2.0000      -0.404861       -11.0168
  38   2.0000      -0.403692       -10.9850
  39   2.0000      -0.398643       -10.8476
  40   2.0000      -0.383658       -10.4399
  41   2.0000      -0.377747       -10.2790
  42   2.0000      -0.371962       -10.1216
  43   2.0000      -0.351174        -9.5559
  44   2.0000      -0.350951        -9.5499
  45   2.0000      -0.344427        -9.3723
  46   2.0000      -0.339663        -9.2427
  47   2.0000      -0.330385        -8.9902
  48   2.0000      -0.327952        -8.9240
  49   2.0000      -0.267057        -7.2670
  50   2.0000      -0.228004        -6.2043
  51   2.0000      -0.212648        -5.7864
  52   0.0000      -0.028443        -0.7740
  53   0.0000       0.022755         0.6192
  54   0.0000       0.027988         0.7616
  55   0.0000       0.054079         1.4716
  56   0.0000       0.059069         1.6074

MULLIKEN ATOMIC CHARGES
-----------------------
   0 C :   -0.142109
   1 S :    0.102260
   2 C :   -0.075236
   3 C :   -0.075769
   4 C :   -0.033629
   5 C :    0.081024
   6 C :    0.005151
   7 S :    0.102530
   8 C :   -0.142767
   9 C :   -0.032715
  10 C :    0.080697
  11 C :    0.003823
  12 H :    0.013611
  13 H :   -0.005679
  14 H :    0.009510
  15 H :    0.015540
  16 H :    0.014096
  17 H :    0.015594
  18 H :    0.013677
  19 H :   -0.005895
  20 H :    0.010228
  21 H :    0.016139
  22 H :    0.014038
  23 H :    0.015883
Sum of atomic charges:   -0.0000000

LOEWDIN ATOMIC CHARGES
----------------------
   0 C :   -0.191831
   1 S :    0.396947
   2 C :   -0.204431
   3 C :   -0.204497
   4 C :   -0.067351
   5 C :   -0.027429
   6 C :   -0.051708
   7 S :    0.396791
   8 C :   -0.191917
   9 C :   -0.067325
  10 C :   -0.027458
  11 C :   -0.051916
  12 H :    0.021847
  13 H :    0.027309
  14 H :    0.028438
  15 H :    0.024754
  16 H :    0.023321
  17 H :    0.020316
  18 H :    0.021864
  19 H :    0.027271
  20 H :    0.028661
  21 H :    0.024896
  22 H :    0.023345
  23 H :    0.020106

  Mayer bond orders larger than 0.100000
B(  0-C ,  1-S ) :   1.1120 B(  0-C ,  4-C ) :   1.5850 B(  0-C , 12-H ) :   0.9602
B(  1-S ,  2-C ) :   1.0816 B(  2-C ,  3-C ) :   1.4532 B(  2-C ,  9-C ) :   1.2595
B(  3-C ,  4-C ) :   1.2596 B(  3-C ,  7-S ) :   1.0816 B(  4-C ,  5-C ) :   1.0749
B(  5-C ,  6-C ) :   1.1042 B(  5-C , 13-H ) :   0.9221 B(  5-C , 14-H ) :   0.9221
B(  6-C , 15-H ) :   0.9671 B(  6-C , 16-H ) :   0.9642 B(  6-C , 17-H ) :   0.9692
B(  7-S ,  8-C ) :   1.1118 B(  8-C ,  9-C ) :   1.5853 B(  8-C , 18-H ) :   0.9601
B(  9-C , 10-C ) :   1.0743 B( 10-C , 11-C ) :   1.1033 B( 10-C , 19-H ) :   0.9224
B( 10-C , 20-H ) :   0.9222 B( 11-C , 21-H ) :   0.9672 B( 11-C , 22-H ) :   0.9643
B( 11-C , 23-H ) :   0.9694

Dispersion correction           -0.052836893
FINAL SINGLE POINT ENERGY     -1184.227187733922

DIPOLE MOMENT
-------------
                                X             Y             Z
Electronic contribution:     -0.11389       0.04871       6.01085
Nuclear contribution   :      0.11564      -0.04940      -6.09115
                        -----------------------------------------
Total Dipole Moment    :      0.00175      -0.00069      -0.08029
                        -----------------------------------------
Magnitude (a.u.)       :      0.08032
Magnitude (Debye)      :      0.20415

Rotational constants in cm-1:     0.037077     0.019061     0.013911
Rotational constants in MHz :  1111.527462   571.441104   417.042151

                             ****ORCA TERMINATED NORMALLY****
TOTAL RUN TIME: 0 days 0 hours 29 minutes 30 seconds 583 msec
