                         Program Version 4.2.0 -  RELEASE  -
|  1> # ORCA input file
|  2> # SCF done        -66.035214848873          0.000628752978
|  3> ! B3LYP/G D3BJ Opt RIJCOSX def2-SVP def2/J
|  4> * xyz 0 1
|  5>    C       -2.32264         1.08838         0.68911
|  6>    C       -1.10776         1.62569         0.28578
|  7>    C       -0.06393         0.75142         0.05094
|  8>    C       -0.22109        -0.62849         0.22260
|  9>    C       -1.43426        -1.15129         0.60799
| 10>    C       -2.48985        -0.27731         0.84073
| 11>    C        1.09442        -1.29037        -0.04766
| 12>    C        1.97914        -0.11625        -0.46438
| 13>    O        3.14089        -0.15764        -0.79561
| 14>    N        1.23535         1.02590        -0.35514
| 15>    C        1.74840         2.33237        -0.68742
| 16>    C        1.29234         2.78090        -2.07290
| 17>    C        1.68704        -1.96358         1.20814
| 18>    C        0.84301        -3.18047         1.59434
| 19>    O        0.62305        -4.16401         0.93247
| 20>    N        0.34047        -2.93994         2.84193
| 21>    C        0.75566        -1.71901         3.35395
| 22>    C        0.44530        -1.13305         4.56026
| 23>    C        0.99881         0.11739         4.86069
| 24>    C        1.84527         0.72800         3.93401
| 25>    C        2.14883         0.13095         2.72001
| 26>    C        1.59576        -1.09592         2.42559
| 27>    C        0.66185         0.72967         6.14104
| 28>    C        1.20267         1.82079         6.66915
| 29>    H       -3.15275         1.75150         0.88169
| 30>    H       -0.99247         2.69144         0.16528
| 31>    H       -1.56561        -2.21685         0.71895
| 32>    H       -3.44931        -0.66829         1.14334
| 33>    H        1.04572        -2.03929        -0.84349
| 34>    H        2.83888         2.25536        -0.66349
| 35>    H        1.42203         3.04405         0.07675
| 36>    H        1.64866         2.08059        -2.82401
| 37>    H        1.69471         3.76519        -2.29521
| 38>    H        0.20691         2.82406        -2.12612
| 39>    H        2.71215        -2.26777         0.97589
| 40>    H       -0.26424        -3.58439         3.32640
| 41>    H       -0.20769        -1.62510         5.26579
| 42>    H        2.27255         1.69144         4.16098
| 43>    H        2.81381         0.61779         2.02321
| 44>    H       -0.10583         0.20668         6.69846
| 45>    H        1.98014         2.38283         6.18129
| 46>    H        0.88557         2.19213         7.62838
| 47> *
| 48>
| 49>                          ****END OF INPUT****
 Total Charge           Charge          ....    0
 Multiplicity           Mult            ....    1
 Number of Electrons    NEL             ....  168
Dispersion correction           -0.103964500
FINAL SINGLE POINT ENERGY     -1032.311797837612
Dispersion correction            ... done
Dispersion correction           -0.102241838
FINAL SINGLE POINT ENERGY     -1032.317856973362
Dispersion correction            ... done
Dispersion correction           -0.101833899
FINAL SINGLE POINT ENERGY     -1032.318065055370
Dispersion correction            ... done
FINAL SINGLE POINT ENERGY     -1032.317644442393
FINAL SINGLE POINT ENERGY     -1032.317807589761
FINAL SINGLE POINT ENERGY     -1032.317886254590
Dispersion correction            ... done
Dispersion correction           -0.101691829
FINAL SINGLE POINT ENERGY     -1032.317863671435
Dispersion correction            ... done
Dispersion correction           -0.101691803
FINAL SINGLE POINT ENERGY     -1032.317858842863
Dispersion correction            ... done
                    ***********************HURRAY********************

CARTESIAN COORDINATES (ANGSTROEM)
---------------------------------
  C     -2.612947    0.851715    0.196012
  C     -1.372514    1.482383    0.013613
  C     -0.238677    0.676685   -0.049570
  C     -0.318096   -0.722731    0.076139
  C     -1.553412   -1.336111    0.241730
  C     -2.707681   -0.537785    0.303382
  C      1.079275   -1.285517   -0.022146
  C      1.934743   -0.040432   -0.309987
  O      3.134134    0.000196   -0.494270
  N      1.096081    1.058176   -0.252410
  C      1.557762    2.416731   -0.460273
  C      1.389696    2.878524   -1.905771
  C      1.598900   -1.973048    1.266028
  C      0.631590   -3.103574    1.671112
  O      0.301129   -4.061523    1.008746
  N      0.154634   -2.783841    2.927542
  C      0.724913   -1.611710    3.436957
  C      0.511547   -0.996004    4.663930
  C      1.231851    0.178854    4.969771
  C      2.146082    0.687844    4.027057
  C      2.347675    0.058894    2.794373
  C      1.625232   -1.090957    2.490869
  C      0.997046    0.823843    6.272218
  C      1.659482    1.868858    6.788392
  H     -3.517660    1.462154    0.245915
  H     -1.305465    2.566762   -0.088245
  H     -1.624516   -2.423226    0.310365
  H     -3.683918   -1.010036    0.433100
  H      1.186472   -2.004292   -0.850457
  H      2.619563    2.436476   -0.173404
  H      1.012833    3.074243    0.234972
  H      1.976758    2.237931   -2.579290
  H      1.745385    3.914116   -2.024420
  H      0.335434    2.834922   -2.220673
  H      2.588455   -2.401095    1.037770
  H     -0.519933   -3.366660    3.408560
  H     -0.193321   -1.410192    5.388615
  H      2.706404    1.595165    4.255948
  H      3.067391    0.462234    2.080365
  H      0.191520    0.378139    6.866658
  H      2.484797    2.356512    6.262953
  H      1.393315    2.272878    7.767532

 Multiplicity           Mult            ....    1
 Number of Electrons    NEL             ....  168
 Basis Dimension        Dim             ....  426

ORBITAL ENERGIES
----------------

  NO   OCC          E(Eh)            E(eV)
   0   2.0000     -19.116400      -520.1837
   1   2.0000     -19.115725      -520.1653
   2   2.0000     -14.377252      -391.2249
   3   2.0000     -14.375148      -391.1677
   4   2.0000     -10.298958      -280.2489
   5   2.0000     -10.294020      -280.1145
   6   2.0000     -10.240826      -278.6670
   7   2.0000     -10.236397      -278.5465
   8   2.0000     -10.235693      -278.5274
   9   2.0000     -10.219673      -278.0915
  10   2.0000     -10.218751      -278.0663
  11   2.0000     -10.207313      -277.7551
  12   2.0000     -10.201113      -277.5864
  13   2.0000     -10.200676      -277.5745
  14   2.0000     -10.200641      -277.5736
  15   2.0000     -10.199810      -277.5509
  16   2.0000     -10.199564      -277.5443
  17   2.0000     -10.199364      -277.5388
  18   2.0000     -10.199223      -277.5350
  19   2.0000     -10.197803      -277.4963
  20   2.0000     -10.192683      -277.3570
  21   2.0000     -10.192568      -277.3539
  22   2.0000     -10.192475      -277.3513
  23   2.0000     -10.191646      -277.3288
  24   2.0000      -1.044507       -28.4225
  25   2.0000      -1.042369       -28.3643
  26   2.0000      -0.966123       -26.2895
  27   2.0000      -0.961031       -26.1510
  28   2.0000      -0.857515       -23.3342
  29   2.0000      -0.853127       -23.2148
  30   2.0000      -0.825193       -22.4546
  31   2.0000      -0.792882       -21.5754
  32   2.0000      -0.772329       -21.0161
  33   2.0000      -0.754124       -20.5208
  34   2.0000      -0.744061       -20.2469
  35   2.0000      -0.730381       -19.8747
  36   2.0000      -0.716017       -19.4838
  37   2.0000      -0.694131       -18.8883
  38   2.0000      -0.652407       -17.7529
  39   2.0000      -0.630787       -17.1646
  40   2.0000      -0.623846       -16.9757
  41   2.0000      -0.606815       -16.5123
  42   2.0000      -0.601763       -16.3748
  43   2.0000      -0.585627       -15.9357
  44   2.0000      -0.571376       -15.5479
  45   2.0000      -0.562868       -15.3164
  46   2.0000      -0.530129       -14.4255
  47   2.0000      -0.514264       -13.9938
  48   2.0000      -0.505682       -13.7603
  49   2.0000      -0.498592       -13.5674
  50   2.0000      -0.488580       -13.2949
  51   2.0000      -0.486165       -13.2292
  52   2.0000      -0.468105       -12.7378
  53   2.0000      -0.464447       -12.6383
  54   2.0000      -0.460948       -12.5430
  55   2.0000      -0.455892       -12.4055
  56   2.0000      -0.447767       -12.1844
  57   2.0000      -0.441451       -12.0125
  58   2.0000      -0.435218       -11.8429
  59   2.0000      -0.433408       -11.7936
  60   2.0000      -0.428123       -11.6498
  61   2.0000      -0.422788       -11.5046
  62   2.0000      -0.412403       -11.2221
  63   2.0000      -0.404964       -11.0196
  64   2.0000      -0.399440       -10.8693
  65   2.0000      -0.390941       -10.6380
  66   2.0000      -0.386125       -10.5070
  67   2.0000      -0.383953       -10.4479
  68   2.0000      -0.380192       -10.3456
  69   2.0000      -0.374100       -10.1798
  70   2.0000      -0.370347       -10.0776
  71   2.0000      -0.365363        -9.9420
  72   2.0000      -0.360333        -9.8051
  73   2.0000      -0.348263        -9.4767
  74   2.0000      -0.342652        -9.3240
  75   2.0000      -0.334147        -9.0926
  76   2.0000      -0.310078        -8.4377
  77   2.0000      -0.294593        -8.0163
  78   2.0000      -0.273474        -7.4416
  79   2.0000      -0.263260        -7.1637
  80   2.0000      -0.261464        -7.1148
  81   2.0000      -0.247893        -6.7455
  82   2.0000      -0.222688        -6.0596
  83   2.0000      -0.221926        -6.0389
  84   0.0000      -0.050681        -1.3791
  85   0.0000      -0.027925        -0.7599
  86   0.0000      -0.018150        -0.4939
  87   0.0000      -0.011617        -0.3161
  88   0.0000       0.001642         0.0447

MULLIKEN ATOMIC CHARGES
-----------------------
   0 C :    0.033264
   1 C :   -0.087726
   2 C :    0.195363
   3 C :   -0.042331
   4 C :   -0.049182
   5 C :    0.029212
   6 C :    0.056649
   7 C :    0.128307
   8 O :   -0.224588
   9 N :   -0.246241
  10 C :    0.124287
  11 C :   -0.001076
  12 C :    0.033912
  13 C :    0.125723
  14 O :   -0.204673
  15 N :   -0.092448
  16 C :    0.181610
  17 C :   -0.128675
  18 C :    0.112400
  19 C :   -0.011774
  20 C :   -0.037444
  21 C :   -0.050075
  22 C :   -0.011757
  23 C :   -0.014507
  24 H :   -0.015414
  25 H :   -0.030614
  26 H :   -0.003821
  27 H :   -0.022884
  28 H :    0.044908
  29 H :    0.028395
  30 H :    0.016864
  31 H :    0.030756
  32 H :    0.018051
  33 H :    0.019689
  34 H :    0.044627
  35 H :    0.118306
  36 H :   -0.046880
  37 H :   -0.034709
  38 H :   -0.008473
  39 H :   -0.015945
  40 H :    0.017182
  41 H :    0.021731
Sum of atomic charges:   -0.0000000

LOEWDIN ATOMIC CHARGES
----------------------
   0 C :   -0.013408
   1 C :   -0.062931
   2 C :    0.036375
   3 C :   -0.042195
   4 C :   -0.016794
   5 C :   -0.042085
   6 C :   -0.020395
   7 C :    0.081188
   8 O :   -0.202137
   9 N :   -0.008156
  10 C :    0.043289
  11 C :   -0.059153
  12 C :   -0.021257
  13 C :    0.081208
  14 O :   -0.195616
  15 N :    0.021500
  16 C :    0.032643
  17 C :   -0.052954
  18 C :   -0.015132
  19 C :   -0.029506
  20 C :   -0.013463
  21 C :   -0.043572
  22 C :   -0.021868
  23 C :   -0.043248
  24 H :    0.028117
  25 H :    0.026714
  26 H :    0.033052
  27 H :    0.025731
  28 H :    0.054508
  29 H :    0.031340
  30 H :    0.023909
  31 H :    0.031705
  32 H :    0.029359
  33 H :    0.024056
  34 H :    0.054656
  35 H :    0.087398
  36 H :    0.024781
  37 H :    0.024549
  38 H :    0.033052
  39 H :    0.026830
  40 H :    0.021185
  41 H :    0.026724

  Mayer bond orders larger than 0.100000
B(  0-C ,  1-C ) :   1.3266 B(  0-C ,  5-C ) :   1.4043 B(  0-C , 24-H ) :   0.9812
B(  1-C ,  2-C ) :   1.3688 B(  1-C , 25-H ) :   0.9951 B(  2-C ,  3-C ) :   1.3531
B(  2-C ,  9-N ) :   1.0260 B(  3-C ,  4-C ) :   1.4517 B(  3-C ,  6-C ) :   0.9541
B(  4-C ,  5-C ) :   1.3097 B(  4-C , 26-H ) :   0.9857 B(  5-C , 27-H ) :   0.9858
B(  6-C ,  7-C ) :   0.9212 B(  6-C , 12-C ) :   1.0226 B(  6-C , 28-H ) :   0.8715
B(  7-C ,  8-O ) :   2.0884 B(  7-C ,  9-N ) :   1.1336 B(  9-N , 10-C ) :   0.9548
B( 10-C , 11-C ) :   1.1213 B( 10-C , 29-H ) :   0.9341 B( 10-C , 30-H ) :   0.9416
B( 11-C , 31-H ) :   0.9647 B( 11-C , 32-H ) :   0.9645 B( 11-C , 33-H ) :   0.9673
B( 12-C , 13-C ) :   0.9086 B( 12-C , 21-C ) :   0.9514 B( 12-C , 34-H ) :   0.8718
B( 13-C , 14-O ) :   2.1488 B( 13-C , 15-N ) :   1.1351 B( 15-N , 16-C ) :   1.0611
B( 15-N , 35-H ) :   0.9215 B( 16-C , 17-C ) :   1.3311 B( 16-C , 21-C ) :   1.3542
B( 17-C , 18-C ) :   1.2807 B( 17-C , 36-H ) :   1.0063 B( 18-C , 19-C ) :   1.3612
B( 18-C , 22-C ) :   1.0727 B( 19-C , 20-C ) :   1.3352 B( 19-C , 37-H ) :   0.9846
B( 20-C , 21-C ) :   1.4244 B( 20-C , 38-H ) :   0.9838 B( 22-C , 23-C ) :   1.9316
B( 22-C , 39-H ) :   0.9621 B( 23-C , 40-H ) :   0.9452 B( 23-C , 41-H ) :   0.9435

Dispersion correction           -0.101679213
FINAL SINGLE POINT ENERGY     -1032.317857862939

DIPOLE MOMENT
-------------
                                X             Y             Z
Electronic contribution:      0.44885     -15.53011      -0.34679
Nuclear contribution   :     -1.33019      16.64274       1.15870
                        -----------------------------------------
Total Dipole Moment    :     -0.88134       1.11263       0.81191
                        -----------------------------------------
Magnitude (a.u.)       :      1.63520
Magnitude (Debye)      :      4.15636

Rotational constants in cm-1:     0.010174     0.007003     0.005975
Rotational constants in MHz :   305.009651   209.936285   179.138494

                             ****ORCA TERMINATED NORMALLY****
TOTAL RUN TIME: 0 days 2 hours 0 minutes 26 seconds 150 msec
