                         Program Version 4.2.0 -  RELEASE  -
|  1> # ORCA input file
|  2> # SCF done        -31.812199011690          0.000657419391
|  3> ! B3LYP/G D3BJ Opt RIJCOSX def2-SVP def2/J
|  4> * xyz 0 1
|  5>    C       -1.77460         1.17105         0.25927
|  6>    S       -2.78893        -0.08441         0.84597
|  7>    C       -1.69543        -1.28628         0.28980
|  8>    C       -0.61644        -0.74272        -0.32896
|  9>    C       -0.66287         0.68270        -0.34707
| 10>    S        0.57080         1.67219        -1.12975
| 11>    C        2.00289         1.36057        -0.00444
| 12>    C        1.81693         0.06168         0.73156
| 13>    O        1.40999         0.03057         1.86506
| 14>    C        2.11452        -1.19697        -0.03665
| 15>    S        0.67247        -1.67349        -1.09232
| 16>    H       -2.05799         2.19697         0.37885
| 17>    H       -1.91277        -2.32497         0.43411
| 18>    H        2.04231         2.18587         0.70743
| 19>    H        2.88213         1.35696        -0.64533
| 20>    H        2.28329        -2.02001         0.65831
| 21>    H        2.95457        -1.08428        -0.71895
| 22> *
| 23>
| 24>                          ****END OF INPUT****
 Total Charge           Charge          ....    0
 Multiplicity           Mult            ....    1
 Number of Electrons    NEL             ....  104
Dispersion correction           -0.048891450
FINAL SINGLE POINT ENERGY     -1539.583409314594
Dispersion correction            ... done
Dispersion correction           -0.048048294
FINAL SINGLE POINT ENERGY     -1539.587008758808
Dispersion correction            ... done
Dispersion correction           -0.047738299
FINAL SINGLE POINT ENERGY     -1539.587318924649
Dispersion correction            ... done
FINAL SINGLE POINT ENERGY     -1539.587471021028
FINAL SINGLE POINT ENERGY     -1539.587613264288
FINAL SINGLE POINT ENERGY     -1539.587704133378
FINAL SINGLE POINT ENERGY     -1539.587705760729
FINAL SINGLE POINT ENERGY     -1539.587580092949
FINAL SINGLE POINT ENERGY     -1539.587700276101
FINAL SINGLE POINT ENERGY     -1539.587734416110
FINAL SINGLE POINT ENERGY     -1539.588524264149
FINAL SINGLE POINT ENERGY     -1539.588522405575
FINAL SINGLE POINT ENERGY     -1539.588521215341
FINAL SINGLE POINT ENERGY     -1539.588520642621
FINAL SINGLE POINT ENERGY     -1539.588519563312
FINAL SINGLE POINT ENERGY     -1539.588519187802
FINAL SINGLE POINT ENERGY     -1539.588518382318
Dispersion correction            ... done
Dispersion correction           -0.047557180
FINAL SINGLE POINT ENERGY     -1539.588517590450
Dispersion correction            ... done
Dispersion correction           -0.047558554
FINAL SINGLE POINT ENERGY     -1539.588517041740
Dispersion correction            ... done
                    ***********************HURRAY********************

CARTESIAN COORDINATES (ANGSTROEM)
---------------------------------
  C     -1.823341    1.227550    0.072523
  S     -2.911438    0.048650    0.714027
  C     -1.808154   -1.240787    0.374182
  C     -0.666157   -0.786924   -0.241734
  C     -0.676776    0.649762   -0.415833
  S      0.642494    1.526630   -1.202111
  C      1.905491    1.376668    0.124934
  C      2.010720   -0.004897    0.758456
  O      2.003717   -0.121600    1.961222
  C      2.155042   -1.220627   -0.146010
  S      0.575456   -1.859559   -0.894521
  H     -2.081758    2.285088    0.075578
  H     -2.055948   -2.267221    0.638238
  H      1.711478    2.096836    0.931048
  H      2.863749    1.627391   -0.360965
  H      2.569122   -2.031966    0.466330
  H      2.827172   -0.999563   -0.988473

 Multiplicity           Mult            ....    1
 Number of Electrons    NEL             ....  104
 Basis Dimension        Dim             ....  196

ORBITAL ENERGIES
----------------

  NO   OCC          E(Eh)            E(eV)
   0   2.0000     -88.889683     -2418.8112
   1   2.0000     -88.858238     -2417.9556
   2   2.0000     -88.856531     -2417.9091
   3   2.0000     -19.143117      -520.9107
   4   2.0000     -10.295677      -280.1596
   5   2.0000     -10.231793      -278.4212
   6   2.0000     -10.229930      -278.3706
   7   2.0000     -10.229820      -278.3676
   8   2.0000     -10.229420      -278.3567
   9   2.0000     -10.228375      -278.3282
  10   2.0000     -10.226963      -278.2898
  11   2.0000      -7.984957      -217.2817
  12   2.0000      -7.952602      -216.4013
  13   2.0000      -7.950762      -216.3512
  14   2.0000      -5.953028      -161.9901
  15   2.0000      -5.948916      -161.8782
  16   2.0000      -5.946311      -161.8073
  17   2.0000      -5.922110      -161.1488
  18   2.0000      -5.920489      -161.1047
  19   2.0000      -5.918435      -161.0488
  20   2.0000      -5.916552      -160.9976
  21   2.0000      -5.910655      -160.8371
  22   2.0000      -5.908624      -160.7818
  23   2.0000      -1.051704       -28.6183
  24   2.0000      -0.901495       -24.5309
  25   2.0000      -0.827834       -22.5265
  26   2.0000      -0.800223       -21.7752
  27   2.0000      -0.757391       -20.6096
  28   2.0000      -0.732214       -19.9246
  29   2.0000      -0.670527       -18.2460
  30   2.0000      -0.660177       -17.9643
  31   2.0000      -0.583445       -15.8763
  32   2.0000      -0.551967       -15.0198
  33   2.0000      -0.536650       -14.6030
  34   2.0000      -0.484405       -13.1813
  35   2.0000      -0.479193       -13.0395
  36   2.0000      -0.475459       -12.9379
  37   2.0000      -0.462553       -12.5867
  38   2.0000      -0.430890       -11.7251
  39   2.0000      -0.423463       -11.5230
  40   2.0000      -0.415952       -11.3186
  41   2.0000      -0.403088       -10.9686
  42   2.0000      -0.392773       -10.6879
  43   2.0000      -0.387114       -10.5339
  44   2.0000      -0.363653        -9.8955
  45   2.0000      -0.355889        -9.6842
  46   2.0000      -0.337574        -9.1859
  47   2.0000      -0.283037        -7.7018
  48   2.0000      -0.274976        -7.4825
  49   2.0000      -0.259252        -7.0546
  50   2.0000      -0.240749        -6.5511
  51   2.0000      -0.227832        -6.1996
  52   0.0000      -0.052000        -1.4150
  53   0.0000      -0.037116        -1.0100
  54   0.0000      -0.001338        -0.0364
  55   0.0000       0.027900         0.7592
  56   0.0000       0.034940         0.9508

MULLIKEN ATOMIC CHARGES
-----------------------
   0 C :   -0.090570
   1 S :    0.118069
   2 C :   -0.096515
   3 C :   -0.026862
   4 C :   -0.051553
   5 S :    0.001331
   6 C :    0.002996
   7 C :   -0.003203
   8 O :   -0.171717
   9 C :    0.002423
  10 S :    0.013580
  11 H :    0.032655
  12 H :    0.031313
  13 H :    0.056895
  14 H :    0.061813
  15 H :    0.062821
  16 H :    0.056524
Sum of atomic charges:   -0.0000000

LOEWDIN ATOMIC CHARGES
----------------------
   0 C :   -0.190371
   1 S :    0.446929
   2 C :   -0.194987
   3 C :   -0.226937
   4 C :   -0.228003
   5 S :    0.277178
   6 C :   -0.151746
   7 C :    0.053199
   8 O :   -0.120012
   9 C :   -0.153489
  10 S :    0.289533
  11 H :    0.030144
  12 H :    0.029731
  13 H :    0.031945
  14 H :    0.040701
  15 H :    0.035018
  16 H :    0.031167

  Mayer bond orders larger than 0.100000
B(  0-C ,  1-S ) :   1.1780 B(  0-C ,  4-C ) :   1.5728 B(  0-C , 11-H ) :   0.9659
B(  1-S ,  2-C ) :   1.1678 B(  2-C ,  3-C ) :   1.5676 B(  2-C , 12-H ) :   0.9650
B(  3-C ,  4-C ) :   1.2158 B(  3-C , 10-S ) :   1.0410 B(  4-C ,  5-S ) :   1.0279
B(  5-S ,  6-C ) :   0.9920 B(  6-C ,  7-C ) :   0.9658 B(  6-C , 13-H ) :   0.9301
B(  6-C , 14-H ) :   0.9228 B(  7-C ,  8-O ) :   2.1818 B(  7-C ,  9-C ) :   0.9696
B(  9-C , 10-S ) :   0.9542 B(  9-C , 15-H ) :   0.9295 B(  9-C , 16-H ) :   0.9306

Dispersion correction           -0.047559321
FINAL SINGLE POINT ENERGY     -1539.588516771844

DIPOLE MOMENT
-------------
                                X             Y             Z
Electronic contribution:     -5.57819      -0.70773      -1.17101
Nuclear contribution   :      5.63919       0.95693       0.94457
                        -----------------------------------------
Total Dipole Moment    :      0.06100       0.24920      -0.22643
                        -----------------------------------------
Magnitude (a.u.)       :      0.34219
Magnitude (Debye)      :      0.86978

Rotational constants in cm-1:     0.036711     0.021177     0.018058
Rotational constants in MHz :  1100.554665   634.883418   541.369439

                             ****ORCA TERMINATED NORMALLY****
TOTAL RUN TIME: 0 days 1 hours 13 minutes 31 seconds 452 msec
