                         Program Version 4.2.0 -  RELEASE  -
|  1> # ORCA input file
|  2> # SCF done        -27.543648932997          0.000434976284
|  3> ! B3LYP/G D3BJ Opt RIJCOSX def2-SVP def2/J
|  4> * xyz 0 1
|  5>    C       -0.67700         1.24048        -0.15613
|  6>    S       -1.84760        -0.00898        -0.18791
|  7>    C       -0.65520        -1.24941         0.05551
|  8>    C        0.58921        -0.67593         0.15027
|  9>    C        0.57109         0.73375         0.02975
| 10>    F        1.67394         1.48789         0.09363
| 11>    F        1.72425        -1.36251         0.33517
| 12>    C       -1.06554        -2.62948         0.12938
| 13>    C       -0.25691        -3.66305         0.34669
| 14>    H       -0.95826         2.26669        -0.27319
| 15>    H       -2.12793        -2.78326        -0.00624
| 16>    H        0.80277        -3.54795         0.48891
| 17>    H       -0.64332        -4.66594         0.38979
| 18> *
| 19>
| 20>                          ****END OF INPUT****
 Total Charge           Charge          ....    0
 Multiplicity           Mult            ....    1
 Number of Electrons    NEL             ....   74
Dispersion correction           -0.024817926
FINAL SINGLE POINT ENERGY      -828.459267724744
Dispersion correction            ... done
Dispersion correction           -0.024733511
FINAL SINGLE POINT ENERGY      -828.460863896781
Dispersion correction            ... done
Dispersion correction           -0.024719858
FINAL SINGLE POINT ENERGY      -828.460976962796
Dispersion correction            ... done
FINAL SINGLE POINT ENERGY      -828.460976518388
FINAL SINGLE POINT ENERGY      -828.460955479071
Dispersion correction            ... done
Dispersion correction           -0.024718277
FINAL SINGLE POINT ENERGY      -828.460968857971
Dispersion correction            ... done
Dispersion correction           -0.024717987
FINAL SINGLE POINT ENERGY      -828.460964700885
Dispersion correction            ... done
                    ***********************HURRAY********************

CARTESIAN COORDINATES (ANGSTROEM)
---------------------------------
  C     -0.676587    1.264440   -0.189774
  S     -1.853850   -0.001874   -0.230324
  C     -0.660452   -1.243913    0.065295
  C      0.585194   -0.663359    0.179327
  C      0.574124    0.755113    0.039945
  F      1.686999    1.478273    0.137270
  F      1.713129   -1.338306    0.406848
  C     -1.065939   -2.636307    0.162954
  C     -0.247689   -3.690931    0.308843
  H     -0.953761    2.305239   -0.340366
  H     -2.146554   -2.809175    0.110068
  H      0.836649   -3.577801    0.365282
  H     -0.661764   -4.699099    0.380262

 Multiplicity           Mult            ....    1
 Number of Electrons    NEL             ....   74
 Basis Dimension        Dim             ....  150

ORBITAL ENERGIES
----------------

  NO   OCC          E(Eh)            E(eV)
   0   2.0000     -88.893321     -2418.9102
   1   2.0000     -24.718573      -672.6266
   2   2.0000     -24.714807      -672.5241
   3   2.0000     -10.288954      -279.9767
   4   2.0000     -10.285837      -279.8919
   5   2.0000     -10.234725      -278.5010
   6   2.0000     -10.228992      -278.3450
   7   2.0000     -10.214965      -277.9633
   8   2.0000     -10.197368      -277.4845
   9   2.0000      -7.988011      -217.3648
  10   2.0000      -5.956198      -162.0764
  11   2.0000      -5.952534      -161.9767
  12   2.0000      -5.948781      -161.8746
  13   2.0000      -1.231796       -33.5189
  14   2.0000      -1.220536       -33.2125
  15   2.0000      -0.903965       -24.5981
  16   2.0000      -0.797066       -21.6893
  17   2.0000      -0.748846       -20.3771
  18   2.0000      -0.723756       -19.6944
  19   2.0000      -0.625113       -17.0102
  20   2.0000      -0.610332       -16.6080
  21   2.0000      -0.583466       -15.8769
  22   2.0000      -0.557213       -15.1625
  23   2.0000      -0.506714       -13.7884
  24   2.0000      -0.500543       -13.6205
  25   2.0000      -0.482936       -13.1414
  26   2.0000      -0.471162       -12.8210
  27   2.0000      -0.467917       -12.7327
  28   2.0000      -0.440684       -11.9916
  29   2.0000      -0.407716       -11.0945
  30   2.0000      -0.405308       -11.0290
  31   2.0000      -0.388820       -10.5803
  32   2.0000      -0.376318       -10.2401
  33   2.0000      -0.355114        -9.6631
  34   2.0000      -0.314976        -8.5709
  35   2.0000      -0.257566        -7.0087
  36   2.0000      -0.231331        -6.2948
  37   0.0000      -0.055964        -1.5229
  38   0.0000       0.015108         0.4111
  39   0.0000       0.019909         0.5418
  40   0.0000       0.054857         1.4927
  41   0.0000       0.075739         2.0610

MULLIKEN ATOMIC CHARGES
-----------------------
   0 C :   -0.160651
   1 S :    0.132231
   2 C :   -0.192744
   3 C :    0.212623
   4 C :    0.248918
   5 F :   -0.174206
   6 F :   -0.176354
   7 C :    0.042822
   8 C :   -0.028166
   9 H :    0.041365
  10 H :   -0.007512
  11 H :    0.036421
  12 H :    0.025254
Sum of atomic charges:   -0.0000000

LOEWDIN ATOMIC CHARGES
----------------------
   0 C :   -0.223064
   1 S :    0.448834
   2 C :   -0.208178
   3 C :    0.019663
   4 C :    0.017901
   5 F :   -0.047415
   6 F :   -0.043774
   7 C :   -0.044802
   8 C :   -0.038814
   9 H :    0.034890
  10 H :    0.030381
  11 H :    0.026120
  12 H :    0.028258

  Mayer bond orders larger than 0.100000
B(  0-C ,  1-S ) :   1.1292 B(  0-C ,  2-C ) :   0.1123 B(  0-C ,  4-C ) :   1.5179
B(  0-C ,  9-H ) :   0.9658 B(  1-S ,  2-C ) :   1.1237 B(  2-C ,  3-C ) :   1.4480
B(  2-C ,  7-C ) :   1.1125 B(  3-C ,  4-C ) :   1.2052 B(  3-C ,  6-F ) :   1.1228
B(  4-C ,  5-F ) :   1.1281 B(  7-C ,  8-C ) :   1.9276 B(  7-C , 10-H ) :   0.9503
B(  8-C , 11-H ) :   0.9493 B(  8-C , 12-H ) :   0.9423

Dispersion correction           -0.024717761
FINAL SINGLE POINT ENERGY      -828.460962930101

DIPOLE MOMENT
-------------
                                X             Y             Z
Electronic contribution:      4.97510       7.30324       0.05304
Nuclear contribution   :     -5.64028      -7.33213      -0.14563
                        -----------------------------------------
Total Dipole Moment    :     -0.66518      -0.02889      -0.09259
                        -----------------------------------------
Magnitude (a.u.)       :      0.67221
Magnitude (Debye)      :      1.70862

Rotational constants in cm-1:     0.067424     0.043031     0.026272
Rotational constants in MHz :  2021.320967  1290.023388   787.603717

                             ****ORCA TERMINATED NORMALLY****
TOTAL RUN TIME: 0 days 0 hours 10 minutes 28 seconds 247 msec
