                         Program Version 4.2.0 -  RELEASE  -
|  1> # ORCA input file
|  2> # SCF done        -27.548883895099          0.000676323678
|  3> ! B3LYP/G D3BJ Opt RIJCOSX def2-SVP def2/J
|  4> * xyz 0 1
|  5>    C        0.36088        -1.26523        -0.36022
|  6>    S       -1.06395        -0.29188        -0.63051
|  7>    C       -0.19086         1.04977        -0.03908
|  8>    C        1.08122         0.68010         0.31387
|  9>    N        1.36064        -0.63615         0.11967
| 10>    C        2.07883         1.62124         0.86119
| 11>    O        1.86260         2.79618         1.03778
| 12>    O        3.23481         1.02023         1.13520
| 13>    C        4.25718         1.84962         1.66552
| 14>    H        0.36067        -2.31150        -0.59037
| 15>    H       -0.62558         2.02617         0.02783
| 16>    H        5.07156         1.18609         1.94432
| 17>    H        3.88971         2.39786         2.53561
| 18>    H        4.59002         2.56865         0.91368
| 19> *
| 20>
| 21>                          ****END OF INPUT****
 Total Charge           Charge          ....    0
 Multiplicity           Mult            ....    1
 Number of Electrons    NEL             ....   74
Dispersion correction           -0.024465229
FINAL SINGLE POINT ENERGY      -796.546026229314
Dispersion correction            ... done
Dispersion correction           -0.024427957
FINAL SINGLE POINT ENERGY      -796.547840030643
Dispersion correction            ... done
Dispersion correction           -0.024425630
FINAL SINGLE POINT ENERGY      -796.547927135662
Dispersion correction            ... done
FINAL SINGLE POINT ENERGY      -796.547938867167
FINAL SINGLE POINT ENERGY      -796.547958808390
Dispersion correction            ... done
Dispersion correction           -0.024427053
FINAL SINGLE POINT ENERGY      -796.547962236068
Dispersion correction            ... done
Dispersion correction           -0.024426582
FINAL SINGLE POINT ENERGY      -796.547960674188
Dispersion correction            ... done
                    ***********************HURRAY********************

CARTESIAN COORDINATES (ANGSTROEM)
---------------------------------
  C      0.321563   -1.295861   -0.371603
  S     -1.085182   -0.280546   -0.622144
  C     -0.177225    1.055844   -0.035729
  C      1.093552    0.646969    0.303908
  N      1.359793   -0.686257    0.105849
  C      2.090495    1.603719    0.851371
  O      1.852532    2.776375    1.032686
  O      3.264282    1.024377    1.127337
  C      4.265615    1.877985    1.675986
  H      0.286926   -2.357698   -0.624059
  H     -0.582748    2.061838    0.045753
  H      5.098360    1.225307    1.964138
  H      3.879791    2.423172    2.550387
  H      4.599976    2.615926    0.930611

 Multiplicity           Mult            ....    1
 Number of Electrons    NEL             ....   74
 Basis Dimension        Dim             ....  155

ORBITAL ENERGIES
----------------

  NO   OCC          E(Eh)            E(eV)
   0   2.0000     -88.898644     -2419.0551
   1   2.0000     -19.178393      -521.8706
   2   2.0000     -19.120974      -520.3082
   3   2.0000     -14.342556      -390.2808
   4   2.0000     -10.317069      -280.7417
   5   2.0000     -10.259974      -279.1881
   6   2.0000     -10.244901      -278.7779
   7   2.0000     -10.236888      -278.5599
   8   2.0000     -10.236206      -278.5413
   9   2.0000      -7.994414      -217.5391
  10   2.0000      -5.962117      -162.2375
  11   2.0000      -5.958135      -162.1291
  12   2.0000      -5.956258      -162.0780
  13   2.0000      -1.099169       -29.9099
  14   2.0000      -1.007131       -27.4054
  15   2.0000      -0.975540       -26.5458
  16   2.0000      -0.815547       -22.1921
  17   2.0000      -0.774236       -21.0680
  18   2.0000      -0.720998       -19.6194
  19   2.0000      -0.616772       -16.7832
  20   2.0000      -0.607561       -16.5326
  21   2.0000      -0.557811       -15.1788
  22   2.0000      -0.528697       -14.3866
  23   2.0000      -0.488358       -13.2889
  24   2.0000      -0.484222       -13.1763
  25   2.0000      -0.465598       -12.6696
  26   2.0000      -0.433853       -11.8057
  27   2.0000      -0.430929       -11.7262
  28   2.0000      -0.426412       -11.6032
  29   2.0000      -0.393865       -10.7176
  30   2.0000      -0.388239       -10.5645
  31   2.0000      -0.357664        -9.7325
  32   2.0000      -0.308102        -8.3839
  33   2.0000      -0.302786        -8.2392
  34   2.0000      -0.292312        -7.9542
  35   2.0000      -0.279576        -7.6076
  36   2.0000      -0.267594        -7.2816
  37   0.0000      -0.056190        -1.5290
  38   0.0000      -0.017596        -0.4788
  39   0.0000       0.020691         0.5630
  40   0.0000       0.075300         2.0490
  41   0.0000       0.080013         2.1773

MULLIKEN ATOMIC CHARGES
-----------------------
   0 C :   -0.005992
   1 S :    0.104520
   2 C :   -0.072349
   3 C :   -0.023517
   4 N :   -0.074571
   5 C :    0.198000
   6 O :   -0.224558
   7 O :   -0.282315
   8 C :    0.195828
   9 H :    0.051342
  10 H :    0.044242
  11 H :    0.031940
  12 H :    0.029017
  13 H :    0.028413
Sum of atomic charges:   -0.0000000

LOEWDIN ATOMIC CHARGES
----------------------
   0 C :   -0.127650
   1 S :    0.427272
   2 C :   -0.160868
   3 C :   -0.085876
   4 N :   -0.082412
   5 C :    0.074648
   6 O :   -0.186435
   7 O :   -0.077668
   8 C :    0.086575
   9 H :    0.023835
  10 H :    0.040341
  11 H :    0.025202
  12 H :    0.021306
  13 H :    0.021730

  Mayer bond orders larger than 0.100000
B(  0-C ,  1-S ) :   1.1373 B(  0-C ,  4-N ) :   1.7062 B(  0-C ,  9-H ) :   0.9590
B(  1-S ,  2-C ) :   1.1910 B(  1-S ,  4-N ) :   0.1029 B(  2-C ,  3-C ) :   1.5544
B(  2-C , 10-H ) :   0.9582 B(  3-C ,  4-N ) :   1.3387 B(  3-C ,  5-C ) :   0.9473
B(  5-C ,  6-O ) :   2.0965 B(  5-C ,  7-O ) :   1.2525 B(  7-O ,  8-C ) :   0.9245
B(  8-C , 11-H ) :   0.9794 B(  8-C , 12-H ) :   0.9704 B(  8-C , 13-H ) :   0.9756

Dispersion correction           -0.024426349
FINAL SINGLE POINT ENERGY      -796.547958083969

DIPOLE MOMENT
-------------
                                X             Y             Z
Electronic contribution:     -7.24035      -2.92373      -3.13662
Nuclear contribution   :      6.97448       2.54567       2.97225
                        -----------------------------------------
Total Dipole Moment    :     -0.26587      -0.37806      -0.16437
                        -----------------------------------------
Magnitude (a.u.)       :      0.49055
Magnitude (Debye)      :      1.24687

Rotational constants in cm-1:     0.141890     0.026753     0.022607
Rotational constants in MHz :  4253.753705   802.048741   677.727165

                             ****ORCA TERMINATED NORMALLY****
TOTAL RUN TIME: 0 days 0 hours 4 minutes 45 seconds 99 msec
