                         Program Version 4.2.0 -  RELEASE  -
|  1> # ORCA input file
|  2> # SCF done        -34.945629474984          0.000347840565
|  3> ! B3LYP/G D3BJ Opt RIJCOSX def2-SVP def2/J
|  4> * xyz 0 1
|  5>    C        0.02540         1.16935        -0.03386
|  6>    S       -1.14059        -0.08103        -0.05834
|  7>    C        0.11752        -1.26334        -0.01157
|  8>    C       -0.18840        -2.71748        -0.00849
|  9>    F       -1.50059        -2.97736        -0.04815
| 10>    F        0.36187        -3.35735        -1.05900
| 11>    F        0.29316        -3.33836         1.08630
| 12>    C        1.35905        -0.70549         0.02094
| 13>    C        1.31797         0.71419         0.00850
| 14>    C        2.46487         1.60262         0.03605
| 15>    C        3.73506         1.21901         0.07206
| 16>    H       -0.30245         2.19026        -0.05181
| 17>    H        2.26069        -1.28859         0.05279
| 18>    H        2.21837         2.65617         0.02380
| 19>    H        4.02709         0.18331         0.08287
| 20>    H        4.53502         1.93838         0.08874
| 21> *
| 22>
| 23>                          ****END OF INPUT****
 Total Charge           Charge          ....    0
 Multiplicity           Mult            ....    1
 Number of Electrons    NEL             ....   90
Dispersion correction           -0.030628025
FINAL SINGLE POINT ENERGY      -966.944349824459
Dispersion correction            ... done
Dispersion correction           -0.030513549
FINAL SINGLE POINT ENERGY      -966.946564620108
Dispersion correction            ... done
Dispersion correction           -0.030486982
FINAL SINGLE POINT ENERGY      -966.946643894927
Dispersion correction            ... done
FINAL SINGLE POINT ENERGY      -966.946646797935
FINAL SINGLE POINT ENERGY      -966.946670820227
FINAL SINGLE POINT ENERGY      -966.946675443015
FINAL SINGLE POINT ENERGY      -966.946677466911
FINAL SINGLE POINT ENERGY      -966.946679850285
FINAL SINGLE POINT ENERGY      -966.946682006135
FINAL SINGLE POINT ENERGY      -966.946686988379
FINAL SINGLE POINT ENERGY      -966.946745554110
FINAL SINGLE POINT ENERGY      -966.946879028234
FINAL SINGLE POINT ENERGY      -966.946935806945
FINAL SINGLE POINT ENERGY      -966.946955754378
Dispersion correction            ... done
Dispersion correction           -0.030513723
FINAL SINGLE POINT ENERGY      -966.946969906860
Dispersion correction            ... done
Dispersion correction           -0.030511695
FINAL SINGLE POINT ENERGY      -966.946973338563
Dispersion correction            ... done
                    ***********************HURRAY********************

CARTESIAN COORDINATES (ANGSTROEM)
---------------------------------
  C      0.009215    1.177499   -0.144495
  S     -1.152002   -0.095777   -0.186085
  C      0.103500   -1.280004    0.002349
  C     -0.190858   -2.745103   -0.011971
  F     -1.456394   -3.004863    0.358131
  F     -0.019317   -3.273274   -1.238587
  F      0.629161   -3.412387    0.817440
  C      1.343940   -0.708095    0.084043
  C      1.307785    0.723825    0.000181
  C      2.471352    1.610073    0.054811
  C      3.753151    1.224102    0.130291
  H     -0.319177    2.213381   -0.222698
  H      2.253034   -1.294356    0.210282
  H      2.243220    2.681186    0.023242
  H      4.045728    0.171079    0.159003
  H      4.561703    1.957004    0.164895

 Multiplicity           Mult            ....    1
 Number of Electrons    NEL             ....   90
 Basis Dimension        Dim             ....  183

ORBITAL ENERGIES
----------------

  NO   OCC          E(Eh)            E(eV)
   0   2.0000     -88.896809     -2419.0051
   1   2.0000     -24.723190      -672.7522
   2   2.0000     -24.721417      -672.7040
   3   2.0000     -24.715984      -672.5561
   4   2.0000     -10.442973      -284.1678
   5   2.0000     -10.235920      -278.5336
   6   2.0000     -10.231398      -278.4105
   7   2.0000     -10.217498      -278.0323
   8   2.0000     -10.216201      -277.9970
   9   2.0000     -10.210230      -277.8345
  10   2.0000     -10.199208      -277.5346
  11   2.0000      -7.991660      -217.4641
  12   2.0000      -5.959809      -162.1746
  13   2.0000      -5.955614      -162.0605
  14   2.0000      -5.953030      -161.9902
  15   2.0000      -1.300587       -35.3908
  16   2.0000      -1.210652       -32.9435
  17   2.0000      -1.204645       -32.7801
  18   2.0000      -0.904686       -24.6178
  19   2.0000      -0.803945       -21.8765
  20   2.0000      -0.769906       -20.9502
  21   2.0000      -0.735365       -20.0103
  22   2.0000      -0.692952       -18.8562
  23   2.0000      -0.627542       -17.0763
  24   2.0000      -0.607438       -16.5292
  25   2.0000      -0.593978       -16.1630
  26   2.0000      -0.590389       -16.0653
  27   2.0000      -0.551665       -15.0116
  28   2.0000      -0.544324       -14.8118
  29   2.0000      -0.482157       -13.1202
  30   2.0000      -0.472497       -12.8573
  31   2.0000      -0.470950       -12.8152
  32   2.0000      -0.459199       -12.4954
  33   2.0000      -0.441572       -12.0158
  34   2.0000      -0.436240       -11.8707
  35   2.0000      -0.418204       -11.3799
  36   2.0000      -0.412352       -11.2207
  37   2.0000      -0.410444       -11.1688
  38   2.0000      -0.404528       -11.0078
  39   2.0000      -0.396164       -10.7802
  40   2.0000      -0.378844       -10.3089
  41   2.0000      -0.360004        -9.7962
  42   2.0000      -0.321217        -8.7408
  43   2.0000      -0.270205        -7.3526
  44   2.0000      -0.241193        -6.5632
  45   0.0000      -0.050383        -1.3710
  46   0.0000      -0.026718        -0.7270
  47   0.0000       0.023019         0.6264
  48   0.0000       0.059227         1.6117
  49   0.0000       0.071137         1.9357

MULLIKEN ATOMIC CHARGES
-----------------------
   0 C :   -0.125084
   1 S :    0.162870
   2 C :   -0.261705
   3 C :    0.566580
   4 F :   -0.169870
   5 F :   -0.167766
   6 F :   -0.167430
   7 C :    0.034425
   8 C :    0.083063
   9 C :    0.005244
  10 C :   -0.023013
  11 H :    0.030686
  12 H :   -0.000626
  13 H :   -0.012200
  14 H :    0.015522
  15 H :    0.029304
Sum of atomic charges:   -0.0000000

LOEWDIN ATOMIC CHARGES
----------------------
   0 C :   -0.178226
   1 S :    0.465252
   2 C :   -0.243959
   3 C :    0.156485
   4 F :   -0.064366
   5 F :   -0.066814
   6 F :   -0.060535
   7 C :   -0.024645
   8 C :   -0.062483
   9 C :   -0.023275
  10 C :   -0.043355
  11 H :    0.028532
  12 H :    0.035585
  13 H :    0.030912
  14 H :    0.021840
  15 H :    0.029052

  Mayer bond orders larger than 0.100000
B(  0-C ,  1-S ) :   1.1680 B(  0-C ,  8-C ) :   1.5018 B(  0-C , 11-H ) :   0.9674
B(  1-S ,  2-C ) :   1.1419 B(  2-C ,  3-C ) :   0.9643 B(  2-C ,  7-C ) :   1.5652
B(  3-C ,  4-F ) :   1.1454 B(  3-C ,  5-F ) :   1.1673 B(  3-C ,  6-F ) :   1.1504
B(  7-C ,  8-C ) :   1.2237 B(  7-C , 12-H ) :   0.9941 B(  8-C ,  9-C ) :   1.0919
B(  9-C , 10-C ) :   1.9299 B(  9-C , 13-H ) :   0.9633 B( 10-C , 14-H ) :   0.9483
B( 10-C , 15-H ) :   0.9460

Dispersion correction           -0.030511061
FINAL SINGLE POINT ENERGY      -966.946972230129

DIPOLE MOMENT
-------------
                                X             Y             Z
Electronic contribution:    -11.79229     -15.28327      -0.42355
Nuclear contribution   :     12.11937      16.27164       0.43530
                        -----------------------------------------
Total Dipole Moment    :      0.32708       0.98838       0.01174
                        -----------------------------------------
Magnitude (a.u.)       :      1.04116
Magnitude (Debye)      :      2.64641

Rotational constants in cm-1:     0.056848     0.020783     0.016543
Rotational constants in MHz :  1704.262751   623.054818   495.940281

                             ****ORCA TERMINATED NORMALLY****
TOTAL RUN TIME: 0 days 0 hours 14 minutes 0 seconds 824 msec
