                         Program Version 4.2.0 -  RELEASE  -
|  1> # ORCA input file
|  2> # SCF done        -38.639117753493          0.000913029894
|  3> ! B3LYP/G D3BJ Opt RIJCOSX def2-SVP def2/J
|  4> * xyz 0 1
|  5>    C       -1.47975         1.33464        -0.14053
|  6>    S       -2.70389         0.13958        -0.07139
|  7>    C       -1.56229        -1.15961         0.08152
|  8>    C       -0.28464        -0.64462         0.07487
|  9>    C       -0.24478         0.76491        -0.05029
| 10>    O        0.93304         1.45769        -0.07271
| 11>    C        2.09625         0.77917         0.02851
| 12>    O        3.13654         1.36751         0.01889
| 13>    C        2.05680        -0.75520         0.15414
| 14>    O        3.06681        -1.39149         0.23436
| 15>    O        0.86253        -1.38296         0.17419
| 16>    C       -2.02361        -2.51948         0.18951
| 17>    C       -1.23315        -3.58310         0.30678
| 18>    H       -1.71787         2.37292        -0.24054
| 19>    H       -3.09974        -2.62833         0.16794
| 20>    H       -0.16154        -3.49858         0.33050
| 21>    H       -1.64687        -4.57301         0.38344
| 22> *
| 23>
| 24>                          ****END OF INPUT****
 Total Charge           Charge          ....    0
 Multiplicity           Mult            ....    1
 Number of Electrons    NEL             ....  100
Dispersion correction           -0.037131200
FINAL SINGLE POINT ENERGY     -1005.776315058500
Dispersion correction            ... done
Dispersion correction           -0.036946935
FINAL SINGLE POINT ENERGY     -1005.778161892297
Dispersion correction            ... done
Dispersion correction           -0.036910743
FINAL SINGLE POINT ENERGY     -1005.778268421314
Dispersion correction            ... done
FINAL SINGLE POINT ENERGY     -1005.778208754591
FINAL SINGLE POINT ENERGY     -1005.778248246427
FINAL SINGLE POINT ENERGY     -1005.778263883446
Dispersion correction            ... done
Dispersion correction           -0.036912234
FINAL SINGLE POINT ENERGY     -1005.778270792810
Dispersion correction            ... done
Dispersion correction           -0.036911082
FINAL SINGLE POINT ENERGY     -1005.778268232225
Dispersion correction            ... done
                    ***********************HURRAY********************

CARTESIAN COORDINATES (ANGSTROEM)
---------------------------------
  C     -1.484643    1.356775   -0.126518
  S     -2.711583    0.142525   -0.047052
  C     -1.552951   -1.160586    0.096762
  C     -0.277771   -0.629977    0.087193
  C     -0.243595    0.782556   -0.049760
  O      0.937814    1.471636   -0.114200
  C      2.117358    0.801350   -0.011864
  O      3.155029    1.378519   -0.090296
  C      2.081465   -0.738529    0.211256
  O      3.086825   -1.356623    0.365901
  O      0.872817   -1.365727    0.210246
  C     -2.020015   -2.532826    0.196429
  C     -1.252578   -3.632729    0.270588
  H     -1.723608    2.411495   -0.238254
  H     -3.109566   -2.647522    0.201826
  H     -0.161958   -3.582342    0.269042
  H     -1.719202   -4.617955    0.337891

 Multiplicity           Mult            ....    1
 Number of Electrons    NEL             ....  100
 Basis Dimension        Dim             ....  206

ORBITAL ENERGIES
----------------

  NO   OCC          E(Eh)            E(eV)
   0   2.0000     -88.907766     -2419.3033
   1   2.0000     -19.238103      -523.4954
   2   2.0000     -19.235590      -523.4270
   3   2.0000     -19.166420      -521.5448
   4   2.0000     -19.164946      -521.5047
   5   2.0000     -10.363296      -281.9996
   6   2.0000     -10.362527      -281.9787
   7   2.0000     -10.292493      -280.0730
   8   2.0000     -10.289485      -279.9911
   9   2.0000     -10.251465      -278.9565
  10   2.0000     -10.244567      -278.7688
  11   2.0000     -10.224520      -278.2233
  12   2.0000     -10.207132      -277.7502
  13   2.0000      -8.002349      -217.7550
  14   2.0000      -5.970481      -162.4650
  15   2.0000      -5.966723      -162.3628
  16   2.0000      -5.963322      -162.2702
  17   2.0000      -1.166078       -31.7306
  18   2.0000      -1.134605       -30.8742
  19   2.0000      -1.079283       -29.3688
  20   2.0000      -1.054093       -28.6833
  21   2.0000      -0.919048       -25.0086
  22   2.0000      -0.811795       -22.0901
  23   2.0000      -0.782563       -21.2946
  24   2.0000      -0.751871       -20.4595
  25   2.0000      -0.714112       -19.4320
  26   2.0000      -0.677800       -18.4439
  27   2.0000      -0.643128       -17.5004
  28   2.0000      -0.625478       -17.0201
  29   2.0000      -0.585721       -15.9383
  30   2.0000      -0.536221       -14.5913
  31   2.0000      -0.523213       -14.2374
  32   2.0000      -0.499129       -13.5820
  33   2.0000      -0.485172       -13.2022
  34   2.0000      -0.481221       -13.0947
  35   2.0000      -0.475686       -12.9441
  36   2.0000      -0.475258       -12.9324
  37   2.0000      -0.465231       -12.6596
  38   2.0000      -0.446041       -12.1374
  39   2.0000      -0.423279       -11.5180
  40   2.0000      -0.408180       -11.1071
  41   2.0000      -0.389251       -10.5921
  42   2.0000      -0.381252       -10.3744
  43   2.0000      -0.377521       -10.2729
  44   2.0000      -0.375959       -10.2304
  45   2.0000      -0.336667        -9.1612
  46   2.0000      -0.323379        -8.7996
  47   2.0000      -0.307262        -8.3610
  48   2.0000      -0.267252        -7.2723
  49   2.0000      -0.242243        -6.5918
  50   0.0000      -0.093700        -2.5497
  51   0.0000      -0.067418        -1.8345
  52   0.0000      -0.004162        -0.1133
  53   0.0000       0.001143         0.0311
  54   0.0000       0.042815         1.1651

MULLIKEN ATOMIC CHARGES
-----------------------
   0 C :   -0.150289
   1 S :    0.144421
   2 C :   -0.182610
   3 C :    0.176749
   4 C :    0.206053
   5 O :   -0.205940
   6 C :    0.156735
   7 O :   -0.107552
   8 C :    0.163138
   9 O :   -0.106165
  10 O :   -0.219047
  11 C :    0.033600
  12 C :   -0.020887
  13 H :    0.040065
  14 H :   -0.004946
  15 H :    0.047177
  16 H :    0.029498
Sum of atomic charges:    0.0000000

LOEWDIN ATOMIC CHARGES
----------------------
   0 C :   -0.203566
   1 S :    0.466878
   2 C :   -0.187700
   3 C :   -0.013273
   4 C :   -0.012595
   5 O :   -0.028659
   6 C :    0.052533
   7 O :   -0.078757
   8 C :    0.053469
   9 O :   -0.078729
  10 O :   -0.026254
  11 C :   -0.048151
  12 C :   -0.026934
  13 H :    0.039029
  14 H :    0.031902
  15 H :    0.030040
  16 H :    0.030768

  Mayer bond orders larger than 0.100000
B(  0-C ,  1-S ) :   1.1403 B(  0-C ,  2-C ) :   0.1000 B(  0-C ,  4-C ) :   1.5204
B(  0-C , 13-H ) :   0.9709 B(  1-S ,  2-C ) :   1.1408 B(  2-C ,  3-C ) :   1.4775
B(  2-C , 11-C ) :   1.1169 B(  3-C ,  4-C ) :   1.2204 B(  3-C , 10-O ) :   1.0514
B(  4-C ,  5-O ) :   1.0386 B(  5-O ,  6-C ) :   1.0714 B(  6-C ,  7-O ) :   2.2208
B(  6-C ,  8-C ) :   0.8227 B(  8-C ,  9-O ) :   2.2242 B(  8-C , 10-O ) :   1.0585
B( 11-C , 12-C ) :   1.9187 B( 11-C , 14-H ) :   0.9445 B( 12-C , 15-H ) :   0.9495
B( 12-C , 16-H ) :   0.9411

Dispersion correction           -0.036910414
FINAL SINGLE POINT ENERGY     -1005.778267379917

DIPOLE MOMENT
-------------
                                X             Y             Z
Electronic contribution:      4.27482       6.47004      -0.34799
Nuclear contribution   :     -6.16930      -6.54787       0.28931
                        -----------------------------------------
Total Dipole Moment    :     -1.89447      -0.07784      -0.05868
                        -----------------------------------------
Magnitude (a.u.)       :      1.89698
Magnitude (Debye)      :      4.82174

Rotational constants in cm-1:     0.040594     0.019665     0.013257
Rotational constants in MHz :  1216.982749   589.541978   397.435610

                             ****ORCA TERMINATED NORMALLY****
TOTAL RUN TIME: 0 days 0 hours 9 minutes 7 seconds 963 msec
