                         Program Version 4.2.0 -  RELEASE  -
|  1> # ORCA input file
|  2> # SCF done        -38.635901730823          0.000752078585
|  3> ! B3LYP/G D3BJ Opt RIJCOSX def2-SVP def2/J
|  4> * xyz 0 1
|  5>    N        1.47269         0.00322        -0.58138
|  6>    C        0.40931        -0.96856        -0.69209
|  7>    C       -0.40095        -1.13410         0.59510
|  8>    C        2.56642        -0.24051         0.22472
|  9>    C        3.06920        -1.45962         0.56921
| 10>    S        4.55996        -1.34091         1.43484
| 11>    C        4.49988         0.37167         1.37156
| 12>    C        3.40221         0.82884         0.70944
| 13>    N        3.11521         2.18826         0.51702
| 14>    C        4.00969         2.95413        -0.32157
| 15>    C        3.72149         2.75344        -1.81018
| 16>    C        1.86778         2.65525         0.85564
| 17>    C        1.30045         3.80444         0.49311
| 18>    H        1.14567         0.95922        -0.52034
| 19>    H        0.85239        -1.92551        -0.97952
| 20>    H       -0.24561        -0.64152        -1.50422
| 21>    H        0.24813        -1.45627         1.40665
| 22>    H       -1.18197        -1.87648         0.45727
| 23>    H       -0.86410        -0.18976         0.87499
| 24>    H        2.68699        -2.43352         0.34411
| 25>    H        5.28184         0.94763         1.82436
| 26>    H        5.03200         2.63504        -0.10244
| 27>    H        3.91475         4.00890        -0.05258
| 28>    H        3.80481         1.69920        -2.06539
| 29>    H        4.43136         3.31683        -2.40994
| 30>    H        2.71560         3.08756        -2.05166
| 31>    H        1.34816         1.99550         1.54174
| 32>    H        1.76097         4.51088        -0.17241
| 33>    H        0.34114         4.07886         0.89114
| 34> *
| 35>
| 36>                          ****END OF INPUT****
 Total Charge           Charge          ....    0
 Multiplicity           Mult            ....    1
 Number of Electrons    NEL             ....  106
Dispersion correction           -0.057977909
FINAL SINGLE POINT ENERGY      -897.935161146438
Dispersion correction            ... done
Dispersion correction           -0.057414949
FINAL SINGLE POINT ENERGY      -897.939315395371
Dispersion correction            ... done
Dispersion correction           -0.057487442
FINAL SINGLE POINT ENERGY      -897.939650022544
Dispersion correction            ... done
FINAL SINGLE POINT ENERGY      -897.939774439954
FINAL SINGLE POINT ENERGY      -897.939914528185
FINAL SINGLE POINT ENERGY      -897.939962587530
FINAL SINGLE POINT ENERGY      -897.940006458150
FINAL SINGLE POINT ENERGY      -897.940034866263
FINAL SINGLE POINT ENERGY      -897.940082224635
FINAL SINGLE POINT ENERGY      -897.940123888502
Dispersion correction            ... done
Dispersion correction           -0.057554014
FINAL SINGLE POINT ENERGY      -897.940155241943
Dispersion correction            ... done
Dispersion correction           -0.057545009
FINAL SINGLE POINT ENERGY      -897.940169650342
Dispersion correction            ... done
                    ***********************HURRAY********************

CARTESIAN COORDINATES (ANGSTROEM)
---------------------------------
  N      1.510017    0.090159   -0.534903
  C      0.469058   -0.888226   -0.776661
  C     -0.370693   -1.254485    0.452275
  C      2.589516   -0.193589    0.282014
  C      3.057259   -1.440635    0.643061
  S      4.512916   -1.339149    1.593310
  C      4.484911    0.383821    1.550349
  C      3.419625    0.864180    0.827087
  N      3.168381    2.235844    0.579901
  C      3.974558    2.910001   -0.432064
  C      3.558511    2.598937   -1.872224
  C      1.974109    2.786917    1.014372
  C      1.380731    3.920930    0.589941
  H      1.194004    1.053115   -0.484418
  H      0.935958   -1.796175   -1.197101
  H     -0.182088   -0.487773   -1.570016
  H      0.259711   -1.670260    1.252987
  H     -1.136084   -2.003923    0.195212
  H     -0.884855   -0.366557    0.855760
  H      2.649120   -2.412245    0.378194
  H      5.241283    0.977137    2.060207
  H      5.022699    2.611290   -0.274215
  H      3.918656    3.992950   -0.235754
  H      3.651566    1.522441   -2.081729
  H      4.195830    3.145941   -2.583782
  H      2.513713    2.891496   -2.058681
  H      1.505343    2.197543    1.810168
  H      1.784063    4.539410   -0.213654
  H      0.467651    4.263014    1.077543

 Multiplicity           Mult            ....    1
 Number of Electrons    NEL             ....  106
 Basis Dimension        Dim             ....  266

ORBITAL ENERGIES
----------------

  NO   OCC          E(Eh)            E(eV)
   0   2.0000     -88.864386     -2418.1229
   1   2.0000     -14.347028      -390.4025
   2   2.0000     -14.332689      -390.0123
   3   2.0000     -10.222233      -278.1611
   4   2.0000     -10.221702      -278.1466
   5   2.0000     -10.220876      -278.1242
   6   2.0000     -10.219569      -278.0886
   7   2.0000     -10.218365      -278.0558
   8   2.0000     -10.206410      -277.7305
   9   2.0000     -10.191321      -277.3200
  10   2.0000     -10.182591      -277.0824
  11   2.0000     -10.180005      -277.0120
  12   2.0000     -10.163719      -276.5689
  13   2.0000      -7.959178      -216.5802
  14   2.0000      -5.927425      -161.2934
  15   2.0000      -5.923466      -161.1857
  16   2.0000      -5.920231      -161.0977
  17   2.0000      -0.953252       -25.9393
  18   2.0000      -0.918194       -24.9853
  19   2.0000      -0.856236       -23.2994
  20   2.0000      -0.758286       -20.6340
  21   2.0000      -0.753308       -20.4985
  22   2.0000      -0.739836       -20.1320
  23   2.0000      -0.699495       -19.0342
  24   2.0000      -0.686879       -18.6909
  25   2.0000      -0.633608       -17.2414
  26   2.0000      -0.622271       -16.9329
  27   2.0000      -0.579174       -15.7601
  28   2.0000      -0.559740       -15.2313
  29   2.0000      -0.544562       -14.8183
  30   2.0000      -0.526970       -14.3396
  31   2.0000      -0.484916       -13.1952
  32   2.0000      -0.480687       -13.0802
  33   2.0000      -0.463210       -12.6046
  34   2.0000      -0.438683       -11.9372
  35   2.0000      -0.431578       -11.7438
  36   2.0000      -0.427811       -11.6413
  37   2.0000      -0.420399       -11.4396
  38   2.0000      -0.411965       -11.2101
  39   2.0000      -0.396330       -10.7847
  40   2.0000      -0.394087       -10.7237
  41   2.0000      -0.383942       -10.4476
  42   2.0000      -0.378251       -10.2927
  43   2.0000      -0.368401       -10.0247
  44   2.0000      -0.357174        -9.7192
  45   2.0000      -0.353790        -9.6271
  46   2.0000      -0.348856        -9.4929
  47   2.0000      -0.343707        -9.3527
  48   2.0000      -0.315554        -8.5867
  49   2.0000      -0.297504        -8.0955
  50   2.0000      -0.243448        -6.6246
  51   2.0000      -0.198883        -5.4119
  52   2.0000      -0.192824        -5.2470
  53   0.0000      -0.011451        -0.3116
  54   0.0000       0.031650         0.8612
  55   0.0000       0.045906         1.2492
  56   0.0000       0.056070         1.5258
  57   0.0000       0.067734         1.8431

MULLIKEN ATOMIC CHARGES
-----------------------
   0 N :   -0.150946
   1 C :    0.090583
   2 C :   -0.006717
   3 C :    0.136564
   4 C :   -0.225796
   5 S :    0.089149
   6 C :   -0.137853
   7 C :    0.102305
   8 N :   -0.265231
   9 C :    0.116798
  10 C :    0.000012
  11 C :    0.069433
  12 C :   -0.101233
  13 H :    0.112900
  14 H :    0.005970
  15 H :    0.007249
  16 H :    0.023810
  17 H :    0.013297
  18 H :    0.006269
  19 H :   -0.000735
  20 H :    0.006841
  21 H :    0.007130
  22 H :    0.019063
  23 H :    0.028615
  24 H :    0.009410
  25 H :    0.012366
  26 H :    0.013550
  27 H :    0.008439
  28 H :    0.008757
Sum of atomic charges:   -0.0000000

LOEWDIN ATOMIC CHARGES
----------------------
   0 N :   -0.037965
   1 C :    0.030471
   2 C :   -0.071419
   3 C :   -0.019894
   4 C :   -0.264550
   5 S :    0.413881
   6 C :   -0.197574
   7 C :   -0.047873
   8 N :   -0.043004
   9 C :    0.043859
  10 C :   -0.067073
  11 C :    0.015921
  12 C :   -0.163246
  13 H :    0.069140
  14 H :    0.019062
  15 H :    0.022844
  16 H :    0.025368
  17 H :    0.025319
  18 H :    0.020652
  19 H :    0.015889
  20 H :    0.025256
  21 H :    0.022403
  22 H :    0.022142
  23 H :    0.027673
  24 H :    0.025338
  25 H :    0.021838
  26 H :    0.026946
  27 H :    0.015064
  28 H :    0.023531

  Mayer bond orders larger than 0.100000
B(  0-N ,  1-C ) :   1.0449 B(  0-N ,  3-C ) :   1.1941 B(  0-N , 13-H ) :   0.9082
B(  1-C ,  2-C ) :   1.0978 B(  1-C , 14-H ) :   0.9397 B(  1-C , 15-H ) :   0.9543
B(  2-C , 16-H ) :   0.9655 B(  2-C , 17-H ) :   0.9611 B(  2-C , 18-H ) :   0.9644
B(  3-C ,  4-C ) :   1.4711 B(  3-C ,  7-C ) :   1.2396 B(  4-C ,  5-S ) :   1.1035
B(  4-C , 19-H ) :   0.9637 B(  5-S ,  6-C ) :   1.1728 B(  6-C ,  7-C ) :   1.5483
B(  6-C , 20-H ) :   0.9645 B(  7-C ,  8-N ) :   1.0153 B(  8-N ,  9-C ) :   0.9814
B(  8-N , 11-C ) :   1.1266 B(  9-C , 10-C ) :   1.1215 B(  9-C , 21-H ) :   0.9438
B(  9-C , 22-H ) :   0.9402 B( 10-C , 23-H ) :   0.9626 B( 10-C , 24-H ) :   0.9577
B( 10-C , 25-H ) :   0.9625 B( 11-C , 12-C ) :   1.8395 B( 11-C , 26-H ) :   0.9570
B( 12-C , 27-H ) :   0.9494 B( 12-C , 28-H ) :   0.9445

Dispersion correction           -0.057544679
FINAL SINGLE POINT ENERGY      -897.940169042120

DIPOLE MOMENT
-------------
                                X             Y             Z
Electronic contribution:     11.58085      -7.85880       8.41047
Nuclear contribution   :    -11.85360       7.85084      -8.72827
                        -----------------------------------------
Total Dipole Moment    :     -0.27275      -0.00796      -0.31780
                        -----------------------------------------
Magnitude (a.u.)       :      0.41887
Magnitude (Debye)      :      1.06468

Rotational constants in cm-1:     0.025837     0.019739     0.013902
Rotational constants in MHz :   774.583527   591.770683   416.756783

                             ****ORCA TERMINATED NORMALLY****
TOTAL RUN TIME: 0 days 0 hours 26 minutes 46 seconds 301 msec
