                         Program Version 4.2.0 -  RELEASE  -
|  1> # ORCA input file
|  2> # SCF done        -35.162292988751          0.000496037839
|  3> ! B3LYP/G D3BJ Opt RIJCOSX def2-SVP def2/J
|  4> * xyz 0 1
|  5>    C       -1.54772        -1.37555         0.26310
|  6>    S       -2.73914        -0.15356         0.34975
|  7>    C       -1.59049         1.08592         0.12568
|  8>    C       -0.31821         0.58308        -0.01348
|  9>    C       -0.29459        -0.85060         0.06687
| 10>    C        0.95319        -1.53580        -0.05803
| 11>    C        0.99193        -2.94028         0.01604
| 12>    N        1.01983        -4.08652         0.07646
| 13>    C        2.09472        -0.79800        -0.24935
| 14>    C        2.07158         0.60716        -0.32745
| 15>    C        0.89697         1.30817        -0.21639
| 16>    O        0.76134         2.65274        -0.28144
| 17>    C        1.91371         3.43693        -0.48714
| 18>    H       -1.82098        -2.40701         0.35934
| 19>    H       -1.89262         2.11282         0.10634
| 20>    H        3.04381        -1.30490        -0.34427
| 21>    H        3.00911         1.11789        -0.47822
| 22>    H        1.56531         4.46741        -0.52867
| 23>    H        2.40800         3.18237        -1.42952
| 24>    H        2.62297         3.32602         0.33871
| 25> *
| 26>
| 27>                          ****END OF INPUT****
 Total Charge           Charge          ....    0
 Multiplicity           Mult            ....    1
 Number of Electrons    NEL             ....   98
Dispersion correction           -0.044935555
FINAL SINGLE POINT ENERGY      -912.967883430538
Dispersion correction            ... done
Dispersion correction           -0.044761427
FINAL SINGLE POINT ENERGY      -912.970774773610
Dispersion correction            ... done
Dispersion correction           -0.044738309
FINAL SINGLE POINT ENERGY      -912.970864415767
Dispersion correction            ... done
FINAL SINGLE POINT ENERGY      -912.970832830504
FINAL SINGLE POINT ENERGY      -912.970876353836
FINAL SINGLE POINT ENERGY      -912.970879267819
Dispersion correction            ... done
Dispersion correction           -0.044751608
FINAL SINGLE POINT ENERGY      -912.970879241558
Dispersion correction            ... done
Dispersion correction           -0.044752623
FINAL SINGLE POINT ENERGY      -912.970878940618
Dispersion correction            ... done
                    ***********************HURRAY********************

CARTESIAN COORDINATES (ANGSTROEM)
---------------------------------
  C     -1.566581   -1.388201    0.257760
  S     -2.748571   -0.147305    0.352724
  C     -1.600992    1.104796    0.137275
  C     -0.321681    0.586081   -0.002422
  C     -0.297798   -0.859717    0.067748
  C      0.963730   -1.548209   -0.057274
  C      1.000454   -2.974524   -0.002307
  N      0.996643   -4.135890    0.045260
  C      2.112344   -0.800210   -0.229884
  C      2.092311    0.620395   -0.301120
  C      0.901543    1.314130   -0.197742
  O      0.764763    2.649854   -0.263506
  C      1.905378    3.447452   -0.503810
  H     -1.844140   -2.436674    0.346424
  H     -1.898873    2.150334    0.114673
  H      3.070228   -1.314699   -0.322387
  H      3.034145    1.145779   -0.448721
  H      1.551854    4.485560   -0.551521
  H      2.387882    3.180995   -1.460905
  H      2.646081    3.348342    0.308064

 Multiplicity           Mult            ....    1
 Number of Electrons    NEL             ....   98
 Basis Dimension        Dim             ....  221

ORBITAL ENERGIES
----------------

  NO   OCC          E(Eh)            E(eV)
   0   2.0000     -88.897304     -2419.0186
   1   2.0000     -19.192086      -522.2432
   2   2.0000     -14.318006      -389.6128
   3   2.0000     -10.276420      -279.6356
   4   2.0000     -10.265123      -279.3282
   5   2.0000     -10.227390      -278.3014
   6   2.0000     -10.226265      -278.2708
   7   2.0000     -10.222139      -278.1585
   8   2.0000     -10.219676      -278.0915
   9   2.0000     -10.219358      -278.0829
  10   2.0000     -10.218354      -278.0555
  11   2.0000     -10.213775      -277.9309
  12   2.0000     -10.204621      -277.6819
  13   2.0000      -7.991946      -217.4719
  14   2.0000      -5.959688      -162.1714
  15   2.0000      -5.955425      -162.0553
  16   2.0000      -5.954338      -162.0258
  17   2.0000      -1.088604       -29.6224
  18   2.0000      -0.908018       -24.7084
  19   2.0000      -0.887125       -24.1399
  20   2.0000      -0.845721       -23.0132
  21   2.0000      -0.792754       -21.5719
  22   2.0000      -0.754279       -20.5250
  23   2.0000      -0.724044       -19.7022
  24   2.0000      -0.717967       -19.5369
  25   2.0000      -0.638297       -17.3689
  26   2.0000      -0.605748       -16.4833
  27   2.0000      -0.595914       -16.2156
  28   2.0000      -0.551241       -15.0000
  29   2.0000      -0.546905       -14.8820
  30   2.0000      -0.512007       -13.9324
  31   2.0000      -0.494915       -13.4673
  32   2.0000      -0.481125       -13.0921
  33   2.0000      -0.461413       -12.5557
  34   2.0000      -0.435763       -11.8577
  35   2.0000      -0.426352       -11.6016
  36   2.0000      -0.424347       -11.5471
  37   2.0000      -0.405410       -11.0318
  38   2.0000      -0.396927       -10.8009
  39   2.0000      -0.376267       -10.2388
  40   2.0000      -0.372479       -10.1357
  41   2.0000      -0.365570        -9.9477
  42   2.0000      -0.355606        -9.6765
  43   2.0000      -0.350618        -9.5408
  44   2.0000      -0.328696        -8.9443
  45   2.0000      -0.319289        -8.6883
  46   2.0000      -0.274339        -7.4651
  47   2.0000      -0.267944        -7.2911
  48   2.0000      -0.214675        -5.8416
  49   0.0000      -0.075990        -2.0678
  50   0.0000      -0.011612        -0.3160
  51   0.0000       0.007680         0.2090
  52   0.0000       0.035758         0.9730
  53   0.0000       0.040500         1.1021

MULLIKEN ATOMIC CHARGES
-----------------------
   0 C :   -0.149954
   1 S :    0.152362
   2 C :   -0.139221
   3 C :    0.050594
   4 C :    0.122457
   5 C :   -0.071337
   6 C :   -0.171428
   7 N :    0.059321
   8 C :    0.030996
   9 C :   -0.128715
  10 C :    0.240310
  11 O :   -0.297491
  12 C :    0.177279
  13 H :    0.037066
  14 H :    0.028386
  15 H :   -0.013271
  16 H :   -0.028905
  17 H :    0.041239
  18 H :    0.027406
  19 H :    0.032906
Sum of atomic charges:    0.0000000

LOEWDIN ATOMIC CHARGES
----------------------
   0 C :   -0.202205
   1 S :    0.498300
   2 C :   -0.191589
   3 C :   -0.067858
   4 C :   -0.033970
   5 C :   -0.088961
   6 C :   -0.027254
   7 N :   -0.081822
   8 C :    0.019978
   9 C :   -0.101423
  10 C :    0.073680
  11 O :   -0.079407
  12 C :    0.083961
  13 H :    0.033658
  14 H :    0.030430
  15 H :    0.038182
  16 H :    0.029169
  17 H :    0.030258
  18 H :    0.018298
  19 H :    0.018575

  Mayer bond orders larger than 0.100000
B(  0-C ,  1-S ) :   1.1934 B(  0-C ,  2-C ) :   0.1108 B(  0-C ,  4-C ) :   1.4460
B(  0-C , 13-H ) :   0.9479 B(  1-S ,  2-C ) :   1.2153 B(  2-C ,  3-C ) :   1.4106
B(  2-C , 14-H ) :   0.9671 B(  3-C ,  4-C ) :   1.2176 B(  3-C , 10-C ) :   1.1641
B(  4-C ,  5-C ) :   1.1759 B(  5-C ,  6-C ) :   1.0971 B(  5-C ,  8-C ) :   1.5198
B(  6-C ,  7-N ) :   2.9943 B(  8-C ,  9-C ) :   1.1819 B(  8-C , 15-H ) :   0.9866
B(  9-C , 10-C ) :   1.4037 B(  9-C , 16-H ) :   0.9901 B( 10-C , 11-O ) :   1.2175
B( 11-O , 12-C ) :   0.9491 B( 12-C , 17-H ) :   0.9771 B( 12-C , 18-H ) :   0.9657
B( 12-C , 19-H ) :   0.9672

Dispersion correction           -0.044752929
FINAL SINGLE POINT ENERGY      -912.970879213367

DIPOLE MOMENT
-------------
                                X             Y             Z
Electronic contribution:     -7.92551      -8.14250       1.58706
Nuclear contribution   :      8.16403      10.46804      -1.75485
                        -----------------------------------------
Total Dipole Moment    :      0.23852       2.32553      -0.16779
                        -----------------------------------------
Magnitude (a.u.)       :      2.34375
Magnitude (Debye)      :      5.95733

Rotational constants in cm-1:     0.030744     0.021403     0.012650
Rotational constants in MHz :   921.680347   641.632608   379.247293

                             ****ORCA TERMINATED NORMALLY****
TOTAL RUN TIME: 0 days 0 hours 12 minutes 13 seconds 300 msec
