                         Program Version 4.2.0 -  RELEASE  -
|  1> # ORCA input file
|  2> # SCF done        -44.993581907840          0.000434924659
|  3> ! B3LYP/G D3BJ Opt RIJCOSX def2-SVP def2/J
|  4> * xyz 0 1
|  5>    C       -0.01785        -1.42953        -0.02442
|  6>    C       -1.19854        -0.70180         0.01066
|  7>    C       -2.59066        -1.21766         0.05639
|  8>    O       -2.92790        -2.37031         0.08187
|  9>    C       -3.50322        -0.00479         0.06722
| 10>    C       -2.59511         1.21141         0.05519
| 11>    O       -2.93655         2.36285         0.07982
| 12>    C       -1.20111         0.70061         0.01023
| 13>    C       -0.02310         1.43264        -0.02517
| 14>    C        1.15764         0.70490        -0.05877
| 15>    C        1.16021        -0.69749        -0.05839
| 16>    C        2.55457        -1.20820        -0.09526
| 17>    O        2.89664        -2.35968        -0.10714
| 18>    C        3.46248         0.00791        -0.11386
| 19>    C        2.55009         1.22071        -0.09613
| 20>    O        2.88794         2.37344        -0.10844
| 21>    H       -0.01586        -2.50876        -0.02366
| 22>    H       -4.15196        -0.00561         0.94552
| 23>    H       -4.16163        -0.00639        -0.80439
| 24>    H       -0.02507         2.51186        -0.02546
| 25>    H        4.10026         0.00879        -1.00038
| 26>    H        4.13174         0.00941         0.74897
| 27> *
| 28>
| 29>                          ****END OF INPUT****
 Total Charge           Charge          ....    0
 Multiplicity           Mult            ....    1
 Number of Electrons    NEL             ....  110
Dispersion correction           -0.050100617
FINAL SINGLE POINT ENERGY      -761.278438801857
Dispersion correction            ... done
Dispersion correction           -0.049843009
FINAL SINGLE POINT ENERGY      -761.280427602258
Dispersion correction            ... done
Dispersion correction           -0.049807616
FINAL SINGLE POINT ENERGY      -761.280477203298
Dispersion correction            ... done
Dispersion correction           -0.049802923
FINAL SINGLE POINT ENERGY      -761.280491419248
Dispersion correction            ... done
Dispersion correction           -0.049806962
FINAL SINGLE POINT ENERGY      -761.280507580789
Dispersion correction            ... done
                    ***********************HURRAY********************

CARTESIAN COORDINATES (ANGSTROEM)
---------------------------------
  C     -0.017623   -1.441687   -0.020451
  C     -1.203842   -0.705919    0.011933
  C     -2.612392   -1.222323    0.052005
  O     -2.941449   -2.383840    0.066462
  C     -3.538019   -0.004862    0.070048
  C     -2.616735    1.215869    0.050899
  O     -2.949733    2.376254    0.064955
  C     -1.206381    0.704543    0.011452
  C     -0.022964    1.444810   -0.021377
  C      1.163248    0.709041   -0.054017
  C      1.165787   -0.701420   -0.053534
  C      2.576118   -1.212752   -0.093508
  O      2.909182   -2.373153   -0.104495
  C      3.497310    0.007978   -0.117223
  C      2.571780    1.225444   -0.094586
  O      2.900913    2.386974   -0.106076
  H     -0.015462   -2.533959   -0.019843
  H     -4.184654   -0.005666    0.963074
  H     -4.210648   -0.006497   -0.804196
  H     -0.025123    2.537082   -0.021679
  H      4.135830    0.008769   -1.016181
  H      4.177864    0.009624    0.750738

 Multiplicity           Mult            ....    1
 Number of Electrons    NEL             ....  110
 Basis Dimension        Dim             ....  254

ORBITAL ENERGIES
----------------

  NO   OCC          E(Eh)            E(eV)
   0   2.0000     -19.157239      -521.2950
   1   2.0000     -19.157234      -521.2948
   2   2.0000     -19.157205      -521.2940
   3   2.0000     -19.157199      -521.2939
   4   2.0000     -10.307291      -280.4756
   5   2.0000     -10.307266      -280.4750
   6   2.0000     -10.307186      -280.4728
   7   2.0000     -10.307185      -280.4728
   8   2.0000     -10.248239      -278.8688
   9   2.0000     -10.248126      -278.8657
  10   2.0000     -10.243701      -278.7453
  11   2.0000     -10.243663      -278.7443
  12   2.0000     -10.243402      -278.7371
  13   2.0000     -10.243351      -278.7358
  14   2.0000     -10.224977      -278.2358
  15   2.0000     -10.224973      -278.2357
  16   2.0000      -1.065302       -28.9883
  17   2.0000      -1.064874       -28.9767
  18   2.0000      -1.061199       -28.8767
  19   2.0000      -1.061073       -28.8733
  20   2.0000      -0.918658       -24.9980
  21   2.0000      -0.867250       -23.5991
  22   2.0000      -0.810719       -22.0608
  23   2.0000      -0.799167       -21.7464
  24   2.0000      -0.749376       -20.3916
  25   2.0000      -0.689551       -18.7636
  26   2.0000      -0.673271       -18.3206
  27   2.0000      -0.622553       -16.9405
  28   2.0000      -0.603181       -16.4134
  29   2.0000      -0.563879       -15.3439
  30   2.0000      -0.562491       -15.3061
  31   2.0000      -0.521574       -14.1927
  32   2.0000      -0.514094       -13.9892
  33   2.0000      -0.503181       -13.6922
  34   2.0000      -0.497110       -13.5271
  35   2.0000      -0.484704       -13.1895
  36   2.0000      -0.483733       -13.1630
  37   2.0000      -0.460445       -12.5294
  38   2.0000      -0.458552       -12.4778
  39   2.0000      -0.456935       -12.4338
  40   2.0000      -0.448991       -12.2177
  41   2.0000      -0.440662       -11.9910
  42   2.0000      -0.433084       -11.7848
  43   2.0000      -0.426221       -11.5981
  44   2.0000      -0.423795       -11.5321
  45   2.0000      -0.420364       -11.4387
  46   2.0000      -0.405493       -11.0340
  47   2.0000      -0.390494       -10.6259
  48   2.0000      -0.370124       -10.0716
  49   2.0000      -0.309041        -8.4094
  50   2.0000      -0.308606        -8.3976
  51   2.0000      -0.303718        -8.2646
  52   2.0000      -0.294593        -8.0163
  53   2.0000      -0.275228        -7.4893
  54   2.0000      -0.268552        -7.3077
  55   0.0000      -0.123547        -3.3619
  56   0.0000      -0.111443        -3.0325
  57   0.0000      -0.061144        -1.6638
  58   0.0000      -0.024829        -0.6756
  59   0.0000       0.008741         0.2378

MULLIKEN ATOMIC CHARGES
-----------------------
   0 C :   -0.062533
   1 C :    0.028348
   2 C :    0.034234
   3 O :   -0.141595
   4 C :    0.057950
   5 C :    0.034294
   6 O :   -0.141580
   7 C :    0.028039
   8 C :   -0.062563
   9 C :    0.028361
  10 C :    0.028045
  11 C :    0.034299
  12 O :   -0.141585
  13 C :    0.057925
  14 C :    0.034261
  15 O :   -0.141598
  16 H :    0.016076
  17 H :    0.072627
  18 H :    0.074149
  19 H :    0.016070
  20 H :    0.072581
  21 H :    0.074194
Sum of atomic charges:   -0.0000000

LOEWDIN ATOMIC CHARGES
----------------------
   0 C :    0.045692
   1 C :   -0.037307
   2 C :    0.079226
   3 O :   -0.118643
   4 C :   -0.074253
   5 C :    0.079210
   6 O :   -0.118644
   7 C :   -0.037314
   8 C :    0.045691
   9 C :   -0.037306
  10 C :   -0.037314
  11 C :    0.079211
  12 O :   -0.118647
  13 C :   -0.074263
  14 C :    0.079227
  15 O :   -0.118645
  16 H :    0.050104
  17 H :    0.065547
  18 H :    0.066383
  19 H :    0.050105
  20 H :    0.065735
  21 H :    0.066205

  Mayer bond orders larger than 0.100000
B(  0-C ,  1-C ) :   1.3135 B(  0-C ,  8-C ) :   0.1031 B(  0-C , 10-C ) :   1.3135
B(  0-C , 16-H ) :   1.0286 B(  1-C ,  2-C ) :   0.9230 B(  1-C ,  7-C ) :   1.2930
B(  2-C ,  3-O ) :   2.2351 B(  2-C ,  4-C ) :   0.9731 B(  4-C ,  5-C ) :   0.9731
B(  4-C , 17-H ) :   0.8949 B(  4-C , 18-H ) :   0.8945 B(  5-C ,  6-O ) :   2.2351
B(  5-C ,  7-C ) :   0.9231 B(  7-C ,  8-C ) :   1.3135 B(  8-C ,  9-C ) :   1.3135
B(  8-C , 19-H ) :   1.0286 B(  9-C , 10-C ) :   1.2930 B(  9-C , 14-C ) :   0.9230
B( 10-C , 11-C ) :   0.9231 B( 11-C , 12-O ) :   2.2351 B( 11-C , 13-C ) :   0.9731
B( 13-C , 14-C ) :   0.9731 B( 13-C , 20-H ) :   0.8944 B( 13-C , 21-H ) :   0.8948
B( 14-C , 15-O ) :   2.2351

Dispersion correction           -0.049809984
FINAL SINGLE POINT ENERGY      -761.280509666885

DIPOLE MOMENT
-------------
                                X             Y             Z
Electronic contribution:      0.00024       0.00001       0.01356
Nuclear contribution   :     -0.00037      -0.00001      -0.02009
                        -----------------------------------------
Total Dipole Moment    :     -0.00013       0.00000      -0.00653
                        -----------------------------------------
Magnitude (a.u.)       :      0.00653
Magnitude (Debye)      :      0.01660

Rotational constants in cm-1:     0.032173     0.012866     0.009223
Rotational constants in MHz :   964.532120   385.721289   276.483785

                             ****ORCA TERMINATED NORMALLY****
TOTAL RUN TIME: 0 days 0 hours 8 minutes 43 seconds 667 msec
