                         Program Version 4.2.0 -  RELEASE  -
|  1> # ORCA input file
|  2> # SCF done        -27.557138832492          0.000597792635
|  3> ! B3LYP/G D3BJ Opt RIJCOSX def2-SVP def2/J
|  4> * xyz 0 1
|  5>    C        1.62726        -0.11051         0.32851
|  6>    C        0.34914         0.23931         0.53969
|  7>    C       -0.33769         1.51231         0.84710
|  8>    S       -1.92314         1.41426        -0.09071
|  9>    C       -1.53056        -0.21147        -0.85423
| 10>    C       -0.56415        -0.87487         0.11365
| 11>    C        0.39779        -1.91558        -0.39911
| 12>    C        1.65735        -1.44659        -0.21580
| 13>    C        0.03023        -3.20071        -0.92271
| 14>    C       -1.21114        -3.67728        -1.00076
| 15>    H        2.50123         0.48894         0.51118
| 16>    H        0.22080         2.38896         0.52041
| 17>    H       -0.58907         1.61868         1.90440
| 18>    H       -1.06031        -0.03766        -1.82273
| 19>    H       -2.46825        -0.74381        -0.99190
| 20>    H       -1.11736        -1.27046         0.97202
| 21>    H        2.56494        -1.97040        -0.46056
| 22>    H        0.85821        -3.80478        -1.27277
| 23>    H       -2.06219        -3.11696        -0.65405
| 24>    H       -1.41594        -4.65026        -1.41141
| 25> *
| 26>
| 27>                          ****END OF INPUT****
 Total Charge           Charge          ....    0
 Multiplicity           Mult            ....    1
 Number of Electrons    NEL             ....   80
Dispersion correction           -0.041284561
FINAL SINGLE POINT ENERGY      -746.791115675641
Dispersion correction            ... done
Dispersion correction           -0.041066056
FINAL SINGLE POINT ENERGY      -746.794134434866
Dispersion correction            ... done
Dispersion correction           -0.041064869
FINAL SINGLE POINT ENERGY      -746.794239909125
Dispersion correction            ... done
FINAL SINGLE POINT ENERGY      -746.794227359644
Dispersion correction            ... done
Dispersion correction           -0.041093717
FINAL SINGLE POINT ENERGY      -746.794205435961
Dispersion correction            ... done
Dispersion correction           -0.041095953
FINAL SINGLE POINT ENERGY      -746.794198783983
Dispersion correction            ... done
                    ***********************HURRAY********************

CARTESIAN COORDINATES (ANGSTROEM)
---------------------------------
  C      1.637492   -0.102078    0.349163
  C      0.347052    0.246373    0.567138
  C     -0.351823    1.538542    0.848331
  S     -1.989102    1.387598   -0.028474
  C     -1.522679   -0.204389   -0.849533
  C     -0.554438   -0.880686    0.126403
  C      0.405479   -1.930781   -0.386988
  C      1.674272   -1.453635   -0.211167
  C      0.025096   -3.218938   -0.926184
  C     -1.231133   -3.693530   -1.015959
  H      2.513675    0.527766    0.511427
  H      0.211099    2.404589    0.470038
  H     -0.558473    1.699950    1.919165
  H     -1.022071   -0.010099   -1.810839
  H     -2.440598   -0.777183   -1.038791
  H     -1.127177   -1.276150    0.986236
  H      2.587624   -1.991626   -0.474355
  H      0.851105   -3.839916   -1.291527
  H     -2.088984   -3.120736   -0.654426
  H     -1.439267   -4.673950   -1.449438

 Multiplicity           Mult            ....    1
 Number of Electrons    NEL             ....   80
 Basis Dimension        Dim             ....  194

ORBITAL ENERGIES
----------------

  NO   OCC          E(Eh)            E(eV)
   0   2.0000     -88.829699     -2417.1790
   1   2.0000     -10.220864      -278.1238
   2   2.0000     -10.219919      -278.0981
   3   2.0000     -10.203452      -277.6500
   4   2.0000     -10.199397      -277.5397
   5   2.0000     -10.197489      -277.4878
   6   2.0000     -10.195793      -277.4416
   7   2.0000     -10.194544      -277.4077
   8   2.0000     -10.194408      -277.4039
   9   2.0000     -10.187587      -277.2183
  10   2.0000      -7.924806      -215.6449
  11   2.0000      -5.894606      -160.4004
  12   2.0000      -5.890472      -160.2879
  13   2.0000      -5.882689      -160.0761
  14   2.0000      -0.881405       -23.9842
  15   2.0000      -0.807503       -21.9733
  16   2.0000      -0.774818       -21.0839
  17   2.0000      -0.734178       -19.9780
  18   2.0000      -0.691703       -18.8222
  19   2.0000      -0.667918       -18.1750
  20   2.0000      -0.592619       -16.1260
  21   2.0000      -0.580995       -15.8097
  22   2.0000      -0.541400       -14.7322
  23   2.0000      -0.533851       -14.5268
  24   2.0000      -0.489849       -13.3295
  25   2.0000      -0.474885       -12.9223
  26   2.0000      -0.450566       -12.2605
  27   2.0000      -0.435709       -11.8563
  28   2.0000      -0.414116       -11.2687
  29   2.0000      -0.410392       -11.1673
  30   2.0000      -0.396214       -10.7815
  31   2.0000      -0.378738       -10.3060
  32   2.0000      -0.369292       -10.0490
  33   2.0000      -0.354841        -9.6557
  34   2.0000      -0.344242        -9.3673
  35   2.0000      -0.325899        -8.8682
  36   2.0000      -0.307007        -8.3541
  37   2.0000      -0.290683        -7.9099
  38   2.0000      -0.222083        -6.0432
  39   2.0000      -0.208361        -5.6698
  40   0.0000      -0.056703        -1.5430
  41   0.0000       0.014932         0.4063
  42   0.0000       0.038983         1.0608
  43   0.0000       0.050243         1.3672
  44   0.0000       0.076071         2.0700

MULLIKEN ATOMIC CHARGES
-----------------------
   0 C :   -0.009764
   1 C :   -0.135670
   2 C :    0.102626
   3 S :   -0.125934
   4 C :    0.002985
   5 C :    0.027897
   6 C :    0.006191
   7 C :   -0.035046
   8 C :    0.024020
   9 C :   -0.036424
  10 H :   -0.028231
  11 H :    0.042509
  12 H :    0.053147
  13 H :    0.047059
  14 H :    0.045463
  15 H :    0.037523
  16 H :   -0.027323
  17 H :   -0.023165
  18 H :    0.011666
  19 H :    0.020470
Sum of atomic charges:   -0.0000000

LOEWDIN ATOMIC CHARGES
----------------------
   0 C :   -0.037137
   1 C :   -0.036782
   2 C :   -0.112276
   3 S :    0.182426
   4 C :   -0.098545
   5 C :   -0.031991
   6 C :   -0.033196
   7 C :   -0.017234
   8 C :   -0.024822
   9 C :   -0.060155
  10 H :    0.022318
  11 H :    0.027415
  12 H :    0.031386
  13 H :    0.023015
  14 H :    0.022052
  15 H :    0.050702
  16 H :    0.021124
  17 H :    0.029145
  18 H :    0.017950
  19 H :    0.024603

  Mayer bond orders larger than 0.100000
B(  0-C ,  1-C ) :   1.7463 B(  0-C ,  7-C ) :   1.0573 B(  0-C , 10-H ) :   1.0050
B(  1-C ,  2-C ) :   1.0478 B(  1-C ,  5-C ) :   1.0314 B(  2-C ,  3-S ) :   0.9737
B(  2-C , 11-H ) :   0.9346 B(  2-C , 12-H ) :   0.9213 B(  3-S ,  4-C ) :   1.0033
B(  4-C ,  5-C ) :   0.9939 B(  4-C , 13-H ) :   0.9444 B(  4-C , 14-H ) :   0.9426
B(  5-C ,  6-C ) :   1.0051 B(  5-C , 15-H ) :   0.8589 B(  6-C ,  7-C ) :   1.6446
B(  6-C ,  8-C ) :   1.1452 B(  7-C ,  9-C ) :   0.1097 B(  7-C , 16-H ) :   0.9950
B(  8-C ,  9-C ) :   1.8768 B(  8-C , 17-H ) :   0.9544 B(  9-C , 18-H ) :   0.9439
B(  9-C , 19-H ) :   0.9442

Dispersion correction           -0.041094769
FINAL SINGLE POINT ENERGY      -746.794198350147

DIPOLE MOMENT
-------------
                                X             Y             Z
Electronic contribution:     -1.03124       5.02352       1.34750
Nuclear contribution   :      1.50648      -5.23724      -1.30132
                        -----------------------------------------
Total Dipole Moment    :      0.47524      -0.21372       0.04618
                        -----------------------------------------
Magnitude (a.u.)       :      0.52312
Magnitude (Debye)      :      1.32968

Rotational constants in cm-1:     0.066688     0.030680     0.021926
Rotational constants in MHz :  1999.254165   919.760278   657.339557

                             ****ORCA TERMINATED NORMALLY****
TOTAL RUN TIME: 0 days 0 hours 7 minutes 43 seconds 141 msec
