                         Program Version 4.2.0 -  RELEASE  -
|  1> # ORCA input file
|  2> # SCF done        -29.802717754955          0.000591220879
|  3> ! B3LYP/G D3BJ Opt RIJCOSX def2-SVP def2/J
|  4> * xyz 0 1
|  5>    C       -1.37734         0.94239        -0.12856
|  6>    S       -2.36358        -0.46213        -0.04628
|  7>    C       -0.98923        -1.53207         0.09895
|  8>    C        0.15915        -0.78187         0.07808
|  9>    C       -0.05023         0.62628        -0.05069
| 10>    C        1.18169         1.35054        -0.06446
| 11>    C        2.26313         0.55372         0.04639
| 12>    C        3.69664         0.94091         0.06624
| 13>    S        1.85203        -1.15912         0.17696
| 14>    C       -1.19601        -2.94731         0.21555
| 15>    C       -0.22524        -3.85154         0.32603
| 16>    H       -1.83302         1.90641        -0.22881
| 17>    H        1.23460         2.42075        -0.15276
| 18>    H        3.79421         2.02333         0.02997
| 19>    H        4.21891         0.50993        -0.78811
| 20>    H        4.17869         0.57030         0.97054
| 21>    H       -2.23294        -3.25701         0.20635
| 22>    H        0.81464        -3.57311         0.33375
| 23>    H       -0.44682        -4.90110         0.40835
| 24> *
| 25>
| 26>                          ****END OF INPUT****
 Total Charge           Charge          ....    0
 Multiplicity           Mult            ....    1
 Number of Electrons    NEL             ....   94
Dispersion correction           -0.044656637
FINAL SINGLE POINT ENERGY     -1143.697563869210
Dispersion correction            ... done
Dispersion correction           -0.044375777
FINAL SINGLE POINT ENERGY     -1143.700465664900
Dispersion correction            ... done
Dispersion correction           -0.044334037
FINAL SINGLE POINT ENERGY     -1143.700570942185
Dispersion correction            ... done
FINAL SINGLE POINT ENERGY     -1143.700537005377
FINAL SINGLE POINT ENERGY     -1143.700555177261
FINAL SINGLE POINT ENERGY     -1143.700579530933
FINAL SINGLE POINT ENERGY     -1143.700571113982
FINAL SINGLE POINT ENERGY     -1143.700555719009
Dispersion correction            ... done
Dispersion correction           -0.044345053
FINAL SINGLE POINT ENERGY     -1143.700546603723
Dispersion correction            ... done
Dispersion correction           -0.044345280
FINAL SINGLE POINT ENERGY     -1143.700545456137
Dispersion correction            ... done
                    ***********************HURRAY********************

CARTESIAN COORDINATES (ANGSTROEM)
---------------------------------
  C     -1.402570    0.954206   -0.116331
  S     -2.379206   -0.466145   -0.039261
  C     -1.002230   -1.537352    0.116902
  C      0.154940   -0.776426    0.110127
  C     -0.058538    0.640595   -0.028199
  C      1.186401    1.372841   -0.052038
  C      2.281303    0.571416    0.061041
  C      3.724020    0.962418    0.058516
  S      1.862166   -1.150720    0.221334
  C     -1.208974   -2.968399    0.211227
  C     -0.246118   -3.902492    0.299013
  H     -1.863687    1.933390   -0.228299
  H      1.257001    2.455801   -0.164066
  H      3.825405    2.043845   -0.114112
  H      4.282957    0.434793   -0.731422
  H      4.211424    0.716997    1.017705
  H     -2.254430   -3.295811    0.201762
  H      0.817197   -3.648300    0.309755
  H     -0.507779   -4.961356    0.363833

 Multiplicity           Mult            ....    1
 Number of Electrons    NEL             ....   94
 Basis Dimension        Dim             ....  202

ORBITAL ENERGIES
----------------

  NO   OCC          E(Eh)            E(eV)
   0   2.0000     -88.877762     -2418.4868
   1   2.0000     -88.867174     -2418.1987
   2   2.0000     -10.225397      -278.2472
   3   2.0000     -10.220092      -278.1028
   4   2.0000     -10.214963      -277.9633
   5   2.0000     -10.214769      -277.9580
   6   2.0000     -10.205098      -277.6948
   7   2.0000     -10.203076      -277.6398
   8   2.0000     -10.202162      -277.6150
   9   2.0000     -10.195663      -277.4381
  10   2.0000     -10.187085      -277.2047
  11   2.0000      -7.972395      -216.9399
  12   2.0000      -7.961804      -216.6517
  13   2.0000      -5.940454      -161.6480
  14   2.0000      -5.936496      -161.5403
  15   2.0000      -5.933796      -161.4668
  16   2.0000      -5.930486      -161.3767
  17   2.0000      -5.926453      -161.2670
  18   2.0000      -5.921936      -161.1441
  19   2.0000      -0.900167       -24.4948
  20   2.0000      -0.845142       -22.9975
  21   2.0000      -0.786390       -21.3988
  22   2.0000      -0.754861       -20.5408
  23   2.0000      -0.735769       -20.0213
  24   2.0000      -0.687631       -18.7114
  25   2.0000      -0.680633       -18.5210
  26   2.0000      -0.599830       -16.3222
  27   2.0000      -0.564902       -15.3718
  28   2.0000      -0.546715       -14.8769
  29   2.0000      -0.517427       -14.0799
  30   2.0000      -0.486813       -13.2469
  31   2.0000      -0.457573       -12.4512
  32   2.0000      -0.451886       -12.2964
  33   2.0000      -0.436038       -11.8652
  34   2.0000      -0.420990       -11.4557
  35   2.0000      -0.407173       -11.0798
  36   2.0000      -0.405957       -11.0466
  37   2.0000      -0.384417       -10.4605
  38   2.0000      -0.381847       -10.3906
  39   2.0000      -0.369468       -10.0537
  40   2.0000      -0.343844        -9.3565
  41   2.0000      -0.335137        -9.1195
  42   2.0000      -0.334492        -9.1020
  43   2.0000      -0.309854        -8.4316
  44   2.0000      -0.260717        -7.0945
  45   2.0000      -0.235817        -6.4169
  46   2.0000      -0.199723        -5.4347
  47   0.0000      -0.050367        -1.3706
  48   0.0000      -0.011195        -0.3046
  49   0.0000       0.021454         0.5838
  50   0.0000       0.024995         0.6801
  51   0.0000       0.060705         1.6519

MULLIKEN ATOMIC CHARGES
-----------------------
   0 C :   -0.135915
   1 S :    0.113584
   2 C :   -0.170973
   3 C :   -0.023582
   4 C :    0.111798
   5 C :    0.012867
   6 C :   -0.191801
   7 C :    0.101193
   8 S :    0.085202
   9 C :    0.031151
  10 C :   -0.050281
  11 H :    0.017570
  12 H :   -0.025375
  13 H :    0.021117
  14 H :    0.033097
  15 H :    0.036119
  16 H :   -0.016363
  17 H :    0.024546
  18 H :    0.026044
Sum of atomic charges:   -0.0000000

LOEWDIN ATOMIC CHARGES
----------------------
   0 C :   -0.203025
   1 S :    0.444696
   2 C :   -0.204125
   3 C :   -0.185957
   4 C :   -0.073628
   5 C :   -0.072854
   6 C :   -0.147223
   7 C :   -0.058906
   8 S :    0.367467
   9 C :   -0.043788
  10 C :   -0.060870
  11 H :    0.025099
  12 H :    0.029355
  13 H :    0.038043
  14 H :    0.037124
  15 H :    0.038201
  16 H :    0.027978
  17 H :    0.015140
  18 H :    0.027273

  Mayer bond orders larger than 0.100000
B(  0-C ,  1-S ) :   1.1598 B(  0-C ,  4-C ) :   1.4446 B(  0-C , 11-H ) :   0.9660
B(  1-S ,  2-C ) :   1.1291 B(  2-C ,  3-C ) :   1.4956 B(  2-C ,  9-C ) :   1.1320
B(  3-C ,  4-C ) :   1.2367 B(  3-C ,  8-S ) :   1.0495 B(  4-C ,  5-C ) :   1.1082
B(  5-C ,  6-C ) :   1.6686 B(  5-C , 12-H ) :   0.9931 B(  6-C ,  7-C ) :   1.0833
B(  6-C ,  8-S ) :   1.0544 B(  7-C , 13-H ) :   0.9546 B(  7-C , 14-H ) :   0.9468
B(  7-C , 15-H ) :   0.9477 B(  9-C , 10-C ) :   1.8970 B(  9-C , 16-H ) :   0.9503
B( 10-C , 17-H ) :   0.9479 B( 10-C , 18-H ) :   0.9438

Dispersion correction           -0.044344710
FINAL SINGLE POINT ENERGY     -1143.700546844219

DIPOLE MOMENT
-------------
                                X             Y             Z
Electronic contribution:     -7.42927      -0.14972      -0.06487
Nuclear contribution   :      7.75617       0.63827       0.01336
                        -----------------------------------------
Total Dipole Moment    :      0.32690       0.48855      -0.05151
                        -----------------------------------------
Magnitude (a.u.)       :      0.59008
Magnitude (Debye)      :      1.49987

Rotational constants in cm-1:     0.047049     0.023486     0.015714
Rotational constants in MHz :  1410.501761   704.084348   471.100894

                             ****ORCA TERMINATED NORMALLY****
TOTAL RUN TIME: 0 days 0 hours 11 minutes 22 seconds 754 msec
