                         Program Version 4.2.0 -  RELEASE  -
|  1> # ORCA input file
|  2> # SCF done        -26.411658097099          0.000406965039
|  3> ! B3LYP/G D3BJ Opt RIJCOSX def2-SVP def2/J
|  4> * xyz 0 1
|  5>    C        1.64659        -1.46328         1.88198
|  6>    C        2.34876        -0.78771         1.02778
|  7>    C        3.05252        -0.10933         0.17596
|  8>    C        3.50706        -0.63168        -1.18342
|  9>    C        4.25298         0.53990        -1.71765
| 10>    C        4.27132         1.58608        -0.87427
| 11>    C        3.53740         1.31974         0.39586
| 12>    C        5.01201         2.67510        -1.46545
| 13>    C        5.44221         2.28097        -2.67471
| 14>    C        5.00068         0.87249        -2.96098
| 15>    H        0.56742        -1.43995         1.87801
| 16>    H        2.10714        -2.08131         2.63764
| 17>    H        2.65243        -0.90952        -1.80786
| 18>    H        4.13659        -1.52046        -1.07695
| 19>    H        2.69881         2.00523         0.54690
| 20>    H        4.18372         1.38909         1.27534
| 21>    H        5.17920         3.63060        -1.00134
| 22>    H        6.02246         2.85544        -3.37373
| 23>    H        5.85383         0.21164        -3.12726
| 24>    H        4.37373         0.82338        -3.85356
| 25> *
| 26>
| 27>                          ****END OF INPUT****
 Total Charge           Charge          ....    0
 Multiplicity           Mult            ....    1
 Number of Electrons    NEL             ....   70
Dispersion correction           -0.034967817
FINAL SINGLE POINT ENERGY      -386.740439404704
Dispersion correction            ... done
Dispersion correction           -0.034769101
FINAL SINGLE POINT ENERGY      -386.743830843360
Dispersion correction            ... done
Dispersion correction           -0.034736422
FINAL SINGLE POINT ENERGY      -386.743724905359
Dispersion correction            ... done
FINAL SINGLE POINT ENERGY      -386.742441485609
FINAL SINGLE POINT ENERGY      -386.743830466184
FINAL SINGLE POINT ENERGY      -386.743268879925
Dispersion correction            ... done
Dispersion correction           -0.034728143
FINAL SINGLE POINT ENERGY      -386.743896704073
Dispersion correction            ... done
Dispersion correction           -0.034729470
FINAL SINGLE POINT ENERGY      -386.743897320664
Dispersion correction            ... done
                    ***********************HURRAY********************

CARTESIAN COORDINATES (ANGSTROEM)
---------------------------------
  C      1.637399   -1.503422    1.913260
  C      2.333749   -0.801140    1.052561
  C      3.032624   -0.107789    0.187834
  C      3.490125   -0.633596   -1.190619
  C      4.243012    0.545258   -1.727068
  C      4.263427    1.599859   -0.881623
  C      3.519633    1.341974    0.398319
  C      5.034576    2.695074   -1.477631
  C      5.478567    2.293605   -2.694307
  C      5.010606    0.877813   -2.971138
  H      0.540212   -1.491263    1.915607
  H      2.125789   -2.129880    2.669380
  H      2.628353   -0.926160   -1.818217
  H      4.117861   -1.537974   -1.091051
  H      2.673036    2.033905    0.556099
  H      4.163064    1.433391    1.291496
  H      5.225615    3.663868   -1.012985
  H      6.081699    2.879494   -3.389154
  H      5.861882    0.193871   -3.146304
  H      4.385632    0.819534   -3.882170

 Multiplicity           Mult            ....    1
 Number of Electrons    NEL             ....   70
 Basis Dimension        Dim             ....  190

ORBITAL ENERGIES
----------------

  NO   OCC          E(Eh)            E(eV)
   0   2.0000     -10.198557      -277.5168
   1   2.0000     -10.197822      -277.4968
   2   2.0000     -10.197156      -277.4787
   3   2.0000     -10.196982      -277.4740
   4   2.0000     -10.191636      -277.3285
   5   2.0000     -10.190019      -277.2845
   6   2.0000     -10.186580      -277.1909
   7   2.0000     -10.184699      -277.1397
   8   2.0000     -10.177761      -276.9510
   9   2.0000     -10.176226      -276.9092
  10   2.0000      -0.868778       -23.6407
  11   2.0000      -0.807914       -21.9844
  12   2.0000      -0.751183       -20.4407
  13   2.0000      -0.723129       -19.6773
  14   2.0000      -0.681673       -18.5493
  15   2.0000      -0.671654       -18.2766
  16   2.0000      -0.609620       -16.5886
  17   2.0000      -0.551308       -15.0019
  18   2.0000      -0.499407       -13.5896
  19   2.0000      -0.493808       -13.4372
  20   2.0000      -0.486755       -13.2453
  21   2.0000      -0.459815       -12.5122
  22   2.0000      -0.441758       -12.0209
  23   2.0000      -0.434711       -11.8291
  24   2.0000      -0.419984       -11.4283
  25   2.0000      -0.401982       -10.9385
  26   2.0000      -0.382270       -10.4021
  27   2.0000      -0.379015       -10.3135
  28   2.0000      -0.368375       -10.0240
  29   2.0000      -0.355890        -9.6843
  30   2.0000      -0.349340        -9.5060
  31   2.0000      -0.295776        -8.0485
  32   2.0000      -0.261402        -7.1131
  33   2.0000      -0.243907        -6.6370
  34   2.0000      -0.208921        -5.6850
  35   0.0000      -0.021245        -0.5781
  36   0.0000       0.011797         0.3210
  37   0.0000       0.014202         0.3864
  38   0.0000       0.066460         1.8085
  39   0.0000       0.071979         1.9586

MULLIKEN ATOMIC CHARGES
-----------------------
   0 C :   -0.243045
   1 C :    0.114716
   2 C :   -0.283266
   3 C :    0.247880
   4 C :   -0.267048
   5 C :   -0.118640
   6 C :    0.262307
   7 C :    0.029054
   8 C :   -0.109086
   9 C :    0.201687
  10 H :    0.049598
  11 H :    0.046051
  12 H :    0.015494
  13 H :    0.014598
  14 H :    0.016491
  15 H :    0.013453
  16 H :   -0.031263
  17 H :   -0.013024
  18 H :    0.027573
  19 H :    0.026469
Sum of atomic charges:   -0.0000000

LOEWDIN ATOMIC CHARGES
----------------------
   0 C :   -0.101543
   1 C :    0.003763
   2 C :   -0.055927
   3 C :   -0.006198
   4 C :   -0.044875
   5 C :   -0.048152
   6 C :   -0.004847
   7 C :   -0.030683
   8 C :   -0.033803
   9 C :   -0.023037
  10 H :    0.037513
  11 H :    0.036875
  12 H :    0.032781
  13 H :    0.032630
  14 H :    0.034349
  15 H :    0.033571
  16 H :    0.021201
  17 H :    0.018809
  18 H :    0.048821
  19 H :    0.048753

  Mayer bond orders larger than 0.100000
B(  0-C ,  1-C ) :   1.9869 B(  0-C , 10-H ) :   0.9325 B(  0-C , 11-H ) :   0.9322
B(  1-C ,  2-C ) :   1.7399 B(  2-C ,  3-C ) :   1.0099 B(  2-C ,  6-C ) :   1.0137
B(  3-C ,  4-C ) :   1.0325 B(  3-C , 12-H ) :   0.9001 B(  3-C , 13-H ) :   0.9015
B(  4-C ,  5-C ) :   1.8283 B(  4-C ,  9-C ) :   1.0519 B(  5-C ,  6-C ) :   1.0116
B(  5-C ,  7-C ) :   1.0625 B(  6-C , 14-H ) :   0.8978 B(  6-C , 15-H ) :   0.8995
B(  7-C ,  8-C ) :   1.7462 B(  7-C , 16-H ) :   1.0029 B(  8-C ,  9-C ) :   1.0413
B(  8-C , 17-H ) :   0.9851 B(  9-C , 18-H ) :   0.8838 B(  9-C , 19-H ) :   0.8837

Dispersion correction           -0.034729472
FINAL SINGLE POINT ENERGY      -386.743895497116

DIPOLE MOMENT
-------------
                                X             Y             Z
Electronic contribution:      0.32758       1.16715       0.20129
Nuclear contribution   :     -0.20823      -1.18479      -0.44738
                        -----------------------------------------
Total Dipole Moment    :      0.11936      -0.01764      -0.24610
                        -----------------------------------------
Magnitude (a.u.)       :      0.27408
Magnitude (Debye)      :      0.69666

Rotational constants in cm-1:     0.145847     0.025778     0.022282
Rotational constants in MHz :  4372.389606   772.803428   668.007387

                             ****ORCA TERMINATED NORMALLY****
TOTAL RUN TIME: 0 days 0 hours 8 minutes 8 seconds 652 msec
