                         Program Version 4.2.0 -  RELEASE  -
|  1> # ORCA input file
|  2> # SCF done        -24.479094580779          0.000699583260
|  3> ! B3LYP/G D3BJ Opt RIJCOSX def2-SVP def2/J
|  4> * xyz 0 1
|  5>    C        0.13999         1.46576        -0.07979
|  6>    C        0.87391         0.33459         0.07197
|  7>    S       -0.13811        -1.09286         0.02245
|  8>    C       -1.55483        -0.10165        -0.19772
|  9>    O       -2.73622        -0.76344        -0.30184
| 10>    C       -3.87283         0.04085        -0.50750
| 11>    C       -1.25177         1.21767        -0.23281
| 12>    N        2.23022         0.21253         0.32235
| 13>    H        0.56380         2.45346        -0.07949
| 14>    H       -4.71429        -0.64565        -0.57734
| 15>    H       -3.78765         0.61559        -1.43558
| 16>    H       -4.02753         0.72956         0.32942
| 17>    H       -1.97143         2.00501        -0.36132
| 18>    H        2.78216         0.98017        -0.03195
| 19>    H        2.61713        -0.68941         0.08941
| 20> *
| 21>
| 22>                          ****END OF INPUT****
 Total Charge           Charge          ....    0
 Multiplicity           Mult            ....    1
 Number of Electrons    NEL             ....   68
Dispersion correction           -0.026066247
FINAL SINGLE POINT ENERGY      -722.550770327872
Dispersion correction            ... done
Dispersion correction           -0.026003550
FINAL SINGLE POINT ENERGY      -722.552430991002
Dispersion correction            ... done
Dispersion correction           -0.026002375
FINAL SINGLE POINT ENERGY      -722.552573592434
Dispersion correction            ... done
FINAL SINGLE POINT ENERGY      -722.552657991415
FINAL SINGLE POINT ENERGY      -722.552691591731
FINAL SINGLE POINT ENERGY      -722.552756378778
FINAL SINGLE POINT ENERGY      -722.552855946189
FINAL SINGLE POINT ENERGY      -722.552971995847
FINAL SINGLE POINT ENERGY      -722.553052349124
FINAL SINGLE POINT ENERGY      -722.553114529095
Dispersion correction            ... done
Dispersion correction           -0.025985914
FINAL SINGLE POINT ENERGY      -722.553135984986
Dispersion correction            ... done
Dispersion correction           -0.025985189
FINAL SINGLE POINT ENERGY      -722.553141929993
Dispersion correction            ... done
                    ***********************HURRAY********************

CARTESIAN COORDINATES (ANGSTROEM)
---------------------------------
  C      0.156557    1.445178   -0.102788
  C      0.885325    0.300872    0.084615
  S     -0.158755   -1.118592    0.116469
  C     -1.575124   -0.117669   -0.168700
  O     -2.752033   -0.765116   -0.287125
  C     -3.888369    0.043132   -0.505094
  C     -1.257392    1.211529   -0.242346
  N      2.247200    0.139725    0.346000
  H      0.612367    2.435570   -0.154564
  H     -4.753056   -0.631664   -0.546471
  H     -3.809774    0.599862   -1.457183
  H     -4.029859    0.769895    0.315223
  H     -1.983349    2.002732   -0.422777
  H      2.757334    1.016287    0.280732
  H      2.701478   -0.569561   -0.225732

 Multiplicity           Mult            ....    1
 Number of Electrons    NEL             ....   68
 Basis Dimension        Dim             ....  151

ORBITAL ENERGIES
----------------

  NO   OCC          E(Eh)            E(eV)
   0   2.0000     -88.857579     -2417.9376
   1   2.0000     -19.168060      -521.5894
   2   2.0000     -14.336569      -390.1179
   3   2.0000     -10.252724      -278.9908
   4   2.0000     -10.246423      -278.8194
   5   2.0000     -10.233318      -278.4628
   6   2.0000     -10.176048      -276.9043
   7   2.0000     -10.173959      -276.8475
   8   2.0000      -7.953499      -216.4257
   9   2.0000      -5.921958      -161.1447
  10   2.0000      -5.918111      -161.0400
  11   2.0000      -5.913714      -160.9203
  12   2.0000      -1.063823       -28.9481
  13   2.0000      -0.911654       -24.8074
  14   2.0000      -0.839222       -22.8364
  15   2.0000      -0.733680       -19.9645
  16   2.0000      -0.711628       -19.3644
  17   2.0000      -0.667269       -18.1573
  18   2.0000      -0.560547       -15.2532
  19   2.0000      -0.557723       -15.1764
  20   2.0000      -0.520232       -14.1562
  21   2.0000      -0.498448       -13.5634
  22   2.0000      -0.472093       -12.8463
  23   2.0000      -0.471311       -12.8250
  24   2.0000      -0.441781       -12.0215
  25   2.0000      -0.406339       -11.0570
  26   2.0000      -0.388823       -10.5804
  27   2.0000      -0.380889       -10.3645
  28   2.0000      -0.344951        -9.3866
  29   2.0000      -0.338184        -9.2024
  30   2.0000      -0.332152        -9.0383
  31   2.0000      -0.279482        -7.6051
  32   2.0000      -0.243056        -6.6139
  33   2.0000      -0.180339        -4.9073
  34   0.0000       0.014467         0.3937
  35   0.0000       0.034608         0.9417
  36   0.0000       0.055794         1.5182
  37   0.0000       0.066411         1.8071
  38   0.0000       0.081567         2.2195

MULLIKEN ATOMIC CHARGES
-----------------------
   0 C :    0.024917
   1 C :   -0.122057
   2 S :    0.066883
   3 C :    0.078243
   4 O :   -0.306006
   5 C :    0.186627
   6 C :   -0.058326
   7 N :   -0.097749
   8 H :   -0.040721
   9 H :    0.032098
  10 H :    0.017162
  11 H :    0.020479
  12 H :   -0.025309
  13 H :    0.106152
  14 H :    0.117606
Sum of atomic charges:   -0.0000000

LOEWDIN ATOMIC CHARGES
----------------------
   0 C :   -0.121844
   1 C :   -0.143416
   2 S :    0.362908
   3 C :   -0.115234
   4 O :   -0.111536
   5 C :    0.085003
   6 C :   -0.132480
   7 N :   -0.063543
   8 H :    0.020178
   9 H :    0.026190
  10 H :    0.012855
  11 H :    0.013450
  12 H :    0.023834
  13 H :    0.073713
  14 H :    0.069921

  Mayer bond orders larger than 0.100000
B(  0-C ,  1-C ) :   1.5589 B(  0-C ,  6-C ) :   1.1515 B(  0-C ,  8-H ) :   0.9930
B(  1-C ,  2-S ) :   1.0832 B(  1-C ,  7-N ) :   1.1828 B(  2-S ,  3-C ) :   1.0902
B(  3-C ,  4-O ) :   1.1319 B(  3-C ,  6-C ) :   1.5261 B(  4-O ,  5-C ) :   0.9637
B(  5-C ,  9-H ) :   0.9786 B(  5-C , 10-H ) :   0.9648 B(  5-C , 11-H ) :   0.9640
B(  6-C , 12-H ) :   0.9906 B(  7-N , 13-H ) :   0.9564 B(  7-N , 14-H ) :   0.9478

Dispersion correction           -0.025984681
FINAL SINGLE POINT ENERGY      -722.553142893346

DIPOLE MOMENT
-------------
                                X             Y             Z
Electronic contribution:      3.32951      -5.03936       1.14157
Nuclear contribution   :     -3.20857       5.59432      -1.59931
                        -----------------------------------------
Total Dipole Moment    :      0.12094       0.55496      -0.45774
                        -----------------------------------------
Magnitude (a.u.)       :      0.72947
Magnitude (Debye)      :      1.85417

Rotational constants in cm-1:     0.156557     0.037670     0.030594
Rotational constants in MHz :  4693.456000  1129.320348   917.199045

                             ****ORCA TERMINATED NORMALLY****
TOTAL RUN TIME: 0 days 0 hours 6 minutes 19 seconds 393 msec
