                         Program Version 4.2.0 -  RELEASE  -
|  1> # ORCA input file
|  2> # SCF done        -25.865915466232          0.000660569667
|  3> ! B3LYP/G D3BJ Opt RIJCOSX def2-SVP def2/J
|  4> * xyz 0 1
|  5>    C       -1.37544        -1.21836        -0.00263
|  6>    S       -2.47503         0.10810        -0.00020
|  7>    C       -1.21002         1.26589         0.00125
|  8>    C        0.01886         0.66213         0.00008
|  9>    C       -0.09379        -0.76973        -0.00217
| 10>    S        1.46204        -1.54815        -0.00380
| 11>    C        2.24088         0.03836        -0.00126
| 12>    C        3.63733         0.11801        -0.00165
| 13>    N        4.78263         0.19033        -0.00137
| 14>    C        1.37429         1.08780         0.00052
| 15>    H       -1.74286        -2.22352        -0.00415
| 16>    H       -1.44225         2.31119         0.00295
| 17>    H        1.68825         2.11598         0.00199
| 18> *
| 19>
| 20>                          ****END OF INPUT****
 Total Charge           Charge          ....    0
 Multiplicity           Mult            ....    1
 Number of Electrons    NEL             ....   84
Dispersion correction           -0.033524353
FINAL SINGLE POINT ENERGY     -1119.217962181482
Dispersion correction            ... done
Dispersion correction           -0.033432117
FINAL SINGLE POINT ENERGY     -1119.220503249594
Dispersion correction            ... done
Dispersion correction           -0.033419075
FINAL SINGLE POINT ENERGY     -1119.220576130080
Dispersion correction            ... done
FINAL SINGLE POINT ENERGY     -1119.220585603452
Dispersion correction            ... done
Dispersion correction           -0.033413736
FINAL SINGLE POINT ENERGY     -1119.220589606240
Dispersion correction            ... done
Dispersion correction           -0.033413633
FINAL SINGLE POINT ENERGY     -1119.220590829330
Dispersion correction            ... done
                    ***********************HURRAY********************

CARTESIAN COORDINATES (ANGSTROEM)
---------------------------------
  C     -1.396092   -1.234320   -0.002713
  S     -2.493878    0.105531   -0.000861
  C     -1.231958    1.275311    0.001289
  C      0.009929    0.663575    0.000259
  C     -0.100005   -0.778559   -0.001938
  S      1.473256   -1.553326   -0.002896
  C      2.254817    0.044527   -0.001241
  C      3.671635    0.122337   -0.001884
  N      4.832738    0.175153   -0.001996
  C      1.378786    1.098076    0.000688
  H     -1.771205   -2.255137   -0.004496
  H     -1.469238    2.337540    0.003202
  H      1.706104    2.137322    0.002148

 Multiplicity           Mult            ....    1
 Number of Electrons    NEL             ....   84
 Basis Dimension        Dim             ....  163

ORBITAL ENERGIES
----------------

  NO   OCC          E(Eh)            E(eV)
   0   2.0000     -88.903051     -2419.1750
   1   2.0000     -88.893468     -2418.9142
   2   2.0000     -14.337977      -390.1562
   3   2.0000     -10.264796      -279.3193
   4   2.0000     -10.241297      -278.6799
   5   2.0000     -10.239808      -278.6393
   6   2.0000     -10.238005      -278.5903
   7   2.0000     -10.236509      -278.5496
   8   2.0000     -10.233192      -278.4593
   9   2.0000     -10.226409      -278.2747
  10   2.0000      -7.997576      -217.6251
  11   2.0000      -7.988161      -217.3689
  12   2.0000      -5.965610      -162.3325
  13   2.0000      -5.961317      -162.2157
  14   2.0000      -5.959398      -162.1635
  15   2.0000      -5.956997      -162.0981
  16   2.0000      -5.953082      -161.9916
  17   2.0000      -5.947715      -161.8456
  18   2.0000      -0.926081       -25.2000
  19   2.0000      -0.905604       -24.6427
  20   2.0000      -0.865456       -23.5503
  21   2.0000      -0.779958       -21.2237
  22   2.0000      -0.755662       -20.5626
  23   2.0000      -0.714862       -19.4524
  24   2.0000      -0.657008       -17.8781
  25   2.0000      -0.591584       -16.0978
  26   2.0000      -0.560829       -15.2609
  27   2.0000      -0.524130       -14.2623
  28   2.0000      -0.499929       -13.6038
  29   2.0000      -0.461271       -12.5518
  30   2.0000      -0.437567       -11.9068
  31   2.0000      -0.428710       -11.6658
  32   2.0000      -0.412189       -11.2162
  33   2.0000      -0.391934       -10.6651
  34   2.0000      -0.383443       -10.4340
  35   2.0000      -0.369126       -10.0444
  36   2.0000      -0.362825        -9.8730
  37   2.0000      -0.343694        -9.3524
  38   2.0000      -0.339064        -9.2264
  39   2.0000      -0.306979        -8.3533
  40   2.0000      -0.261754        -7.1227
  41   2.0000      -0.231707        -6.3051
  42   0.0000      -0.080548        -2.1918
  43   0.0000      -0.020945        -0.5700
  44   0.0000      -0.012767        -0.3474
  45   0.0000       0.007235         0.1969
  46   0.0000       0.037206         1.0124

MULLIKEN ATOMIC CHARGES
-----------------------
   0 C :   -0.151400
   1 S :    0.133024
   2 C :   -0.128924
   3 C :    0.100098
   4 C :    0.006294
   5 S :    0.159590
   6 C :   -0.224801
   7 C :   -0.125360
   8 N :    0.083093
   9 C :    0.080102
  10 H :    0.032152
  11 H :    0.032231
  12 H :    0.003903
Sum of atomic charges:    0.0000000

LOEWDIN ATOMIC CHARGES
----------------------
   0 C :   -0.217140
   1 S :    0.475915
   2 C :   -0.194397
   3 C :   -0.080901
   4 C :   -0.186867
   5 S :    0.403397
   6 C :   -0.195249
   7 C :   -0.047920
   8 N :   -0.053044
   9 C :   -0.009192
  10 H :    0.030864
  11 H :    0.031247
  12 H :    0.043287

  Mayer bond orders larger than 0.100000
B(  0-C ,  1-S ) :   1.1717 B(  0-C ,  2-C ) :   0.1031 B(  0-C ,  4-C ) :   1.5164
B(  0-C , 10-H ) :   0.9733 B(  1-S ,  2-C ) :   1.1967 B(  2-C ,  3-C ) :   1.4278
B(  2-C , 11-H ) :   0.9668 B(  3-C ,  4-C ) :   1.2266 B(  3-C ,  9-C ) :   1.1393
B(  4-C ,  5-S ) :   1.0287 B(  5-S ,  6-C ) :   1.0508 B(  6-C ,  7-C ) :   1.1824
B(  6-C ,  9-C ) :   1.5870 B(  7-C ,  8-N ) :   2.9770 B(  9-C , 12-H ) :   0.9971

Dispersion correction           -0.033414687
FINAL SINGLE POINT ENERGY     -1119.220591804724

DIPOLE MOMENT
-------------
                                X             Y             Z
Electronic contribution:      1.05202      -2.37369      -0.00368
Nuclear contribution   :     -2.86313       2.58377       0.00448
                        -----------------------------------------
Total Dipole Moment    :     -1.81110       0.21008       0.00080
                        -----------------------------------------
Magnitude (a.u.)       :      1.82324
Magnitude (Debye)      :      4.63432

Rotational constants in cm-1:     0.110088     0.019942     0.016884
Rotational constants in MHz :  3300.361812   597.842935   506.155581

                             ****ORCA TERMINATED NORMALLY****
TOTAL RUN TIME: 0 days 0 hours 4 minutes 8 seconds 302 msec
