                         Program Version 4.2.0 -  RELEASE  -
|  1> # ORCA input file
|  2> # SCF done        -38.925995704122          0.000456008378
|  3> ! B3LYP/G D3BJ Opt RIJCOSX def2-SVP def2/J
|  4> * xyz 0 1
|  5>    C       -0.84901        -1.46612        -0.00753
|  6>    C       -2.02825        -0.77432        -0.01022
|  7>    F       -3.19209        -1.44671        -0.01290
|  8>    C       -2.07812         0.64110        -0.00935
|  9>    F       -3.28639         1.22993        -0.01130
| 10>    C       -0.95049         1.41418        -0.00569
| 11>    C        0.27105         0.73145        -0.00091
| 12>    C        0.32144        -0.69912        -0.00187
| 13>    N        1.61656        -1.05057         0.01247
| 14>    N        2.25531         0.08518         0.02249
| 15>    C        3.68990         0.13569         0.00758
| 16>    C        4.20816         0.17396        -1.42690
| 17>    N        1.53819         1.17318         0.01404
| 18>    H       -0.82659        -2.54248        -0.00836
| 19>    H       -1.00389         2.48945        -0.00514
| 20>    H        4.05376        -0.75543         0.52192
| 21>    H        3.99210         1.03535         0.54654
| 22>    H        3.88992        -0.71540        -1.96504
| 23>    H        5.29356         0.21259        -1.42419
| 24>    H        3.82678         1.05307        -1.94024
| 25> *
| 26>
| 27>                          ****END OF INPUT****
 Total Charge           Charge          ....    0
 Multiplicity           Mult            ....    1
 Number of Electrons    NEL             ....   94
Dispersion correction           -0.036612346
FINAL SINGLE POINT ENERGY      -672.501989031037
Dispersion correction            ... done
Dispersion correction           -0.036541771
FINAL SINGLE POINT ENERGY      -672.504788564399
Dispersion correction            ... done
Dispersion correction           -0.036571087
FINAL SINGLE POINT ENERGY      -672.504843769993
Dispersion correction            ... done
FINAL SINGLE POINT ENERGY      -672.504181926660
Dispersion correction            ... done
Dispersion correction           -0.036626633
FINAL SINGLE POINT ENERGY      -672.504529621574
Dispersion correction            ... done
Dispersion correction           -0.036631443
FINAL SINGLE POINT ENERGY      -672.504497103423
Dispersion correction            ... done
                    ***********************HURRAY********************

CARTESIAN COORDINATES (ANGSTROEM)
---------------------------------
  C     -0.834018   -1.474693    0.035510
  C     -2.014138   -0.782297   -0.074508
  F     -3.174548   -1.433078   -0.197952
  C     -2.062087    0.650576   -0.080369
  F     -3.263778    1.218975   -0.209511
  C     -0.932152    1.423229    0.024033
  C      0.301033    0.731189    0.104527
  C      0.349304   -0.699689    0.109231
  N      1.645008   -1.071500    0.149072
  N      2.290729    0.082440    0.173062
  C      3.738175    0.131464    0.009448
  C      4.112667    0.179569   -1.468923
  N      1.568321    1.190292    0.142711
  H     -0.826358   -2.564828    0.038170
  H     -0.998810    2.511439    0.017185
  H      4.139852   -0.764168    0.500835
  H      4.088847    1.022714    0.546261
  H      3.730681   -0.712171   -1.987537
  H      5.205678    0.215024   -1.591463
  H      3.677493    1.070492   -1.944381

 Multiplicity           Mult            ....    1
 Number of Electrons    NEL             ....   94
 Basis Dimension        Dim             ....  217

ORBITAL ENERGIES
----------------

  NO   OCC          E(Eh)            E(eV)
   0   2.0000     -24.710597      -672.4095
   1   2.0000     -24.710464      -672.4059
   2   2.0000     -14.456387      -393.3783
   3   2.0000     -14.365192      -390.8968
   4   2.0000     -14.365025      -390.8922
   5   2.0000     -10.291077      -280.0344
   6   2.0000     -10.290842      -280.0280
   7   2.0000     -10.249871      -278.9132
   8   2.0000     -10.231736      -278.4197
   9   2.0000     -10.231432      -278.4114
  10   2.0000     -10.215626      -277.9813
  11   2.0000     -10.215491      -277.9776
  12   2.0000     -10.203098      -277.6404
  13   2.0000      -1.229297       -33.4509
  14   2.0000      -1.213968       -33.0338
  15   2.0000      -1.116986       -30.3947
  16   2.0000      -0.900832       -24.5129
  17   2.0000      -0.889172       -24.1956
  18   2.0000      -0.836655       -22.7665
  19   2.0000      -0.768550       -20.9133
  20   2.0000      -0.752207       -20.4686
  21   2.0000      -0.688658       -18.7393
  22   2.0000      -0.645772       -17.5724
  23   2.0000      -0.636132       -17.3100
  24   2.0000      -0.600311       -16.3353
  25   2.0000      -0.572632       -15.5821
  26   2.0000      -0.549428       -14.9507
  27   2.0000      -0.545440       -14.8422
  28   2.0000      -0.512850       -13.9554
  29   2.0000      -0.496513       -13.5108
  30   2.0000      -0.489267       -13.3136
  31   2.0000      -0.482599       -13.1322
  32   2.0000      -0.468162       -12.7393
  33   2.0000      -0.462572       -12.5872
  34   2.0000      -0.459905       -12.5147
  35   2.0000      -0.443910       -12.0794
  36   2.0000      -0.416160       -11.3243
  37   2.0000      -0.414218       -11.2714
  38   2.0000      -0.396891       -10.8000
  39   2.0000      -0.382007       -10.3949
  40   2.0000      -0.376156       -10.2357
  41   2.0000      -0.350966        -9.5503
  42   2.0000      -0.327751        -8.9186
  43   2.0000      -0.327263        -8.9053
  44   2.0000      -0.306888        -8.3508
  45   2.0000      -0.256753        -6.9866
  46   2.0000      -0.245414        -6.6781
  47   0.0000      -0.064476        -1.7545
  48   0.0000       0.011465         0.3120
  49   0.0000       0.011924         0.3245
  50   0.0000       0.056270         1.5312
  51   0.0000       0.067155         1.8274

MULLIKEN ATOMIC CHARGES
-----------------------
   0 C :   -0.122190
   1 C :    0.239952
   2 F :   -0.181520
   3 C :    0.239479
   4 F :   -0.181235
   5 C :   -0.122702
   6 C :    0.045139
   7 C :    0.041429
   8 N :   -0.068748
   9 N :   -0.111981
  10 C :    0.164868
  11 C :   -0.016124
  12 N :   -0.069458
  13 H :   -0.007172
  14 H :   -0.007255
  15 H :    0.030984
  16 H :    0.031223
  17 H :    0.031819
  18 H :    0.031757
  19 H :    0.031736
Sum of atomic charges:    0.0000000

LOEWDIN ATOMIC CHARGES
----------------------
   0 C :   -0.050284
   1 C :    0.057073
   2 F :   -0.051338
   3 C :    0.057012
   4 F :   -0.050899
   5 C :   -0.050604
   6 C :   -0.052960
   7 C :   -0.053519
   8 N :   -0.098667
   9 N :    0.145709
  10 C :    0.044813
  11 C :   -0.054970
  12 N :   -0.099025
  13 H :    0.046016
  14 H :    0.046049
  15 H :    0.034663
  16 H :    0.034578
  17 H :    0.031494
  18 H :    0.033511
  19 H :    0.031347

  Mayer bond orders larger than 0.100000
B(  0-C ,  1-C ) :   1.4459 B(  0-C ,  5-C ) :   0.1479 B(  0-C ,  7-C ) :   1.1518
B(  0-C , 13-H ) :   1.0282 B(  1-C ,  2-F ) :   1.1007 B(  1-C ,  3-C ) :   1.1636
B(  3-C ,  4-F ) :   1.1005 B(  3-C ,  5-C ) :   1.4454 B(  5-C ,  6-C ) :   1.1520
B(  5-C , 14-H ) :   1.0282 B(  6-C ,  7-C ) :   1.2258 B(  6-C , 12-N ) :   1.4316
B(  7-C ,  8-N ) :   1.4329 B(  8-N ,  9-N ) :   1.2143 B(  8-N , 12-N ) :   0.1702
B(  9-N , 10-C ) :   0.9301 B(  9-N , 12-N ) :   1.2137 B( 10-C , 11-C ) :   1.1132
B( 10-C , 15-H ) :   0.9419 B( 10-C , 16-H ) :   0.9421 B( 11-C , 17-H ) :   0.9671
B( 11-C , 18-H ) :   0.9663 B( 11-C , 19-H ) :   0.9671

Dispersion correction           -0.036634670
FINAL SINGLE POINT ENERGY      -672.504478375076

DIPOLE MOMENT
-------------
                                X             Y             Z
Electronic contribution:    -22.43921      -0.84763       3.10574
Nuclear contribution   :     23.68532       0.89241      -3.20464
                        -----------------------------------------
Total Dipole Moment    :      1.24610       0.04478      -0.09889
                        -----------------------------------------
Magnitude (a.u.)       :      1.25082
Magnitude (Debye)      :      3.17934

Rotational constants in cm-1:     0.073561     0.014521     0.012770
Rotational constants in MHz :  2205.291460   435.320624   382.848462

                             ****ORCA TERMINATED NORMALLY****
TOTAL RUN TIME: 0 days 0 hours 7 minutes 59 seconds 155 msec
