                         Program Version 4.2.0 -  RELEASE  -
|  1> # ORCA input file
|  2> # SCF done        -37.437264600786          0.000920262512
|  3> ! B3LYP/G D3BJ Opt RIJCOSX def2-SVP def2/J
|  4> * xyz 0 2
|  5>    C        0.82080         0.79948         0.68119
|  6>    S        1.13670         0.86093        -0.99818
|  7>    C       -0.60666         1.03002        -1.38209
|  8>    S       -1.15575         1.15962        -2.95705
|  9>    C       -1.30977         1.02953        -0.20548
| 10>    C       -0.52530         0.90023         0.95906
| 11>    C       -1.26424         0.89578         2.19395
| 12>    C       -2.59646         1.01331         2.05752
| 13>    S       -3.02954         1.14430         0.29320
| 14>    O       -3.56327         2.44032        -0.00865
| 15>    O       -3.76340        -0.00770        -0.14248
| 16>    C       -3.61934         1.04450         3.05452
| 17>    C       -4.90979         1.17033         2.74631
| 18>    H        1.63138         0.69314         1.37544
| 19>    H       -0.75778         0.80324         3.14258
| 20>    H       -3.29435         0.96006         4.08493
| 21>    H       -5.22848         1.25323         1.72218
| 22>    H       -5.67215         1.19270         3.50561
| 23> *
| 24>
| 25>                          ****END OF INPUT****
 Total Charge           Charge          ....    0
 Multiplicity           Mult            ....    2
 Number of Electrons    NEL             ....  117
Dispersion correction           -0.051474734
FINAL SINGLE POINT ENERGY     -1652.098001177463
Dispersion correction            ... done
Dispersion correction           -0.051217374
FINAL SINGLE POINT ENERGY     -1652.103211920715
Dispersion correction            ... done
Dispersion correction           -0.051176604
FINAL SINGLE POINT ENERGY     -1652.104087030272
Dispersion correction            ... done
FINAL SINGLE POINT ENERGY     -1652.104138075313
FINAL SINGLE POINT ENERGY     -1652.104126086783
Dispersion correction            ... done
Dispersion correction           -0.051236115
FINAL SINGLE POINT ENERGY     -1652.104150289073
Dispersion correction            ... done
Dispersion correction           -0.051236607
FINAL SINGLE POINT ENERGY     -1652.104156606751
Dispersion correction            ... done
                    ***********************HURRAY********************

CARTESIAN COORDINATES (ANGSTROEM)
---------------------------------
  C      0.862660    0.790370    0.664119
  S      1.146535    0.821742   -1.036627
  C     -0.605802    1.012023   -1.410449
  S     -1.203931    1.116238   -2.969880
  C     -1.279388    1.041192   -0.186691
  C     -0.487639    0.914424    0.973102
  C     -1.252915    0.920849    2.216630
  C     -2.591790    1.044839    2.047588
  S     -3.002864    1.192258    0.265848
  O     -3.494670    2.541423   -0.017414
  O     -3.758858    0.013295   -0.159818
  C     -3.644962    1.055788    3.036723
  C     -4.958442    1.130340    2.760456
  H      1.688642    0.671246    1.365866
  H     -0.784643    0.815521    3.197163
  H     -3.307559    0.983229    4.077042
  H     -5.332657    1.193244    1.736230
  H     -5.699117    1.124998    3.562672

 Multiplicity           Mult            ....    2
 Number of Electrons    NEL             ....  117
 Basis Dimension        Dim             ....  219

ORBITAL ENERGIES
----------------
                 SPIN UP ORBITALS
  NO   OCC          E(Eh)            E(eV)
   0   1.0000     -89.072397     -2423.7831
   1   1.0000     -88.908958     -2419.3357
   2   1.0000     -88.853918     -2417.8380
   3   1.0000     -19.132783      -520.6295
   4   1.0000     -19.132332      -520.6172
   5   1.0000     -10.279752      -279.7263
   6   1.0000     -10.266446      -279.3642
   7   1.0000     -10.247507      -278.8488
   8   1.0000     -10.245090      -278.7831
   9   1.0000     -10.244392      -278.7641
  10   1.0000     -10.243190      -278.7314
  11   1.0000     -10.226400      -278.2745
  12   1.0000     -10.215649      -277.9819
  13   1.0000      -8.136931      -221.4171
  14   1.0000      -8.004109      -217.8029
  15   1.0000      -7.948740      -216.2962
  16   1.0000      -6.104768      -166.1192
  17   1.0000      -6.104418      -166.1097
  18   1.0000      -6.104201      -166.1038
  19   1.0000      -5.972176      -162.5112
  20   1.0000      -5.968030      -162.3984
  21   1.0000      -5.965459      -162.3284
  22   1.0000      -5.920273      -161.0988
  23   1.0000      -5.915863      -160.9788
  24   1.0000      -5.906031      -160.7113
  25   1.0000      -1.107321       -30.1317
  26   1.0000      -0.996871       -27.1262
  27   1.0000      -0.931557       -25.3490
  28   1.0000      -0.866407       -23.5761
  29   1.0000      -0.807886       -21.9837
  30   1.0000      -0.802571       -21.8391
  31   1.0000      -0.748244       -20.3607
  32   1.0000      -0.724731       -19.7209
  33   1.0000      -0.675548       -18.3826
  34   1.0000      -0.644954       -17.5501
  35   1.0000      -0.597665       -16.2633
  36   1.0000      -0.577145       -15.7049
  37   1.0000      -0.548809       -14.9339
  38   1.0000      -0.513789       -13.9809
  39   1.0000      -0.499037       -13.5795
  40   1.0000      -0.479909       -13.0590
  41   1.0000      -0.467490       -12.7211
  42   1.0000      -0.466708       -12.6998
  43   1.0000      -0.450019       -12.2456
  44   1.0000      -0.436005       -11.8643
  45   1.0000      -0.434596       -11.8260
  46   1.0000      -0.408948       -11.1280
  47   1.0000      -0.396478       -10.7887
  48   1.0000      -0.388398       -10.5688
  49   1.0000      -0.383978       -10.4486
  50   1.0000      -0.341654        -9.2969
  51   1.0000      -0.338272        -9.2049
  52   1.0000      -0.337601        -9.1866
  53   1.0000      -0.312186        -8.4950
  54   1.0000      -0.302029        -8.2186
  55   1.0000      -0.299269        -8.1435
  56   1.0000      -0.260817        -7.0972
  57   1.0000      -0.252776        -6.8784
  58   1.0000      -0.238572        -6.4919
  59   0.0000      -0.095064        -2.5868
  60   0.0000      -0.055734        -1.5166
  61   0.0000      -0.011021        -0.2999
  62   0.0000       0.003608         0.0982
  63   0.0000       0.038150         1.0381

                 SPIN DOWN ORBITALS
  NO   OCC          E(Eh)            E(eV)
   0   1.0000     -89.072453     -2423.7847
   1   1.0000     -88.908745     -2419.3299
   2   1.0000     -88.850394     -2417.7421
   3   1.0000     -19.132269      -520.6155
   4   1.0000     -19.131807      -520.6029
   5   1.0000     -10.281117      -279.7634
   6   1.0000     -10.262376      -279.2535
   7   1.0000     -10.248395      -278.8730
   8   1.0000     -10.245494      -278.7941
   9   1.0000     -10.242898      -278.7234
  10   1.0000     -10.240883      -278.6686
  11   1.0000     -10.226252      -278.2705
  12   1.0000     -10.215892      -277.9885
  13   1.0000      -8.136993      -221.4188
  14   1.0000      -8.003906      -217.7974
  15   1.0000      -7.945287      -216.2022
  16   1.0000      -6.104892      -166.1226
  17   1.0000      -6.104492      -166.1117
  18   1.0000      -6.104245      -166.1050
  19   1.0000      -5.972124      -162.5097
  20   1.0000      -5.967974      -162.3968
  21   1.0000      -5.964626      -162.3057
  22   1.0000      -5.913729      -160.9207
  23   1.0000      -5.908986      -160.7917
  24   1.0000      -5.903908      -160.6535
  25   1.0000      -1.106679       -30.1143
  26   1.0000      -0.995821       -27.0977
  27   1.0000      -0.927978       -25.2516
  28   1.0000      -0.865757       -23.5584
  29   1.0000      -0.805582       -21.9210
  30   1.0000      -0.795780       -21.6543
  31   1.0000      -0.744569       -20.2607
  32   1.0000      -0.719207       -19.5706
  33   1.0000      -0.667051       -18.1514
  34   1.0000      -0.643952       -17.5228
  35   1.0000      -0.595593       -16.2069
  36   1.0000      -0.575050       -15.6479
  37   1.0000      -0.546764       -14.8782
  38   1.0000      -0.511260       -13.9121
  39   1.0000      -0.498129       -13.5548
  40   1.0000      -0.477932       -13.0052
  41   1.0000      -0.466930       -12.7058
  42   1.0000      -0.462476       -12.5846
  43   1.0000      -0.449229       -12.2241
  44   1.0000      -0.435379       -11.8473
  45   1.0000      -0.427370       -11.6293
  46   1.0000      -0.402815       -10.9612
  47   1.0000      -0.394994       -10.7483
  48   1.0000      -0.386775       -10.5247
  49   1.0000      -0.382408       -10.4058
  50   1.0000      -0.334799        -9.1103
  51   1.0000      -0.334605        -9.1051
  52   1.0000      -0.320698        -8.7266
  53   1.0000      -0.310901        -8.4601
  54   1.0000      -0.298117        -8.1122
  55   1.0000      -0.293102        -7.9757
  56   1.0000      -0.249187        -6.7807
  57   1.0000      -0.244129        -6.6431
  58   0.0000      -0.162375        -4.4184
  59   0.0000      -0.088112        -2.3976
  60   0.0000      -0.041127        -1.1191
  61   0.0000      -0.009917        -0.2698
  62   0.0000       0.006023         0.1639

MULLIKEN ATOMIC CHARGES AND SPIN POPULATIONS
--------------------------------------------
   0 C :   -0.099318    0.269392
   1 S :    0.164649    0.034936
   2 C :   -0.229848   -0.116085
   3 S :   -0.007386    0.643542
   4 C :    0.035560    0.245035
   5 C :    0.085532   -0.075516
   6 C :    0.044330    0.024627
   7 C :   -0.017345   -0.025927
   8 S :    0.786330   -0.015972
   9 O :   -0.446718    0.017904
  10 O :   -0.447490    0.017577
  11 C :    0.000220    0.012020
  12 C :    0.004872   -0.018723
  13 H :    0.042298   -0.012591
  14 H :   -0.005319   -0.001095
  15 H :   -0.003568   -0.000542
  16 H :    0.052346    0.000552
  17 H :    0.040855    0.000867
Sum of atomic charges         :   -0.0000000

LOEWDIN ATOMIC CHARGES AND SPIN POPULATIONS
-------------------------------------------
   0 C :   -0.145498    0.227327
   1 S :    0.444405    0.041684
   2 C :   -0.328740   -0.063122
   3 S :    0.119481    0.615262
   4 C :   -0.197712    0.194678
   5 C :   -0.072358   -0.032057
   6 C :   -0.021694    0.015772
   7 C :   -0.135292   -0.019930
   8 S :    1.178743   -0.005967
   9 O :   -0.485108    0.017626
  10 O :   -0.485046    0.017300
  11 C :   -0.044568    0.007263
  12 C :   -0.001319   -0.015036
  13 H :    0.035313   -0.000407
  14 H :    0.038297   -0.000253
  15 H :    0.036996   -0.000106
  16 H :    0.029462   -0.000085
  17 H :    0.034639    0.000051

  Mayer bond orders larger than 0.100000
B(  0-C ,  1-S ) :   1.2171 B(  0-C ,  5-C ) :   1.3909 B(  0-C , 13-H ) :   0.9565
B(  1-S ,  2-C ) :   1.0464 B(  2-C ,  3-S ) :   1.4383 B(  2-C ,  4-C ) :   1.3618
B(  4-C ,  5-C ) :   1.3423 B(  4-C ,  8-S ) :   0.7772 B(  5-C ,  6-C ) :   1.0516
B(  6-C ,  7-C ) :   1.6494 B(  6-C , 12-C ) :   0.1086 B(  6-C , 14-H ) :   0.9929
B(  7-C ,  8-S ) :   0.7984 B(  7-C , 11-C ) :   1.1670 B(  8-S ,  9-O ) :   1.6702
B(  8-S , 10-O ) :   1.6603 B( 11-C , 12-C ) :   1.8718 B( 11-C , 15-H ) :   0.9639
B( 12-C , 16-H ) :   0.9391 B( 12-C , 17-H ) :   0.9470

Dispersion correction           -0.051237649
FINAL SINGLE POINT ENERGY     -1652.104157902157

DIPOLE MOMENT
-------------
                                X             Y             Z
Electronic contribution:      6.08935       0.15921     -11.10264
Nuclear contribution   :     -4.63438      -0.43175      12.92790
                        -----------------------------------------
Total Dipole Moment    :      1.45498      -0.27254       1.82526
                        -----------------------------------------
Magnitude (a.u.)       :      2.35007
Magnitude (Debye)      :      5.97340

Rotational constants in cm-1:     0.036372     0.014713     0.011201
Rotational constants in MHz :  1090.404706   441.082181   335.799458

                             ****ORCA TERMINATED NORMALLY****
TOTAL RUN TIME: 0 days 0 hours 13 minutes 24 seconds 987 msec
