                         Program Version 4.2.0 -  RELEASE  -
|  1> # ORCA input file
|  2> # SCF done        -40.338826106969          0.000627409569
|  3> ! B3LYP/G D3BJ Opt RIJCOSX def2-SVP def2/J
|  4> * xyz 0 1
|  5>    C        2.50501         1.33890        -0.00637
|  6>    C        1.24052         0.69452         0.01490
|  7>    C        0.03462         1.41555         0.06402
|  8>    C        0.08656         2.88374         0.13632
|  9>    C       -0.45464         3.69852        -0.75561
| 10>    C       -1.19607         0.73673         0.05588
| 11>    C       -1.21135        -0.69197        -0.02186
| 12>    C       -0.01079        -1.39221        -0.07117
| 13>    C        1.21377        -0.73276        -0.04842
| 14>    C        2.44029        -1.44320        -0.10057
| 15>    C        3.63162        -0.78652        -0.10230
| 16>    C        3.66172         0.62233        -0.05920
| 17>    C       -2.45848        -1.36826        -0.04306
| 18>    C       -3.63066        -0.68237         0.02629
| 19>    C       -3.61906         0.72314         0.13845
| 20>    C       -2.44278         1.40834         0.15644
| 21>    H        2.53879         2.41787         0.01007
| 22>    H        0.62709         3.29096         0.98364
| 23>    H       -0.97431         3.32336        -1.62274
| 24>    H       -0.38507         4.76967        -0.66353
| 25>    H       -0.02986        -2.47171        -0.13021
| 26>    H        2.40385        -2.52266        -0.14274
| 27>    H        4.56203        -1.33405        -0.14263
| 28>    H        4.61584         1.12892        -0.07332
| 29>    H       -2.45213        -2.44695        -0.11158
| 30>    H       -4.57636        -1.20422         0.00866
| 31>    H       -4.55769         1.25250         0.21614
| 32>    H       -2.44485         2.48294         0.25755
| 33> *
| 34>
| 35>                          ****END OF INPUT****
 Total Charge           Charge          ....    0
 Multiplicity           Mult            ....    1
 Number of Electrons    NEL             ....  108
Dispersion correction           -0.066183971
FINAL SINGLE POINT ENERGY      -616.544483497798
Dispersion correction            ... done
Dispersion correction           -0.065622988
FINAL SINGLE POINT ENERGY      -616.548656575532
Dispersion correction            ... done
Dispersion correction           -0.065579755
FINAL SINGLE POINT ENERGY      -616.548761873850
Dispersion correction            ... done
FINAL SINGLE POINT ENERGY      -616.548809746338
Dispersion correction            ... done
Dispersion correction           -0.065565818
FINAL SINGLE POINT ENERGY      -616.548826913364
Dispersion correction            ... done
Dispersion correction           -0.065573120
FINAL SINGLE POINT ENERGY      -616.548834586114
Dispersion correction            ... done
                    ***********************HURRAY********************

CARTESIAN COORDINATES (ANGSTROEM)
---------------------------------
  C      2.533351    1.337781   -0.012421
  C      1.253206    0.697052    0.010239
  C      0.038965    1.431176    0.047352
  C      0.109827    2.908199    0.111029
  C     -0.500558    3.762750   -0.719324
  C     -1.203814    0.744725    0.041014
  C     -1.217121   -0.701441   -0.021747
  C     -0.009284   -1.405637   -0.058876
  C      1.224076   -0.745266   -0.039675
  C      2.457636   -1.467519   -0.084981
  C      3.662419   -0.812991   -0.089431
  C      3.697175    0.610484   -0.056244
  C     -2.471551   -1.390006   -0.036816
  C     -3.657700   -0.706622    0.019163
  C     -3.651375    0.714894    0.112148
  C     -2.469524    1.411866    0.127120
  H      2.581276    2.427644   -0.011600
  H      0.750255    3.322902    0.899484
  H     -1.119416    3.412461   -1.550454
  H     -0.382869    4.843424   -0.598667
  H     -0.030184   -2.498159   -0.107651
  H      2.415061   -2.559518   -0.123128
  H      4.596523   -1.377949   -0.128566
  H      4.659469    1.127721   -0.076044
  H     -2.458673   -2.481911   -0.092754
  H     -4.607113   -1.246899    0.006324
  H     -4.598095    1.255426    0.185810
  H     -2.484350    2.496522    0.221745

 Multiplicity           Mult            ....    1
 Number of Electrons    NEL             ....  108
 Basis Dimension        Dim             ....  284

ORBITAL ENERGIES
----------------

  NO   OCC          E(Eh)            E(eV)
   0   2.0000     -10.202596      -277.6267
   1   2.0000     -10.201878      -277.6072
   2   2.0000     -10.199688      -277.5476
   3   2.0000     -10.199224      -277.5350
   4   2.0000     -10.198855      -277.5250
   5   2.0000     -10.198779      -277.5229
   6   2.0000     -10.194193      -277.3981
   7   2.0000     -10.193941      -277.3912
   8   2.0000     -10.193483      -277.3788
   9   2.0000     -10.192826      -277.3609
  10   2.0000     -10.192792      -277.3600
  11   2.0000     -10.192313      -277.3469
  12   2.0000     -10.192166      -277.3429
  13   2.0000     -10.192112      -277.3415
  14   2.0000     -10.191658      -277.3291
  15   2.0000     -10.189184      -277.2618
  16   2.0000      -0.878278       -23.8992
  17   2.0000      -0.844463       -22.9790
  18   2.0000      -0.807044       -21.9608
  19   2.0000      -0.791279       -21.5318
  20   2.0000      -0.747597       -20.3432
  21   2.0000      -0.744240       -20.2518
  22   2.0000      -0.733412       -19.9572
  23   2.0000      -0.695545       -18.9267
  24   2.0000      -0.642756       -17.4903
  25   2.0000      -0.617399       -16.8003
  26   2.0000      -0.610029       -16.5997
  27   2.0000      -0.587076       -15.9752
  28   2.0000      -0.555992       -15.1293
  29   2.0000      -0.534583       -14.5468
  30   2.0000      -0.524810       -14.2808
  31   2.0000      -0.501348       -13.6424
  32   2.0000      -0.469617       -12.7789
  33   2.0000      -0.464857       -12.6494
  34   2.0000      -0.462566       -12.5871
  35   2.0000      -0.451479       -12.2854
  36   2.0000      -0.441207       -12.0059
  37   2.0000      -0.425929       -11.5901
  38   2.0000      -0.420504       -11.4425
  39   2.0000      -0.411366       -11.1938
  40   2.0000      -0.400993       -10.9116
  41   2.0000      -0.395692       -10.7673
  42   2.0000      -0.381764       -10.3883
  43   2.0000      -0.374014       -10.1775
  44   2.0000      -0.365565        -9.9475
  45   2.0000      -0.350708        -9.5433
  46   2.0000      -0.342356        -9.3160
  47   2.0000      -0.324994        -8.8435
  48   2.0000      -0.311278        -8.4703
  49   2.0000      -0.306120        -8.3299
  50   2.0000      -0.270784        -7.3684
  51   2.0000      -0.261633        -7.1194
  52   2.0000      -0.246891        -6.7183
  53   2.0000      -0.197702        -5.3798
  54   0.0000      -0.073200        -1.9919
  55   0.0000      -0.021937        -0.5969
  56   0.0000      -0.009851        -0.2681
  57   0.0000      -0.002423        -0.0659
  58   0.0000       0.042762         1.1636

MULLIKEN ATOMIC CHARGES
-----------------------
   0 C :   -0.040671
   1 C :    0.074501
   2 C :    0.019650
   3 C :   -0.081284
   4 C :   -0.017942
   5 C :    0.064846
   6 C :    0.106132
   7 C :   -0.113913
   8 C :    0.100396
   9 C :   -0.025612
  10 C :    0.032365
  11 C :    0.031214
  12 C :   -0.027780
  13 C :    0.033116
  14 C :    0.027320
  15 C :   -0.037268
  16 H :   -0.022217
  17 H :    0.018469
  18 H :    0.030564
  19 H :    0.026160
  20 H :   -0.040301
  21 H :   -0.025821
  22 H :   -0.019300
  23 H :   -0.021562
  24 H :   -0.026311
  25 H :   -0.020310
  26 H :   -0.022133
  27 H :   -0.022309
Sum of atomic charges:   -0.0000000

LOEWDIN ATOMIC CHARGES
----------------------
   0 C :   -0.019377
   1 C :   -0.013364
   2 C :   -0.015709
   3 C :   -0.018352
   4 C :   -0.043236
   5 C :   -0.010063
   6 C :   -0.015307
   7 C :   -0.012563
   8 C :   -0.016229
   9 C :   -0.015096
  10 C :   -0.028038
  11 C :   -0.024501
  12 C :   -0.017291
  13 C :   -0.027871
  14 C :   -0.028434
  15 C :   -0.017246
  16 H :    0.027174
  17 H :    0.030451
  18 H :    0.025645
  19 H :    0.026048
  20 H :    0.025223
  21 H :    0.027039
  22 H :    0.027034
  23 H :    0.026806
  24 H :    0.026735
  25 H :    0.026691
  26 H :    0.026398
  27 H :    0.027436

  Mayer bond orders larger than 0.100000
B(  0-C ,  1-C ) :   1.2157 B(  0-C , 11-C ) :   1.5224 B(  0-C , 16-H ) :   0.9729
B(  1-C ,  2-C ) :   1.3152 B(  1-C ,  8-C ) :   1.1846 B(  2-C ,  3-C ) :   1.0317
B(  2-C ,  5-C ) :   1.3208 B(  3-C ,  4-C ) :   1.9630 B(  3-C , 17-H ) :   0.9345
B(  4-C , 18-H ) :   0.9559 B(  4-C , 19-H ) :   0.9462 B(  5-C ,  6-C ) :   1.1780
B(  5-C , 15-C ) :   1.2102 B(  6-C ,  7-C ) :   1.2991 B(  6-C , 12-C ) :   1.1918
B(  7-C ,  8-C ) :   1.2895 B(  7-C , 20-H ) :   1.0023 B(  8-C ,  9-C ) :   1.1948
B(  9-C , 10-C ) :   1.5147 B(  9-C , 21-H ) :   0.9904 B( 10-C , 11-C ) :   1.2105
B( 10-C , 22-H ) :   0.9835 B( 11-C , 23-H ) :   0.9794 B( 12-C , 13-C ) :   1.5195
B( 12-C , 24-H ) :   0.9907 B( 13-C , 14-C ) :   1.2027 B( 13-C , 25-H ) :   0.9837
B( 14-C , 15-C ) :   1.5267 B( 14-C , 26-H ) :   0.9801 B( 15-C , 27-H ) :   0.9765

Dispersion correction           -0.065576793
FINAL SINGLE POINT ENERGY      -616.548836116013

DIPOLE MOMENT
-------------
                                X             Y             Z
Electronic contribution:      0.50057      -3.42766       0.77396
Nuclear contribution   :     -0.46330       3.46833      -0.78281
                        -----------------------------------------
Total Dipole Moment    :      0.03727       0.04067      -0.00886
                        -----------------------------------------
Magnitude (a.u.)       :      0.05587
Magnitude (Debye)      :      0.14201

Rotational constants in cm-1:     0.032365     0.014765     0.010255
Rotational constants in MHz :   970.272646   442.647087   307.438035

                             ****ORCA TERMINATED NORMALLY****
TOTAL RUN TIME: 0 days 0 hours 15 minutes 16 seconds 508 msec
