                         Program Version 4.2.0 -  RELEASE  -
|  1> # ORCA input file
|  2> # SCF done        -37.310704331608          0.000999901684
|  3> ! B3LYP/G D3BJ Opt RIJCOSX def2-SVP def2/J
|  4> * xyz 0 1
|  5>    C       -1.56811        -1.21756         0.25444
|  6>    S       -2.72329         0.03333         0.38147
|  7>    C       -1.53408         1.24319         0.23857
|  8>    C       -0.27074         0.71283         0.09602
|  9>    C       -0.29350        -0.72968         0.10544
| 10>    C        0.94408        -1.43032        -0.03412
| 11>    N        1.00619        -2.84118        -0.03377
| 12>    O       -0.03119        -3.47477         0.09369
| 13>    O        2.10075        -3.36741        -0.16506
| 14>    C        2.11320        -0.70999        -0.17241
| 15>    C        2.13086         0.67927        -0.17981
| 16>    C        0.96506         1.41699        -0.04869
| 17>    N        0.98425         2.76982        -0.07001
| 18>    H       -1.87955        -2.24041         0.29487
| 19>    H       -1.83268         2.27218         0.26647
| 20>    H        3.03695        -1.25922        -0.27587
| 21>    H        3.07133         1.19713        -0.28980
| 22>    H        1.86118         3.25462        -0.12687
| 23>    H        0.14857         3.30032         0.08179
| 24> *
| 25>
| 26>                          ****END OF INPUT****
 Total Charge           Charge          ....    0
 Multiplicity           Mult            ....    1
 Number of Electrons    NEL             ....  100
Dispersion correction           -0.043991492
FINAL SINGLE POINT ENERGY      -966.022023316891
Dispersion correction            ... done
Dispersion correction           -0.043768403
FINAL SINGLE POINT ENERGY      -966.024929893279
Dispersion correction            ... done
Dispersion correction           -0.043751537
FINAL SINGLE POINT ENERGY      -966.025006907299
Dispersion correction            ... done
FINAL SINGLE POINT ENERGY      -966.024871474194
FINAL SINGLE POINT ENERGY      -966.025012542029
Dispersion correction            ... done
Dispersion correction           -0.043761244
FINAL SINGLE POINT ENERGY      -966.025095354712
Dispersion correction            ... done
Dispersion correction           -0.043756741
FINAL SINGLE POINT ENERGY      -966.025116448137
Dispersion correction            ... done
                    ***********************HURRAY********************

CARTESIAN COORDINATES (ANGSTROEM)
---------------------------------
  C     -1.594268   -1.223987    0.263666
  S     -2.734123    0.051134    0.397938
  C     -1.542361    1.266278    0.246002
  C     -0.274561    0.715350    0.097383
  C     -0.300472   -0.741262    0.108120
  C      0.950177   -1.436330   -0.033458
  N      1.022893   -2.883718   -0.056209
  O     -0.017669   -3.516772    0.108365
  O      2.115202   -3.410555   -0.238360
  C      2.124287   -0.718887   -0.150449
  C      2.146487    0.687556   -0.153393
  C      0.972122    1.431667   -0.049852
  N      0.974860    2.791189   -0.091914
  H     -1.908307   -2.261367    0.301570
  H     -1.834562    2.314638    0.271943
  H      3.051302   -1.282673   -0.248962
  H      3.102062    1.206643   -0.254432
  H      1.847027    3.297341   -0.145568
  H      0.129185    3.322896    0.043958

 Multiplicity           Mult            ....    1
 Number of Electrons    NEL             ....  100
 Basis Dimension        Dim             ....  216

ORBITAL ENERGIES
----------------

  NO   OCC          E(Eh)            E(eV)
   0   2.0000     -88.896683     -2419.0017
   1   2.0000     -19.137039      -520.7453
   2   2.0000     -19.134923      -520.6877
   3   2.0000     -14.536648      -395.5623
   4   2.0000     -14.375494      -391.1771
   5   2.0000     -10.267181      -279.3842
   6   2.0000     -10.232013      -278.4272
   7   2.0000     -10.228600      -278.3344
   8   2.0000     -10.219712      -278.0925
   9   2.0000     -10.217845      -278.0417
  10   2.0000     -10.217393      -278.0294
  11   2.0000     -10.212508      -277.8965
  12   2.0000     -10.199992      -277.5559
  13   2.0000      -7.991521      -217.4603
  14   2.0000      -5.959243      -162.1592
  15   2.0000      -5.954994      -162.0436
  16   2.0000      -5.953911      -162.0142
  17   2.0000      -1.195814       -32.5398
  18   2.0000      -1.019730       -27.7483
  19   2.0000      -0.951521       -25.8922
  20   2.0000      -0.900130       -24.4938
  21   2.0000      -0.847640       -23.0655
  22   2.0000      -0.784948       -21.3595
  23   2.0000      -0.750916       -20.4335
  24   2.0000      -0.729833       -19.8598
  25   2.0000      -0.679903       -18.5011
  26   2.0000      -0.618333       -16.8257
  27   2.0000      -0.606282       -16.4978
  28   2.0000      -0.579802       -15.7772
  29   2.0000      -0.563952       -15.3459
  30   2.0000      -0.536693       -14.6042
  31   2.0000      -0.522573       -14.2199
  32   2.0000      -0.517910       -14.0930
  33   2.0000      -0.492057       -13.3896
  34   2.0000      -0.475943       -12.9511
  35   2.0000      -0.469948       -12.7879
  36   2.0000      -0.439379       -11.9561
  37   2.0000      -0.429693       -11.6925
  38   2.0000      -0.417832       -11.3698
  39   2.0000      -0.406749       -11.0682
  40   2.0000      -0.381192       -10.3728
  41   2.0000      -0.380177       -10.3452
  42   2.0000      -0.365231        -9.9385
  43   2.0000      -0.335711        -9.1352
  44   2.0000      -0.290455        -7.9037
  45   2.0000      -0.289878        -7.8880
  46   2.0000      -0.270246        -7.3538
  47   2.0000      -0.267926        -7.2906
  48   2.0000      -0.266018        -7.2387
  49   2.0000      -0.208928        -5.6852
  50   0.0000      -0.084085        -2.2881
  51   0.0000      -0.039566        -1.0766
  52   0.0000       0.007894         0.2148
  53   0.0000       0.018939         0.5153
  54   0.0000       0.038892         1.0583

MULLIKEN ATOMIC CHARGES
-----------------------
   0 C :   -0.161638
   1 S :    0.152967
   2 C :   -0.203269
   3 C :    0.075416
   4 C :    0.065161
   5 C :    0.166543
   6 N :    0.236927
   7 O :   -0.274400
   8 O :   -0.269046
   9 C :   -0.031861
  10 C :   -0.070850
  11 C :    0.086934
  12 N :   -0.030768
  13 H :    0.048085
  14 H :    0.016262
  15 H :    0.001231
  16 H :   -0.041831
  17 H :    0.120024
  18 H :    0.114113
Sum of atomic charges:   -0.0000000

LOEWDIN ATOMIC CHARGES
----------------------
   0 C :   -0.194979
   1 S :    0.496465
   2 C :   -0.216458
   3 C :   -0.066676
   4 C :   -0.045753
   5 C :   -0.064931
   6 N :    0.278134
   7 O :   -0.230975
   8 O :   -0.233986
   9 C :    0.019795
  10 C :   -0.096527
  11 C :    0.060606
  12 N :    0.018065
  13 H :    0.031456
  14 H :    0.019184
  15 H :    0.041144
  16 H :    0.025002
  17 H :    0.082738
  18 H :    0.077696

  Mayer bond orders larger than 0.100000
B(  0-C ,  1-S ) :   1.1820 B(  0-C ,  2-C ) :   0.1057 B(  0-C ,  4-C ) :   1.4551
B(  0-C , 13-H ) :   0.9501 B(  1-S ,  2-C ) :   1.2209 B(  2-C ,  3-C ) :   1.3930
B(  2-C , 14-H ) :   0.9680 B(  3-C ,  4-C ) :   1.2243 B(  3-C , 11-C ) :   1.1206
B(  4-C ,  5-C ) :   1.1407 B(  5-C ,  6-N ) :   0.9244 B(  5-C ,  9-C ) :   1.4469
B(  6-N ,  7-O ) :   1.4823 B(  6-N ,  8-O ) :   1.5156 B(  7-O ,  8-O ) :   0.2517
B(  9-C , 10-C ) :   1.2314 B(  9-C , 15-H ) :   0.9729 B( 10-C , 11-C ) :   1.3575
B( 10-C , 16-H ) :   0.9924 B( 11-C , 12-N ) :   1.3520 B( 12-N , 17-H ) :   0.9366
B( 12-N , 18-H ) :   0.9418

Dispersion correction           -0.043757042
FINAL SINGLE POINT ENERGY      -966.025116575228

DIPOLE MOMENT
-------------
                                X             Y             Z
Electronic contribution:     -4.24954      -5.94285       0.48572
Nuclear contribution   :      4.00110       9.10790      -0.40719
                        -----------------------------------------
Total Dipole Moment    :     -0.24844       3.16505       0.07852
                        -----------------------------------------
Magnitude (a.u.)       :      3.17576
Magnitude (Debye)      :      8.07213

Rotational constants in cm-1:     0.033348     0.022032     0.013270
Rotational constants in MHz :   999.758279   660.510404   397.817869

                             ****ORCA TERMINATED NORMALLY****
TOTAL RUN TIME: 0 days 0 hours 11 minutes 10 seconds 674 msec
