                         Program Version 4.2.0 -  RELEASE  -
|  1> # ORCA input file
|  2> # SCF done        -36.120727913785          0.000530300441
|  3> ! B3LYP/G D3BJ Opt RIJCOSX def2-SVP def2/J
|  4> * xyz 0 1
|  5>    C        1.61007         1.26103         0.13697
|  6>    S        2.79109         0.01767         0.23739
|  7>    C        1.56489        -1.18743         0.20048
|  8>    C        0.31718        -0.65280         0.11424
|  9>    C        0.34503         0.77061         0.07595
| 10>    C       -0.89441         1.61901         0.06366
| 11>    N       -0.99500         2.28889         1.35751
| 12>    C       -2.11562         0.75711        -0.30372
| 13>    C       -2.13116        -0.55792         0.47055
| 14>    C       -0.96359        -1.43603         0.01809
| 15>    O       -1.24837        -1.83585        -1.31690
| 16>    C       -0.40327        -2.82903        -1.82897
| 17>    H        1.91576         2.28748         0.14028
| 18>    H        1.84397        -2.22090         0.26376
| 19>    H       -0.78197         2.41750        -0.68131
| 20>    H       -1.06029         1.60475         2.10402
| 21>    H       -1.82945         2.86513         1.38906
| 22>    H       -2.08570         0.52350        -1.36828
| 23>    H       -3.02832         1.32372        -0.10183
| 24>    H       -3.06201        -1.09165         0.27674
| 25>    H       -2.04984        -0.37985         1.54526
| 26>    H       -0.89207        -2.33917         0.65050
| 27>    H       -0.80252        -3.09215        -2.80676
| 28>    H       -0.40027        -3.71822        -1.18470
| 29>    H        0.62660        -2.47114        -1.94300
| 30> *
| 31>
| 32>                          ****END OF INPUT****
 Total Charge           Charge          ....    0
 Multiplicity           Mult            ....    1
 Number of Electrons    NEL             ....   98
Dispersion correction           -0.051350919
FINAL SINGLE POINT ENERGY      -878.514576338150
Dispersion correction            ... done
Dispersion correction           -0.050802701
FINAL SINGLE POINT ENERGY      -878.517075820706
Dispersion correction            ... done
Dispersion correction           -0.050730502
FINAL SINGLE POINT ENERGY      -878.517183802951
Dispersion correction            ... done
FINAL SINGLE POINT ENERGY      -878.517070406321
FINAL SINGLE POINT ENERGY      -878.517103379229
FINAL SINGLE POINT ENERGY      -878.517110086342
Dispersion correction            ... done
Dispersion correction           -0.050666211
FINAL SINGLE POINT ENERGY      -878.517089987153
Dispersion correction            ... done
Dispersion correction           -0.050661901
FINAL SINGLE POINT ENERGY      -878.517080819990
Dispersion correction            ... done
                    ***********************HURRAY********************

CARTESIAN COORDINATES (ANGSTROEM)
---------------------------------
  C      1.619365    1.280056    0.239369
  S      2.807486    0.037187    0.409409
  C      1.603967   -1.197478    0.281636
  C      0.344599   -0.670973    0.107613
  C      0.354025    0.768260    0.079766
  C     -0.904439    1.611294    0.021604
  N     -0.957758    2.437315    1.235221
  C     -2.151269    0.729826   -0.236869
  C     -2.108433   -0.615913    0.488177
  C     -0.939240   -1.460819   -0.017307
  O     -1.245910   -1.812373   -1.363098
  C     -0.450028   -2.828586   -1.909087
  H      1.902600    2.329645    0.296332
  H      1.886239   -2.246274    0.360565
  H     -0.817190    2.314932   -0.825087
  H     -0.931407    1.842345    2.064411
  H     -1.837694    2.953882    1.269085
  H     -2.242246    0.528141   -1.315844
  H     -3.045492    1.300578    0.064281
  H     -3.040542   -1.176369    0.317710
  H     -1.998966   -0.469981    1.576620
  H     -0.850809   -2.390147    0.578920
  H     -0.856320   -3.071089   -2.901886
  H     -0.477504   -3.747121   -1.286472
  H      0.607696   -2.522078   -2.026080

 Multiplicity           Mult            ....    1
 Number of Electrons    NEL             ....   98
 Basis Dimension        Dim             ....  237

ORBITAL ENERGIES
----------------

  NO   OCC          E(Eh)            E(eV)
   0   2.0000     -88.869921     -2418.2735
   1   2.0000     -19.131653      -520.5987
   2   2.0000     -14.304166      -389.2361
   3   2.0000     -10.239366      -278.6273
   4   2.0000     -10.228958      -278.3441
   5   2.0000     -10.215720      -277.9839
   6   2.0000     -10.207768      -277.7675
   7   2.0000     -10.202979      -277.6372
   8   2.0000     -10.188899      -277.2540
   9   2.0000     -10.187704      -277.2215
  10   2.0000     -10.184910      -277.1455
  11   2.0000     -10.178440      -276.9694
  12   2.0000      -7.965007      -216.7389
  13   2.0000      -5.933016      -161.4456
  14   2.0000      -5.928896      -161.3335
  15   2.0000      -5.926658      -161.2726
  16   2.0000      -1.023930       -27.8626
  17   2.0000      -0.889021       -24.1915
  18   2.0000      -0.862920       -23.4812
  19   2.0000      -0.797279       -21.6951
  20   2.0000      -0.734552       -19.9882
  21   2.0000      -0.726419       -19.7669
  22   2.0000      -0.696984       -18.9659
  23   2.0000      -0.657249       -17.8846
  24   2.0000      -0.610088       -16.6013
  25   2.0000      -0.581339       -15.8190
  26   2.0000      -0.566537       -15.4163
  27   2.0000      -0.516925       -14.0662
  28   2.0000      -0.512093       -13.9348
  29   2.0000      -0.490190       -13.3388
  30   2.0000      -0.471883       -12.8406
  31   2.0000      -0.458699       -12.4818
  32   2.0000      -0.441763       -12.0210
  33   2.0000      -0.438100       -11.9213
  34   2.0000      -0.425439       -11.5768
  35   2.0000      -0.404306       -11.0017
  36   2.0000      -0.400098       -10.8872
  37   2.0000      -0.394175       -10.7260
  38   2.0000      -0.383565       -10.4373
  39   2.0000      -0.372028       -10.1234
  40   2.0000      -0.350848        -9.5471
  41   2.0000      -0.342598        -9.3226
  42   2.0000      -0.335422        -9.1273
  43   2.0000      -0.328049        -8.9267
  44   2.0000      -0.308847        -8.4042
  45   2.0000      -0.260622        -7.0919
  46   2.0000      -0.244984        -6.6664
  47   2.0000      -0.242375        -6.5954
  48   2.0000      -0.226778        -6.1709
  49   0.0000      -0.018267        -0.4971
  50   0.0000       0.034609         0.9418
  51   0.0000       0.052678         1.4335
  52   0.0000       0.060016         1.6331
  53   0.0000       0.066788         1.8174

MULLIKEN ATOMIC CHARGES
-----------------------
   0 C :   -0.118965
   1 S :    0.095283
   2 C :   -0.144702
   3 C :   -0.031221
   4 C :   -0.026059
   5 C :    0.106084
   6 N :   -0.191706
   7 C :    0.063790
   8 C :    0.055866
   9 C :    0.239900
  10 O :   -0.382384
  11 C :    0.195559
  12 H :    0.017404
  13 H :    0.010442
  14 H :   -0.009330
  15 H :    0.082224
  16 H :    0.083265
  17 H :    0.009218
  18 H :   -0.025145
  19 H :   -0.002454
  20 H :   -0.008873
  21 H :   -0.030652
  22 H :    0.018206
  23 H :   -0.011331
  24 H :    0.005582
Sum of atomic charges:    0.0000000

LOEWDIN ATOMIC CHARGES
----------------------
   0 C :   -0.183923
   1 S :    0.428618
   2 C :   -0.202366
   3 C :   -0.081178
   4 C :   -0.065478
   5 C :    0.023440
   6 N :   -0.107079
   7 C :   -0.041857
   8 C :   -0.031714
   9 C :    0.077140
  10 O :   -0.168227
  11 C :    0.065406
  12 H :    0.026350
  13 H :    0.020084
  14 H :    0.025316
  15 H :    0.049554
  16 H :    0.049501
  17 H :    0.026166
  18 H :    0.014512
  19 H :    0.025776
  20 H :    0.017656
  21 H :    0.007496
  22 H :    0.020339
  23 H :    0.000368
  24 H :    0.004100

  Mayer bond orders larger than 0.100000
B(  0-C ,  1-S ) :   1.1654 B(  0-C ,  4-C ) :   1.5572 B(  0-C , 12-H ) :   0.9596
B(  1-S ,  2-C ) :   1.1627 B(  2-C ,  3-C ) :   1.5307 B(  2-C , 13-H ) :   0.9637
B(  3-C ,  4-C ) :   1.3119 B(  3-C ,  9-C ) :   0.9754 B(  4-C ,  5-C ) :   0.9986
B(  5-C ,  6-N ) :   1.1002 B(  5-C ,  7-C ) :   1.0464 B(  5-C , 14-H ) :   0.8905
B(  6-N , 15-H ) :   0.9667 B(  6-N , 16-H ) :   0.9672 B(  7-C ,  8-C ) :   1.0680
B(  7-C , 17-H ) :   0.9173 B(  7-C , 18-H ) :   0.9288 B(  8-C ,  9-C ) :   1.0588
B(  8-C , 19-H ) :   0.9195 B(  8-C , 20-H ) :   0.9328 B(  9-C , 10-O ) :   1.0087
B(  9-C , 21-H ) :   0.9084 B( 10-O , 11-C ) :   1.0015 B( 11-C , 22-H ) :   0.9770
B( 11-C , 23-H ) :   0.9575 B( 11-C , 24-H ) :   0.9602

Dispersion correction           -0.050658295
FINAL SINGLE POINT ENERGY      -878.517076485727

DIPOLE MOMENT
-------------
                                X             Y             Z
Electronic contribution:     11.67993       1.96369       1.66540
Nuclear contribution   :    -11.96483      -2.32385      -1.43547
                        -----------------------------------------
Total Dipole Moment    :     -0.28489      -0.36016       0.22993
                        -----------------------------------------
Magnitude (a.u.)       :      0.51356
Magnitude (Debye)      :      1.30538

Rotational constants in cm-1:     0.032688     0.027660     0.016522
Rotational constants in MHz :   979.959746   829.217892   495.313352

                             ****ORCA TERMINATED NORMALLY****
TOTAL RUN TIME: 0 days 0 hours 13 minutes 44 seconds 672 msec
