                         Program Version 4.2.0 -  RELEASE  -
|  1> # ORCA input file
|  2> # SCF done        -51.122946023046          0.000923439301
|  3> ! B3LYP/G D3BJ Opt RIJCOSX def2-SVP def2/J
|  4> * xyz 0 1
|  5>    C        1.60299        -0.95917         1.16143
|  6>    S        2.81360         0.22719         0.93799
|  7>    C        1.67892         1.31558         0.19009
|  8>    C        0.42272         0.75539         0.14986
|  9>    C        0.38681        -0.54827         0.70687
| 10>    C       -0.86277        -1.36948         0.81904
| 11>    C       -1.97449        -0.83835        -0.08997
| 12>    C       -1.74844        -1.27968        -1.53229
| 13>    F       -1.95175        -2.60040        -1.66182
| 14>    F       -2.60322        -0.68092        -2.38066
| 15>    F       -0.52191        -1.04356        -2.00726
| 16>    C       -2.08619         0.69308         0.02461
| 17>    C       -2.38225         1.03333         1.39995
| 18>    N       -2.60650         1.30653         2.48595
| 19>    C       -0.79886         1.41037        -0.41541
| 20>    C        2.18616         2.59115        -0.24830
| 21>    C        1.61115         3.45719        -1.07819
| 22>    H        1.85020        -1.89624         1.61885
| 23>    H       -1.21898        -1.33569         1.85346
| 24>    H       -0.64921        -2.41404         0.57912
| 25>    H       -2.93149        -1.29025         0.19841
| 26>    H       -2.92373         1.04787        -0.58910
| 27>    H       -0.84287         2.45343        -0.08931
| 28>    H       -0.74582         1.40499        -1.50846
| 29>    H        3.16507         2.82642         0.15148
| 30>    H        0.66400         3.28449        -1.55379
| 31>    H        2.10308         4.38167        -1.32654
| 32> *
| 33>
| 34>                          ****END OF INPUT****
 Total Charge           Charge          ....    0
 Multiplicity           Mult            ....    1
 Number of Electrons    NEL             ....  132
Dispersion correction           -0.063905548
FINAL SINGLE POINT ENERGY     -1215.087997266152
Dispersion correction            ... done
Dispersion correction           -0.063185279
FINAL SINGLE POINT ENERGY     -1215.092135069436
Dispersion correction            ... done
Dispersion correction           -0.063032012
FINAL SINGLE POINT ENERGY     -1215.092337413922
Dispersion correction            ... done
FINAL SINGLE POINT ENERGY     -1215.092346205644
FINAL SINGLE POINT ENERGY     -1215.092317833154
FINAL SINGLE POINT ENERGY     -1215.092322217515
FINAL SINGLE POINT ENERGY     -1215.092275740364
FINAL SINGLE POINT ENERGY     -1215.092209461603
FINAL SINGLE POINT ENERGY     -1215.092035360013
FINAL SINGLE POINT ENERGY     -1215.091652121330
FINAL SINGLE POINT ENERGY     -1215.091872965010
FINAL SINGLE POINT ENERGY     -1215.091845526692
Dispersion correction            ... done
Dispersion correction           -0.063233624
FINAL SINGLE POINT ENERGY     -1215.091808127466
Dispersion correction            ... done
Dispersion correction           -0.063238023
FINAL SINGLE POINT ENERGY     -1215.091778381095
Dispersion correction            ... done
                    ***********************HURRAY********************

CARTESIAN COORDINATES (ANGSTROEM)
---------------------------------
  C      1.646161   -0.940101    1.229547
  S      2.825700    0.308066    1.086525
  C      1.695169    1.371545    0.289080
  C      0.453033    0.764128    0.171249
  C      0.430228   -0.565585    0.707273
  C     -0.816376   -1.416928    0.743077
  C     -1.969551   -0.840951   -0.099813
  C     -1.857647   -1.245019   -1.565841
  F     -2.188817   -2.537592   -1.720450
  F     -2.681237   -0.521059   -2.351119
  F     -0.613241   -1.091065   -2.051632
  C     -2.064655    0.697506    0.057364
  C     -2.366714    1.013328    1.457922
  N     -2.590878    1.239977    2.571126
  C     -0.774540    1.403735   -0.415321
  C      2.158714    2.676604   -0.163199
  C      1.663932    3.380915   -1.195008
  H      1.903419   -1.885076    1.705528
  H     -1.173756   -1.491114    1.782739
  H     -0.595196   -2.445592    0.418532
  H     -2.914596   -1.287679    0.242308
  H     -2.910688    1.062016   -0.544664
  H     -0.815817    2.471501   -0.151027
  H     -0.752262    1.355207   -1.516085
  H      3.006263    3.094731    0.392017
  H      0.857896    3.005617   -1.827179
  H      2.081676    4.355515   -1.456941

 Multiplicity           Mult            ....    1
 Number of Electrons    NEL             ....  132
 Basis Dimension        Dim             ....  292

ORBITAL ENERGIES
----------------

  NO   OCC          E(Eh)            E(eV)
   0   2.0000     -88.879359     -2418.5303
   1   2.0000     -24.735222      -673.0796
   2   2.0000     -24.733755      -673.0397
   3   2.0000     -24.732721      -673.0115
   4   2.0000     -14.334477      -390.0610
   5   2.0000     -10.445744      -284.2431
   6   2.0000     -10.258977      -279.1610
   7   2.0000     -10.245001      -278.7806
   8   2.0000     -10.233956      -278.4801
   9   2.0000     -10.223270      -278.1893
  10   2.0000     -10.222316      -278.1634
  11   2.0000     -10.221426      -278.1392
  12   2.0000     -10.216873      -278.0152
  13   2.0000     -10.212056      -277.8842
  14   2.0000     -10.208212      -277.7796
  15   2.0000     -10.207612      -277.7632
  16   2.0000     -10.198181      -277.5066
  17   2.0000      -7.974475      -216.9965
  18   2.0000      -5.942444      -161.7021
  19   2.0000      -5.938541      -161.5959
  20   2.0000      -5.935928      -161.5248
  21   2.0000      -1.312847       -35.7244
  22   2.0000      -1.220856       -33.2212
  23   2.0000      -1.220244       -33.2045
  24   2.0000      -0.912999       -24.8440
  25   2.0000      -0.895567       -24.3696
  26   2.0000      -0.862656       -23.4741
  27   2.0000      -0.802361       -21.8334
  28   2.0000      -0.782472       -21.2921
  29   2.0000      -0.763507       -20.7761
  30   2.0000      -0.726998       -19.7826
  31   2.0000      -0.696833       -18.9618
  32   2.0000      -0.664904       -18.0929
  33   2.0000      -0.652809       -17.7638
  34   2.0000      -0.611310       -16.6346
  35   2.0000      -0.608893       -16.5688
  36   2.0000      -0.605862       -16.4863
  37   2.0000      -0.574658       -15.6372
  38   2.0000      -0.559349       -15.2207
  39   2.0000      -0.534862       -14.5543
  40   2.0000      -0.512187       -13.9373
  41   2.0000      -0.498335       -13.5604
  42   2.0000      -0.485109       -13.2005
  43   2.0000      -0.483656       -13.1609
  44   2.0000      -0.473436       -12.8828
  45   2.0000      -0.467562       -12.7230
  46   2.0000      -0.459542       -12.5048
  47   2.0000      -0.453806       -12.3487
  48   2.0000      -0.439053       -11.9472
  49   2.0000      -0.433749       -11.8029
  50   2.0000      -0.432623       -11.7723
  51   2.0000      -0.424052       -11.5390
  52   2.0000      -0.423017       -11.5109
  53   2.0000      -0.411956       -11.2099
  54   2.0000      -0.390138       -10.6162
  55   2.0000      -0.384936       -10.4746
  56   2.0000      -0.373704       -10.1690
  57   2.0000      -0.373111       -10.1529
  58   2.0000      -0.364326        -9.9138
  59   2.0000      -0.360091        -9.7986
  60   2.0000      -0.351117        -9.5544
  61   2.0000      -0.334923        -9.1137
  62   2.0000      -0.334591        -9.1047
  63   2.0000      -0.304408        -8.2834
  64   2.0000      -0.254083        -6.9139
  65   2.0000      -0.226423        -6.1613
  66   0.0000      -0.051646        -1.4054
  67   0.0000       0.005786         0.1574
  68   0.0000       0.020439         0.5562
  69   0.0000       0.023531         0.6403
  70   0.0000       0.029871         0.8128

MULLIKEN ATOMIC CHARGES
-----------------------
   0 C :   -0.132523
   1 S :    0.117734
   2 C :   -0.165596
   3 C :   -0.012408
   4 C :   -0.035786
   5 C :    0.150503
   6 C :   -0.148601
   7 C :    0.543061
   8 F :   -0.166478
   9 F :   -0.175484
  10 F :   -0.167124
  11 C :   -0.068011
  12 C :   -0.218110
  13 N :    0.088514
  14 C :    0.123562
  15 C :    0.011084
  16 C :   -0.029311
  17 H :    0.015257
  18 H :    0.041058
  19 H :    0.024705
  20 H :    0.033718
  21 H :    0.041094
  22 H :    0.037262
  23 H :    0.046483
  24 H :    0.000803
  25 H :    0.018466
  26 H :    0.026126
Sum of atomic charges:   -0.0000000

LOEWDIN ATOMIC CHARGES
----------------------
   0 C :   -0.193819
   1 S :    0.441894
   2 C :   -0.180273
   3 C :   -0.062103
   4 C :   -0.065945
   5 C :   -0.012544
   6 C :   -0.049844
   7 C :    0.173252
   8 F :   -0.059271
   9 F :   -0.065156
  10 F :   -0.055764
  11 C :   -0.041612
  12 C :   -0.028455
  13 N :   -0.067423
  14 C :   -0.010154
  15 C :   -0.040402
  16 C :   -0.047365
  17 H :    0.024444
  18 H :    0.045213
  19 H :    0.038107
  20 H :    0.047036
  21 H :    0.054157
  22 H :    0.042415
  23 H :    0.033076
  24 H :    0.030791
  25 H :    0.021790
  26 H :    0.027953

  Mayer bond orders larger than 0.100000
B(  0-C ,  1-S ) :   1.1607 B(  0-C ,  4-C ) :   1.5441 B(  0-C , 17-H ) :   0.9661
B(  1-S ,  2-C ) :   1.1336 B(  2-C ,  3-C ) :   1.5152 B(  2-C , 15-C ) :   1.0903
B(  3-C ,  4-C ) :   1.2885 B(  3-C , 14-C ) :   1.0580 B(  4-C ,  5-C ) :   1.0255
B(  5-C ,  6-C ) :   1.0341 B(  5-C , 18-H ) :   0.9064 B(  5-C , 19-H ) :   0.9165
B(  6-C ,  7-C ) :   0.9901 B(  6-C , 11-C ) :   1.0274 B(  6-C , 20-H ) :   0.8957
B(  7-C ,  8-F ) :   1.1423 B(  7-C ,  9-F ) :   1.1146 B(  7-C , 10-F ) :   1.1274
B( 11-C , 12-C ) :   1.0793 B( 11-C , 14-C ) :   1.0397 B( 11-C , 21-H ) :   0.8592
B( 12-C , 13-N ) :   3.0771 B( 14-C , 22-H ) :   0.9094 B( 14-C , 23-H ) :   0.8934
B( 15-C , 16-C ) :   1.9223 B( 15-C , 24-H ) :   0.9496 B( 16-C , 25-H ) :   0.9537
B( 16-C , 26-H ) :   0.9424

Dispersion correction           -0.063237527
FINAL SINGLE POINT ENERGY     -1215.091784738554

DIPOLE MOMENT
-------------
                                X             Y             Z
Electronic contribution:     -5.37199     -10.94306      -6.17867
Nuclear contribution   :      5.61511      10.74105       5.57434
                        -----------------------------------------
Total Dipole Moment    :      0.24312      -0.20201      -0.60433
                        -----------------------------------------
Magnitude (a.u.)       :      0.68201
Magnitude (Debye)      :      1.73353

Rotational constants in cm-1:     0.020327     0.010382     0.010045
Rotational constants in MHz :   609.394894   311.241584   301.132172

                             ****ORCA TERMINATED NORMALLY****
TOTAL RUN TIME: 0 days 0 hours 36 minutes 43 seconds 580 msec
