                         Program Version 4.2.0 -  RELEASE  -
|  1> # ORCA input file
|  2> # SCF done        -25.405579112055          0.000586129917
|  3> ! B3LYP/G D3BJ Opt RIJCOSX def2-SVP def2/J
|  4> * xyz 0 1
|  5>    C        2.29534         0.58464        -0.11727
|  6>    C        2.08176        -0.72456        -0.12845
|  7>    O        0.89412        -1.38874        -0.09136
|  8>    C       -0.25661        -0.65705        -0.04794
|  9>    C       -1.47693        -1.25624        -0.02178
| 10>    S       -2.76107        -0.11107         0.03364
| 11>    C       -1.64017         1.19653         0.01837
| 12>    C       -0.35463         0.76562        -0.02428
| 13>    S        1.05019         1.83165        -0.04903
| 14>    H        3.28992         0.98969        -0.15012
| 15>    H        2.89996        -1.42900        -0.17059
| 16>    H       -1.68235        -2.30666        -0.03107
| 17>    H       -1.98922         2.20838         0.04288
| 18> *
| 19>
| 20>                          ****END OF INPUT****
 Total Charge           Charge          ....    0
 Multiplicity           Mult            ....    1
 Number of Electrons    NEL             ....   80
Dispersion correction           -0.031057418
FINAL SINGLE POINT ENERGY     -1102.185278233511
Dispersion correction            ... done
Dispersion correction           -0.030995035
FINAL SINGLE POINT ENERGY     -1102.187018602652
Dispersion correction            ... done
Dispersion correction           -0.030985658
FINAL SINGLE POINT ENERGY     -1102.187133245182
Dispersion correction            ... done
FINAL SINGLE POINT ENERGY     -1102.187165399884
Dispersion correction            ... done
Dispersion correction           -0.030990322
FINAL SINGLE POINT ENERGY     -1102.187172687763
Dispersion correction            ... done
Dispersion correction           -0.030992865
FINAL SINGLE POINT ENERGY     -1102.187177797710
Dispersion correction            ... done
                    ***********************HURRAY********************

CARTESIAN COORDINATES (ANGSTROEM)
---------------------------------
  C      2.301718    0.592452   -0.111712
  C      2.097062   -0.729429   -0.130379
  O      0.895415   -1.380130   -0.098119
  C     -0.265106   -0.659105   -0.049373
  C     -1.489662   -1.270950   -0.016730
  S     -2.778496   -0.114209    0.036748
  C     -1.656616    1.208289    0.015814
  C     -0.355914    0.778039   -0.027886
  S      1.057012    1.845550   -0.044042
  H      3.321490    0.977537   -0.146112
  H      2.921737   -1.440919   -0.178386
  H     -1.685986   -2.340678   -0.025541
  H     -2.012345    2.236743    0.038718

 Multiplicity           Mult            ....    1
 Number of Electrons    NEL             ....   80
 Basis Dimension        Dim             ....  154

ORBITAL ENERGIES
----------------

  NO   OCC          E(Eh)            E(eV)
   0   2.0000     -88.880755     -2418.5683
   1   2.0000     -88.866590     -2418.1829
   2   2.0000     -19.192026      -522.2416
   3   2.0000     -10.264331      -279.3067
   4   2.0000     -10.257731      -279.1270
   5   2.0000     -10.229433      -278.3570
   6   2.0000     -10.221226      -278.1337
   7   2.0000     -10.217956      -278.0447
   8   2.0000     -10.215225      -277.9704
   9   2.0000      -7.975549      -217.0257
  10   2.0000      -7.961270      -216.6372
  11   2.0000      -5.943830      -161.7398
  12   2.0000      -5.939873      -161.6322
  13   2.0000      -5.936474      -161.5397
  14   2.0000      -5.930514      -161.3775
  15   2.0000      -5.926680      -161.2732
  16   2.0000      -5.919984      -161.0910
  17   2.0000      -1.089057       -29.6347
  18   2.0000      -0.890926       -24.2433
  19   2.0000      -0.826568       -22.4921
  20   2.0000      -0.768393       -20.9090
  21   2.0000      -0.730620       -19.8812
  22   2.0000      -0.685147       -18.6438
  23   2.0000      -0.631923       -17.1955
  24   2.0000      -0.590783       -16.0760
  25   2.0000      -0.536112       -14.5884
  26   2.0000      -0.505261       -13.7489
  27   2.0000      -0.499752       -13.5989
  28   2.0000      -0.458451       -12.4751
  29   2.0000      -0.455442       -12.3932
  30   2.0000      -0.417946       -11.3729
  31   2.0000      -0.400834       -10.9072
  32   2.0000      -0.385463       -10.4890
  33   2.0000      -0.381215       -10.3734
  34   2.0000      -0.360141        -9.7999
  35   2.0000      -0.337648        -9.1879
  36   2.0000      -0.335089        -9.1182
  37   2.0000      -0.278698        -7.5838
  38   2.0000      -0.239536        -6.5181
  39   2.0000      -0.193535        -5.2664
  40   0.0000      -0.022853        -0.6219
  41   0.0000      -0.002899        -0.0789
  42   0.0000       0.031384         0.8540
  43   0.0000       0.034841         0.9481
  44   0.0000       0.063179         1.7192

MULLIKEN ATOMIC CHARGES
-----------------------
   0 C :   -0.109102
   1 C :    0.164868
   2 O :   -0.255302
   3 C :    0.225505
   4 C :   -0.151474
   5 S :    0.104609
   6 C :   -0.132856
   7 C :   -0.041251
   8 S :    0.080791
   9 H :    0.040795
  10 H :    0.021483
  11 H :    0.025300
  12 H :    0.026635
Sum of atomic charges:   -0.0000000

LOEWDIN ATOMIC CHARGES
----------------------
   0 C :   -0.227163
   1 C :    0.027998
   2 O :   -0.058504
   3 C :    0.003683
   4 C :   -0.215447
   5 S :    0.429975
   6 C :   -0.210086
   7 C :   -0.213661
   8 S :    0.335738
   9 H :    0.036515
  10 H :    0.032496
  11 H :    0.031226
  12 H :    0.027229

  Mayer bond orders larger than 0.100000
B(  0-C ,  1-C ) :   1.8147 B(  0-C ,  8-S ) :   1.0155 B(  0-C ,  9-H ) :   0.9392
B(  1-C ,  2-O ) :   1.0584 B(  1-C , 10-H ) :   0.9736 B(  2-O ,  3-C ) :   1.0619
B(  3-C ,  4-C ) :   1.5782 B(  3-C ,  7-C ) :   1.2282 B(  4-C ,  5-S ) :   1.1335
B(  4-C , 11-H ) :   0.9638 B(  5-S ,  6-C ) :   1.1597 B(  6-C ,  7-C ) :   1.5710
B(  6-C , 12-H ) :   0.9660 B(  7-C ,  8-S ) :   0.9795

Dispersion correction           -0.030992628
FINAL SINGLE POINT ENERGY     -1102.187177361167

DIPOLE MOMENT
-------------
                                X             Y             Z
Electronic contribution:     -2.99243       1.30872       0.13778
Nuclear contribution   :      3.18001      -1.35993      -0.15169
                        -----------------------------------------
Total Dipole Moment    :      0.18758      -0.05121      -0.01390
                        -----------------------------------------
Magnitude (a.u.)       :      0.19494
Magnitude (Debye)      :      0.49550

Rotational constants in cm-1:     0.085209     0.033374     0.023982
Rotational constants in MHz :  2554.512732  1000.534460   718.950685

                             ****ORCA TERMINATED NORMALLY****
TOTAL RUN TIME: 0 days 0 hours 3 minutes 34 seconds 33 msec
