                         Program Version 4.2.0 -  RELEASE  -
|  1> # ORCA input file
|  2> # SCF done        -51.547548673895          0.000345307341
|  3> ! B3LYP/G D3BJ Opt RIJCOSX def2-SVP def2/J
|  4> * xyz 0 1
|  5>    C        0.14010        -2.13892        -0.56650
|  6>    C        1.49665        -2.09295        -0.43800
|  7>    C        2.11740        -0.98245         0.14377
|  8>    C        1.37766         0.09187         0.58134
|  9>    O        1.90911         1.17773         1.20857
| 10>    C        3.30092         1.28235         1.41458
| 11>    C        4.05080         1.73625         0.16424
| 12>    C       -0.04354         0.09747         0.42541
| 13>    C       -0.65171        -1.05721        -0.13127
| 14>    C       -2.07189        -1.12857        -0.24204
| 15>    O       -2.55651        -2.26772        -0.80908
| 16>    C       -3.95247        -2.41234        -0.96229
| 17>    C       -4.20530        -3.74478        -1.65077
| 18>    C       -2.84327        -0.08888         0.21372
| 19>    C       -2.23326         1.05096         0.74311
| 20>    C       -0.86733         1.18235         0.83945
| 21>    C       -0.33063         2.45725         1.32483
| 22>    C       -0.76640         3.06966         2.41528
| 23>    H       -0.35333        -2.99637        -0.99362
| 24>    H        2.10939        -2.91745        -0.77165
| 25>    H        3.19030        -0.99856         0.25070
| 26>    H        3.71218         0.34046         1.79813
| 27>    H        3.39835         2.04094         2.19724
| 28>    H        3.93308         1.01843        -0.64372
| 29>    H        5.10825         1.84499         0.39003
| 30>    H        3.66172         2.69462        -0.17082
| 31>    H       -4.35354        -1.58968        -1.57112
| 32>    H       -4.44478        -2.39345         0.02040
| 33>    H       -3.71441        -3.75962        -2.62009
| 34>    H       -5.27249        -3.89387        -1.78834
| 35>    H       -3.80583        -4.55564        -1.04785
| 36>    H       -3.92009        -0.11993         0.15869
| 37>    H       -2.86033         1.87175         1.05900
| 38>    H        0.43786         2.91419         0.71786
| 39>    H       -1.51184         2.62568         3.05489
| 40>    H       -0.37941         4.02563         2.72489
| 41> *
| 42>
| 43>                          ****END OF INPUT****
 Total Charge           Charge          ....    0
 Multiplicity           Mult            ....    1
 Number of Electrons    NEL             ....  130
Dispersion correction           -0.072228353
FINAL SINGLE POINT ENERGY      -770.477032026208
Dispersion correction            ... done
Dispersion correction           -0.071638484
FINAL SINGLE POINT ENERGY      -770.481311023340
Dispersion correction            ... done
Dispersion correction           -0.071556122
FINAL SINGLE POINT ENERGY      -770.481521849443
Dispersion correction            ... done
FINAL SINGLE POINT ENERGY      -770.481444460945
FINAL SINGLE POINT ENERGY      -770.481341679615
FINAL SINGLE POINT ENERGY      -770.481053098579
FINAL SINGLE POINT ENERGY      -770.480647874216
FINAL SINGLE POINT ENERGY      -770.480443986258
FINAL SINGLE POINT ENERGY      -770.480502193406
FINAL SINGLE POINT ENERGY      -770.480544905026
Dispersion correction            ... done
Dispersion correction           -0.071815806
FINAL SINGLE POINT ENERGY      -770.480511486062
Dispersion correction            ... done
Dispersion correction           -0.071826421
FINAL SINGLE POINT ENERGY      -770.480516340289
Dispersion correction            ... done
                    ***********************HURRAY********************

CARTESIAN COORDINATES (ANGSTROEM)
---------------------------------
  C      0.155051   -2.226309   -0.377188
  C      1.512898   -2.241809   -0.157292
  C      2.151778   -1.131803    0.432535
  C      1.428479   -0.006669    0.797902
  O      2.011383    1.072862    1.384412
  C      3.398044    1.335354    1.224867
  C      3.756496    1.737078   -0.200341
  C      0.005454    0.058665    0.590929
  C     -0.613695   -1.090484   -0.010166
  C     -2.028984   -1.090012   -0.250525
  O     -2.517991   -2.212719   -0.829536
  C     -3.896005   -2.309205   -1.144609
  C     -4.135549   -3.690238   -1.722439
  C     -2.792146    0.008169    0.093742
  C     -2.175074    1.122496    0.698420
  C     -0.814357    1.186516    0.965055
  C     -0.301668    2.415252    1.612109
  C     -0.889141    3.008106    2.659877
  H     -0.355375   -3.071149   -0.836243
  H      2.108361   -3.113176   -0.439904
  H      3.226074   -1.168160    0.612397
  H      4.004087    0.478438    1.568453
  H      3.598773    2.164054    1.919323
  H      3.612559    0.906489   -0.906531
  H      4.808893    2.058384   -0.253393
  H      3.123520    2.575198   -0.529277
  H     -4.172706   -1.518273   -1.866915
  H     -4.505056   -2.149988   -0.235796
  H     -3.501435   -3.852351   -2.606509
  H     -5.188090   -3.807062   -2.023163
  H     -3.892329   -4.464191   -0.979182
  H     -3.862619    0.037682   -0.106844
  H     -2.791017    1.989962    0.942046
  H      0.596964    2.863155    1.187749
  H     -1.760199    2.566753    3.153533
  H     -0.499972    3.943174    3.071476

 Multiplicity           Mult            ....    1
 Number of Electrons    NEL             ....  130
 Basis Dimension        Dim             ....  342

ORBITAL ENERGIES
----------------

  NO   OCC          E(Eh)            E(eV)
   0   2.0000     -19.163945      -521.4774
   1   2.0000     -19.158259      -521.3227
   2   2.0000     -10.248038      -278.8633
   3   2.0000     -10.247532      -278.8495
   4   2.0000     -10.246821      -278.8302
   5   2.0000     -10.245509      -278.7945
   6   2.0000     -10.196193      -277.4525
   7   2.0000     -10.191820      -277.3335
   8   2.0000     -10.190113      -277.2871
   9   2.0000     -10.189082      -277.2590
  10   2.0000     -10.187510      -277.2162
  11   2.0000     -10.185695      -277.1668
  12   2.0000     -10.183090      -277.0960
  13   2.0000     -10.182143      -277.0702
  14   2.0000     -10.182045      -277.0675
  15   2.0000     -10.178954      -276.9834
  16   2.0000     -10.175947      -276.9016
  17   2.0000     -10.169527      -276.7269
  18   2.0000      -1.060628       -28.8612
  19   2.0000      -1.055014       -28.7084
  20   2.0000      -0.860169       -23.4064
  21   2.0000      -0.813124       -22.1262
  22   2.0000      -0.790616       -21.5137
  23   2.0000      -0.766122       -20.8472
  24   2.0000      -0.752871       -20.4867
  25   2.0000      -0.732853       -19.9420
  26   2.0000      -0.724086       -19.7034
  27   2.0000      -0.689346       -18.7581
  28   2.0000      -0.647258       -17.6128
  29   2.0000      -0.642675       -17.4881
  30   2.0000      -0.616092       -16.7647
  31   2.0000      -0.596247       -16.2247
  32   2.0000      -0.577914       -15.7258
  33   2.0000      -0.547070       -14.8865
  34   2.0000      -0.539324       -14.6757
  35   2.0000      -0.517730       -14.0881
  36   2.0000      -0.500037       -13.6067
  37   2.0000      -0.489074       -13.3084
  38   2.0000      -0.485098       -13.2002
  39   2.0000      -0.478922       -13.0321
  40   2.0000      -0.464426       -12.6377
  41   2.0000      -0.452051       -12.3009
  42   2.0000      -0.443820       -12.0770
  43   2.0000      -0.433688       -11.8013
  44   2.0000      -0.422249       -11.4900
  45   2.0000      -0.407228       -11.0812
  46   2.0000      -0.405929       -11.0459
  47   2.0000      -0.400696       -10.9035
  48   2.0000      -0.396811       -10.7978
  49   2.0000      -0.394469       -10.7340
  50   2.0000      -0.384636       -10.4665
  51   2.0000      -0.379888       -10.3373
  52   2.0000      -0.378674       -10.3042
  53   2.0000      -0.366134        -9.9630
  54   2.0000      -0.353950        -9.6315
  55   2.0000      -0.350852        -9.5472
  56   2.0000      -0.337158        -9.1745
  57   2.0000      -0.327362        -8.9080
  58   2.0000      -0.321241        -8.7414
  59   2.0000      -0.316812        -8.6209
  60   2.0000      -0.303165        -8.2495
  61   2.0000      -0.262098        -7.1320
  62   2.0000      -0.245839        -6.6896
  63   2.0000      -0.234527        -6.3818
  64   2.0000      -0.190147        -5.1742
  65   0.0000      -0.033730        -0.9178
  66   0.0000      -0.013655        -0.3716
  67   0.0000       0.015113         0.4112
  68   0.0000       0.052138         1.4188
  69   0.0000       0.057741         1.5712

MULLIKEN ATOMIC CHARGES
-----------------------
   0 C :   -0.017416
   1 C :    0.040590
   2 C :   -0.072782
   3 C :    0.145011
   4 O :   -0.328956
   5 C :    0.179981
   6 C :   -0.021048
   7 C :    0.094063
   8 C :    0.002686
   9 C :    0.205180
  10 O :   -0.314396
  11 C :    0.158976
  12 C :    0.015166
  13 C :   -0.100247
  14 C :   -0.038525
  15 C :    0.019044
  16 C :    0.001780
  17 C :   -0.029971
  18 H :   -0.028740
  19 H :   -0.025106
  20 H :   -0.033359
  21 H :    0.010785
  22 H :    0.017369
  23 H :    0.029584
  24 H :    0.017709
  25 H :    0.025003
  26 H :    0.007926
  27 H :    0.013477
  28 H :    0.025165
  29 H :    0.013742
  30 H :    0.027588
  31 H :   -0.030928
  32 H :   -0.026669
  33 H :   -0.002249
  34 H :    0.010254
  35 H :    0.009312
Sum of atomic charges:    0.0000000

LOEWDIN ATOMIC CHARGES
----------------------
   0 C :   -0.033124
   1 C :   -0.023246
   2 C :   -0.081511
   3 C :    0.062348
   4 O :   -0.089701
   5 C :    0.084938
   6 C :   -0.070937
   7 C :   -0.023986
   8 C :   -0.028331
   9 C :    0.060318
  10 O :   -0.092844
  11 C :    0.086281
  12 C :   -0.060060
  13 C :   -0.087579
  14 C :   -0.013885
  15 C :   -0.032970
  16 C :   -0.011854
  17 C :   -0.066155
  18 H :    0.025242
  19 H :    0.025838
  20 H :    0.024400
  21 H :    0.009496
  22 H :    0.024565
  23 H :    0.028291
  24 H :    0.030925
  25 H :    0.029526
  26 H :    0.010743
  27 H :    0.011700
  28 H :    0.029432
  29 H :    0.030057
  30 H :    0.029903
  31 H :    0.025916
  32 H :    0.026791
  33 H :    0.022776
  34 H :    0.017532
  35 H :    0.019165

  Mayer bond orders larger than 0.100000
B(  0-C ,  1-C ) :   1.4392 B(  0-C ,  8-C ) :   1.2684 B(  0-C , 18-H ) :   0.9857
B(  1-C ,  2-C ) :   1.2492 B(  1-C , 19-H ) :   0.9789 B(  2-C ,  3-C ) :   1.4177
B(  2-C , 20-H ) :   0.9793 B(  3-C ,  4-O ) :   1.1139 B(  3-C ,  7-C ) :   1.2160
B(  4-O ,  5-C ) :   0.9486 B(  5-C ,  6-C ) :   1.1171 B(  5-C , 21-H ) :   0.9427
B(  5-C , 22-H ) :   0.9529 B(  6-C , 23-H ) :   0.9617 B(  6-C , 24-H ) :   0.9583
B(  6-C , 25-H ) :   0.9638 B(  7-C ,  8-C ) :   1.2863 B(  7-C , 15-C ) :   1.2105
B(  8-C ,  9-C ) :   1.2113 B(  9-C , 10-O ) :   1.1700 B(  9-C , 13-C ) :   1.3903
B( 10-O , 11-C ) :   0.9419 B( 11-C , 12-C ) :   1.1044 B( 11-C , 26-H ) :   0.9449
B( 11-C , 27-H ) :   0.9434 B( 12-C , 28-H ) :   0.9657 B( 12-C , 29-H ) :   0.9584
B( 12-C , 30-H ) :   0.9674 B( 13-C , 14-C ) :   1.2108 B( 13-C , 31-H ) :   0.9912
B( 14-C , 15-C ) :   1.4749 B( 14-C , 32-H ) :   0.9778 B( 15-C , 16-C ) :   1.0325
B( 16-C , 17-C ) :   1.9638 B( 16-C , 33-H ) :   0.9424 B( 17-C , 34-H ) :   0.9533
B( 17-C , 35-H ) :   0.9467

Dispersion correction           -0.071830765
FINAL SINGLE POINT ENERGY      -770.480510040652

DIPOLE MOMENT
-------------
                                X             Y             Z
Electronic contribution:     -0.13748      -0.75982       3.10397
Nuclear contribution   :      0.22168       0.61015      -3.53233
                        -----------------------------------------
Total Dipole Moment    :      0.08419      -0.14968      -0.42835
                        -----------------------------------------
Magnitude (a.u.)       :      0.46149
Magnitude (Debye)      :      1.17302

Rotational constants in cm-1:     0.023374     0.008995     0.006805
Rotational constants in MHz :   700.722144   269.648552   203.994325

                             ****ORCA TERMINATED NORMALLY****
TOTAL RUN TIME: 0 days 0 hours 39 minutes 30 seconds 162 msec
