                         Program Version 4.2.0 -  RELEASE  -
|  1> # ORCA input file
|  2> # SCF done        -26.918875455085          0.000606952820
|  3> ! B3LYP/G D3BJ Opt RIJCOSX def2-SVP def2/J
|  4> * xyz 0 1
|  5>    C        2.18749         0.46162         0.09165
|  6>    S        1.70823        -1.19417         0.26802
|  7>    C        0.05771        -0.73730         0.07858
|  8>    N       -1.06986        -1.45872         0.08285
|  9>    C       -2.10740        -0.70834        -0.09695
| 10>    S       -1.74335         1.02703        -0.29264
| 11>    C       -0.07448         0.63991        -0.10995
| 12>    C        1.15495         1.32396        -0.10088
| 13>    C       -3.45217        -1.20457        -0.13891
| 14>    C       -4.52972        -0.44961        -0.33250
| 15>    H        3.23168         0.69862         0.14327
| 16>    H        1.26379         2.38474        -0.22893
| 17>    H       -3.52886        -2.27364         0.00241
| 18>    H       -4.45484         0.61651        -0.47470
| 19>    H       -5.51738        -0.87421        -0.35557
| 20> *
| 21>
| 22>                          ****END OF INPUT****
 Total Charge           Charge          ....    0
 Multiplicity           Mult            ....    1
 Number of Electrons    NEL             ....   86
Dispersion correction           -0.035798518
FINAL SINGLE POINT ENERGY     -1120.435011044791
Dispersion correction            ... done
Dispersion correction           -0.035678242
FINAL SINGLE POINT ENERGY     -1120.437877462444
Dispersion correction            ... done
Dispersion correction           -0.035640155
FINAL SINGLE POINT ENERGY     -1120.438027495414
Dispersion correction            ... done
FINAL SINGLE POINT ENERGY     -1120.437996912859
FINAL SINGLE POINT ENERGY     -1120.438023407878
Dispersion correction            ... done
Dispersion correction           -0.035605047
FINAL SINGLE POINT ENERGY     -1120.438038810825
Dispersion correction            ... done
Dispersion correction           -0.035605927
FINAL SINGLE POINT ENERGY     -1120.438036034189
Dispersion correction            ... done
                    ***********************HURRAY********************

CARTESIAN COORDINATES (ANGSTROEM)
---------------------------------
  C      2.230074    0.459063    0.125146
  S      1.720646   -1.196655    0.332009
  C      0.060317   -0.725325    0.084671
  N     -1.075375   -1.459213    0.082534
  C     -2.114943   -0.692470   -0.137640
  S     -1.727702    1.034885   -0.376722
  C     -0.049747    0.651038   -0.141604
  C      1.199650    1.334471   -0.117233
  C     -3.477963   -1.195693   -0.177301
  C     -4.596020   -0.464378   -0.294320
  H      3.289630    0.701853    0.198297
  H      1.345216    2.403056   -0.272889
  H     -3.529688   -2.284661   -0.082091
  H     -4.570058    0.626819   -0.377249
  H     -5.578244   -0.940961   -0.309856

 Multiplicity           Mult            ....    1
 Number of Electrons    NEL             ....   86
 Basis Dimension        Dim             ....  173

ORBITAL ENERGIES
----------------

  NO   OCC          E(Eh)            E(eV)
   0   2.0000     -88.884065     -2418.6584
   1   2.0000     -88.881847     -2418.5980
   2   2.0000     -14.339031      -390.1849
   3   2.0000     -10.259508      -279.1754
   4   2.0000     -10.243249      -278.7330
   5   2.0000     -10.225825      -278.2589
   6   2.0000     -10.224810      -278.2312
   7   2.0000     -10.212281      -277.8903
   8   2.0000     -10.211459      -277.8679
   9   2.0000     -10.204400      -277.6758
  10   2.0000      -7.978890      -217.1166
  11   2.0000      -7.976782      -217.0593
  12   2.0000      -5.947004      -161.8262
  13   2.0000      -5.945016      -161.7721
  14   2.0000      -5.943463      -161.7299
  15   2.0000      -5.941197      -161.6682
  16   2.0000      -5.939608      -161.6249
  17   2.0000      -5.937556      -161.5691
  18   2.0000      -0.974449       -26.5161
  19   2.0000      -0.874501       -23.7964
  20   2.0000      -0.809412       -22.0252
  21   2.0000      -0.788465       -21.4552
  22   2.0000      -0.730445       -19.8764
  23   2.0000      -0.708461       -19.2782
  24   2.0000      -0.636463       -17.3190
  25   2.0000      -0.570434       -15.5223
  26   2.0000      -0.564145       -15.3512
  27   2.0000      -0.546563       -14.8727
  28   2.0000      -0.484050       -13.1717
  29   2.0000      -0.474905       -12.9228
  30   2.0000      -0.460201       -12.5227
  31   2.0000      -0.440573       -11.9886
  32   2.0000      -0.425894       -11.5892
  33   2.0000      -0.410900       -11.1812
  34   2.0000      -0.388321       -10.5667
  35   2.0000      -0.371920       -10.1204
  36   2.0000      -0.368573       -10.0294
  37   2.0000      -0.345753        -9.4084
  38   2.0000      -0.310542        -8.4503
  39   2.0000      -0.299960        -8.1623
  40   2.0000      -0.287942        -7.8353
  41   2.0000      -0.245670        -6.6850
  42   2.0000      -0.223417        -6.0795
  43   0.0000      -0.068979        -1.8770
  44   0.0000      -0.002707        -0.0737
  45   0.0000       0.012932         0.3519
  46   0.0000       0.040249         1.0952
  47   0.0000       0.047088         1.2813

MULLIKEN ATOMIC CHARGES
-----------------------
   0 C :   -0.095340
   1 S :    0.128653
   2 C :   -0.084134
   3 N :   -0.075600
   4 C :   -0.089385
   5 S :    0.104159
   6 C :   -0.019036
   7 C :    0.009423
   8 C :    0.040173
   9 C :   -0.031050
  10 H :    0.035301
  11 H :   -0.001339
  12 H :    0.013909
  13 H :    0.030359
  14 H :    0.033905
Sum of atomic charges:   -0.0000000

LOEWDIN ATOMIC CHARGES
----------------------
   0 C :   -0.174662
   1 S :    0.418785
   2 C :   -0.192968
   3 N :   -0.103094
   4 C :   -0.122027
   5 S :    0.386777
   6 C :   -0.218497
   7 C :   -0.075058
   8 C :   -0.042171
   9 C :   -0.037018
  10 H :    0.027514
  11 H :    0.034901
  12 H :    0.043716
  13 H :    0.022230
  14 H :    0.031573

  Mayer bond orders larger than 0.100000
B(  0-C ,  1-S ) :   1.1517 B(  0-C ,  7-C ) :   1.5665 B(  0-C , 10-H ) :   0.9655
B(  1-S ,  2-C ) :   1.1038 B(  2-C ,  3-N ) :   1.3623 B(  2-C ,  6-C ) :   1.3594
B(  3-N ,  4-C ) :   1.6581 B(  3-N ,  5-S ) :   0.1090 B(  4-C ,  5-S ) :   1.0638
B(  4-C ,  8-C ) :   1.1147 B(  5-S ,  6-C ) :   1.0846 B(  6-C ,  7-C ) :   1.2538
B(  7-C , 11-H ) :   0.9968 B(  8-C ,  9-C ) :   1.8894 B(  8-C , 12-H ) :   0.9557
B(  9-C , 13-H ) :   0.9522 B(  9-C , 14-H ) :   0.9490

Dispersion correction           -0.035605215
FINAL SINGLE POINT ENERGY     -1120.438032698406

DIPOLE MOMENT
-------------
                                X             Y             Z
Electronic contribution:      5.56880      -0.76908       0.45521
Nuclear contribution   :     -5.56480       1.37900      -0.53930
                        -----------------------------------------
Total Dipole Moment    :      0.00400       0.60992      -0.08409
                        -----------------------------------------
Magnitude (a.u.)       :      0.61570
Magnitude (Debye)      :      1.56499

Rotational constants in cm-1:     0.092819     0.022353     0.018021
Rotational constants in MHz :  2782.657458   670.122424   540.264492

                             ****ORCA TERMINATED NORMALLY****
TOTAL RUN TIME: 0 days 0 hours 5 minutes 19 seconds 147 msec
