                         Program Version 4.2.0 -  RELEASE  -
|  1> # ORCA input file
|  2> # SCF done        -24.383687066743          0.000494823414
|  3> ! B3LYP/G D3BJ Opt RIJCOSX def2-SVP def2/J
|  4> * xyz 0 1
|  5>    C        0.66667         1.22167        -0.07014
|  6>    S       -0.58894         0.07189        -0.28025
|  7>    C        0.51266        -1.24978         0.00159
|  8>    C        1.77767        -0.77269         0.24250
|  9>    C        1.86080         0.63003         0.20135
| 10>    C        0.02176        -2.59258        -0.04493
| 11>    C        0.76670        -3.70078         0.12182
| 12>    C        0.22339        -5.02963         0.06479
| 13>    C        0.95300        -6.13369         0.21859
| 14>    H        0.44471         2.26629        -0.16113
| 15>    H        2.62028        -1.40827         0.44491
| 16>    H        2.77088         1.17920         0.36607
| 17>    H       -1.03930        -2.69478        -0.23456
| 18>    H        1.82851        -3.62035         0.30755
| 19>    H       -0.84140        -5.10521        -0.11563
| 20>    H        2.01462        -6.08648         0.39756
| 21>    H        0.51795        -7.11656         0.16936
| 22> *
| 23>
| 24>                          ****END OF INPUT****
 Total Charge           Charge          ....    0
 Multiplicity           Mult            ....    1
 Number of Electrons    NEL             ....   72
Dispersion correction           -0.031500395
FINAL SINGLE POINT ENERGY      -707.512150159207
Dispersion correction            ... done
Dispersion correction           -0.031277491
FINAL SINGLE POINT ENERGY      -707.514962822573
Dispersion correction            ... done
Dispersion correction           -0.031240864
FINAL SINGLE POINT ENERGY      -707.515002192082
Dispersion correction            ... done
FINAL SINGLE POINT ENERGY      -707.514942715084
Dispersion correction            ... done
Dispersion correction           -0.031232129
FINAL SINGLE POINT ENERGY      -707.514977535039
Dispersion correction            ... done
Dispersion correction           -0.031234833
FINAL SINGLE POINT ENERGY      -707.514972754558
Dispersion correction            ... done
                    ***********************HURRAY********************

CARTESIAN COORDINATES (ANGSTROEM)
---------------------------------
  C      0.639928    1.262871   -0.090956
  S     -0.586430    0.067631   -0.289270
  C      0.538452   -1.235695    0.014814
  C      1.805463   -0.726718    0.252292
  C      1.860325    0.692617    0.192037
  C      0.056247   -2.600440   -0.021399
  C      0.792445   -3.725742    0.142146
  C      0.226279   -5.056828    0.070940
  C      0.920906   -6.201596    0.200478
  H      0.392500    2.318427   -0.191960
  H      2.666415   -1.358671    0.472234
  H      2.767127    1.274921    0.360460
  H     -1.016212   -2.719581   -0.212865
  H      1.869071   -3.651498    0.333156
  H     -0.853636   -5.109521   -0.115089
  H      2.000018   -6.196588    0.384409
  H      0.431062   -7.175310    0.128025

 Multiplicity           Mult            ....    1
 Number of Electrons    NEL             ....   72
 Basis Dimension        Dim             ....  170

ORBITAL ENERGIES
----------------

  NO   OCC          E(Eh)            E(eV)
   0   2.0000     -88.874658     -2418.4024
   1   2.0000     -10.220061      -278.1020
   2   2.0000     -10.214749      -277.9575
   3   2.0000     -10.204705      -277.6841
   4   2.0000     -10.197411      -277.4857
   5   2.0000     -10.196563      -277.4626
   6   2.0000     -10.196407      -277.4583
   7   2.0000     -10.194756      -277.4134
   8   2.0000     -10.188375      -277.2398
   9   2.0000      -7.969950      -216.8734
  10   2.0000      -5.937988      -161.5809
  11   2.0000      -5.933949      -161.4710
  12   2.0000      -5.931377      -161.4010
  13   2.0000      -0.881937       -23.9987
  14   2.0000      -0.808330       -21.9958
  15   2.0000      -0.756628       -20.5889
  16   2.0000      -0.734581       -19.9890
  17   2.0000      -0.699021       -19.0213
  18   2.0000      -0.618286       -16.8244
  19   2.0000      -0.569162       -15.4877
  20   2.0000      -0.549058       -14.9406
  21   2.0000      -0.531889       -14.4734
  22   2.0000      -0.510982       -13.9045
  23   2.0000      -0.468505       -12.7487
  24   2.0000      -0.443459       -12.0671
  25   2.0000      -0.410905       -11.1813
  26   2.0000      -0.405961       -11.0468
  27   2.0000      -0.393106       -10.6969
  28   2.0000      -0.392082       -10.6691
  29   2.0000      -0.372340       -10.1319
  30   2.0000      -0.353846        -9.6286
  31   2.0000      -0.347101        -9.4451
  32   2.0000      -0.334943        -9.1143
  33   2.0000      -0.275474        -7.4960
  34   2.0000      -0.258247        -7.0273
  35   2.0000      -0.206874        -5.6293
  36   0.0000      -0.061613        -1.6766
  37   0.0000       0.008879         0.2416
  38   0.0000       0.030898         0.8408
  39   0.0000       0.048055         1.3077
  40   0.0000       0.070277         1.9123

MULLIKEN ATOMIC CHARGES
-----------------------
   0 C :   -0.082324
   1 S :    0.106681
   2 C :   -0.119534
   3 C :    0.016559
   4 C :    0.036436
   5 C :    0.066075
   6 C :    0.005071
   7 C :   -0.001889
   8 C :   -0.028692
   9 H :    0.032251
  10 H :   -0.016216
  11 H :   -0.008426
  12 H :   -0.020481
  13 H :   -0.013284
  14 H :   -0.007876
  15 H :    0.015021
  16 H :    0.020628
Sum of atomic charges:    0.0000000

LOEWDIN ATOMIC CHARGES
----------------------
   0 C :   -0.193412
   1 S :    0.429959
   2 C :   -0.177001
   3 C :   -0.060384
   4 C :   -0.062480
   5 C :   -0.040932
   6 C :   -0.024716
   7 C :   -0.027929
   8 C :   -0.053349
   9 H :    0.025541
  10 H :    0.027970
  11 H :    0.030179
  12 H :    0.026011
  13 H :    0.026004
  14 H :    0.028068
  15 H :    0.021794
  16 H :    0.024677

  Mayer bond orders larger than 0.100000
B(  0-C ,  1-S ) :   1.1656 B(  0-C ,  4-C ) :   1.5349 B(  0-C ,  9-H ) :   0.9703
B(  1-S ,  2-C ) :   1.1325 B(  2-C ,  3-C ) :   1.5052 B(  2-C ,  5-C ) :   1.1049
B(  3-C ,  4-C ) :   1.2765 B(  3-C , 10-H ) :   0.9845 B(  4-C , 11-H ) :   0.9875
B(  5-C ,  6-C ) :   1.7072 B(  5-C ,  8-C ) :   0.1137 B(  5-C , 12-H ) :   0.9560
B(  6-C ,  7-C ) :   1.1362 B(  6-C , 13-H ) :   0.9668 B(  7-C ,  8-C ) :   1.8675
B(  7-C , 14-H ) :   0.9673 B(  8-C , 15-H ) :   0.9531 B(  8-C , 16-H ) :   0.9486

Dispersion correction           -0.031234903
FINAL SINGLE POINT ENERGY      -707.514968397859

DIPOLE MOMENT
-------------
                                X             Y             Z
Electronic contribution:     -3.67720       8.65100      -1.01276
Nuclear contribution   :      3.82863      -8.49161       1.03880
                        -----------------------------------------
Total Dipole Moment    :      0.15143       0.15939       0.02604
                        -----------------------------------------
Magnitude (a.u.)       :      0.22139
Magnitude (Debye)      :      0.56274

Rotational constants in cm-1:     0.153894     0.020558     0.018138
Rotational constants in MHz :  4613.623420   616.299693   543.755399

                             ****ORCA TERMINATED NORMALLY****
TOTAL RUN TIME: 0 days 0 hours 4 minutes 12 seconds 370 msec
