                         Program Version 4.2.0 -  RELEASE  -
|  1> # ORCA input file
|  2> # SCF done        -54.335258344461          0.000277142184
|  3> ! B3LYP/G D3BJ Opt RIJCOSX def2-SVP def2/J
|  4> * xyz 0 1
|  5>    C        2.15692        -1.28168        -0.09393
|  6>    C        3.21699        -0.42159        -0.27715
|  7>    C        3.05248         0.97111        -0.34863
|  8>    C        1.77210         1.50153        -0.22398
|  9>    C        0.69199         0.65346        -0.04414
| 10>    C        0.87838        -0.74742         0.02196
| 11>    N       -0.33582        -1.36690         0.20489
| 12>    C       -1.31478        -0.39698         0.25675
| 13>    C       -0.71588         0.87873         0.10745
| 14>    C       -1.48758         2.03247         0.12482
| 15>    C       -2.85184         1.91505         0.29090
| 16>    C       -3.44041         0.66174         0.43619
| 17>    C       -2.69150        -0.49907         0.42094
| 18>    C       -0.51066        -2.79753         0.31370
| 19>    C       -1.07698        -3.19546         1.68500
| 20>    C       -0.18793        -2.70664         2.82257
| 21>    C       -1.34243        -3.35218        -0.85252
| 22>    C       -0.70313        -3.03201        -2.19879
| 23>    C        4.17203         1.88147        -0.54629
| 24>    C        5.43317         1.55706        -0.80717
| 25>    H        2.33768        -2.34536        -0.04313
| 26>    H        4.20873        -0.83770        -0.36101
| 27>    H        1.61855         2.57010        -0.27189
| 28>    H       -1.02224         2.99997         0.00980
| 29>    H       -3.47313         2.79809         0.30809
| 30>    H       -4.51107         0.59328         0.56411
| 31>    H       -3.18741        -1.45005         0.53480
| 32>    H        0.49136        -3.23279         0.23670
| 33>    H       -1.15254        -4.28423         1.71958
| 34>    H       -2.07917        -2.78757         1.81181
| 35>    H        0.81587        -3.11629         2.73009
| 36>    H       -0.59753        -3.01397         3.78156
| 37>    H       -0.11643        -1.62135         2.81362
| 38>    H       -2.34992        -2.93799        -0.82560
| 39>    H       -1.42184        -4.43447        -0.73163
| 40>    H       -0.64040        -1.95635        -2.34723
| 41>    H       -1.29293        -3.45481        -3.00825
| 42>    H        0.30248        -3.44381        -2.25477
| 43>    H        3.91005         2.93087        -0.47618
| 44>    H        5.76739         0.53839        -0.90348
| 45>    H        6.18881         2.31230        -0.94014
| 46> *
| 47>
| 48>                          ****END OF INPUT****
 Total Charge           Charge          ....    0
 Multiplicity           Mult            ....    1
 Number of Electrons    NEL             ....  142
Dispersion correction           -0.090919547
FINAL SINGLE POINT ENERGY      -790.958863768797
Dispersion correction            ... done
Dispersion correction           -0.090029304
FINAL SINGLE POINT ENERGY      -790.964539236151
Dispersion correction            ... done
Dispersion correction           -0.089972226
FINAL SINGLE POINT ENERGY      -790.964838189424
Dispersion correction            ... done
FINAL SINGLE POINT ENERGY      -790.964759376330
FINAL SINGLE POINT ENERGY      -790.964581572815
FINAL SINGLE POINT ENERGY      -790.964469149075
FINAL SINGLE POINT ENERGY      -790.964488827084
FINAL SINGLE POINT ENERGY      -790.964503410194
Dispersion correction            ... done
Dispersion correction           -0.090105489
FINAL SINGLE POINT ENERGY      -790.964513242542
Dispersion correction            ... done
Dispersion correction           -0.090104959
FINAL SINGLE POINT ENERGY      -790.964514539763
Dispersion correction            ... done
                    ***********************HURRAY********************

CARTESIAN COORDINATES (ANGSTROEM)
---------------------------------
  C      2.209726   -1.300268   -0.104214
  C      3.275585   -0.434624   -0.317102
  C      3.109328    0.971106   -0.402724
  C      1.818916    1.500271   -0.256699
  C      0.729338    0.652830   -0.039903
  C      0.924584   -0.753529    0.036671
  N     -0.300283   -1.376894    0.248242
  C     -1.292928   -0.399877    0.296002
  C     -0.689194    0.881421    0.129040
  C     -1.477141    2.038525    0.147723
  C     -2.854145    1.918609    0.322367
  C     -3.442253    0.650402    0.479670
  C     -2.678706   -0.517710    0.473082
  C     -0.483683   -2.823566    0.330000
  C     -1.074742   -3.282372    1.673784
  C     -0.418710   -2.661483    2.902730
  C     -1.275372   -3.381233   -0.863162
  C     -0.760219   -2.933403   -2.228326
  C      4.230499    1.887791   -0.648576
  C      5.521342    1.575907   -0.835441
  H      2.385846   -2.376200   -0.051662
  H      4.273992   -0.860407   -0.429869
  H      1.667941    2.581310   -0.324148
  H     -1.013298    3.019700    0.021720
  H     -3.482067    2.811793    0.338580
  H     -4.523353    0.573700    0.619174
  H     -3.160420   -1.485254    0.607251
  H      0.533548   -3.237525    0.270207
  H     -0.968178   -4.380446    1.705220
  H     -2.159292   -3.082554    1.692596
  H      0.668887   -2.842314    2.913896
  H     -0.840977   -3.089158    3.825105
  H     -0.580391   -1.572457    2.931533
  H     -2.336862   -3.101321   -0.759948
  H     -1.239648   -4.481700   -0.786233
  H     -0.877948   -1.846836   -2.360520
  H     -1.315803   -3.432626   -3.036152
  H      0.307958   -3.173485   -2.354851
  H      3.947895    2.946707   -0.685560
  H      5.885544    0.545294   -0.821808
  H      6.266118    2.353298   -1.018278

 Multiplicity           Mult            ....    1
 Number of Electrons    NEL             ....  142
 Basis Dimension        Dim             ....  385

ORBITAL ENERGIES
----------------

  NO   OCC          E(Eh)            E(eV)
   0   2.0000     -14.370552      -391.0426
   1   2.0000     -10.235940      -278.5341
   2   2.0000     -10.224971      -278.2356
   3   2.0000     -10.224693      -278.2281
   4   2.0000     -10.195150      -277.4241
   5   2.0000     -10.194196      -277.3982
   6   2.0000     -10.193118      -277.3689
   7   2.0000     -10.191577      -277.3269
   8   2.0000     -10.190257      -277.2910
   9   2.0000     -10.190029      -277.2848
  10   2.0000     -10.189832      -277.2794
  11   2.0000     -10.189417      -277.2681
  12   2.0000     -10.188612      -277.2462
  13   2.0000     -10.188168      -277.2341
  14   2.0000     -10.187339      -277.2116
  15   2.0000     -10.186233      -277.1815
  16   2.0000     -10.183618      -277.1103
  17   2.0000     -10.183478      -277.1065
  18   2.0000     -10.182870      -277.0900
  19   2.0000     -10.177821      -276.9526
  20   2.0000      -0.981782       -26.7156
  21   2.0000      -0.853000       -23.2113
  22   2.0000      -0.841992       -22.9118
  23   2.0000      -0.811238       -22.0749
  24   2.0000      -0.773058       -21.0360
  25   2.0000      -0.764237       -20.7959
  26   2.0000      -0.755759       -20.5653
  27   2.0000      -0.737314       -20.0633
  28   2.0000      -0.718316       -19.5464
  29   2.0000      -0.706158       -19.2155
  30   2.0000      -0.679296       -18.4846
  31   2.0000      -0.637909       -17.3584
  32   2.0000      -0.615542       -16.7498
  33   2.0000      -0.609482       -16.5848
  34   2.0000      -0.602265       -16.3885
  35   2.0000      -0.581197       -15.8152
  36   2.0000      -0.562947       -15.3186
  37   2.0000      -0.550174       -14.9710
  38   2.0000      -0.525441       -14.2980
  39   2.0000      -0.504794       -13.7361
  40   2.0000      -0.493833       -13.4379
  41   2.0000      -0.477092       -12.9823
  42   2.0000      -0.474952       -12.9241
  43   2.0000      -0.462575       -12.5873
  44   2.0000      -0.446892       -12.1605
  45   2.0000      -0.444931       -12.1072
  46   2.0000      -0.436681       -11.8827
  47   2.0000      -0.433944       -11.8082
  48   2.0000      -0.429390       -11.6843
  49   2.0000      -0.419196       -11.4069
  50   2.0000      -0.414063       -11.2672
  51   2.0000      -0.411707       -11.2031
  52   2.0000      -0.407315       -11.0836
  53   2.0000      -0.398554       -10.8452
  54   2.0000      -0.383664       -10.4400
  55   2.0000      -0.368440       -10.0258
  56   2.0000      -0.365516        -9.9462
  57   2.0000      -0.363812        -9.8998
  58   2.0000      -0.358018        -9.7422
  59   2.0000      -0.355095        -9.6626
  60   2.0000      -0.350156        -9.5282
  61   2.0000      -0.344464        -9.3733
  62   2.0000      -0.342823        -9.3287
  63   2.0000      -0.335705        -9.1350
  64   2.0000      -0.329170        -8.9572
  65   2.0000      -0.324853        -8.8397
  66   2.0000      -0.290073        -7.8933
  67   2.0000      -0.279743        -7.6122
  68   2.0000      -0.245239        -6.6733
  69   2.0000      -0.217790        -5.9264
  70   2.0000      -0.198331        -5.3969
  71   0.0000      -0.036458        -0.9921
  72   0.0000      -0.026586        -0.7234
  73   0.0000       0.006464         0.1759
  74   0.0000       0.026978         0.7341
  75   0.0000       0.042928         1.1681

MULLIKEN ATOMIC CHARGES
-----------------------
   0 C :   -0.064996
   1 C :   -0.022349
   2 C :    0.113274
   3 C :   -0.124399
   4 C :    0.086467
   5 C :    0.137053
   6 N :   -0.207027
   7 C :    0.143064
   8 C :    0.069804
   9 C :   -0.049457
  10 C :    0.029212
  11 C :    0.008541
  12 C :   -0.075228
  13 C :    0.067061
  14 C :   -0.009642
  15 C :    0.028641
  16 C :   -0.005951
  17 C :    0.032424
  18 C :   -0.006198
  19 C :   -0.029634
  20 H :   -0.039399
  21 H :   -0.036450
  22 H :   -0.037776
  23 H :   -0.036868
  24 H :   -0.024482
  25 H :   -0.017177
  26 H :   -0.040225
  27 H :   -0.006807
  28 H :    0.007158
  29 H :    0.001883
  30 H :    0.009953
  31 H :    0.007655
  32 H :    0.033239
  33 H :    0.001316
  34 H :    0.006625
  35 H :    0.032095
  36 H :    0.010118
  37 H :    0.006347
  38 H :   -0.022371
  39 H :    0.005911
  40 H :    0.018591
Sum of atomic charges:   -0.0000000

LOEWDIN ATOMIC CHARGES
----------------------
   0 C :   -0.059385
   1 C :   -0.009013
   2 C :   -0.046758
   3 C :   -0.009471
   4 C :   -0.044842
   5 C :    0.031465
   6 N :    0.021559
   7 C :    0.028186
   8 C :   -0.040173
   9 C :   -0.015720
  10 C :   -0.046216
  11 C :   -0.025840
  12 C :   -0.060791
  13 C :    0.039182
  14 C :   -0.038471
  15 C :   -0.055931
  16 C :   -0.038373
  17 C :   -0.055849
  18 C :   -0.020822
  19 C :   -0.063346
  20 H :    0.023287
  21 H :    0.024476
  22 H :    0.024984
  23 H :    0.025690
  24 H :    0.024678
  25 H :    0.026629
  26 H :    0.021458
  27 H :    0.025237
  28 H :    0.026288
  29 H :    0.019560
  30 H :    0.023393
  31 H :    0.025371
  32 H :    0.028960
  33 H :    0.020913
  34 H :    0.025356
  35 H :    0.029071
  36 H :    0.025982
  37 H :    0.022606
  38 H :    0.025507
  39 H :    0.016916
  40 H :    0.024246

  Mayer bond orders larger than 0.100000
B(  0-C ,  1-C ) :   1.4202 B(  0-C ,  5-C ) :   1.2732 B(  0-C , 20-H ) :   0.9920
B(  1-C ,  2-C ) :   1.2965 B(  1-C , 21-H ) :   0.9775 B(  2-C ,  3-C ) :   1.3404
B(  2-C , 18-C ) :   1.0796 B(  3-C ,  4-C ) :   1.3024 B(  3-C , 22-H ) :   0.9958
B(  4-C ,  5-C ) :   1.2827 B(  4-C ,  8-C ) :   1.0885 B(  5-C ,  6-N ) :   1.1131
B(  6-N ,  7-C ) :   1.1020 B(  6-N , 13-C ) :   0.9427 B(  7-C ,  8-C ) :   1.2828
B(  7-C , 12-C ) :   1.2998 B(  8-C ,  9-C ) :   1.3325 B(  9-C , 10-C ) :   1.3908
B(  9-C , 23-H ) :   0.9893 B( 10-C , 11-C ) :   1.3373 B( 10-C , 24-H ) :   0.9821
B( 11-C , 12-C ) :   1.3933 B( 11-C , 25-H ) :   0.9779 B( 12-C , 26-H ) :   0.9960
B( 13-C , 14-C ) :   1.0571 B( 13-C , 16-C ) :   1.0579 B( 13-C , 27-H ) :   0.9089
B( 14-C , 15-C ) :   1.1076 B( 14-C , 28-H ) :   0.9362 B( 14-C , 29-H ) :   0.9330
B( 15-C , 30-H ) :   0.9653 B( 15-C , 31-H ) :   0.9603 B( 15-C , 32-H ) :   0.9662
B( 16-C , 17-C ) :   1.1122 B( 16-C , 33-H ) :   0.9310 B( 16-C , 34-H ) :   0.9368
B( 17-C , 35-H ) :   0.9657 B( 17-C , 36-H ) :   0.9594 B( 17-C , 37-H ) :   0.9645
B( 18-C , 19-C ) :   1.9236 B( 18-C , 38-H ) :   0.9612 B( 19-C , 39-H ) :   0.9441
B( 19-C , 40-H ) :   0.9431

Dispersion correction           -0.090108352
FINAL SINGLE POINT ENERGY      -790.964513377910

DIPOLE MOMENT
-------------
                                X             Y             Z
Electronic contribution:      1.17151      12.77114      -0.65976
Nuclear contribution   :     -1.54752     -13.62147       0.73830
                        -----------------------------------------
Total Dipole Moment    :     -0.37601      -0.85033       0.07853
                        -----------------------------------------
Magnitude (a.u.)       :      0.93307
Magnitude (Debye)      :      2.37167

Rotational constants in cm-1:     0.016046     0.008554     0.006715
Rotational constants in MHz :   481.037214   256.448568   201.318573

                             ****ORCA TERMINATED NORMALLY****
TOTAL RUN TIME: 0 days 0 hours 51 minutes 25 seconds 361 msec
