                         Program Version 4.2.0 -  RELEASE  -
|  1> # ORCA input file
|  2> # SCF done        -31.769662636779          0.000313530818
|  3> ! B3LYP/G D3BJ Opt RIJCOSX def2-SVP def2/J
|  4> * xyz 0 1
|  5>    C        0.17584         1.07603         0.40332
|  6>    S       -0.87393        -0.27405         0.52518
|  7>    C        0.44812        -1.36709         0.21884
|  8>    C        1.62600        -0.68222         0.02906
|  9>    C        1.46563         0.72691         0.14533
| 10>    C        2.55719         1.73767        -0.03632
| 11>    C        2.73623         2.09425        -1.51341
| 12>    C        2.94682        -1.35128        -0.20600
| 13>    C        3.58178        -1.78676         1.11667
| 14>    C        0.23397        -2.78922         0.19050
| 15>    C       -0.92315        -3.39009         0.45245
| 16>    H       -0.22302         2.06271         0.53566
| 17>    H        3.49540         1.35036         0.36476
| 18>    H        2.30135         2.64162         0.52043
| 19>    H        2.97822         1.20945        -2.09796
| 20>    H        3.53789         2.81952        -1.63365
| 21>    H        1.81843         2.52188        -1.91043
| 22>    H        3.62019        -0.66411        -0.71907
| 23>    H        2.81302        -2.22365        -0.84895
| 24>    H        3.73412        -0.92733         1.76606
| 25>    H        4.54415        -2.26137         0.93793
| 26>    H        2.93563        -2.49213         1.63393
| 27>    H        1.10204        -3.38366        -0.06212
| 28>    H       -1.80329        -2.82615         0.71405
| 29>    H       -1.02593        -4.46017         0.41537
| 30> *
| 31>
| 32>                          ****END OF INPUT****
 Total Charge           Charge          ....    0
 Multiplicity           Mult            ....    1
 Number of Electrons    NEL             ....   90
Dispersion correction           -0.048932466
FINAL SINGLE POINT ENERGY      -787.323641981290
Dispersion correction            ... done
Dispersion correction           -0.048325437
FINAL SINGLE POINT ENERGY      -787.327353050110
Dispersion correction            ... done
Dispersion correction           -0.048218689
FINAL SINGLE POINT ENERGY      -787.327543524396
Dispersion correction            ... done
FINAL SINGLE POINT ENERGY      -787.327592954638
FINAL SINGLE POINT ENERGY      -787.327621829469
FINAL SINGLE POINT ENERGY      -787.327629627524
FINAL SINGLE POINT ENERGY      -787.327627553781
FINAL SINGLE POINT ENERGY      -787.327620269871
Dispersion correction            ... done
Dispersion correction           -0.048204453
FINAL SINGLE POINT ENERGY      -787.327611110364
Dispersion correction            ... done
Dispersion correction           -0.048202462
FINAL SINGLE POINT ENERGY      -787.327605898379
Dispersion correction            ... done
                    ***********************HURRAY********************

CARTESIAN COORDINATES (ANGSTROEM)
---------------------------------
  C      0.149713    1.093625    0.448799
  S     -0.905823   -0.265364    0.581770
  C      0.403457   -1.374140    0.249305
  C      1.596953   -0.692329    0.043369
  C      1.446148    0.736338    0.162548
  C      2.551647    1.741947   -0.047189
  C      2.778655    2.106164   -1.522162
  C      2.923789   -1.371285   -0.193869
  C      3.652012   -1.739505    1.108088
  C      0.180649   -2.810394    0.218877
  C     -0.990770   -3.444066    0.398716
  H     -0.238124    2.101094    0.596103
  H      3.488464    1.355617    0.387054
  H      2.309201    2.656082    0.517910
  H      3.057236    1.221889   -2.116273
  H      3.582048    2.852454   -1.633315
  H      1.862096    2.525847   -1.965638
  H      3.567366   -0.711766   -0.797067
  H      2.780032   -2.279307   -0.800189
  H      3.858095   -0.844614    1.716301
  H      4.612318   -2.236937    0.896502
  H      3.040081   -2.418814    1.721381
  H      1.074222   -3.410287    0.019785
  H     -1.917227   -2.898206    0.599129
  H     -1.059538   -4.532922    0.351697

 Multiplicity           Mult            ....    1
 Number of Electrons    NEL             ....   90
 Basis Dimension        Dim             ....  228

ORBITAL ENERGIES
----------------

  NO   OCC          E(Eh)            E(eV)
   0   2.0000     -88.863320     -2418.0939
   1   2.0000     -10.208446      -277.7859
   2   2.0000     -10.204252      -277.6718
   3   2.0000     -10.199363      -277.5388
   4   2.0000     -10.194384      -277.4033
   5   2.0000     -10.193730      -277.3855
   6   2.0000     -10.192193      -277.3437
   7   2.0000     -10.190593      -277.3001
   8   2.0000     -10.185227      -277.1541
   9   2.0000     -10.184210      -277.1264
  10   2.0000     -10.183876      -277.1173
  11   2.0000      -7.958579      -216.5640
  12   2.0000      -5.926618      -161.2715
  13   2.0000      -5.922728      -161.1656
  14   2.0000      -5.919839      -161.0870
  15   2.0000      -0.877354       -23.8740
  16   2.0000      -0.790736       -21.5170
  17   2.0000      -0.781374       -21.2623
  18   2.0000      -0.758793       -20.6478
  19   2.0000      -0.703683       -19.1482
  20   2.0000      -0.692738       -18.8504
  21   2.0000      -0.623786       -16.9741
  22   2.0000      -0.612390       -16.6640
  23   2.0000      -0.598074       -16.2744
  24   2.0000      -0.528480       -14.3807
  25   2.0000      -0.516965       -14.0673
  26   2.0000      -0.487774       -13.2730
  27   2.0000      -0.461235       -12.5508
  28   2.0000      -0.445664       -12.1271
  29   2.0000      -0.432427       -11.7669
  30   2.0000      -0.426393       -11.6027
  31   2.0000      -0.414896       -11.2899
  32   2.0000      -0.403983       -10.9929
  33   2.0000      -0.393865       -10.7176
  34   2.0000      -0.383836       -10.4447
  35   2.0000      -0.370509       -10.0821
  36   2.0000      -0.363729        -9.8976
  37   2.0000      -0.362320        -9.8592
  38   2.0000      -0.352816        -9.6006
  39   2.0000      -0.341179        -9.2840
  40   2.0000      -0.333055        -9.0629
  41   2.0000      -0.325702        -8.8628
  42   2.0000      -0.296749        -8.0750
  43   2.0000      -0.238598        -6.4926
  44   2.0000      -0.210663        -5.7324
  45   0.0000      -0.042383        -1.1533
  46   0.0000       0.030366         0.8263
  47   0.0000       0.045326         1.2334
  48   0.0000       0.052186         1.4201
  49   0.0000       0.066573         1.8116

MULLIKEN ATOMIC CHARGES
-----------------------
   0 C :   -0.126580
   1 S :    0.090144
   2 C :   -0.141911
   3 C :   -0.032105
   4 C :   -0.048026
   5 C :    0.094931
   6 C :    0.007404
   7 C :    0.059890
   8 C :    0.020553
   9 C :    0.010780
  10 C :   -0.044600
  11 H :    0.010839
  12 H :   -0.003711
  13 H :   -0.007877
  14 H :    0.014153
  15 H :    0.015651
  16 H :    0.010281
  17 H :   -0.002885
  18 H :    0.003574
  19 H :    0.012326
  20 H :    0.011778
  21 H :    0.014717
  22 H :   -0.011675
  23 H :    0.018536
  24 H :    0.023814
Sum of atomic charges:    0.0000000

LOEWDIN ATOMIC CHARGES
----------------------
   0 C :   -0.194190
   1 S :    0.418197
   2 C :   -0.184131
   3 C :   -0.051292
   4 C :   -0.062753
   5 C :   -0.026893
   6 C :   -0.051751
   7 C :   -0.031162
   8 C :   -0.049224
   9 C :   -0.040386
  10 C :   -0.062400
  11 H :    0.021072
  12 H :    0.024046
  13 H :    0.027499
  14 H :    0.021195
  15 H :    0.023072
  16 H :    0.023567
  17 H :    0.025814
  18 H :    0.026637
  19 H :    0.022410
  20 H :    0.022553
  21 H :    0.024020
  22 H :    0.030949
  23 H :    0.017356
  24 H :    0.025797

  Mayer bond orders larger than 0.100000
B(  0-C ,  1-S ) :   1.1475 B(  0-C ,  4-C ) :   1.5515 B(  0-C , 11-H ) :   0.9642
B(  1-S ,  2-C ) :   1.1133 B(  2-C ,  3-C ) :   1.4909 B(  2-C ,  9-C ) :   1.1443
B(  3-C ,  4-C ) :   1.2712 B(  3-C ,  7-C ) :   1.0987 B(  4-C ,  5-C ) :   1.0691
B(  5-C ,  6-C ) :   1.1052 B(  5-C , 12-H ) :   0.9160 B(  5-C , 13-H ) :   0.9202
B(  6-C , 14-H ) :   0.9682 B(  6-C , 15-H ) :   0.9650 B(  6-C , 16-H ) :   0.9645
B(  7-C ,  8-C ) :   1.1108 B(  7-C , 17-H ) :   0.9099 B(  7-C , 18-H ) :   0.9097
B(  8-C , 19-H ) :   0.9651 B(  8-C , 20-H ) :   0.9622 B(  8-C , 21-H ) :   0.9661
B(  9-C , 10-C ) :   1.9023 B(  9-C , 22-H ) :   0.9480 B( 10-C , 23-H ) :   0.9509
B( 10-C , 24-H ) :   0.9464

Dispersion correction           -0.048201972
FINAL SINGLE POINT ENERGY      -787.327605408567

DIPOLE MOMENT
-------------
                                X             Y             Z
Electronic contribution:    -13.71336      -0.27685       2.67048
Nuclear contribution   :     14.18258       0.44019      -2.74217
                        -----------------------------------------
Total Dipole Moment    :      0.46922       0.16334      -0.07168
                        -----------------------------------------
Magnitude (a.u.)       :      0.50198
Magnitude (Debye)      :      1.27592

Rotational constants in cm-1:     0.043126     0.024881     0.017552
Rotational constants in MHz :  1292.877790   745.911572   526.183677

                             ****ORCA TERMINATED NORMALLY****
TOTAL RUN TIME: 0 days 0 hours 15 minutes 48 seconds 866 msec
