                         Program Version 4.2.0 -  RELEASE  -
|  1> # ORCA input file
|  2> # SCF done        -49.849481807958          0.000186897017
|  3> ! B3LYP/G D3BJ Opt RIJCOSX def2-SVP def2/J
|  4> * xyz 0 1
|  5>    N        1.98891        -1.08534         1.03454
|  6>    C        2.42395        -0.24178        -0.07171
|  7>    C        2.85686        -1.06802        -1.25446
|  8>    C        2.35837        -2.34723        -1.43463
|  9>    C        2.74466        -3.12256        -2.51879
| 10>    O        2.28410        -4.38853        -2.76827
| 11>    C        1.34721        -4.95829        -1.87868
| 12>    C        0.98584        -6.33673        -2.41217
| 13>    C        3.66537        -2.60780        -3.43743
| 14>    C        4.15251        -1.32338        -3.26175
| 15>    C        3.75626        -0.53955        -2.18557
| 16>    O        4.18807         0.73898        -1.95597
| 17>    C        5.06738         1.33694        -2.88533
| 18>    C        5.32811         2.76189        -2.42052
| 19>    C        4.09676        -3.44931        -4.60792
| 20>    N        3.00360        -3.56932        -5.56831
| 21>    H        1.67968        -0.50604         1.80750
| 22>    H        2.76856        -1.64744         1.36189
| 23>    H        3.24751         0.43993         0.19271
| 24>    H        1.57033         0.37917        -0.36729
| 25>    H        1.65935        -2.70925        -0.69921
| 26>    H        0.44947        -4.32758        -1.81992
| 27>    H        1.78211        -5.04214        -0.87301
| 28>    H        0.55531        -6.25020        -3.40648
| 29>    H        0.26460        -6.81129        -1.75314
| 30>    H        1.87590        -6.95732        -2.47341
| 31>    H        4.85248        -0.94507        -3.98945
| 32>    H        4.61290         1.34309        -3.88570
| 33>    H        6.01137         0.77509        -2.93157
| 34>    H        4.39192         3.31094        -2.37067
| 35>    H        5.99901         3.26079        -3.11394
| 36>    H        5.77768         2.75436        -1.43135
| 37>    H        4.43315        -4.42844        -4.22450
| 38>    H        4.93803        -2.97333        -5.11993
| 39>    H        2.19868        -3.96610        -5.09417
| 40>    H        3.26781        -4.20872        -6.31135
| 41> *
| 42>
| 43>                          ****END OF INPUT****
 Total Charge           Charge          ....    0
 Multiplicity           Mult            ....    1
 Number of Electrons    NEL             ....  122
Dispersion correction           -0.062392554
FINAL SINGLE POINT ENERGY      -728.781011015627
Dispersion correction            ... done
Dispersion correction           -0.061922782
FINAL SINGLE POINT ENERGY      -728.783719493342
Dispersion correction            ... done
Dispersion correction           -0.061851455
FINAL SINGLE POINT ENERGY      -728.784046363630
Dispersion correction            ... done
FINAL SINGLE POINT ENERGY      -728.784187594621
FINAL SINGLE POINT ENERGY      -728.784153289512
FINAL SINGLE POINT ENERGY      -728.784110185261
FINAL SINGLE POINT ENERGY      -728.784101041974
FINAL SINGLE POINT ENERGY      -728.784103892411
FINAL SINGLE POINT ENERGY      -728.784087874344
FINAL SINGLE POINT ENERGY      -728.784059539956
Dispersion correction            ... done
Dispersion correction           -0.061836533
FINAL SINGLE POINT ENERGY      -728.784043915677
Dispersion correction            ... done
Dispersion correction           -0.061845974
FINAL SINGLE POINT ENERGY      -728.784044940006
Dispersion correction            ... done
                    ***********************HURRAY********************

CARTESIAN COORDINATES (ANGSTROEM)
---------------------------------
  N      1.758606   -1.010888    0.958019
  C      2.466155   -0.225915   -0.047865
  C      2.867887   -1.058402   -1.246649
  C      2.344328   -2.338825   -1.448056
  C      2.711091   -3.102178   -2.562213
  O      2.223501   -4.359222   -2.813673
  C      1.423864   -5.001843   -1.837191
  C      1.031256   -6.368097   -2.368883
  C      3.623090   -2.590114   -3.502670
  C      4.136257   -1.301780   -3.304095
  C      3.769923   -0.534011   -2.190868
  O      4.230601    0.728829   -1.939613
  C      5.070258    1.367854   -2.881660
  C      5.412172    2.749186   -2.354252
  C      4.042586   -3.433849   -4.683526
  N      2.940179   -3.647487   -5.624147
  H      1.358597   -0.396330    1.664886
  H      2.414996   -1.620792    1.448547
  H      3.368425    0.297013    0.328268
  H      1.793902    0.580863   -0.391383
  H      1.634662   -2.703764   -0.706816
  H      0.525581   -4.397194   -1.613642
  H      1.993338   -5.093733   -0.893224
  H      0.417146   -6.276308   -3.278261
  H      0.449617   -6.919844   -1.614214
  H      1.926725   -6.956903   -2.619242
  H      4.834754   -0.909040   -4.044080
  H      4.552531    1.437572   -3.856964
  H      5.989941    0.774125   -3.043962
  H      4.495546    3.331623   -2.176758
  H      6.036455    3.292689   -3.080172
  H      5.964562    2.681793   -1.404266
  H      4.476820   -4.375977   -4.283068
  H      4.856602   -2.914942   -5.215190
  H      2.193098   -4.140454   -5.133603
  H      3.248755   -4.273233   -6.369472

 Multiplicity           Mult            ....    1
 Number of Electrons    NEL             ....  122
 Basis Dimension        Dim             ....  324

ORBITAL ENERGIES
----------------

  NO   OCC          E(Eh)            E(eV)
   0   2.0000     -19.153840      -521.2025
   1   2.0000     -19.153119      -521.1829
   2   2.0000     -14.305928      -389.2841
   3   2.0000     -14.285082      -388.7168
   4   2.0000     -10.240822      -278.6669
   5   2.0000     -10.240348      -278.6540
   6   2.0000     -10.230234      -278.3788
   7   2.0000     -10.228894      -278.3424
   8   2.0000     -10.206050      -277.7207
   9   2.0000     -10.198340      -277.5110
  10   2.0000     -10.186769      -277.1961
  11   2.0000     -10.186030      -277.1760
  12   2.0000     -10.179171      -276.9893
  13   2.0000     -10.177531      -276.9447
  14   2.0000     -10.177187      -276.9353
  15   2.0000     -10.171992      -276.7940
  16   2.0000      -1.047061       -28.4920
  17   2.0000      -1.045902       -28.4604
  18   2.0000      -0.874277       -23.7903
  19   2.0000      -0.858485       -23.3606
  20   2.0000      -0.828294       -22.5390
  21   2.0000      -0.775865       -21.1124
  22   2.0000      -0.754536       -20.5320
  23   2.0000      -0.742935       -20.2163
  24   2.0000      -0.701557       -19.0903
  25   2.0000      -0.672947       -18.3118
  26   2.0000      -0.642037       -17.4707
  27   2.0000      -0.628445       -17.1008
  28   2.0000      -0.601949       -16.3799
  29   2.0000      -0.571377       -15.5479
  30   2.0000      -0.565968       -15.4008
  31   2.0000      -0.520807       -14.1719
  32   2.0000      -0.517708       -14.0875
  33   2.0000      -0.496325       -13.5057
  34   2.0000      -0.485179       -13.2024
  35   2.0000      -0.480370       -13.0715
  36   2.0000      -0.477764       -13.0006
  37   2.0000      -0.460909       -12.5420
  38   2.0000      -0.439857       -11.9691
  39   2.0000      -0.433478       -11.7955
  40   2.0000      -0.420698       -11.4478
  41   2.0000      -0.415698       -11.3117
  42   2.0000      -0.411122       -11.1872
  43   2.0000      -0.402296       -10.9470
  44   2.0000      -0.395154       -10.7527
  45   2.0000      -0.391227       -10.6458
  46   2.0000      -0.386488       -10.5169
  47   2.0000      -0.384275       -10.4566
  48   2.0000      -0.374332       -10.1861
  49   2.0000      -0.370651       -10.0859
  50   2.0000      -0.364736        -9.9250
  51   2.0000      -0.349471        -9.5096
  52   2.0000      -0.346716        -9.4346
  53   2.0000      -0.330877        -9.0036
  54   2.0000      -0.326984        -8.8977
  55   2.0000      -0.308432        -8.3929
  56   2.0000      -0.283137        -7.7046
  57   2.0000      -0.242893        -6.6095
  58   2.0000      -0.232766        -6.3339
  59   2.0000      -0.218625        -5.9491
  60   2.0000      -0.193067        -5.2536
  61   0.0000       0.000675         0.0184
  62   0.0000       0.024347         0.6625
  63   0.0000       0.053344         1.4516
  64   0.0000       0.060179         1.6375
  65   0.0000       0.064607         1.7580

MULLIKEN ATOMIC CHARGES
-----------------------
   0 N :   -0.212462
   1 C :    0.199917
   2 C :   -0.124841
   3 C :   -0.148791
   4 C :    0.242203
   5 O :   -0.344647
   6 C :    0.165512
   7 C :    0.007684
   8 C :   -0.063474
   9 C :   -0.153729
  10 C :    0.230882
  11 O :   -0.334771
  12 C :    0.163276
  13 C :    0.010191
  14 C :    0.218605
  15 N :   -0.229048
  16 H :    0.089196
  17 H :    0.090616
  18 H :   -0.006649
  19 H :    0.008830
  20 H :   -0.037440
  21 H :    0.014780
  22 H :    0.000216
  23 H :    0.023970
  24 H :    0.016411
  25 H :    0.023169
  26 H :   -0.044864
  27 H :    0.005788
  28 H :    0.006348
  29 H :    0.024568
  30 H :    0.015791
  31 H :    0.022261
  32 H :   -0.018387
  33 H :   -0.031647
  34 H :    0.091366
  35 H :    0.079169
Sum of atomic charges:   -0.0000000

LOEWDIN ATOMIC CHARGES
----------------------
   0 N :   -0.112485
   1 C :    0.028157
   2 C :   -0.051941
   3 C :   -0.066772
   4 C :    0.038694
   5 O :   -0.115041
   6 C :    0.084588
   7 C :   -0.063426
   8 C :   -0.044834
   9 C :   -0.065605
  10 C :    0.037006
  11 O :   -0.111879
  12 C :    0.083679
  13 C :   -0.062527
  14 C :    0.030865
  15 N :   -0.126111
  16 H :    0.056332
  17 H :    0.054478
  18 H :    0.006956
  19 H :    0.029023
  20 H :    0.023035
  21 H :    0.011944
  22 H :    0.009141
  23 H :    0.027438
  24 H :    0.030499
  25 H :    0.028106
  26 H :    0.023956
  27 H :    0.010247
  28 H :    0.008387
  29 H :    0.028693
  30 H :    0.029997
  31 H :    0.027698
  32 H :    0.002971
  33 H :    0.013849
  34 H :    0.045501
  35 H :    0.049382

  Mayer bond orders larger than 0.100000
B(  0-N ,  1-C ) :   1.1037 B(  0-N , 16-H ) :   0.9639 B(  0-N , 17-H ) :   0.9683
B(  1-C ,  2-C ) :   1.0161 B(  1-C , 18-H ) :   0.9226 B(  1-C , 19-H ) :   0.9151
B(  2-C ,  3-C ) :   1.3727 B(  2-C , 10-C ) :   1.3907 B(  3-C ,  4-C ) :   1.2335
B(  3-C , 20-H ) :   0.9861 B(  4-C ,  5-O ) :   1.0951 B(  4-C ,  8-C ) :   1.4003
B(  5-O ,  6-C ) :   0.9522 B(  6-C ,  7-C ) :   1.1037 B(  6-C , 21-H ) :   0.9431
B(  6-C , 22-H ) :   0.9452 B(  7-C , 23-H ) :   0.9665 B(  7-C , 24-H ) :   0.9587
B(  7-C , 25-H ) :   0.9633 B(  8-C ,  9-C ) :   1.3714 B(  8-C , 14-C ) :   1.0321
B(  9-C , 10-C ) :   1.2765 B(  9-C , 26-H ) :   0.9910 B( 10-C , 11-O ) :   1.1236
B( 11-O , 12-C ) :   0.9559 B( 12-C , 13-C ) :   1.1060 B( 12-C , 27-H ) :   0.9444
B( 12-C , 28-H ) :   0.9427 B( 13-C , 29-H ) :   0.9644 B( 13-C , 30-H ) :   0.9589
B( 13-C , 31-H ) :   0.9650 B( 14-C , 15-N ) :   1.0828 B( 14-C , 32-H ) :   0.9113
B( 14-C , 33-H ) :   0.9155 B( 15-N , 34-H ) :   0.9662 B( 15-N , 35-H ) :   0.9640

Dispersion correction           -0.061848822
FINAL SINGLE POINT ENERGY      -728.784048569130

DIPOLE MOMENT
-------------
                                X             Y             Z
Electronic contribution:      0.17160       0.58834      -0.19813
Nuclear contribution   :      0.16106      -0.68799       0.87301
                        -----------------------------------------
Total Dipole Moment    :      0.33265      -0.09965       0.67488
                        -----------------------------------------
Magnitude (a.u.)       :      0.75898
Magnitude (Debye)      :      1.92918

Rotational constants in cm-1:     0.023983     0.010380     0.007411
Rotational constants in MHz :   719.001071   311.181766   222.175671

                             ****ORCA TERMINATED NORMALLY****
TOTAL RUN TIME: 0 days 0 hours 36 minutes 31 seconds 975 msec
