                         Program Version 4.2.0 -  RELEASE  -
|  1> # ORCA input file
|  2> # SCF done        -27.061574824465          0.000679540548
|  3> ! B3LYP/G D3BJ Opt RIJCOSX def2-SVP def2/J
|  4> * xyz 0 1
|  5>    C        1.33787        -0.95082        -0.22201
|  6>    S        1.93639         0.66212        -0.35660
|  7>    C        0.38617         1.31311        -0.07260
|  8>    C       -0.55435         0.33762         0.11784
|  9>    C       -1.91303         0.57700         0.37056
| 10>    N       -3.03184         0.72721         0.57964
| 11>    C       -0.00473        -0.99100         0.03189
| 12>    N       -0.79861        -2.09276         0.19678
| 13>    C       -0.40124        -3.40866         0.13821
| 14>    C       -1.22817        -4.43283         0.30738
| 15>    H        2.02400        -1.76316        -0.34078
| 16>    H        0.23430         2.37416        -0.05808
| 17>    H       -1.77779        -1.91909         0.37926
| 18>    H        0.64998        -3.55428        -0.05821
| 19>    H       -2.27647        -4.28708         0.50399
| 20>    H       -0.87648        -5.44469         0.25432
| 21> *
| 22>
| 23>                          ****END OF INPUT****
 Total Charge           Charge          ....    0
 Multiplicity           Mult            ....    1
 Number of Electrons    NEL             ....   78
Dispersion correction           -0.032215783
FINAL SINGLE POINT ENERGY      -777.645382645969
Dispersion correction            ... done
Dispersion correction           -0.032032567
FINAL SINGLE POINT ENERGY      -777.648276707132
Dispersion correction            ... done
Dispersion correction           -0.032013931
FINAL SINGLE POINT ENERGY      -777.648376296316
Dispersion correction            ... done
FINAL SINGLE POINT ENERGY      -777.648377483632
FINAL SINGLE POINT ENERGY      -777.648354721934
FINAL SINGLE POINT ENERGY      -777.648363596827
FINAL SINGLE POINT ENERGY      -777.648345034214
FINAL SINGLE POINT ENERGY      -777.648259168294
FINAL SINGLE POINT ENERGY      -777.647930564526
FINAL SINGLE POINT ENERGY      -777.648098328845
FINAL SINGLE POINT ENERGY      -777.648087649747
Dispersion correction            ... done
Dispersion correction           -0.032034171
FINAL SINGLE POINT ENERGY      -777.647992641817
Dispersion correction            ... done
Dispersion correction           -0.032035421
FINAL SINGLE POINT ENERGY      -777.648010353715
Dispersion correction            ... done
                    ***********************HURRAY********************

CARTESIAN COORDINATES (ANGSTROEM)
---------------------------------
  C      1.339053   -0.976490   -0.160735
  S      1.974815    0.637863   -0.227936
  C      0.424116    1.329756   -0.015659
  C     -0.556464    0.363459    0.094743
  C     -1.941299    0.630799    0.287690
  N     -3.080897    0.791329    0.451139
  C     -0.031043   -0.985092    0.007626
  N     -0.863661   -2.081788    0.090911
  C     -0.458339   -3.403551    0.000897
  C     -1.170553   -4.466566    0.401879
  H      2.012432   -1.825636   -0.233021
  H      0.281863    2.408290    0.016742
  H     -1.814170   -1.903846    0.399504
  H      0.521498   -3.535776   -0.465251
  H     -2.149230   -4.362775    0.879123
  H     -0.782120   -5.473127    0.243939

 Multiplicity           Mult            ....    1
 Number of Electrons    NEL             ....   78
 Basis Dimension        Dim             ....  174

ORBITAL ENERGIES
----------------

  NO   OCC          E(Eh)            E(eV)
   0   2.0000     -88.899008     -2419.0650
   1   2.0000     -14.375713      -391.1830
   2   2.0000     -14.336464      -390.1150
   3   2.0000     -10.261447      -279.2282
   4   2.0000     -10.246177      -278.8126
   5   2.0000     -10.242359      -278.7088
   6   2.0000     -10.237920      -278.5880
   7   2.0000     -10.237898      -278.5874
   8   2.0000     -10.222093      -278.1573
   9   2.0000     -10.183486      -277.1068
  10   2.0000      -7.993875      -217.5244
  11   2.0000      -5.962054      -162.2357
  12   2.0000      -5.957792      -162.1198
  13   2.0000      -5.955272      -162.0512
  14   2.0000      -0.967849       -26.3365
  15   2.0000      -0.908810       -24.7300
  16   2.0000      -0.892900       -24.2970
  17   2.0000      -0.785123       -21.3643
  18   2.0000      -0.762597       -20.7513
  19   2.0000      -0.721470       -19.6322
  20   2.0000      -0.636341       -17.3157
  21   2.0000      -0.622286       -16.9333
  22   2.0000      -0.583616       -15.8810
  23   2.0000      -0.572870       -15.5886
  24   2.0000      -0.502564       -13.6755
  25   2.0000      -0.489834       -13.3291
  26   2.0000      -0.444002       -12.0819
  27   2.0000      -0.443265       -12.0619
  28   2.0000      -0.433805       -11.8044
  29   2.0000      -0.425865       -11.5884
  30   2.0000      -0.385595       -10.4926
  31   2.0000      -0.382388       -10.4053
  32   2.0000      -0.381135       -10.3712
  33   2.0000      -0.366851        -9.9825
  34   2.0000      -0.360111        -9.7991
  35   2.0000      -0.346108        -9.4181
  36   2.0000      -0.282768        -7.6945
  37   2.0000      -0.265256        -7.2180
  38   2.0000      -0.210688        -5.7331
  39   0.0000      -0.056460        -1.5363
  40   0.0000      -0.009937        -0.2704
  41   0.0000       0.001628         0.0443
  42   0.0000       0.040695         1.1074
  43   0.0000       0.042645         1.1604

MULLIKEN ATOMIC CHARGES
-----------------------
   0 C :   -0.233983
   1 S :    0.137328
   2 C :   -0.068094
   3 C :   -0.097430
   4 C :   -0.190016
   5 N :    0.088302
   6 C :    0.202310
   7 N :   -0.064199
   8 C :    0.048036
   9 C :   -0.062656
  10 H :    0.022370
  11 H :    0.040630
  12 H :    0.130130
  13 H :    0.009843
  14 H :    0.013487
  15 H :    0.023942
Sum of atomic charges:    0.0000000

LOEWDIN ATOMIC CHARGES
----------------------
   0 C :   -0.249528
   1 S :    0.465714
   2 C :   -0.153788
   3 C :   -0.125799
   4 C :   -0.036023
   5 N :   -0.068779
   6 C :    0.010971
   7 N :    0.017943
   8 C :    0.024618
   9 C :   -0.118268
  10 H :    0.024908
  11 H :    0.037823
  12 H :    0.090688
  13 H :    0.027495
  14 H :    0.022221
  15 H :    0.029806

  Mayer bond orders larger than 0.100000
B(  0-C ,  1-S ) :   1.1198 B(  0-C ,  6-C ) :   1.4585 B(  0-C , 10-H ) :   0.9687
B(  1-S ,  2-C ) :   1.2174 B(  1-S ,  3-C ) :   0.1185 B(  2-C ,  3-C ) :   1.4956
B(  2-C , 11-H ) :   0.9726 B(  3-C ,  4-C ) :   1.1268 B(  3-C ,  6-C ) :   1.2334
B(  4-C ,  5-N ) :   2.9837 B(  6-C ,  7-N ) :   1.1969 B(  7-N ,  8-C ) :   1.1125
B(  7-N , 12-H ) :   0.9069 B(  8-C ,  9-C ) :   1.9077 B(  8-C , 13-H ) :   0.9550
B(  9-C , 14-H ) :   0.9553 B(  9-C , 15-H ) :   0.9479

Dispersion correction           -0.032037336
FINAL SINGLE POINT ENERGY      -777.648007242468

DIPOLE MOMENT
-------------
                                X             Y             Z
Electronic contribution:      2.26192       9.66169      -0.60953
Nuclear contribution   :     -1.04336      -9.97675       0.47971
                        -----------------------------------------
Total Dipole Moment    :      1.21856      -0.31506      -0.12982
                        -----------------------------------------
Magnitude (a.u.)       :      1.26531
Magnitude (Debye)      :      3.21616

Rotational constants in cm-1:     0.049936     0.030170     0.018854
Rotational constants in MHz :  1497.035366   904.474894   565.229170

                             ****ORCA TERMINATED NORMALLY****
TOTAL RUN TIME: 0 days 0 hours 9 minutes 39 seconds 272 msec
