                         Program Version 4.2.0 -  RELEASE  -
|  1> # ORCA input file
|  2> # SCF done        -32.781903881916          0.000628138479
|  3> ! B3LYP/G D3BJ Opt RIJCOSX def2-SVP def2/J
|  4> * xyz 0 1
|  5>    C        0.80862         1.30004         0.04744
|  6>    C        1.40127         0.04740        -0.02068
|  7>    C        2.89041        -0.10969        -0.09964
|  8>    C        0.58159        -1.07036        -0.00648
|  9>    C       -0.80626        -0.96996         0.07491
| 10>    C       -1.39192         0.30541         0.14883
| 11>    C       -0.56784         1.41883         0.12999
| 12>    C       -2.88023         0.47690         0.22323
| 13>    C       -1.63262        -2.16700         0.09915
| 14>    C       -1.31961        -3.33916        -0.47077
| 15>    C       -2.17168        -4.49907        -0.41454
| 16>    C       -1.89129        -5.65378        -1.01406
| 17>    H        1.42353         2.18861         0.03826
| 18>    H        3.38314         0.85902        -0.11785
| 19>    H        3.16837        -0.65852        -0.99867
| 20>    H        3.25823        -0.67057         0.75902
| 21>    H        1.03512        -2.05053        -0.03524
| 22>    H       -1.01105         2.40384         0.17994
| 23>    H       -3.26693         0.08326         1.16364
| 24>    H       -3.37227        -0.05112        -0.59231
| 25>    H       -3.14436         1.52982         0.16266
| 26>    H       -2.58257        -2.08286         0.61130
| 27>    H       -0.40034        -3.44999        -1.02970
| 28>    H       -3.08682        -4.39420         0.15586
| 29>    H       -0.98931        -5.78600        -1.58933
| 30>    H       -2.54863        -6.50384        -0.95307
| 31> *
| 32>
| 33>                          ****END OF INPUT****
 Total Charge           Charge          ....    0
 Multiplicity           Mult            ....    1
 Number of Electrons    NEL             ....   86
Dispersion correction           -0.047179308
FINAL SINGLE POINT ENERGY      -465.398119618185
Dispersion correction            ... done
Dispersion correction           -0.046725523
FINAL SINGLE POINT ENERGY      -465.401781937394
Dispersion correction            ... done
Dispersion correction           -0.046654116
FINAL SINGLE POINT ENERGY      -465.401906675182
Dispersion correction            ... done
FINAL SINGLE POINT ENERGY      -465.401950942945
FINAL SINGLE POINT ENERGY      -465.401959692610
FINAL SINGLE POINT ENERGY      -465.401966186690
FINAL SINGLE POINT ENERGY      -465.401973431309
FINAL SINGLE POINT ENERGY      -465.401972688752
FINAL SINGLE POINT ENERGY      -465.401946359335
FINAL SINGLE POINT ENERGY      -465.401923322560
FINAL SINGLE POINT ENERGY      -465.401923749756
FINAL SINGLE POINT ENERGY      -465.401929926997
FINAL SINGLE POINT ENERGY      -465.401926007544
FINAL SINGLE POINT ENERGY      -465.401913537706
Dispersion correction            ... done
Dispersion correction           -0.046637866
FINAL SINGLE POINT ENERGY      -465.401907984052
Dispersion correction            ... done
Dispersion correction           -0.046637368
FINAL SINGLE POINT ENERGY      -465.401911080169
Dispersion correction            ... done
                    ***********************HURRAY********************

CARTESIAN COORDINATES (ANGSTROEM)
---------------------------------
  C      0.821916    1.332534    0.055091
  C      1.424539    0.071784   -0.042766
  C      2.922431   -0.087127   -0.110206
  C      0.591505   -1.050329   -0.064171
  C     -0.809341   -0.956833    0.016390
  C     -1.402284    0.327438    0.142157
  C     -0.566184    1.448859    0.147072
  C     -2.895493    0.500157    0.260715
  C     -1.647320   -2.159428   -0.010141
  C     -1.306311   -3.380125   -0.482914
  C     -2.193842   -4.527451   -0.440391
  C     -1.901139   -5.747136   -0.926550
  H      1.443486    2.231868    0.073910
  H      3.437370    0.866699    0.075736
  H      3.244351   -0.459041   -1.097994
  H      3.280077   -0.814237    0.635674
  H      1.050412   -2.040451   -0.119168
  H     -1.016360    2.441550    0.233069
  H     -3.300483   -0.028333    1.140404
  H     -3.428777    0.103809   -0.619034
  H     -3.160194    1.562263    0.363713
  H     -2.657307   -2.054533    0.396496
  H     -0.323844   -3.535597   -0.941100
  H     -3.169804   -4.361528    0.032110
  H     -0.938384   -5.954564   -1.403714
  H     -2.612468   -6.573768   -0.862498

 Multiplicity           Mult            ....    1
 Number of Electrons    NEL             ....   86
 Basis Dimension        Dim             ....  238

ORBITAL ENERGIES
----------------

  NO   OCC          E(Eh)            E(eV)
   0   2.0000     -10.193986      -277.3925
   1   2.0000     -10.193823      -277.3880
   2   2.0000     -10.193491      -277.3790
   3   2.0000     -10.192178      -277.3433
   4   2.0000     -10.192009      -277.3387
   5   2.0000     -10.191292      -277.3192
   6   2.0000     -10.188074      -277.2316
   7   2.0000     -10.186856      -277.1985
   8   2.0000     -10.186586      -277.1911
   9   2.0000     -10.185139      -277.1517
  10   2.0000     -10.184732      -277.1407
  11   2.0000     -10.183709      -277.1128
  12   2.0000      -0.855196       -23.2711
  13   2.0000      -0.804441       -21.8900
  14   2.0000      -0.780074       -21.2269
  15   2.0000      -0.754446       -20.5295
  16   2.0000      -0.714137       -19.4327
  17   2.0000      -0.705124       -19.1874
  18   2.0000      -0.649329       -17.6692
  19   2.0000      -0.624500       -16.9935
  20   2.0000      -0.584954       -15.9174
  21   2.0000      -0.552842       -15.0436
  22   2.0000      -0.546942       -14.8831
  23   2.0000      -0.490997       -13.3607
  24   2.0000      -0.485127       -13.2010
  25   2.0000      -0.458575       -12.4785
  26   2.0000      -0.450693       -12.2640
  27   2.0000      -0.428974       -11.6730
  28   2.0000      -0.423424       -11.5220
  29   2.0000      -0.414651       -11.2832
  30   2.0000      -0.404860       -11.0168
  31   2.0000      -0.399987       -10.8842
  32   2.0000      -0.397337       -10.8121
  33   2.0000      -0.385134       -10.4800
  34   2.0000      -0.373299       -10.1580
  35   2.0000      -0.357066        -9.7163
  36   2.0000      -0.352163        -9.5828
  37   2.0000      -0.336694        -9.1619
  38   2.0000      -0.334654        -9.1064
  39   2.0000      -0.326409        -8.8820
  40   2.0000      -0.272447        -7.4137
  41   2.0000      -0.239629        -6.5206
  42   2.0000      -0.211279        -5.7492
  43   0.0000      -0.054622        -1.4863
  44   0.0000      -0.005276        -0.1436
  45   0.0000       0.020258         0.5512
  46   0.0000       0.061316         1.6685
  47   0.0000       0.067342         1.8325

MULLIKEN ATOMIC CHARGES
-----------------------
   0 C :   -0.005212
   1 C :   -0.026174
   2 C :    0.087436
   3 C :   -0.078107
   4 C :    0.104467
   5 C :   -0.085446
   6 C :   -0.019593
   7 C :    0.086097
   8 C :   -0.023323
   9 C :    0.017087
  10 C :    0.004583
  11 C :   -0.030208
  12 H :   -0.035164
  13 H :    0.002873
  14 H :    0.022738
  15 H :    0.021460
  16 H :   -0.042924
  17 H :   -0.038020
  18 H :    0.027437
  19 H :    0.028042
  20 H :    0.002319
  21 H :   -0.025227
  22 H :   -0.016461
  23 H :   -0.014322
  24 H :    0.012461
  25 H :    0.023183
Sum of atomic charges:   -0.0000000

LOEWDIN ATOMIC CHARGES
----------------------
   0 C :   -0.029673
   1 C :   -0.029607
   2 C :   -0.044297
   3 C :   -0.017255
   4 C :   -0.028760
   5 C :   -0.023140
   6 C :   -0.029438
   7 C :   -0.047460
   8 C :   -0.018881
   9 C :   -0.023419
  10 C :   -0.026763
  11 C :   -0.054281
  12 H :    0.022705
  13 H :    0.026456
  14 H :    0.033622
  15 H :    0.032468
  16 H :    0.021052
  17 H :    0.022604
  18 H :    0.031814
  19 H :    0.033808
  20 H :    0.027616
  21 H :    0.024343
  22 H :    0.024083
  23 H :    0.026429
  24 H :    0.021226
  25 H :    0.024750

  Mayer bond orders larger than 0.100000
B(  0-C ,  1-C ) :   1.3735 B(  0-C ,  6-C ) :   1.3555 B(  0-C , 12-H ) :   0.9855
B(  1-C ,  2-C ) :   1.0571 B(  1-C ,  3-C ) :   1.3751 B(  2-C , 13-H ) :   0.9585
B(  2-C , 14-H ) :   0.9542 B(  2-C , 15-H ) :   0.9575 B(  3-C ,  4-C ) :   1.3401
B(  3-C , 16-H ) :   0.9891 B(  4-C ,  5-C ) :   1.3342 B(  4-C ,  8-C ) :   1.0612
B(  5-C ,  6-C ) :   1.3999 B(  5-C ,  7-C ) :   1.0971 B(  6-C , 17-H ) :   0.9818
B(  7-C , 18-H ) :   0.9409 B(  7-C , 19-H ) :   0.9437 B(  7-C , 20-H ) :   0.9512
B(  8-C ,  9-C ) :   1.7172 B(  8-C , 11-C ) :   0.1176 B(  8-C , 21-H ) :   0.9547
B(  9-C , 10-C ) :   1.1256 B(  9-C , 22-H ) :   0.9627 B( 10-C , 11-C ) :   1.8779
B( 10-C , 23-H ) :   0.9651 B( 11-C , 24-H ) :   0.9517 B( 11-C , 25-H ) :   0.9484

Dispersion correction           -0.046635321
FINAL SINGLE POINT ENERGY      -465.401916130191

DIPOLE MOMENT
-------------
                                X             Y             Z
Electronic contribution:      0.05850       1.83665       0.36795
Nuclear contribution   :     -0.02576      -1.72349      -0.33673
                        -----------------------------------------
Total Dipole Moment    :      0.03273       0.11316       0.03122
                        -----------------------------------------
Magnitude (a.u.)       :      0.12186
Magnitude (Debye)      :      0.30975

Rotational constants in cm-1:     0.048133     0.017408     0.012902
Rotational constants in MHz :  1442.977621   521.865732   386.782659

                             ****ORCA TERMINATED NORMALLY****
TOTAL RUN TIME: 0 days 0 hours 24 minutes 54 seconds 840 msec
