                         Program Version 4.2.0 -  RELEASE  -
|  1> # ORCA input file
|  2> # SCF done        -36.827093573588          0.000918283843
|  3> ! B3LYP/G D3BJ Opt RIJCOSX def2-SVP def2/J
|  4> * xyz 0 1
|  5>    C        1.50977        -1.27715         0.06991
|  6>    S        2.72018        -0.08557         0.18466
|  7>    C        1.54837         1.20956         0.13873
|  8>    C        0.26298         0.69905         0.06018
|  9>    C        0.25713        -0.73539         0.01684
| 10>    C       -0.94916        -1.56043        -0.13302
| 11>    O       -0.92314        -2.77006        -0.13623
| 12>    C       -2.21821        -0.76034        -0.31355
| 13>    C       -2.18233         0.53982         0.48420
| 14>    C       -1.01639         1.41838         0.07324
| 15>    O       -1.17610         2.58555        -0.20386
| 16>    C        2.11825         2.53069         0.23902
| 17>    C        1.50782         3.70151         0.07129
| 18>    H        1.75774        -2.31987         0.03832
| 19>    H       -3.07270        -1.37547        -0.02706
| 20>    H       -2.31314        -0.53532        -1.38063
| 21>    H       -2.07505         0.31274         1.54891
| 22>    H       -3.10595         1.10399         0.34479
| 23>    H        3.18114         2.51268         0.45544
| 24>    H        0.46197         3.77752        -0.16789
| 25>    H        2.05930         4.62038         0.17516
| 26> *
| 27>
| 28>                          ****END OF INPUT****
 Total Charge           Charge          ....    0
 Multiplicity           Mult            ....    1
 Number of Electrons    NEL             ....  100
Dispersion correction           -0.047853768
FINAL SINGLE POINT ENERGY      -934.040559560287
Dispersion correction            ... done
Dispersion correction           -0.047398066
FINAL SINGLE POINT ENERGY      -934.043328150868
Dispersion correction            ... done
Dispersion correction           -0.047381151
FINAL SINGLE POINT ENERGY      -934.043688110684
Dispersion correction            ... done
FINAL SINGLE POINT ENERGY      -934.043816586994
FINAL SINGLE POINT ENERGY      -934.043840869057
FINAL SINGLE POINT ENERGY      -934.043830301697
FINAL SINGLE POINT ENERGY      -934.043776030059
FINAL SINGLE POINT ENERGY      -934.043619484006
FINAL SINGLE POINT ENERGY      -934.043790911969
FINAL SINGLE POINT ENERGY      -934.043817189153
Dispersion correction            ... done
Dispersion correction           -0.047176160
FINAL SINGLE POINT ENERGY      -934.043806265401
Dispersion correction            ... done
Dispersion correction           -0.047179140
FINAL SINGLE POINT ENERGY      -934.043806985056
Dispersion correction            ... done
                    ***********************HURRAY********************

CARTESIAN COORDINATES (ANGSTROEM)
---------------------------------
  C      1.536181   -1.294323    0.052521
  S      2.734657   -0.073611    0.112968
  C      1.560491    1.227825    0.112313
  C      0.265324    0.691361    0.075819
  C      0.273069   -0.752903    0.031858
  C     -0.946439   -1.593751   -0.080917
  O     -0.900142   -2.807281   -0.052678
  C     -2.240686   -0.827930   -0.296197
  C     -2.260684    0.547806    0.375875
  C     -1.024293    1.415476    0.143370
  O     -1.137211    2.626680    0.080076
  C      2.149822    2.560024    0.171472
  C      1.556890    3.766354    0.129254
  H      1.783735   -2.353868    0.012545
  H     -3.071821   -1.463396    0.041997
  H     -2.354370   -0.713953   -1.390303
  H     -2.341593    0.422739    1.471535
  H     -3.130397    1.141439    0.061497
  H      3.243185    2.536981    0.256129
  H      0.476886    3.873961    0.040053
  H      2.179875    4.662639    0.189264

 Multiplicity           Mult            ....    1
 Number of Electrons    NEL             ....  100
 Basis Dimension        Dim             ....  226

ORBITAL ENERGIES
----------------

  NO   OCC          E(Eh)            E(eV)
   0   2.0000     -88.902354     -2419.1560
   1   2.0000     -19.132680      -520.6267
   2   2.0000     -19.129590      -520.5426
   3   2.0000     -10.287696      -279.9424
   4   2.0000     -10.284450      -279.8541
   5   2.0000     -10.252148      -278.9751
   6   2.0000     -10.237790      -278.5844
   7   2.0000     -10.219757      -278.0937
   8   2.0000     -10.216029      -277.9923
   9   2.0000     -10.215404      -277.9753
  10   2.0000     -10.208713      -277.7932
  11   2.0000     -10.208546      -277.7887
  12   2.0000     -10.197410      -277.4856
  13   2.0000      -7.997574      -217.6251
  14   2.0000      -5.965289      -162.3238
  15   2.0000      -5.961267      -162.2143
  16   2.0000      -5.959561      -162.1679
  17   2.0000      -1.040197       -28.3052
  18   2.0000      -1.037170       -28.2228
  19   2.0000      -0.908999       -24.7351
  20   2.0000      -0.822932       -22.3931
  21   2.0000      -0.796298       -21.6684
  22   2.0000      -0.759988       -20.6803
  23   2.0000      -0.735458       -20.0128
  24   2.0000      -0.690771       -18.7968
  25   2.0000      -0.634140       -17.2558
  26   2.0000      -0.618638       -16.8340
  27   2.0000      -0.592367       -16.1191
  28   2.0000      -0.540952       -14.7200
  29   2.0000      -0.502645       -13.6777
  30   2.0000      -0.498654       -13.5691
  31   2.0000      -0.481469       -13.1014
  32   2.0000      -0.476876       -12.9765
  33   2.0000      -0.468098       -12.7376
  34   2.0000      -0.444747       -12.1022
  35   2.0000      -0.433477       -11.7955
  36   2.0000      -0.430704       -11.7200
  37   2.0000      -0.428974       -11.6730
  38   2.0000      -0.414163       -11.2700
  39   2.0000      -0.396805       -10.7976
  40   2.0000      -0.390740       -10.6326
  41   2.0000      -0.375447       -10.2164
  42   2.0000      -0.370615       -10.0849
  43   2.0000      -0.367030        -9.9874
  44   2.0000      -0.357149        -9.7185
  45   2.0000      -0.318380        -8.6636
  46   2.0000      -0.282354        -7.6832
  47   2.0000      -0.262422        -7.1409
  48   2.0000      -0.261046        -7.1034
  49   2.0000      -0.240828        -6.5533
  50   0.0000      -0.084289        -2.2936
  51   0.0000      -0.068731        -1.8703
  52   0.0000      -0.006916        -0.1882
  53   0.0000       0.010923         0.2972
  54   0.0000       0.042767         1.1637

MULLIKEN ATOMIC CHARGES
-----------------------
   0 C :   -0.091597
   1 S :    0.144975
   2 C :   -0.157780
   3 C :    0.078040
   4 C :    0.000903
   5 C :    0.028625
   6 O :   -0.184501
   7 C :    0.053818
   8 C :    0.043886
   9 C :    0.017067
  10 O :   -0.190728
  11 C :    0.023980
  12 C :   -0.010723
  13 H :    0.043615
  14 H :    0.016727
  15 H :    0.045746
  16 H :    0.046101
  17 H :    0.015535
  18 H :   -0.006984
  19 H :    0.060437
  20 H :    0.022860
Sum of atomic charges:    0.0000000

LOEWDIN ATOMIC CHARGES
----------------------
   0 C :   -0.149234
   1 S :    0.484689
   2 C :   -0.126211
   3 C :   -0.100089
   4 C :   -0.099327
   5 C :    0.077100
   6 O :   -0.150386
   7 C :   -0.051919
   8 C :   -0.049172
   9 C :    0.083680
  10 O :   -0.146063
  11 C :   -0.064107
  12 C :   -0.005914
  13 H :    0.037996
  14 H :    0.040456
  15 H :    0.049339
  16 H :    0.048190
  17 H :    0.039110
  18 H :    0.026356
  19 H :    0.028304
  20 H :    0.027204

  Mayer bond orders larger than 0.100000
B(  0-C ,  1-S ) :   1.1745 B(  0-C ,  4-C ) :   1.5173 B(  0-C , 13-H ) :   0.9611
B(  1-S ,  2-C ) :   1.1702 B(  2-C ,  3-C ) :   1.4313 B(  2-C , 11-C ) :   1.1253
B(  3-C ,  4-C ) :   1.2065 B(  3-C ,  9-C ) :   0.9625 B(  4-C ,  5-C ) :   0.9444
B(  5-C ,  6-O ) :   2.1848 B(  5-C ,  7-C ) :   1.0078 B(  7-C ,  8-C ) :   1.0529
B(  7-C , 14-H ) :   0.9081 B(  7-C , 15-H ) :   0.9180 B(  8-C ,  9-C ) :   1.0167
B(  8-C , 16-H ) :   0.9207 B(  8-C , 17-H ) :   0.9104 B(  9-C , 10-O ) :   2.1009
B( 11-C , 12-C ) :   1.9167 B( 11-C , 18-H ) :   0.9370 B( 12-C , 19-H ) :   0.9286
B( 12-C , 20-H ) :   0.9349

Dispersion correction           -0.047181020
FINAL SINGLE POINT ENERGY      -934.043815540505

DIPOLE MOMENT
-------------
                                X             Y             Z
Electronic contribution:      5.99083      -4.59316      -0.07913
Nuclear contribution   :     -5.55701       4.79875       0.11674
                        -----------------------------------------
Total Dipole Moment    :      0.43382       0.20560       0.03761
                        -----------------------------------------
Magnitude (a.u.)       :      0.48154
Magnitude (Debye)      :      1.22399

Rotational constants in cm-1:     0.034296     0.022665     0.013794
Rotational constants in MHz :  1028.159766   679.493151   413.544971

                             ****ORCA TERMINATED NORMALLY****
TOTAL RUN TIME: 0 days 0 hours 16 minutes 40 seconds 214 msec
