                         Program Version 4.2.0 -  RELEASE  -
|  1> # ORCA input file
|  2> # SCF done        -39.146880329312          0.000299534591
|  3> ! B3LYP/G D3BJ Opt RIJCOSX def2-SVP def2/J
|  4> * xyz 0 1
|  5>    C       -1.61684         1.27419        -0.03886
|  6>    S       -2.69165        -0.04769        -0.05580
|  7>    C       -1.41784        -1.21087        -0.06072
|  8>    C       -0.17726        -0.57252        -0.01214
|  9>    C       -0.30382         0.86772        -0.01335
| 10>    C        0.89223         1.64408         0.02050
| 11>    N        0.85680         3.07249        -0.00049
| 12>    O       -0.22649         3.62709        -0.03172
| 13>    O        1.91966         3.66490         0.01176
| 14>    C        2.11534         1.02161         0.08497
| 15>    C        2.21679        -0.37509         0.14437
| 16>    C        1.09736        -1.16120         0.10271
| 17>    C       -1.76773        -2.60524        -0.13150
| 18>    C       -1.02640        -3.58418        -0.64584
| 19>    H       -1.99938         2.27368        -0.05313
| 20>    H        3.00455         1.63354         0.10985
| 21>    H        3.19325        -0.82489         0.23205
| 22>    H        1.18113        -2.23261         0.18396
| 23>    H       -2.76133        -2.83367         0.23441
| 24>    H       -0.06379        -3.41180        -1.09331
| 25>    H       -1.38648        -4.59784        -0.66094
| 26> *
| 27>
| 28>                          ****END OF INPUT****
 Total Charge           Charge          ....    0
 Multiplicity           Mult            ....    1
 Number of Electrons    NEL             ....  106
Dispersion correction           -0.049601838
FINAL SINGLE POINT ENERGY      -988.047126094949
Dispersion correction            ... done
Dispersion correction           -0.049280810
FINAL SINGLE POINT ENERGY      -988.050697576961
Dispersion correction            ... done
Dispersion correction           -0.049226644
FINAL SINGLE POINT ENERGY      -988.050879118775
Dispersion correction            ... done
FINAL SINGLE POINT ENERGY      -988.050750866273
FINAL SINGLE POINT ENERGY      -988.050678236921
FINAL SINGLE POINT ENERGY      -988.050845030758
FINAL SINGLE POINT ENERGY      -988.050884356263
Dispersion correction            ... done
Dispersion correction           -0.049223063
FINAL SINGLE POINT ENERGY      -988.050879709151
Dispersion correction            ... done
Dispersion correction           -0.049227637
FINAL SINGLE POINT ENERGY      -988.050880376759
Dispersion correction            ... done
                    ***********************HURRAY********************

CARTESIAN COORDINATES (ANGSTROEM)
---------------------------------
  C     -1.639720    1.294060   -0.063419
  S     -2.700515   -0.046213   -0.078084
  C     -1.430476   -1.217039   -0.074793
  C     -0.182524   -0.566497   -0.036032
  C     -0.309871    0.886911   -0.033937
  C      0.903805    1.652673    0.024680
  N      0.874942    3.120971    0.038025
  O     -0.207191    3.669637   -0.125709
  O      1.927692    3.717264    0.209044
  C      2.131962    1.037174    0.086838
  C      2.233233   -0.378338    0.106743
  C      1.105564   -1.165162    0.053742
  C     -1.781353   -2.627946   -0.120543
  C     -1.040223   -3.634993   -0.614117
  H     -2.019966    2.309168   -0.078077
  H      3.019881    1.665867    0.139072
  H      3.219383   -0.840274    0.183135
  H      1.193064   -2.250708    0.102430
  H     -2.774718   -2.870266    0.274661
  H     -0.068488   -3.474150   -1.084418
  H     -1.416381   -4.660439   -0.582460

 Multiplicity           Mult            ....    1
 Number of Electrons    NEL             ....  106
 Basis Dimension        Dim             ....  235

ORBITAL ENERGIES
----------------

  NO   OCC          E(Eh)            E(eV)
   0   2.0000     -88.901922     -2419.1443
   1   2.0000     -19.159663      -521.3609
   2   2.0000     -19.158310      -521.3241
   3   2.0000     -14.557863      -396.1396
   4   2.0000     -10.253530      -279.0127
   5   2.0000     -10.239560      -278.6326
   6   2.0000     -10.227653      -278.3086
   7   2.0000     -10.227140      -278.2946
   8   2.0000     -10.224515      -278.2232
   9   2.0000     -10.224156      -278.2134
  10   2.0000     -10.223978      -278.2086
  11   2.0000     -10.221961      -278.1537
  12   2.0000     -10.216961      -278.0177
  13   2.0000     -10.207090      -277.7490
  14   2.0000      -7.996814      -217.6044
  15   2.0000      -5.964377      -162.2989
  16   2.0000      -5.960296      -162.1879
  17   2.0000      -5.959315      -162.1612
  18   2.0000      -1.219650       -33.1884
  19   2.0000      -1.044580       -28.4245
  20   2.0000      -0.916045       -24.9268
  21   2.0000      -0.864717       -23.5301
  22   2.0000      -0.814009       -22.1503
  23   2.0000      -0.793082       -21.5808
  24   2.0000      -0.757722       -20.6187
  25   2.0000      -0.723757       -19.6944
  26   2.0000      -0.692833       -18.8529
  27   2.0000      -0.629137       -17.1197
  28   2.0000      -0.619368       -16.8538
  29   2.0000      -0.598676       -16.2908
  30   2.0000      -0.560311       -15.2468
  31   2.0000      -0.539426       -14.6785
  32   2.0000      -0.531850       -14.4724
  33   2.0000      -0.520175       -14.1547
  34   2.0000      -0.508483       -13.8365
  35   2.0000      -0.488092       -13.2817
  36   2.0000      -0.481707       -13.1079
  37   2.0000      -0.472893       -12.8681
  38   2.0000      -0.444348       -12.0913
  39   2.0000      -0.430854       -11.7241
  40   2.0000      -0.419299       -11.4097
  41   2.0000      -0.401813       -10.9339
  42   2.0000      -0.391789       -10.6611
  43   2.0000      -0.374712       -10.1964
  44   2.0000      -0.368858       -10.0371
  45   2.0000      -0.363317        -9.8864
  46   2.0000      -0.327242        -8.9047
  47   2.0000      -0.310455        -8.4479
  48   2.0000      -0.308436        -8.3930
  49   2.0000      -0.293595        -7.9891
  50   2.0000      -0.289763        -7.8848
  51   2.0000      -0.274515        -7.4699
  52   2.0000      -0.220581        -6.0023
  53   0.0000      -0.107235        -2.9180
  54   0.0000      -0.061399        -1.6708
  55   0.0000      -0.019830        -0.5396
  56   0.0000       0.000213         0.0058
  57   0.0000       0.020706         0.5634

MULLIKEN ATOMIC CHARGES
-----------------------
   0 C :   -0.137015
   1 S :    0.166108
   2 C :   -0.167781
   3 C :    0.103314
   4 C :    0.052535
   5 C :    0.170490
   6 N :    0.231323
   7 O :   -0.252818
   8 O :   -0.246016
   9 C :   -0.025649
  10 C :    0.017751
  11 C :    0.000645
  12 C :    0.020620
  13 C :   -0.037261
  14 H :    0.049427
  15 H :    0.008168
  16 H :   -0.006731
  17 H :   -0.011755
  18 H :    0.002526
  19 H :    0.029652
  20 H :    0.032468
Sum of atomic charges:   -0.0000000

LOEWDIN ATOMIC CHARGES
----------------------
   0 C :   -0.193843
   1 S :    0.507930
   2 C :   -0.185360
   3 C :   -0.042767
   4 C :   -0.051461
   5 C :   -0.023257
   6 N :    0.277123
   7 O :   -0.208511
   8 O :   -0.211089
   9 C :    0.010044
  10 C :   -0.030675
  11 C :    0.012697
  12 C :   -0.042780
  13 C :   -0.045141
  14 H :    0.031627
  15 H :    0.041890
  16 H :    0.033625
  17 H :    0.033833
  18 H :    0.032423
  19 H :    0.023488
  20 H :    0.030203

  Mayer bond orders larger than 0.100000
B(  0-C ,  1-S ) :   1.1783 B(  0-C ,  2-C ) :   0.1025 B(  0-C ,  4-C ) :   1.4354
B(  0-C , 14-H ) :   0.9529 B(  1-S ,  2-C ) :   1.1913 B(  2-C ,  3-C ) :   1.3388
B(  2-C , 12-C ) :   1.1059 B(  3-C ,  4-C ) :   1.1824 B(  3-C , 11-C ) :   1.2160
B(  4-C ,  5-C ) :   1.1611 B(  5-C ,  6-N ) :   0.8819 B(  5-C ,  9-C ) :   1.5128
B(  6-N ,  7-O ) :   1.5044 B(  6-N ,  8-O ) :   1.5372 B(  7-O ,  8-O ) :   0.2712
B(  9-C , 10-C ) :   1.1862 B(  9-C , 15-H ) :   0.9736 B( 10-C , 11-C ) :   1.4878
B( 10-C , 16-H ) :   0.9825 B( 11-C , 17-H ) :   0.9875 B( 12-C , 13-C ) :   1.9155
B( 12-C , 18-H ) :   0.9443 B( 13-C , 19-H ) :   0.9536 B( 13-C , 20-H ) :   0.9437

Dispersion correction           -0.049226974
FINAL SINGLE POINT ENERGY      -988.050877278564

DIPOLE MOMENT
-------------
                                X             Y             Z
Electronic contribution:     -2.84852      10.50108       0.66281
Nuclear contribution   :      2.65529     -12.36312      -0.66506
                        -----------------------------------------
Total Dipole Moment    :     -0.19323      -1.86204      -0.00225
                        -----------------------------------------
Magnitude (a.u.)       :      1.87204
Magnitude (Debye)      :      4.75835

Rotational constants in cm-1:     0.039854     0.015183     0.011059
Rotational constants in MHz :  1194.788357   455.185330   331.527936

                             ****ORCA TERMINATED NORMALLY****
TOTAL RUN TIME: 0 days 0 hours 16 minutes 4 seconds 384 msec
