                         Program Version 4.2.0 -  RELEASE  -
|  1> # ORCA input file
|  2> # SCF done        -30.905510587136          0.000812215794
|  3> ! B3LYP/G D3BJ Opt RIJCOSX def2-SVP def2/J
|  4> * xyz 0 1
|  5>    C        1.48967         1.14982         0.08847
|  6>    S        2.64285        -0.10641        -0.04171
|  7>    C        1.38836        -1.31044        -0.14497
|  8>    C        0.13981        -0.72529        -0.09797
|  9>    C        0.20733         0.68837         0.04711
| 10>    S       -1.11910         1.84704         0.14783
| 11>    C       -2.53491         0.73089         0.41180
| 12>    C       -2.55202        -0.36895        -0.62448
| 13>    S       -1.33929        -1.66952        -0.22502
| 14>    C        1.79955        -2.68360        -0.26398
| 15>    C        1.03821        -3.76384        -0.10805
| 16>    H        1.80094         2.16971         0.18809
| 17>    H       -3.41288         1.37097         0.32326
| 18>    H       -2.48272         0.32294         1.42227
| 19>    H       -2.33952         0.02024        -1.62098
| 20>    H       -3.51174        -0.88602        -0.63336
| 21>    H        2.85387        -2.80085        -0.48353
| 22>    H       -0.00556        -3.70904         0.14535
| 23>    H        1.45351        -4.74950        -0.22866
| 24> *
| 25>
| 26>                          ****END OF INPUT****
 Total Charge           Charge          ....    0
 Multiplicity           Mult            ....    1
 Number of Electrons    NEL             ....  104
Dispersion correction           -0.050763523
FINAL SINGLE POINT ENERGY     -1503.700232018326
Dispersion correction            ... done
Dispersion correction           -0.050320242
FINAL SINGLE POINT ENERGY     -1503.703221112869
Dispersion correction            ... done
Dispersion correction           -0.050215706
FINAL SINGLE POINT ENERGY     -1503.703555860930
Dispersion correction            ... done
FINAL SINGLE POINT ENERGY     -1503.703700811354
FINAL SINGLE POINT ENERGY     -1503.703751189745
FINAL SINGLE POINT ENERGY     -1503.703750608525
FINAL SINGLE POINT ENERGY     -1503.703789844194
Dispersion correction            ... done
Dispersion correction           -0.050106824
FINAL SINGLE POINT ENERGY     -1503.703840238665
Dispersion correction            ... done
Dispersion correction           -0.050100594
FINAL SINGLE POINT ENERGY     -1503.703844920231
Dispersion correction            ... done
                    ***********************HURRAY********************

CARTESIAN COORDINATES (ANGSTROEM)
---------------------------------
  C      1.523730    1.166292    0.121834
  S      2.660028   -0.122165    0.069663
  C      1.397605   -1.323403   -0.086948
  C      0.142862   -0.714680   -0.103387
  C      0.224881    0.720094    0.016823
  S     -1.110932    1.881101   -0.053091
  C     -2.537136    0.821162    0.363680
  C     -2.625464   -0.401675   -0.532062
  S     -1.348306   -1.660350   -0.180036
  C      1.827733   -2.707544   -0.194846
  C      1.086961   -3.829136   -0.247128
  H      1.852201    2.197809    0.235472
  H     -3.407785    1.475560    0.201325
  H     -2.511546    0.530244    1.425264
  H     -2.591092   -0.104913   -1.591437
  H     -3.565278   -0.947543   -0.350997
  H      2.916969   -2.824244   -0.243587
  H     -0.002506   -3.832895   -0.199808
  H      1.583435   -4.797195   -0.349265

 Multiplicity           Mult            ....    1
 Number of Electrons    NEL             ....  104
 Basis Dimension        Dim             ....  206

ORBITAL ENERGIES
----------------

  NO   OCC          E(Eh)            E(eV)
   0   2.0000     -88.875413     -2418.4229
   1   2.0000     -88.856533     -2417.9092
   2   2.0000     -88.853045     -2417.8143
   3   2.0000     -10.234319      -278.4900
   4   2.0000     -10.234124      -278.4847
   5   2.0000     -10.226904      -278.2882
   6   2.0000     -10.226028      -278.2644
   7   2.0000     -10.221448      -278.1397
   8   2.0000     -10.215232      -277.9706
   9   2.0000     -10.202851      -277.6337
  10   2.0000     -10.186047      -277.1764
  11   2.0000      -7.970505      -216.8885
  12   2.0000      -7.951106      -216.3606
  13   2.0000      -7.947896      -216.2733
  14   2.0000      -5.938570      -161.5967
  15   2.0000      -5.934776      -161.4935
  16   2.0000      -5.931645      -161.4083
  17   2.0000      -5.920395      -161.1021
  18   2.0000      -5.917237      -161.0162
  19   2.0000      -5.916351      -160.9921
  20   2.0000      -5.913427      -160.9125
  21   2.0000      -5.909863      -160.8155
  22   2.0000      -5.906362      -160.7203
  23   2.0000      -0.895564       -24.3695
  24   2.0000      -0.838587       -22.8191
  25   2.0000      -0.797326       -21.6963
  26   2.0000      -0.766437       -20.8558
  27   2.0000      -0.753474       -20.5031
  28   2.0000      -0.700910       -19.0727
  29   2.0000      -0.656276       -17.8582
  30   2.0000      -0.623717       -16.9722
  31   2.0000      -0.591478       -16.0949
  32   2.0000      -0.553761       -15.0686
  33   2.0000      -0.514616       -14.0034
  34   2.0000      -0.484275       -13.1778
  35   2.0000      -0.472938       -12.8693
  36   2.0000      -0.458014       -12.4632
  37   2.0000      -0.457064       -12.4373
  38   2.0000      -0.433860       -11.8059
  39   2.0000      -0.410231       -11.1630
  40   2.0000      -0.407013       -11.0754
  41   2.0000      -0.399690       -10.8761
  42   2.0000      -0.373349       -10.1593
  43   2.0000      -0.361755        -9.8439
  44   2.0000      -0.351380        -9.5615
  45   2.0000      -0.343320        -9.3422
  46   2.0000      -0.319416        -8.6918
  47   2.0000      -0.311181        -8.4677
  48   2.0000      -0.296615        -8.0713
  49   2.0000      -0.264827        -7.2063
  50   2.0000      -0.210088        -5.7168
  51   2.0000      -0.206752        -5.6260
  52   0.0000      -0.045576        -1.2402
  53   0.0000       0.008872         0.2414
  54   0.0000       0.018329         0.4987
  55   0.0000       0.040043         1.0896
  56   0.0000       0.040587         1.1044

MULLIKEN ATOMIC CHARGES
-----------------------
   0 C :   -0.102038
   1 S :    0.112507
   2 C :   -0.167201
   3 C :    0.007796
   4 C :   -0.039210
   5 S :   -0.002414
   6 C :   -0.061398
   7 C :   -0.031978
   8 S :   -0.005498
   9 C :    0.035320
  10 C :   -0.052199
  11 H :    0.023223
  12 H :    0.054046
  13 H :    0.066559
  14 H :    0.066010
  15 H :    0.051444
  16 H :   -0.008914
  17 H :    0.034442
  18 H :    0.019502
Sum of atomic charges:   -0.0000000

LOEWDIN ATOMIC CHARGES
----------------------
   0 C :   -0.217925
   1 S :    0.438421
   2 C :   -0.199679
   3 C :   -0.209285
   4 C :   -0.214685
   5 S :    0.282371
   6 C :   -0.144192
   7 C :   -0.144978
   8 S :    0.311490
   9 C :   -0.050336
  10 C :   -0.060012
  11 H :    0.025663
  12 H :    0.032805
  13 H :    0.026156
  14 H :    0.025857
  15 H :    0.032085
  16 H :    0.028100
  17 H :    0.012006
  18 H :    0.026139

  Mayer bond orders larger than 0.100000
B(  0-C ,  1-S ) :   1.1548 B(  0-C ,  4-C ) :   1.5624 B(  0-C , 11-H ) :   0.9647
B(  1-S ,  2-C ) :   1.1295 B(  2-C ,  3-C ) :   1.5200 B(  2-C ,  9-C ) :   1.1346
B(  3-C ,  4-C ) :   1.2461 B(  3-C ,  8-S ) :   1.0218 B(  4-C ,  5-S ) :   0.9967
B(  5-S ,  6-C ) :   1.0218 B(  6-C ,  7-C ) :   1.0200 B(  6-C , 12-H ) :   0.9423
B(  6-C , 13-H ) :   0.9437 B(  7-C ,  8-S ) :   1.0107 B(  7-C , 14-H ) :   0.9428
B(  7-C , 15-H ) :   0.9402 B(  9-C , 10-C ) :   1.9033 B(  9-C , 16-H ) :   0.9427
B( 10-C , 17-H ) :   0.9490 B( 10-C , 18-H ) :   0.9398

Dispersion correction           -0.050097117
FINAL SINGLE POINT ENERGY     -1503.703843366341

DIPOLE MOMENT
-------------
                                X             Y             Z
Electronic contribution:      5.22120       4.95718       0.31585
Nuclear contribution   :     -5.86519      -4.81151      -0.29321
                        -----------------------------------------
Total Dipole Moment    :     -0.64400       0.14567       0.02264
                        -----------------------------------------
Magnitude (a.u.)       :      0.66066
Magnitude (Debye)      :      1.67925

Rotational constants in cm-1:     0.036449     0.022503     0.014119
Rotational constants in MHz :  1092.724216   674.626342   423.287613

                             ****ORCA TERMINATED NORMALLY****
TOTAL RUN TIME: 0 days 0 hours 14 minutes 45 seconds 380 msec
