                         Program Version 4.2.0 -  RELEASE  -
|  1> # ORCA input file
|  2> # SCF done        -29.597218133725          0.000476923204
|  3> ! B3LYP/G D3BJ Opt RIJCOSX def2-SVP def2/J
|  4> * xyz 0 1
|  5>    C       -1.55812        -1.21390         0.12598
|  6>    S       -2.71362         0.04399         0.18286
|  7>    C       -1.51316         1.24920         0.11607
|  8>    C       -0.24715         0.70977         0.05152
|  9>    C       -0.27269        -0.73314         0.05703
| 10>    C        0.96811        -1.44103        -0.00516
| 11>    C        1.02729        -2.90116        -0.00675
| 12>    O        2.04307        -3.55295        -0.04682
| 13>    C        2.13704        -0.71739        -0.06658
| 14>    C        2.15004         0.68927        -0.07150
| 15>    C        0.98636         1.39895        -0.01427
| 16>    H       -1.89866        -2.22882         0.14740
| 17>    H       -1.78813         2.28459         0.12764
| 18>    H        0.04066        -3.40063         0.03119
| 19>    H        3.06809        -1.26307        -0.11316
| 20>    H        3.09821         1.20284        -0.12201
| 21>    H        0.98450         2.47860        -0.01794
| 22> *
| 23>
| 24>                          ****END OF INPUT****
 Total Charge           Charge          ....    0
 Multiplicity           Mult            ....    1
 Number of Electrons    NEL             ....   84
Dispersion correction           -0.038748796
FINAL SINGLE POINT ENERGY      -819.585281761340
Dispersion correction            ... done
Dispersion correction           -0.038594111
FINAL SINGLE POINT ENERGY      -819.587762035842
Dispersion correction            ... done
Dispersion correction           -0.038573291
FINAL SINGLE POINT ENERGY      -819.587835442858
Dispersion correction            ... done
FINAL SINGLE POINT ENERGY      -819.587766595145
FINAL SINGLE POINT ENERGY      -819.587835629131
Dispersion correction            ... done
Dispersion correction           -0.038580286
FINAL SINGLE POINT ENERGY      -819.587834323970
Dispersion correction            ... done
Dispersion correction           -0.038575569
FINAL SINGLE POINT ENERGY      -819.587848380622
Dispersion correction            ... done
                    ***********************HURRAY********************

CARTESIAN COORDINATES (ANGSTROEM)
---------------------------------
  C     -1.576521   -1.225339    0.137209
  S     -2.726961    0.046219    0.193096
  C     -1.535195    1.268851    0.113540
  C     -0.256226    0.723275    0.047213
  C     -0.277200   -0.733078    0.060123
  C      0.975218   -1.443124   -0.001513
  C      1.031232   -2.921630   -0.018123
  O      2.053647   -3.569793   -0.074253
  C      2.152671   -0.723185   -0.054661
  C      2.165425    0.699723   -0.064011
  C      0.991283    1.413334   -0.020994
  H     -1.916603   -2.257729    0.165961
  H     -1.814668    2.320617    0.116276
  H      0.039278   -3.437467    0.021034
  H      3.087333   -1.286390   -0.096279
  H      3.121841    1.224772   -0.112101
  H      0.997285    2.506062   -0.037019

 Multiplicity           Mult            ....    1
 Number of Electrons    NEL             ....   84
 Basis Dimension        Dim             ....  188

ORBITAL ENERGIES
----------------

  NO   OCC          E(Eh)            E(eV)
   0   2.0000     -88.898748     -2419.0579
   1   2.0000     -19.128817      -520.5216
   2   2.0000     -10.273392      -279.5532
   3   2.0000     -10.225923      -278.2615
   4   2.0000     -10.224339      -278.2184
   5   2.0000     -10.216059      -277.9931
   6   2.0000     -10.214365      -277.9470
   7   2.0000     -10.213946      -277.9356
   8   2.0000     -10.207826      -277.7691
   9   2.0000     -10.205618      -277.7090
  10   2.0000     -10.205152      -277.6963
  11   2.0000      -7.993362      -217.5104
  12   2.0000      -5.961025      -162.2077
  13   2.0000      -5.956814      -162.0931
  14   2.0000      -5.955904      -162.0684
  15   2.0000      -1.031090       -28.0574
  16   2.0000      -0.904573       -24.6147
  17   2.0000      -0.842404       -22.9230
  18   2.0000      -0.782504       -21.2930
  19   2.0000      -0.746104       -20.3025
  20   2.0000      -0.713536       -19.4163
  21   2.0000      -0.654814       -17.8184
  22   2.0000      -0.606507       -16.5039
  23   2.0000      -0.591725       -16.1017
  24   2.0000      -0.557634       -15.1740
  25   2.0000      -0.531203       -14.4548
  26   2.0000      -0.485556       -13.2126
  27   2.0000      -0.476462       -12.9652
  28   2.0000      -0.460368       -12.5272
  29   2.0000      -0.437488       -11.9047
  30   2.0000      -0.428432       -11.6582
  31   2.0000      -0.424413       -11.5489
  32   2.0000      -0.419536       -11.4161
  33   2.0000      -0.394534       -10.7358
  34   2.0000      -0.375407       -10.2153
  35   2.0000      -0.372478       -10.1356
  36   2.0000      -0.361126        -9.8267
  37   2.0000      -0.347576        -9.4580
  38   2.0000      -0.298444        -8.1211
  39   2.0000      -0.265171        -7.2157
  40   2.0000      -0.258051        -7.0219
  41   2.0000      -0.221107        -6.0166
  42   0.0000      -0.088864        -2.4181
  43   0.0000      -0.033318        -0.9066
  44   0.0000       0.007337         0.1997
  45   0.0000       0.037365         1.0167
  46   0.0000       0.048027         1.3069

MULLIKEN ATOMIC CHARGES
-----------------------
   0 C :   -0.166624
   1 S :    0.151845
   2 C :   -0.138354
   3 C :    0.084842
   4 C :    0.103470
   5 C :   -0.018423
   6 C :    0.156191
   7 O :   -0.195915
   8 C :   -0.002530
   9 C :    0.027241
  10 C :    0.009832
  11 H :    0.026267
  12 H :    0.023702
  13 H :   -0.030926
  14 H :   -0.003189
  15 H :   -0.010751
  16 H :   -0.016678
Sum of atomic charges:   -0.0000000

LOEWDIN ATOMIC CHARGES
----------------------
   0 C :   -0.216789
   1 S :    0.497828
   2 C :   -0.205673
   3 C :   -0.052616
   4 C :   -0.040038
   5 C :   -0.083777
   6 C :    0.108633
   7 O :   -0.143128
   8 C :    0.023772
   9 C :   -0.032347
  10 C :    0.004399
  11 H :    0.023661
  12 H :    0.027394
  13 H :   -0.009318
  14 H :    0.035140
  15 H :    0.030817
  16 H :    0.032042

  Mayer bond orders larger than 0.100000
B(  0-C ,  1-S ) :   1.1996 B(  0-C ,  2-C ) :   0.1169 B(  0-C ,  4-C ) :   1.4344
B(  0-C , 11-H ) :   0.9570 B(  1-S ,  2-C ) :   1.2232 B(  2-C ,  3-C ) :   1.3892
B(  2-C , 12-H ) :   0.9654 B(  3-C ,  4-C ) :   1.2015 B(  3-C , 10-C ) :   1.1957
B(  4-C ,  5-C ) :   1.1393 B(  5-C ,  6-C ) :   0.9971 B(  5-C ,  8-C ) :   1.5115
B(  6-C ,  7-O ) :   2.1375 B(  6-C , 13-H ) :   0.9447 B(  8-C ,  9-C ) :   1.1988
B(  8-C , 14-H ) :   0.9790 B(  9-C , 10-C ) :   1.5040 B(  9-C , 15-H ) :   0.9863
B( 10-C , 16-H ) :   0.9939

Dispersion correction           -0.038575957
FINAL SINGLE POINT ENERGY      -819.587848028944

DIPOLE MOMENT
-------------
                                X             Y             Z
Electronic contribution:     -4.44812      -1.11858       0.25274
Nuclear contribution   :      3.64670       2.25427      -0.21024
                        -----------------------------------------
Total Dipole Moment    :     -0.80142       1.13569       0.04251
                        -----------------------------------------
Magnitude (a.u.)       :      1.39064
Magnitude (Debye)      :      3.53472

Rotational constants in cm-1:     0.057226     0.026113     0.017932
Rotational constants in MHz :  1715.582217   782.855146   537.574361

                             ****ORCA TERMINATED NORMALLY****
TOTAL RUN TIME: 0 days 0 hours 9 minutes 54 seconds 363 msec
