                         Program Version 4.2.0 -  RELEASE  -
|  1> # ORCA input file
|  2> # SCF done        -52.282131244255          0.000900108962
|  3> ! B3LYP/G D3BJ Opt RIJCOSX def2-SVP def2/J
|  4> * xyz 0 1
|  5>    C       -3.28772         2.89430        -1.51543
|  6>    S       -4.25994         1.67228        -0.81971
|  7>    C       -2.86099         0.79938        -0.25482
|  8>    C       -1.71093         1.44648        -0.65189
|  9>    C       -1.95999         2.65737        -1.36937
| 10>    C       -0.87577         3.56269        -1.86238
| 11>    C       -0.15285         4.24613        -0.70109
| 12>    O       -0.39738         1.11288        -0.42494
| 13>    C        0.02383        -0.24040        -0.47507
| 14>    C       -0.48647        -0.94447        -1.71933
| 15>    S       -0.56639         0.33480        -3.06145
| 16>    O       -0.27701        -0.59012        -4.34479
| 17>    O       -2.25054         0.10101        -3.31998
| 18>    O        1.21676         0.55400        -2.96241
| 19>    C       -3.05256        -0.40106         0.51763
| 20>    C       -4.23281        -0.97313         0.74135
| 21>    H       -3.75560         3.71739        -2.01748
| 22>    H       -1.31487         4.31522        -2.51908
| 23>    H       -0.16105         2.97604        -2.44375
| 24>    H        0.27966         3.49915        -0.04152
| 25>    H       -0.84999         4.85274        -0.12756
| 26>    H        0.64104         4.88856        -1.07462
| 27>    H       -0.25568        -0.77884         0.43909
| 28>    H        1.11469        -0.16971        -0.50084
| 29>    H       -1.49155        -1.33134        -1.58642
| 30>    H        0.19240        -1.72230        -2.04893
| 31>    H        0.67040        -0.54772        -4.51010
| 32>    H       -2.50270        -0.69359        -3.79081
| 33>    H        1.43192         1.24313        -2.33560
| 34>    H       -2.16643        -0.83433         0.96025
| 35>    H       -5.14175        -0.56420         0.33293
| 36>    H       -4.32287        -1.85977         1.34403
| 37> *
| 38>
| 39>                          ****END OF INPUT****
 Total Charge           Charge          ....    0
 Multiplicity           Mult            ....    1
 Number of Electrons    NEL             ....  140
Dispersion correction           -0.075062524
FINAL SINGLE POINT ENERGY     -1487.159471972675
Dispersion correction            ... done
Dispersion correction           -0.069897928
FINAL SINGLE POINT ENERGY     -1487.168547649473
Dispersion correction            ... done
Dispersion correction           -0.070197870
FINAL SINGLE POINT ENERGY     -1487.172592670065
Dispersion correction            ... done
FINAL SINGLE POINT ENERGY     -1487.175209335948
FINAL SINGLE POINT ENERGY     -1487.176378713232
FINAL SINGLE POINT ENERGY     -1487.177295467646
FINAL SINGLE POINT ENERGY     -1487.177929247526
FINAL SINGLE POINT ENERGY     -1487.178496274767
FINAL SINGLE POINT ENERGY     -1487.178765030419
FINAL SINGLE POINT ENERGY     -1487.179038699825
FINAL SINGLE POINT ENERGY     -1487.178574974918
FINAL SINGLE POINT ENERGY     -1487.178733254659
FINAL SINGLE POINT ENERGY     -1487.178963649088
FINAL SINGLE POINT ENERGY     -1487.179011941250
FINAL SINGLE POINT ENERGY     -1487.178902736741
Dispersion correction            ... done
Dispersion correction           -0.072069317
FINAL SINGLE POINT ENERGY     -1487.178865580973
Dispersion correction            ... done
Dispersion correction           -0.071960222
FINAL SINGLE POINT ENERGY     -1487.178910372167
Dispersion correction            ... done
                    ***********************HURRAY********************

CARTESIAN COORDINATES (ANGSTROEM)
---------------------------------
  C     -3.249052    2.868347   -1.524291
  S     -4.306120    1.720126   -0.777009
  C     -2.962674    0.851177   -0.076968
  C     -1.768604    1.453175   -0.446100
  C     -1.923323    2.619383   -1.273009
  C     -0.765027    3.454998   -1.741407
  C     -0.162051    4.326375   -0.634471
  O     -0.522724    1.022881   -0.094693
  C     -0.043444   -0.245697   -0.544292
  C     -0.680836   -0.769984   -1.817308
  S     -0.626498    0.333098   -3.295648
  O     -0.002207   -0.652302   -4.481265
  O     -2.211773   -0.114945   -3.809622
  O      1.243938    0.608791   -2.882265
  C     -3.132906   -0.318334    0.766583
  C     -4.263931   -1.022334    0.944964
  H     -3.664742    3.674338   -2.126965
  H     -1.089178    4.080255   -2.588196
  H      0.019865    2.782169   -2.117394
  H      0.227208    3.695361    0.178787
  H     -0.912840    5.009587   -0.207057
  H      0.670073    4.933085   -1.026971
  H     -0.216898   -1.012342    0.234372
  H      1.033759   -0.118164   -0.695666
  H     -1.746828   -0.989056   -1.695046
  H     -0.148787   -1.677606   -2.140253
  H      0.959291   -0.523503   -4.323528
  H     -2.214607   -1.025999   -4.148784
  H      1.415121    1.523046   -3.150891
  H     -2.230500   -0.621801    1.306964
  H     -5.187988   -0.765174    0.418922
  H     -4.298860   -1.876382    1.624417

 Multiplicity           Mult            ....    1
 Number of Electrons    NEL             ....  140
 Basis Dimension        Dim             ....  312

ORBITAL ENERGIES
----------------

  NO   OCC          E(Eh)            E(eV)
   0   2.0000     -89.009165     -2422.0625
   1   2.0000     -88.869402     -2418.2594
   2   2.0000     -19.169748      -521.6354
   3   2.0000     -19.160555      -521.3852
   4   2.0000     -19.129622      -520.5435
   5   2.0000     -19.104188      -519.8514
   6   2.0000     -10.253956      -279.0243
   7   2.0000     -10.244317      -278.7620
   8   2.0000     -10.228479      -278.3311
   9   2.0000     -10.212140      -277.8865
  10   2.0000     -10.209607      -277.8175
  11   2.0000     -10.206052      -277.7208
  12   2.0000     -10.193581      -277.3815
  13   2.0000     -10.191140      -277.3150
  14   2.0000     -10.190787      -277.3054
  15   2.0000     -10.177508      -276.9441
  16   2.0000      -8.081678      -219.9136
  17   2.0000      -7.964348      -216.7209
  18   2.0000      -6.051643      -164.6736
  19   2.0000      -6.048668      -164.5926
  20   2.0000      -6.041402      -164.3949
  21   2.0000      -5.932447      -161.4301
  22   2.0000      -5.928561      -161.3243
  23   2.0000      -5.925511      -161.2413
  24   2.0000      -1.074515       -29.2391
  25   2.0000      -1.053788       -28.6750
  26   2.0000      -0.980881       -26.6911
  27   2.0000      -0.933440       -25.4002
  28   2.0000      -0.877973       -23.8909
  29   2.0000      -0.802814       -21.8457
  30   2.0000      -0.794261       -21.6129
  31   2.0000      -0.766463       -20.8565
  32   2.0000      -0.736583       -20.0435
  33   2.0000      -0.699346       -19.0302
  34   2.0000      -0.698270       -19.0009
  35   2.0000      -0.639127       -17.3915
  36   2.0000      -0.613457       -16.6930
  37   2.0000      -0.604081       -16.4379
  38   2.0000      -0.548566       -14.9272
  39   2.0000      -0.541749       -14.7417
  40   2.0000      -0.535001       -14.5581
  41   2.0000      -0.531788       -14.4707
  42   2.0000      -0.509344       -13.8600
  43   2.0000      -0.489369       -13.3164
  44   2.0000      -0.483972       -13.1696
  45   2.0000      -0.458358       -12.4726
  46   2.0000      -0.455334       -12.3903
  47   2.0000      -0.440364       -11.9829
  48   2.0000      -0.431687       -11.7468
  49   2.0000      -0.423888       -11.5346
  50   2.0000      -0.416504       -11.3337
  51   2.0000      -0.413096       -11.2409
  52   2.0000      -0.408292       -11.1102
  53   2.0000      -0.397405       -10.8139
  54   2.0000      -0.392232       -10.6732
  55   2.0000      -0.378588       -10.3019
  56   2.0000      -0.366711        -9.9787
  57   2.0000      -0.363646        -9.8953
  58   2.0000      -0.358984        -9.7685
  59   2.0000      -0.346417        -9.4265
  60   2.0000      -0.341930        -9.3044
  61   2.0000      -0.333084        -9.0637
  62   2.0000      -0.326328        -8.8798
  63   2.0000      -0.302054        -8.2193
  64   2.0000      -0.301191        -8.1958
  65   2.0000      -0.286990        -7.8094
  66   2.0000      -0.277209        -7.5433
  67   2.0000      -0.263061        -7.1583
  68   2.0000      -0.235540        -6.4094
  69   2.0000      -0.215228        -5.8567
  70   0.0000      -0.047680        -1.2974
  71   0.0000      -0.004572        -0.1244
  72   0.0000       0.027841         0.7576
  73   0.0000       0.038514         1.0480
  74   0.0000       0.041984         1.1424

MULLIKEN ATOMIC CHARGES
-----------------------
   0 C :   -0.119850
   1 S :    0.108653
   2 C :   -0.156616
   3 C :    0.132404
   4 C :   -0.037666
   5 C :    0.119783
   6 C :    0.007199
   7 O :   -0.339765
   8 C :    0.273025
   9 C :   -0.064135
  10 S :    0.691568
  11 O :   -0.366925
  12 O :   -0.442194
  13 O :   -0.517618
  14 C :   -0.011203
  15 C :   -0.034146
  16 H :    0.017131
  17 H :   -0.011740
  18 H :   -0.034241
  19 H :    0.026473
  20 H :    0.008468
  21 H :    0.006871
  22 H :    0.013535
  23 H :    0.044927
  24 H :    0.069160
  25 H :    0.041007
  26 H :    0.185191
  27 H :    0.178635
  28 H :    0.166513
  29 H :    0.000251
  30 H :    0.020754
  31 H :    0.024552
Sum of atomic charges:   -0.0000000

LOEWDIN ATOMIC CHARGES
----------------------
   0 C :   -0.181014
   1 S :    0.429688
   2 C :   -0.215838
   3 C :   -0.003568
   4 C :   -0.080441
   5 C :   -0.030257
   6 C :   -0.048836
   7 O :   -0.121086
   8 C :    0.080373
   9 C :   -0.144492
  10 S :    0.979661
  11 O :   -0.272314
  12 O :   -0.332136
  13 O :   -0.408967
  14 C :   -0.044616
  15 C :   -0.059062
  16 H :    0.024362
  17 H :    0.025165
  18 H :    0.011360
  19 H :    0.026858
  20 H :    0.021182
  21 H :    0.020807
  22 H :    0.015323
  23 H :    0.027423
  24 H :    0.029634
  25 H :    0.038172
  26 H :    0.047197
  27 H :    0.052895
  28 H :    0.032685
  29 H :    0.033756
  30 H :    0.019892
  31 H :    0.026194

  Mayer bond orders larger than 0.100000
B(  0-C ,  1-S ) :   1.1482 B(  0-C ,  4-C ) :   1.5533 B(  0-C , 16-H ) :   0.9611
B(  1-S ,  2-C ) :   1.1137 B(  2-C ,  3-C ) :   1.4480 B(  2-C , 14-C ) :   1.1233
B(  3-C ,  4-C ) :   1.2562 B(  3-C ,  7-O ) :   1.1472 B(  4-C ,  5-C ) :   1.0608
B(  5-C ,  6-C ) :   1.1002 B(  5-C , 17-H ) :   0.9195 B(  5-C , 18-H ) :   0.8996
B(  6-C , 19-H ) :   0.9704 B(  6-C , 20-H ) :   0.9679 B(  6-C , 21-H ) :   0.9652
B(  7-O ,  8-C ) :   0.9583 B(  8-C ,  9-C ) :   1.0538 B(  8-C , 22-H ) :   0.9267
B(  8-C , 23-H ) :   0.9270 B(  9-C , 10-S ) :   0.9200 B(  9-C , 24-H ) :   0.9249
B(  9-C , 25-H ) :   0.9092 B( 10-S , 11-O ) :   0.9734 B( 10-S , 12-O ) :   0.8233
B( 10-S , 13-O ) :   0.6325 B( 11-O , 26-H ) :   0.9069 B( 12-O , 27-H ) :   0.9558
B( 13-O , 26-H ) :   0.1300 B( 13-O , 28-H ) :   0.9760 B( 14-C , 15-C ) :   1.8976
B( 14-C , 29-H ) :   0.9551 B( 15-C , 30-H ) :   0.9506 B( 15-C , 31-H ) :   0.9467

Dispersion correction           -0.071962716
FINAL SINGLE POINT ENERGY     -1487.178920216178

DIPOLE MOMENT
-------------
                                X             Y             Z
Electronic contribution:     -7.80212      -1.92280      -4.01158
Nuclear contribution   :      8.06817       1.46798       3.91053
                        -----------------------------------------
Total Dipole Moment    :      0.26606      -0.45482      -0.10105
                        -----------------------------------------
Magnitude (a.u.)       :      0.53653
Magnitude (Debye)      :      1.36374

Rotational constants in cm-1:     0.017948     0.011880     0.010016
Rotational constants in MHz :   538.080227   356.159089   300.260549

                             ****ORCA TERMINATED NORMALLY****
TOTAL RUN TIME: 0 days 0 hours 56 minutes 9 seconds 570 msec
