                         Program Version 4.2.0 -  RELEASE  -
|  1> # ORCA input file
|  2> # SCF done        -29.606006736325          0.000761103166
|  3> ! B3LYP/G D3BJ Opt RIJCOSX def2-SVP def2/J
|  4> * xyz 0 1
|  5>    C       -1.60885         1.24953        -0.09992
|  6>    S       -2.89915         0.23214         0.38947
|  7>    C       -1.87477        -1.14698         0.33560
|  8>    C       -0.60937        -0.83923        -0.06013
|  9>    C       -0.45551         0.56083        -0.32010
| 10>    O        0.68157         1.15864        -0.79433
| 11>    C        1.72675         1.31474         0.14619
| 12>    C        2.16491        -0.00553         0.79264
| 13>    C        2.17524        -1.12922        -0.23472
| 14>    S        0.61489        -2.09026        -0.24397
| 15>    H       -1.76542         2.30107        -0.23224
| 16>    H       -2.26258        -2.11495         0.57825
| 17>    H        1.43329         2.03357         0.92458
| 18>    H        2.54670         1.74149        -0.43703
| 19>    H        1.49143        -0.26445         1.61308
| 20>    H        3.16248         0.13126         1.21347
| 21>    H        2.93313        -1.87763        -0.00644
| 22>    H        2.34286        -0.74300        -1.24014
| 23> *
| 24>
| 25>                          ****END OF INPUT****
 Total Charge           Charge          ....    0
 Multiplicity           Mult            ....    1
 Number of Electrons    NEL             ....   90
Dispersion correction           -0.041002421
FINAL SINGLE POINT ENERGY     -1142.699263642859
Dispersion correction            ... done
Dispersion correction           -0.040763298
FINAL SINGLE POINT ENERGY     -1142.701595199190
Dispersion correction            ... done
Dispersion correction           -0.040695958
FINAL SINGLE POINT ENERGY     -1142.701986954637
Dispersion correction            ... done
FINAL SINGLE POINT ENERGY     -1142.702189198722
FINAL SINGLE POINT ENERGY     -1142.702237334539
FINAL SINGLE POINT ENERGY     -1142.702322553750
FINAL SINGLE POINT ENERGY     -1142.702357059619
FINAL SINGLE POINT ENERGY     -1142.702377482369
FINAL SINGLE POINT ENERGY     -1142.702391174415
FINAL SINGLE POINT ENERGY     -1142.702402180533
FINAL SINGLE POINT ENERGY     -1142.702401867775
FINAL SINGLE POINT ENERGY     -1142.702366940576
FINAL SINGLE POINT ENERGY     -1142.702333507775
FINAL SINGLE POINT ENERGY     -1142.702414391687
FINAL SINGLE POINT ENERGY     -1142.702410361659
Dispersion correction            ... done
Dispersion correction           -0.040801371
FINAL SINGLE POINT ENERGY     -1142.702409780215
Dispersion correction            ... done
Dispersion correction           -0.040783493
FINAL SINGLE POINT ENERGY     -1142.702410401033
Dispersion correction            ... done
                    ***********************HURRAY********************

CARTESIAN COORDINATES (ANGSTROEM)
---------------------------------
  C     -1.655730    1.280067    0.091498
  S     -2.859019    0.149569    0.614118
  C     -1.807509   -1.195194    0.312945
  C     -0.599413   -0.794096   -0.202477
  C     -0.516292    0.642418   -0.328577
  O      0.577440    1.262819   -0.843206
  C      1.725239    1.326073    0.002934
  C      2.064783    0.031343    0.739270
  C      2.207014   -1.203742   -0.142678
  S      0.625922   -1.905369   -0.814271
  H     -1.853248    2.349962    0.093095
  H     -2.135203   -2.213152    0.515504
  H      1.593151    2.135930    0.744888
  H      2.550383    1.612172   -0.666374
  H      1.326614   -0.165772    1.533167
  H      3.024980    0.203979    1.256292
  H      2.679691   -2.015800    0.429405
  H      2.848798   -0.989188   -1.011272

 Multiplicity           Mult            ....    1
 Number of Electrons    NEL             ....   90
 Basis Dimension        Dim             ....  188

ORBITAL ENERGIES
----------------

  NO   OCC          E(Eh)            E(eV)
   0   2.0000     -88.874510     -2418.3984
   1   2.0000     -88.840052     -2417.4607
   2   2.0000     -19.154756      -521.2274
   3   2.0000     -10.249445      -278.9016
   4   2.0000     -10.245646      -278.7982
   5   2.0000     -10.221889      -278.1518
   6   2.0000     -10.213727      -277.9296
   7   2.0000     -10.213242      -277.9164
   8   2.0000     -10.208738      -277.7939
   9   2.0000     -10.206791      -277.7409
  10   2.0000      -7.969607      -216.8640
  11   2.0000      -7.934754      -215.9156
  12   2.0000      -5.937817      -161.5762
  13   2.0000      -5.933776      -161.4662
  14   2.0000      -5.930677      -161.3819
  15   2.0000      -5.904357      -160.6657
  16   2.0000      -5.900263      -160.5543
  17   2.0000      -5.893027      -160.3574
  18   2.0000      -1.052721       -28.6460
  19   2.0000      -0.879314       -23.9274
  20   2.0000      -0.815621       -22.1942
  21   2.0000      -0.770916       -20.9777
  22   2.0000      -0.727144       -19.7866
  23   2.0000      -0.698302       -19.0018
  24   2.0000      -0.659172       -17.9370
  25   2.0000      -0.601974       -16.3805
  26   2.0000      -0.572638       -15.5823
  27   2.0000      -0.537344       -14.6219
  28   2.0000      -0.502715       -13.6796
  29   2.0000      -0.486653       -13.2425
  30   2.0000      -0.479304       -13.0425
  31   2.0000      -0.447197       -12.1689
  32   2.0000      -0.426380       -11.6024
  33   2.0000      -0.418585       -11.3903
  34   2.0000      -0.407487       -11.0883
  35   2.0000      -0.401794       -10.9334
  36   2.0000      -0.386756       -10.5242
  37   2.0000      -0.369246       -10.0477
  38   2.0000      -0.349251        -9.5036
  39   2.0000      -0.341181        -9.2840
  40   2.0000      -0.319042        -8.6816
  41   2.0000      -0.285019        -7.7558
  42   2.0000      -0.269861        -7.3433
  43   2.0000      -0.235591        -6.4108
  44   2.0000      -0.211397        -5.7524
  45   0.0000      -0.018632        -0.5070
  46   0.0000       0.025615         0.6970
  47   0.0000       0.039044         1.0624
  48   0.0000       0.052551         1.4300
  49   0.0000       0.068848         1.8734

MULLIKEN ATOMIC CHARGES
-----------------------
   0 C :   -0.139793
   1 S :    0.094736
   2 C :   -0.115591
   3 C :   -0.066385
   4 C :    0.196457
   5 O :   -0.329689
   6 C :    0.267483
   7 C :   -0.052346
   8 C :   -0.051198
   9 S :   -0.010789
  10 H :    0.019472
  11 H :    0.022010
  12 H :    0.001152
  13 H :    0.009967
  14 H :    0.041386
  15 H :    0.015928
  16 H :    0.051327
  17 H :    0.045874
Sum of atomic charges:    0.0000000

LOEWDIN ATOMIC CHARGES
----------------------
   0 C :   -0.219015
   1 S :    0.423556
   2 C :   -0.207243
   3 C :   -0.229049
   4 C :   -0.014910
   5 O :   -0.125759
   6 C :    0.093739
   7 C :   -0.063538
   8 C :   -0.125864
   9 S :    0.264865
  10 H :    0.027600
  11 H :    0.025394
  12 H :    0.012201
  13 H :    0.021098
  14 H :    0.032004
  15 H :    0.037549
  16 H :    0.024914
  17 H :    0.022461

  Mayer bond orders larger than 0.100000
B(  0-C ,  1-S ) :   1.1341 B(  0-C ,  4-C ) :   1.5696 B(  0-C , 10-H ) :   0.9656
B(  1-S ,  2-C ) :   1.1648 B(  2-C ,  3-C ) :   1.5519 B(  2-C , 11-H ) :   0.9631
B(  3-C ,  4-C ) :   1.1944 B(  3-C ,  9-S ) :   1.0223 B(  4-C ,  5-O ) :   1.1245
B(  5-O ,  6-C ) :   0.9679 B(  6-C ,  7-C ) :   1.0814 B(  6-C , 12-H ) :   0.9433
B(  6-C , 13-H ) :   0.9474 B(  7-C ,  8-C ) :   1.0783 B(  7-C , 14-H ) :   0.9299
B(  7-C , 15-H ) :   0.9225 B(  8-C ,  9-S ) :   0.9649 B(  8-C , 16-H ) :   0.9481
B(  8-C , 17-H ) :   0.9448

Dispersion correction           -0.040788268
FINAL SINGLE POINT ENERGY     -1142.702410915380

DIPOLE MOMENT
-------------
                                X             Y             Z
Electronic contribution:    -10.35038      -2.14883      -2.46505
Nuclear contribution   :     11.01309       2.40888       3.19899
                        -----------------------------------------
Total Dipole Moment    :      0.66271       0.26004       0.73394
                        -----------------------------------------
Magnitude (a.u.)       :      1.02249
Magnitude (Debye)      :      2.59896

Rotational constants in cm-1:     0.058561     0.027746     0.021033
Rotational constants in MHz :  1755.620666   831.804953   630.560019

                             ****ORCA TERMINATED NORMALLY****
TOTAL RUN TIME: 0 days 0 hours 17 minutes 23 seconds 694 msec
