                         Program Version 4.2.0 -  RELEASE  -
|  1> # ORCA input file
|  2> # SCF done        -41.518441289125          0.000806991750
|  3> ! B3LYP/G D3BJ Opt RIJCOSX def2-SVP def2/J
|  4> * xyz 0 1
|  5>    C        3.06700        -1.32342         0.09507
|  6>    C        2.94354         0.02272         0.04408
|  7>    C        1.59315         0.46311         0.01147
|  8>    C        0.69972        -0.59536         0.03804
|  9>    S        1.54072        -2.11414         0.10399
| 10>    C       -0.71881        -0.57380         0.01586
| 11>    C       -1.57888         0.51191        -0.01413
| 12>    C       -1.27099         1.94185        -0.03184
| 13>    O       -2.15228         2.77629        -0.04116
| 14>    N        0.03682         2.39444        -0.04280
| 15>    C        1.32983         1.90106        -0.04489
| 16>    O        2.23710         2.70665        -0.08762
| 17>    C       -2.94234         0.11247        -0.02592
| 18>    C       -3.10752        -1.23000        -0.00612
| 19>    S       -1.60663        -2.06712         0.02864
| 20>    H        3.96257        -1.91102         0.12918
| 21>    H        3.76400         0.71635         0.02886
| 22>    H        0.05267         3.41411        -0.06835
| 23>    H       -3.74085         0.83109        -0.04814
| 24>    H       -4.02095        -1.79046        -0.00906
| 25> *
| 26>
| 27>                          ****END OF INPUT****
 Total Charge           Charge          ....    0
 Multiplicity           Mult            ....    1
 Number of Electrons    NEL             ....  120
Dispersion correction           -0.055137897
FINAL SINGLE POINT ENERGY     -1385.080369989890
Dispersion correction            ... done
Dispersion correction           -0.054879579
FINAL SINGLE POINT ENERGY     -1385.083187629688
Dispersion correction            ... done
Dispersion correction           -0.054851041
FINAL SINGLE POINT ENERGY     -1385.083273217624
Dispersion correction            ... done
FINAL SINGLE POINT ENERGY     -1385.083263000669
Dispersion correction            ... done
Dispersion correction           -0.054852749
FINAL SINGLE POINT ENERGY     -1385.083285043393
Dispersion correction            ... done
Dispersion correction           -0.054855915
FINAL SINGLE POINT ENERGY     -1385.083283003360
Dispersion correction            ... done
                    ***********************HURRAY********************

CARTESIAN COORDINATES (ANGSTROEM)
---------------------------------
  C      3.101870   -1.333256    0.089819
  C      2.972148    0.024889    0.050302
  C      1.607601    0.457684    0.013315
  C      0.709295   -0.606206    0.025914
  S      1.563546   -2.127629    0.082020
  C     -0.728721   -0.583908    0.007805
  C     -1.593645    0.507036   -0.018464
  C     -1.278480    1.950786   -0.045588
  O     -2.175499    2.776293   -0.064368
  N      0.037578    2.415688   -0.053409
  C      1.338043    1.910028   -0.033712
  O      2.260841    2.706664   -0.053934
  C     -2.971225    0.115318   -0.019106
  C     -3.143212   -1.238530    0.004425
  S     -1.629630   -2.078680    0.028755
  H      4.015296   -1.924520    0.125431
  H      3.798141    0.734035    0.046788
  H      0.053485    3.434964   -0.082914
  H     -3.775315    0.848877   -0.037980
  H     -4.074246   -1.802802    0.010062

 Multiplicity           Mult            ....    1
 Number of Electrons    NEL             ....  120
 Basis Dimension        Dim             ....  243

ORBITAL ENERGIES
----------------

  NO   OCC          E(Eh)            E(eV)
   0   2.0000     -88.902164     -2419.1509
   1   2.0000     -88.902087     -2419.1488
   2   2.0000     -19.120841      -520.3045
   3   2.0000     -19.120806      -520.3036
   4   2.0000     -14.381239      -391.3334
   5   2.0000     -10.316441      -280.7246
   6   2.0000     -10.316270      -280.7200
   7   2.0000     -10.259985      -279.1884
   8   2.0000     -10.259768      -279.1825
   9   2.0000     -10.237160      -278.5673
  10   2.0000     -10.237080      -278.5651
  11   2.0000     -10.226171      -278.2682
  12   2.0000     -10.226031      -278.2644
  13   2.0000     -10.214722      -277.9567
  14   2.0000     -10.214629      -277.9542
  15   2.0000      -7.997293      -217.6174
  16   2.0000      -7.997243      -217.6160
  17   2.0000      -5.965538      -162.3305
  18   2.0000      -5.965489      -162.3292
  19   2.0000      -5.961252      -162.2139
  20   2.0000      -5.961226      -162.2132
  21   2.0000      -5.958426      -162.1370
  22   2.0000      -5.958403      -162.1364
  23   2.0000      -1.059663       -28.8349
  24   2.0000      -1.041144       -28.3310
  25   2.0000      -0.927374       -25.2351
  26   2.0000      -0.917103       -24.9556
  27   2.0000      -0.896706       -24.4006
  28   2.0000      -0.789451       -21.4821
  29   2.0000      -0.780074       -21.2269
  30   2.0000      -0.767482       -20.8843
  31   2.0000      -0.724612       -19.7177
  32   2.0000      -0.667448       -18.1622
  33   2.0000      -0.654041       -17.7974
  34   2.0000      -0.613031       -16.6814
  35   2.0000      -0.590963       -16.0809
  36   2.0000      -0.583374       -15.8744
  37   2.0000      -0.562264       -15.3000
  38   2.0000      -0.519756       -14.1433
  39   2.0000      -0.491025       -13.3615
  40   2.0000      -0.471265       -12.8238
  41   2.0000      -0.470800       -12.8111
  42   2.0000      -0.452688       -12.3183
  43   2.0000      -0.439338       -11.9550
  44   2.0000      -0.433900       -11.8070
  45   2.0000      -0.428125       -11.6499
  46   2.0000      -0.423128       -11.5139
  47   2.0000      -0.421440       -11.4680
  48   2.0000      -0.416041       -11.3210
  49   2.0000      -0.392379       -10.6772
  50   2.0000      -0.386391       -10.5142
  51   2.0000      -0.380214       -10.3461
  52   2.0000      -0.367831       -10.0092
  53   2.0000      -0.309280        -8.4159
  54   2.0000      -0.297853        -8.1050
  55   2.0000      -0.291908        -7.9432
  56   2.0000      -0.282823        -7.6960
  57   2.0000      -0.275461        -7.4957
  58   2.0000      -0.269041        -7.3210
  59   2.0000      -0.236978        -6.4485
  60   0.0000      -0.093710        -2.5500
  61   0.0000      -0.045959        -1.2506
  62   0.0000      -0.018818        -0.5121
  63   0.0000      -0.006632        -0.1805
  64   0.0000      -0.005774        -0.1571

MULLIKEN ATOMIC CHARGES
-----------------------
   0 C :   -0.049639
   1 C :    0.032995
   2 C :   -0.015600
   3 C :   -0.100086
   4 S :    0.130048
   5 C :   -0.100538
   6 C :   -0.015019
   7 C :    0.114248
   8 O :   -0.204750
   9 N :   -0.071156
  10 C :    0.114628
  11 O :   -0.205134
  12 C :    0.032429
  13 C :   -0.049566
  14 S :    0.129926
  15 H :    0.040775
  16 H :    0.015564
  17 H :    0.144184
  18 H :    0.015890
  19 H :    0.040800
Sum of atomic charges:   -0.0000000

LOEWDIN ATOMIC CHARGES
----------------------
   0 C :   -0.171688
   1 C :   -0.025339
   2 C :   -0.096662
   3 C :   -0.172164
   4 S :    0.442761
   5 C :   -0.172176
   6 C :   -0.096781
   7 C :    0.084898
   8 O :   -0.190121
   9 N :    0.004580
  10 C :    0.084926
  11 O :   -0.190337
  12 C :   -0.025355
  13 C :   -0.171739
  14 S :    0.442903
  15 H :    0.032330
  16 H :    0.043405
  17 H :    0.100758
  18 H :    0.043474
  19 H :    0.032327

  Mayer bond orders larger than 0.100000
B(  0-C ,  1-C ) :   1.5499 B(  0-C ,  4-S ) :   1.1286 B(  0-C , 15-H ) :   0.9692
B(  1-C ,  2-C ) :   1.2628 B(  1-C , 16-H ) :   0.9919 B(  2-C ,  3-C ) :   1.4519
B(  2-C , 10-C ) :   0.9603 B(  3-C ,  4-S ) :   1.1520 B(  3-C ,  5-C ) :   1.1803
B(  5-C ,  6-C ) :   1.4518 B(  5-C , 14-S ) :   1.1518 B(  6-C ,  7-C ) :   0.9603
B(  6-C , 12-C ) :   1.2631 B(  7-C ,  8-O ) :   2.1577 B(  7-C ,  9-N ) :   1.0938
B(  9-N , 10-C ) :   1.0945 B(  9-N , 17-H ) :   0.8762 B( 10-C , 11-O ) :   2.1570
B( 12-C , 13-C ) :   1.5496 B( 12-C , 18-H ) :   0.9921 B( 13-C , 14-S ) :   1.1283
B( 13-C , 19-H ) :   0.9694

Dispersion correction           -0.054856984
FINAL SINGLE POINT ENERGY     -1385.083282805013

DIPOLE MOMENT
-------------
                                X             Y             Z
Electronic contribution:     -0.04791      -3.03984       0.03039
Nuclear contribution   :      0.02057       1.37803       0.01524
                        -----------------------------------------
Total Dipole Moment    :     -0.02734      -1.66181       0.04563
                        -----------------------------------------
Magnitude (a.u.)       :      1.66266
Magnitude (Debye)      :      4.22615

Rotational constants in cm-1:     0.021890     0.017847     0.009832
Rotational constants in MHz :   656.258452   535.031739   294.747897

                             ****ORCA TERMINATED NORMALLY****
TOTAL RUN TIME: 0 days 0 hours 10 minutes 55 seconds 20 msec
