                         Program Version 4.2.0 -  RELEASE  -
|  1> # ORCA input file
|  2> # SCF done        -22.539340409013          0.000334316556
|  3> ! B3LYP/G D3BJ Opt RIJCOSX def2-SVP def2/J
|  4> * xyz 0 1
|  5>    C        0.00420         1.26298        -0.27373
|  6>    S       -1.06836        -0.09230        -0.20963
|  7>    C        0.26362        -1.17125         0.11162
|  8>    C        1.44884        -0.49325         0.15983
|  9>    C        1.28850         0.89409        -0.06147
| 10>    N       -0.00278        -2.50455         0.27199
| 11>    C        0.91688        -3.49230         0.52992
| 12>    C        0.59846        -4.77378         0.67709
| 13>    H       -0.39920         2.23630        -0.46482
| 14>    H        2.40240        -0.95161         0.34426
| 15>    H        2.11035         1.58807        -0.06057
| 16>    H       -0.96796        -2.79013         0.19401
| 17>    H        1.93689        -3.14968         0.60682
| 18>    H       -0.41879        -5.11784         0.60148
| 19>    H        1.35008        -5.51214         0.87830
| 20> *
| 21>
| 22>                          ****END OF INPUT****
 Total Charge           Charge          ....    0
 Multiplicity           Mult            ....    1
 Number of Electrons    NEL             ....   66
Dispersion correction           -0.027157908
FINAL SINGLE POINT ENERGY      -685.463878410350
Dispersion correction            ... done
Dispersion correction           -0.027027017
FINAL SINGLE POINT ENERGY      -685.466352069714
Dispersion correction            ... done
Dispersion correction           -0.027021977
FINAL SINGLE POINT ENERGY      -685.466436899341
Dispersion correction            ... done
FINAL SINGLE POINT ENERGY      -685.466454342451
Dispersion correction            ... done
Dispersion correction           -0.027032192
FINAL SINGLE POINT ENERGY      -685.466456883717
Dispersion correction            ... done
Dispersion correction           -0.027032519
FINAL SINGLE POINT ENERGY      -685.466457519096
Dispersion correction            ... done
                    ***********************HURRAY********************

CARTESIAN COORDINATES (ANGSTROEM)
---------------------------------
  C      0.006357    1.297626   -0.270526
  S     -1.079141   -0.066857   -0.216870
  C      0.241918   -1.167426    0.100541
  C      1.448060   -0.500041    0.156300
  C      1.299260    0.905797   -0.058848
  N     -0.036584   -2.510676    0.260386
  C      0.892058   -3.499916    0.520678
  C      0.613789   -4.802230    0.688208
  H     -0.388105    2.291873   -0.467841
  H      2.403714   -0.983683    0.352879
  H      2.139028    1.602380   -0.053701
  H     -1.005093   -2.796326    0.181582
  H      1.920512   -3.138218    0.588520
  H     -0.407530   -5.189099    0.628015
  H      1.414888   -5.510593    0.895778

 Multiplicity           Mult            ....    1
 Number of Electrons    NEL             ....   66
 Basis Dimension        Dim             ....  151

ORBITAL ENERGIES
----------------

  NO   OCC          E(Eh)            E(eV)
   0   2.0000     -88.870233     -2418.2820
   1   2.0000     -14.372049      -391.0833
   2   2.0000     -10.252264      -278.9783
   3   2.0000     -10.232280      -278.4345
   4   2.0000     -10.201752      -277.6038
   5   2.0000     -10.190387      -277.2945
   6   2.0000     -10.181355      -277.0488
   7   2.0000     -10.175946      -276.9016
   8   2.0000      -7.965737      -216.7587
   9   2.0000      -5.934188      -161.4775
  10   2.0000      -5.930130      -161.3670
  11   2.0000      -5.926356      -161.2643
  12   2.0000      -0.958802       -26.0903
  13   2.0000      -0.862702       -23.4753
  14   2.0000      -0.758364       -20.6361
  15   2.0000      -0.729274       -19.8446
  16   2.0000      -0.694285       -18.8925
  17   2.0000      -0.615988       -16.7619
  18   2.0000      -0.586757       -15.9665
  19   2.0000      -0.543076       -14.7779
  20   2.0000      -0.519345       -14.1321
  21   2.0000      -0.489446       -13.3185
  22   2.0000      -0.453806       -12.3487
  23   2.0000      -0.420257       -11.4358
  24   2.0000      -0.417994       -11.3742
  25   2.0000      -0.401682       -10.9303
  26   2.0000      -0.388631       -10.5752
  27   2.0000      -0.373652       -10.1676
  28   2.0000      -0.352854        -9.6017
  29   2.0000      -0.346017        -9.4156
  30   2.0000      -0.261022        -7.1028
  31   2.0000      -0.252446        -6.8694
  32   2.0000      -0.189193        -5.1482
  33   0.0000      -0.011304        -0.3076
  34   0.0000       0.017461         0.4751
  35   0.0000       0.029266         0.7964
  36   0.0000       0.070465         1.9175
  37   0.0000       0.079438         2.1616

MULLIKEN ATOMIC CHARGES
-----------------------
   0 C :   -0.096229
   1 S :    0.061267
   2 C :   -0.052535
   3 C :   -0.017447
   4 C :    0.046069
   5 N :   -0.060008
   6 C :    0.048741
   7 C :   -0.076585
   8 H :    0.022087
   9 H :   -0.026419
  10 H :   -0.009107
  11 H :    0.115947
  12 H :    0.016587
  13 H :    0.004144
  14 H :    0.023489
Sum of atomic charges:    0.0000000

LOEWDIN ATOMIC CHARGES
----------------------
   0 C :   -0.212430
   1 S :    0.378689
   2 C :   -0.121735
   3 C :   -0.129473
   4 C :   -0.054031
   5 N :    0.008813
   6 C :    0.026787
   7 C :   -0.132381
   8 H :    0.022527
   9 H :    0.023197
  10 H :    0.029688
  11 H :    0.083102
  12 H :    0.030611
  13 H :    0.017707
  14 H :    0.028927

  Mayer bond orders larger than 0.100000
B(  0-C ,  1-S ) :   1.0975 B(  0-C ,  4-C ) :   1.5965 B(  0-C ,  8-H ) :   0.9728
B(  1-S ,  2-C ) :   1.1359 B(  2-C ,  3-C ) :   1.4981 B(  2-C ,  5-N ) :   1.1284
B(  3-C ,  4-C ) :   1.2342 B(  3-C ,  9-H ) :   0.9926 B(  4-C , 10-H ) :   0.9861
B(  5-N ,  6-C ) :   1.1345 B(  5-N , 11-H ) :   0.9244 B(  6-C ,  7-C ) :   1.8917
B(  6-C , 12-H ) :   0.9611 B(  7-C , 13-H ) :   0.9581 B(  7-C , 14-H ) :   0.9468

Dispersion correction           -0.027031386
FINAL SINGLE POINT ENERGY      -685.466458378679

DIPOLE MOMENT
-------------
                                X             Y             Z
Electronic contribution:     -4.50626       5.23684      -1.34248
Nuclear contribution   :      4.42160      -5.33790       1.34893
                        -----------------------------------------
Total Dipole Moment    :     -0.08466      -0.10105       0.00645
                        -----------------------------------------
Magnitude (a.u.)       :      0.13199
Magnitude (Debye)      :      0.33549

Rotational constants in cm-1:     0.160051     0.033850     0.027941
Rotational constants in MHz :  4798.208579  1014.806776   837.658461

                             ****ORCA TERMINATED NORMALLY****
TOTAL RUN TIME: 0 days 0 hours 3 minutes 56 seconds 251 msec
