                         Program Version 4.2.0 -  RELEASE  -
|  1> # ORCA input file
|  2> # SCF done        -30.272555091108          0.000566659903
|  3> ! B3LYP/G D3BJ Opt RIJCOSX def2-SVP def2/J
|  4> * xyz 0 1
|  5>    N       -1.14122         1.34118        -0.16748
|  6>    C        0.11377         0.77230         0.27249
|  7>    C        1.35777         1.53070        -0.15337
|  8>    S        2.72298         0.35770         0.19603
|  9>    C        1.69346        -1.05786         0.18027
| 10>    S        2.16059        -2.54123         0.63090
| 11>    C        0.32361        -0.66141        -0.27080
| 12>    N       -0.74166        -1.56371         0.08650
| 13>    C       -2.02586        -0.99470        -0.29456
| 14>    C       -2.23209         0.44633         0.21018
| 15>    H       -1.13160         1.46004        -1.17811
| 16>    H        0.07624         0.72567         1.37028
| 17>    H        1.53235         2.44268         0.41126
| 18>    H        1.35000         1.75414        -1.22114
| 19>    H        0.33926        -0.60682        -1.37410
| 20>    H       -0.70872        -1.77948         1.07762
| 21>    H       -2.81533        -1.64404         0.08448
| 22>    H       -2.06919        -1.00406        -1.38995
| 23>    H       -2.28860         0.45179         1.30343
| 24>    H       -3.16204         0.85617        -0.18586
| 25> *
| 26>
| 27>                          ****END OF INPUT****
 Total Charge           Charge          ....    0
 Multiplicity           Mult            ....    1
 Number of Electrons    NEL             ....   92
Dispersion correction           -0.045201799
FINAL SINGLE POINT ENERGY     -1140.091437477985
Dispersion correction            ... done
Dispersion correction           -0.044750660
FINAL SINGLE POINT ENERGY     -1140.093384929619
Dispersion correction            ... done
Dispersion correction           -0.044657557
FINAL SINGLE POINT ENERGY     -1140.093561713464
Dispersion correction            ... done
FINAL SINGLE POINT ENERGY     -1140.093559840495
FINAL SINGLE POINT ENERGY     -1140.093584501287
FINAL SINGLE POINT ENERGY     -1140.093595749138
Dispersion correction            ... done
Dispersion correction           -0.044647292
FINAL SINGLE POINT ENERGY     -1140.093594970652
Dispersion correction            ... done
Dispersion correction           -0.044643662
FINAL SINGLE POINT ENERGY     -1140.093595093129
Dispersion correction            ... done
                    ***********************HURRAY********************

CARTESIAN COORDINATES (ANGSTROEM)
---------------------------------
  N     -1.138664    1.348141   -0.171999
  C      0.121880    0.774163    0.253565
  C      1.373880    1.543996   -0.150671
  S      2.745673    0.359867    0.208983
  C      1.714169   -1.074775    0.197048
  S      2.196333   -2.562429    0.651123
  C      0.333084   -0.665255   -0.266307
  N     -0.742856   -1.564475    0.056570
  C     -2.050360   -0.998300   -0.270000
  C     -2.248805    0.460402    0.194471
  H     -1.128855    1.489600   -1.183620
  H      0.098668    0.712539    1.358080
  H      1.530772    2.464674    0.425802
  H      1.368853    1.790873   -1.224872
  H      0.395491   -0.588208   -1.374790
  H     -0.676340   -1.877832    1.023160
  H     -2.831089   -1.646119    0.159070
  H     -2.177625   -1.041153   -1.369534
  H     -2.348199    0.487914    1.294995
  H     -3.182289    0.871764   -0.223004

 Multiplicity           Mult            ....    1
 Number of Electrons    NEL             ....   92
 Basis Dimension        Dim             ....  198

ORBITAL ENERGIES
----------------

  NO   OCC          E(Eh)            E(eV)
   0   2.0000     -88.868289     -2418.2291
   1   2.0000     -88.813771     -2416.7456
   2   2.0000     -14.327564      -389.8728
   3   2.0000     -14.319940      -389.6654
   4   2.0000     -10.266616      -279.3688
   5   2.0000     -10.234101      -278.4840
   6   2.0000     -10.233789      -278.4756
   7   2.0000     -10.233275      -278.4616
   8   2.0000     -10.220465      -278.1130
   9   2.0000     -10.219790      -278.0946
  10   2.0000      -7.963873      -216.7080
  11   2.0000      -7.909641      -215.2323
  12   2.0000      -5.932565      -161.4333
  13   2.0000      -5.928584      -161.3250
  14   2.0000      -5.923565      -161.1884
  15   2.0000      -5.877512      -159.9352
  16   2.0000      -5.876404      -159.9051
  17   2.0000      -5.868454      -159.6887
  18   2.0000      -0.949874       -25.8474
  19   2.0000      -0.889695       -24.2098
  20   2.0000      -0.860022       -23.4024
  21   2.0000      -0.770832       -20.9754
  22   2.0000      -0.749311       -20.3898
  23   2.0000      -0.680601       -18.5201
  24   2.0000      -0.673162       -18.3177
  25   2.0000      -0.621776       -16.9194
  26   2.0000      -0.605375       -16.4731
  27   2.0000      -0.549326       -14.9479
  28   2.0000      -0.498519       -13.5654
  29   2.0000      -0.496182       -13.5018
  30   2.0000      -0.468154       -12.7391
  31   2.0000      -0.465969       -12.6797
  32   2.0000      -0.460012       -12.5176
  33   2.0000      -0.435613       -11.8536
  34   2.0000      -0.412832       -11.2337
  35   2.0000      -0.405240       -11.0271
  36   2.0000      -0.378268       -10.2932
  37   2.0000      -0.376540       -10.2462
  38   2.0000      -0.371762       -10.1162
  39   2.0000      -0.355971        -9.6865
  40   2.0000      -0.339259        -9.2317
  41   2.0000      -0.321634        -8.7521
  42   2.0000      -0.274331        -7.4649
  43   2.0000      -0.242640        -6.6026
  44   2.0000      -0.217992        -5.9319
  45   2.0000      -0.209775        -5.7083
  46   0.0000      -0.067128        -1.8267
  47   0.0000       0.019525         0.5313
  48   0.0000       0.040324         1.0973
  49   0.0000       0.051524         1.4020
  50   0.0000       0.063876         1.7382

MULLIKEN ATOMIC CHARGES
-----------------------
   0 N :   -0.211370
   1 C :   -0.028696
   2 C :    0.025396
   3 S :    0.051107
   4 C :   -0.168321
   5 S :   -0.113808
   6 C :    0.133865
   7 N :   -0.199178
   8 C :    0.108109
   9 C :    0.114048
  10 H :    0.090432
  11 H :   -0.001593
  12 H :    0.056345
  13 H :    0.041261
  14 H :    0.010292
  15 H :    0.097758
  16 H :    0.005297
  17 H :   -0.007508
  18 H :   -0.003250
  19 H :   -0.000184
Sum of atomic charges:   -0.0000000

LOEWDIN ATOMIC CHARGES
----------------------
   0 N :   -0.100508
   1 C :   -0.016395
   2 C :   -0.114854
   3 S :    0.325887
   4 C :   -0.291532
   5 S :    0.021773
   6 C :   -0.037094
   7 N :   -0.091388
   8 C :    0.010318
   9 C :    0.009352
  10 H :    0.051450
  11 H :    0.019802
  12 H :    0.030467
  13 H :    0.021251
  14 H :    0.031636
  15 H :    0.053689
  16 H :    0.024580
  17 H :    0.013961
  18 H :    0.016551
  19 H :    0.021055

  Mayer bond orders larger than 0.100000
B(  0-N ,  1-C ) :   1.0766 B(  0-N ,  9-C ) :   1.0518 B(  0-N , 10-H ) :   0.9375
B(  1-C ,  2-C ) :   1.0138 B(  1-C ,  6-C ) :   0.9639 B(  1-C , 11-H ) :   0.8989
B(  2-C ,  3-S ) :   0.9832 B(  2-C , 12-H ) :   0.9387 B(  2-C , 13-H ) :   0.9313
B(  3-S ,  4-C ) :   1.1220 B(  3-S ,  5-S ) :   0.1792 B(  4-C ,  5-S ) :   1.7854
B(  4-C ,  6-C ) :   0.9265 B(  6-C ,  7-N ) :   1.1261 B(  6-C , 14-H ) :   0.8661
B(  7-N ,  8-C ) :   1.0690 B(  7-N , 15-H ) :   0.9305 B(  8-C ,  9-C ) :   1.0504
B(  8-C , 16-H ) :   0.9423 B(  8-C , 17-H ) :   0.9301 B(  9-C , 18-H ) :   0.9288
B(  9-C , 19-H ) :   0.9436

Dispersion correction           -0.044641730
FINAL SINGLE POINT ENERGY     -1140.093597153834

DIPOLE MOMENT
-------------
                                X             Y             Z
Electronic contribution:     13.67134      -5.28341       2.05608
Nuclear contribution   :    -14.65584       6.33678      -2.37458
                        -----------------------------------------
Total Dipole Moment    :     -0.98450       1.05337      -0.31851
                        -----------------------------------------
Magnitude (a.u.)       :      1.47658
Magnitude (Debye)      :      3.75317

Rotational constants in cm-1:     0.051562     0.027727     0.018758
Rotational constants in MHz :  1545.798517   831.237533   562.363125

                             ****ORCA TERMINATED NORMALLY****
TOTAL RUN TIME: 0 days 0 hours 9 minutes 17 seconds 0 msec
