                         Program Version 4.2.0 -  RELEASE  -
|  1> # ORCA input file
|  2> # SCF done        -45.206060614806          0.000372175948
|  3> ! B3LYP/G D3BJ Opt RIJCOSX def2-SVP def2/J
|  4> * xyz 0 1
|  5>    C        3.13500        -0.68796         0.00489
|  6>    N        2.76922         0.52989        -0.00533
|  7>    C        1.40960         0.65783         0.00081
|  8>    C        0.72379        -0.58037         0.01274
|  9>    S        1.85933        -1.89301         0.02301
| 10>    C       -0.65198        -0.58949         0.00239
| 11>    C       -1.34453         0.61967        -0.01030
| 12>    C       -0.67551         1.85281        -0.00073
| 13>    C        0.71509         1.87300        -0.01080
| 14>    C        1.53026         3.13508         0.01744
| 15>    C        1.81658         3.55830         1.45976
| 16>    C       -1.49783         3.11610        -0.01720
| 17>    C       -1.87984         3.51040        -1.44639
| 18>    N       -2.71921         0.46924         0.03957
| 19>    C       -3.18594        -0.87866        -0.15453
| 20>    S       -1.72793        -1.98398         0.00139
| 21>    H        4.15966        -1.00370         0.00228
| 22>    H        1.02230         3.93967        -0.51397
| 23>    H        2.47934         2.93667        -0.48115
| 24>    H        0.89160         3.72404         2.00833
| 25>    H        2.40040         4.47570         1.47500
| 26>    H        2.38029         2.77910         1.96608
| 27>    H       -0.94003         3.93162         0.43971
| 28>    H       -2.40026         2.96697         0.58010
| 29>    H       -0.98646         3.70550        -2.03497
| 30>    H       -2.49522         4.40744        -1.44260
| 31>    H       -2.43425         2.71448        -1.94015
| 32>    H       -3.28398         1.18907        -0.38334
| 33>    H       -3.63834        -1.03928        -1.14324
| 34>    H       -3.90888        -1.15751         0.61844
| 35> *
| 36>
| 37>                          ****END OF INPUT****
 Total Charge           Charge          ....    0
 Multiplicity           Mult            ....    1
 Number of Electrons    NEL             ....  132
Dispersion correction           -0.072243449
FINAL SINGLE POINT ENERGY     -1371.035977438401
Dispersion correction            ... done
Dispersion correction           -0.071692070
FINAL SINGLE POINT ENERGY     -1371.040180732736
Dispersion correction            ... done
Dispersion correction           -0.071590642
FINAL SINGLE POINT ENERGY     -1371.040383858390
Dispersion correction            ... done
FINAL SINGLE POINT ENERGY     -1371.040478691158
FINAL SINGLE POINT ENERGY     -1371.040535110408
FINAL SINGLE POINT ENERGY     -1371.040619473713
FINAL SINGLE POINT ENERGY     -1371.040663873097
FINAL SINGLE POINT ENERGY     -1371.040689556832
FINAL SINGLE POINT ENERGY     -1371.040699951386
Dispersion correction            ... done
Dispersion correction           -0.071571203
FINAL SINGLE POINT ENERGY     -1371.040708670803
Dispersion correction            ... done
Dispersion correction           -0.071571942
FINAL SINGLE POINT ENERGY     -1371.040714090288
Dispersion correction            ... done
                    ***********************HURRAY********************

CARTESIAN COORDINATES (ANGSTROEM)
---------------------------------
  C      3.159032   -0.706488    0.031759
  N      2.795689    0.529847    0.011233
  C      1.415906    0.655932    0.015032
  C      0.720252   -0.583511    0.041515
  S      1.859221   -1.907018    0.060941
  C     -0.666961   -0.601242    0.043793
  C     -1.359105    0.618016    0.016497
  C     -0.687986    1.864747    0.000158
  C      0.719762    1.884430   -0.006389
  C      1.532743    3.159185    0.033606
  C      1.923079    3.550951    1.466987
  C     -1.522111    3.128499   -0.044254
  C     -1.958157    3.516008   -1.467122
  N     -2.744937    0.453438    0.077778
  C     -3.193291   -0.900195   -0.215276
  S     -1.754284   -1.997656    0.156133
  H      4.197528   -1.046847    0.026823
  H      0.985157    3.982068   -0.448599
  H      2.450503    2.998944   -0.549873
  H      1.032268    3.729941    2.089333
  H      2.538509    4.464834    1.479510
  H      2.504641    2.742597    1.935375
  H     -0.968405    3.962069    0.408952
  H     -2.413604    2.990079    0.590962
  H     -1.082510    3.726250   -2.099660
  H     -2.601037    4.410841   -1.465366
  H     -2.517198    2.699486   -1.954269
  H     -3.314189    1.189588   -0.322649
  H     -3.494114   -1.034578   -1.273064
  H     -4.034130   -1.201594    0.427372

 Multiplicity           Mult            ....    1
 Number of Electrons    NEL             ....  132
 Basis Dimension        Dim             ....  302

ORBITAL ENERGIES
----------------

  NO   OCC          E(Eh)            E(eV)
   0   2.0000     -88.872189     -2418.3352
   1   2.0000     -88.853899     -2417.8375
   2   2.0000     -14.353673      -390.5833
   3   2.0000     -14.325988      -389.8299
   4   2.0000     -10.259660      -279.1795
   5   2.0000     -10.244752      -278.7739
   6   2.0000     -10.232446      -278.4390
   7   2.0000     -10.218446      -278.0581
   8   2.0000     -10.216009      -277.9917
   9   2.0000     -10.210920      -277.8533
  10   2.0000     -10.196800      -277.4690
  11   2.0000     -10.193878      -277.3895
  12   2.0000     -10.193412      -277.3768
  13   2.0000     -10.191606      -277.3277
  14   2.0000     -10.182161      -277.0707
  15   2.0000     -10.174334      -276.8577
  16   2.0000      -7.967283      -216.8008
  17   2.0000      -7.948952      -216.3020
  18   2.0000      -5.935502      -161.5132
  19   2.0000      -5.931686      -161.4094
  20   2.0000      -5.928069      -161.3109
  21   2.0000      -5.918389      -161.0475
  22   2.0000      -5.914587      -160.9441
  23   2.0000      -5.907187      -160.7427
  24   2.0000      -0.958625       -26.0855
  25   2.0000      -0.951114       -25.8811
  26   2.0000      -0.843225       -22.9453
  27   2.0000      -0.818524       -22.2732
  28   2.0000      -0.783663       -21.3245
  29   2.0000      -0.765883       -20.8407
  30   2.0000      -0.759278       -20.6610
  31   2.0000      -0.723263       -19.6810
  32   2.0000      -0.700885       -19.0720
  33   2.0000      -0.642435       -17.4816
  34   2.0000      -0.635617       -17.2960
  35   2.0000      -0.619692       -16.8627
  36   2.0000      -0.595123       -16.1941
  37   2.0000      -0.573284       -15.5999
  38   2.0000      -0.546967       -14.8837
  39   2.0000      -0.536489       -14.5986
  40   2.0000      -0.496932       -13.5222
  41   2.0000      -0.479483       -13.0474
  42   2.0000      -0.474639       -12.9156
  43   2.0000      -0.460493       -12.5307
  44   2.0000      -0.448475       -12.2036
  45   2.0000      -0.434534       -11.8243
  46   2.0000      -0.426507       -11.6058
  47   2.0000      -0.416694       -11.3388
  48   2.0000      -0.414375       -11.2757
  49   2.0000      -0.410230       -11.1629
  50   2.0000      -0.404231       -10.9997
  51   2.0000      -0.392659       -10.6848
  52   2.0000      -0.377510       -10.2726
  53   2.0000      -0.367009        -9.9868
  54   2.0000      -0.362325        -9.8594
  55   2.0000      -0.361074        -9.8253
  56   2.0000      -0.350932        -9.5493
  57   2.0000      -0.347257        -9.4493
  58   2.0000      -0.335445        -9.1279
  59   2.0000      -0.320563        -8.7230
  60   2.0000      -0.308409        -8.3922
  61   2.0000      -0.287762        -7.8304
  62   2.0000      -0.271424        -7.3858
  63   2.0000      -0.264425        -7.1954
  64   2.0000      -0.222998        -6.0681
  65   2.0000      -0.186784        -5.0827
  66   0.0000      -0.030882        -0.8403
  67   0.0000      -0.007469        -0.2032
  68   0.0000       0.004499         0.1224
  69   0.0000       0.031019         0.8441
  70   0.0000       0.041315         1.1242

MULLIKEN ATOMIC CHARGES
-----------------------
   0 C :    0.000744
   1 N :   -0.093722
   2 C :    0.037266
   3 C :   -0.117305
   4 S :    0.079861
   5 C :   -0.137125
   6 C :    0.113101
   7 C :   -0.127910
   8 C :   -0.139034
   9 C :    0.099142
  10 C :    0.012866
  11 C :    0.041227
  12 C :    0.016789
  13 N :   -0.196754
  14 C :    0.089249
  15 S :    0.003634
  16 H :    0.038860
  17 H :   -0.015027
  18 H :    0.008589
  19 H :    0.002615
  20 H :    0.010875
  21 H :    0.021652
  22 H :   -0.000284
  23 H :   -0.003338
  24 H :    0.017632
  25 H :    0.018725
  26 H :   -0.001374
  27 H :    0.122270
  28 H :    0.045739
  29 H :    0.051035
Sum of atomic charges:   -0.0000000

LOEWDIN ATOMIC CHARGES
----------------------
   0 C :   -0.120624
   1 N :   -0.096238
   2 C :   -0.046766
   3 C :   -0.190963
   4 S :    0.362525
   5 C :   -0.201148
   6 C :    0.009992
   7 C :   -0.057450
   8 C :   -0.017168
   9 C :   -0.024649
  10 C :   -0.049032
  11 C :   -0.030751
  12 C :   -0.053215
  13 N :   -0.055683
  14 C :   -0.040424
  15 S :    0.264048
  16 H :    0.019006
  17 H :    0.018695
  18 H :    0.032104
  19 H :    0.018021
  20 H :    0.021895
  21 H :    0.026960
  22 H :    0.028177
  23 H :    0.021326
  24 H :    0.026526
  25 H :    0.023940
  26 H :    0.015185
  27 H :    0.071855
  28 H :    0.005527
  29 H :    0.018331

  Mayer bond orders larger than 0.100000
B(  0-C ,  1-N ) :   1.7466 B(  0-C ,  4-S ) :   1.0777 B(  0-C , 16-H ) :   0.9573
B(  1-N ,  2-C ) :   1.2843 B(  1-N ,  4-S ) :   0.1225 B(  2-C ,  3-C ) :   1.3063
B(  2-C ,  8-C ) :   1.3373 B(  3-C ,  4-S ) :   1.0528 B(  3-C ,  5-C ) :   1.5139
B(  5-C ,  6-C ) :   1.3769 B(  5-C , 15-S ) :   0.9862 B(  6-C ,  7-C ) :   1.3342
B(  6-C , 13-N ) :   1.1414 B(  7-C ,  8-C ) :   1.4114 B(  7-C , 11-C ) :   1.0785
B(  8-C ,  9-C ) :   1.0998 B(  9-C , 10-C ) :   1.1145 B(  9-C , 17-H ) :   0.9052
B(  9-C , 18-H ) :   0.9023 B( 10-C , 19-H ) :   0.9644 B( 10-C , 20-H ) :   0.9640
B( 10-C , 21-H ) :   0.9647 B( 11-C , 12-C ) :   1.1172 B( 11-C , 22-H ) :   0.9034
B( 11-C , 23-H ) :   0.9174 B( 12-C , 24-H ) :   0.9618 B( 12-C , 25-H ) :   0.9651
B( 12-C , 26-H ) :   0.9614 B( 13-N , 14-C ) :   1.0089 B( 13-N , 27-H ) :   0.9203
B( 14-C , 15-S ) :   0.9933 B( 14-C , 28-H ) :   0.9438 B( 14-C , 29-H ) :   0.9570

Dispersion correction           -0.071572142
FINAL SINGLE POINT ENERGY     -1371.040716586762

DIPOLE MOMENT
-------------
                                X             Y             Z
Electronic contribution:      5.13165     -25.56481       1.04148
Nuclear contribution   :     -6.21543      25.92095      -1.40507
                        -----------------------------------------
Total Dipole Moment    :     -1.08378       0.35614      -0.36359
                        -----------------------------------------
Magnitude (a.u.)       :      1.19734
Magnitude (Debye)      :      3.04339

Rotational constants in cm-1:     0.016049     0.015709     0.008475
Rotational constants in MHz :   481.123024   470.955788   254.059629

                             ****ORCA TERMINATED NORMALLY****
TOTAL RUN TIME: 0 days 0 hours 31 minutes 4 seconds 369 msec
