                         Program Version 4.2.0 -  RELEASE  -
|  1> # ORCA input file
|  2> # SCF done        -41.416510274457          0.000574765368
|  3> ! B3LYP/G D3BJ Opt RIJCOSX def2-SVP def2/J
|  4> * xyz 0 1
|  5>    C       -0.00332        -1.42898        -0.02575
|  6>    C        1.20698        -0.74667        -0.00273
|  7>    C        1.22903         0.68630         0.00748
|  8>    N        2.41824         1.33695         0.03452
|  9>    C        3.50651         0.62706         0.03856
| 10>    C        3.48053        -0.79006         0.01668
| 11>    N        2.36614        -1.45566         0.00218
| 12>    C        0.03417         1.44163        -0.01669
| 13>    C       -1.18514         0.72975        -0.01132
| 14>    C       -1.19170        -0.70725        -0.02365
| 15>    N       -2.36426        -1.39303        -0.03938
| 16>    C       -3.46795        -0.70989        -0.03381
| 17>    C       -3.46648         0.70559         0.01208
| 18>    N       -2.36477         1.39455         0.02430
| 19>    C        0.15443         2.88562        -0.03874
| 20>    C       -0.81379         3.77149        -0.26297
| 21>    H       -0.02231        -2.50596        -0.05092
| 22>    H        4.44221         1.17007         0.06591
| 23>    H        4.39609        -1.36697         0.01943
| 24>    H       -4.39303        -1.27099        -0.05040
| 25>    H       -4.39123         1.26675         0.05054
| 26>    H        1.16923         3.22545         0.12336
| 27>    H       -1.82886         3.47265        -0.45311
| 28>    H       -0.59967         4.82762        -0.25790
| 29> *
| 30>
| 31>                          ****END OF INPUT****
 Total Charge           Charge          ....    0
 Multiplicity           Mult            ....    1
 Number of Electrons    NEL             ....  108
Dispersion correction           -0.056653105
FINAL SINGLE POINT ENERGY      -680.625830332209
Dispersion correction            ... done
Dispersion correction           -0.056170803
FINAL SINGLE POINT ENERGY      -680.629516068654
Dispersion correction            ... done
Dispersion correction           -0.056195965
FINAL SINGLE POINT ENERGY      -680.629912765872
Dispersion correction            ... done
FINAL SINGLE POINT ENERGY      -680.630079163386
Dispersion correction            ... done
Dispersion correction           -0.056191869
FINAL SINGLE POINT ENERGY      -680.630111752864
Dispersion correction            ... done
Dispersion correction           -0.056198877
FINAL SINGLE POINT ENERGY      -680.630115060554
Dispersion correction            ... done
                    ***********************HURRAY********************

CARTESIAN COORDINATES (ANGSTROEM)
---------------------------------
  C     -0.001293   -1.445395    0.025195
  C      1.213590   -0.757640    0.018078
  C      1.231890    0.685854   -0.026781
  N      2.431947    1.341533   -0.033492
  C      3.524000    0.629887    0.000927
  C      3.498723   -0.802164    0.046026
  N      2.382316   -1.474825    0.055263
  C      0.023819    1.444642   -0.063036
  C     -1.199769    0.716244   -0.057879
  C     -1.202025   -0.729708   -0.010550
  N     -2.379683   -1.430730    0.001077
  C     -3.489055   -0.746187   -0.034418
  C     -3.494616    0.683813   -0.085471
  N     -2.392174    1.381876   -0.097277
  C      0.146820    2.903784   -0.099083
  C     -0.811708    3.845927   -0.125595
  H     -0.015817   -2.534795    0.061637
  H      4.483783    1.160718   -0.005178
  H      4.440226   -1.364184    0.075092
  H     -4.436896   -1.298319   -0.024676
  H     -4.446626    1.227916   -0.117538
  H      1.188769    3.228820   -0.099920
  H     -1.872285    3.600548   -0.126531
  H     -0.512889    4.898404   -0.148196

 Multiplicity           Mult            ....    1
 Number of Electrons    NEL             ....  108
 Basis Dimension        Dim             ....  264

ORBITAL ENERGIES
----------------

  NO   OCC          E(Eh)            E(eV)
   0   2.0000     -14.350409      -390.4945
   1   2.0000     -14.350280      -390.4910
   2   2.0000     -14.349837      -390.4789
   3   2.0000     -14.349259      -390.4632
   4   2.0000     -10.248294      -278.8702
   5   2.0000     -10.247467      -278.8477
   6   2.0000     -10.247079      -278.8372
   7   2.0000     -10.246849      -278.8309
   8   2.0000     -10.246053      -278.8093
   9   2.0000     -10.245726      -278.8004
  10   2.0000     -10.244614      -278.7701
  11   2.0000     -10.244140      -278.7572
  12   2.0000     -10.220123      -278.1037
  13   2.0000     -10.205723      -277.7118
  14   2.0000     -10.188910      -277.2543
  15   2.0000     -10.183817      -277.1157
  16   2.0000      -0.990794       -26.9609
  17   2.0000      -0.984510       -26.7899
  18   2.0000      -0.919223       -25.0133
  19   2.0000      -0.914763       -24.8920
  20   2.0000      -0.855995       -23.2928
  21   2.0000      -0.788624       -21.4596
  22   2.0000      -0.775506       -21.1026
  23   2.0000      -0.731993       -19.9185
  24   2.0000      -0.704360       -19.1666
  25   2.0000      -0.677699       -18.4411
  26   2.0000      -0.645968       -17.5777
  27   2.0000      -0.629511       -17.1299
  28   2.0000      -0.603852       -16.4316
  29   2.0000      -0.567208       -15.4345
  30   2.0000      -0.551640       -15.0109
  31   2.0000      -0.532327       -14.4854
  32   2.0000      -0.514764       -14.0075
  33   2.0000      -0.502695       -13.6790
  34   2.0000      -0.490765       -13.3544
  35   2.0000      -0.461690       -12.5632
  36   2.0000      -0.459254       -12.4969
  37   2.0000      -0.447090       -12.1659
  38   2.0000      -0.439937       -11.9713
  39   2.0000      -0.435208       -11.8426
  40   2.0000      -0.425361       -11.5747
  41   2.0000      -0.409513       -11.1434
  42   2.0000      -0.391234       -10.6460
  43   2.0000      -0.372333       -10.1317
  44   2.0000      -0.363354        -9.8874
  45   2.0000      -0.352716        -9.5979
  46   2.0000      -0.347977        -9.4689
  47   2.0000      -0.316844        -8.6218
  48   2.0000      -0.312623        -8.5069
  49   2.0000      -0.291642        -7.9360
  50   2.0000      -0.276770        -7.5313
  51   2.0000      -0.259005        -7.0479
  52   2.0000      -0.252979        -6.8839
  53   2.0000      -0.226249        -6.1566
  54   0.0000      -0.113466        -3.0876
  55   0.0000      -0.052990        -1.4419
  56   0.0000      -0.049885        -1.3574
  57   0.0000      -0.026956        -0.7335
  58   0.0000       0.021427         0.5831

MULLIKEN ATOMIC CHARGES
-----------------------
   0 C :   -0.074250
   1 C :    0.051905
   2 C :   -0.029321
   3 N :   -0.048406
   4 C :    0.034308
   5 C :    0.032833
   6 N :   -0.047580
   7 C :    0.084112
   8 C :   -0.041505
   9 C :    0.056622
  10 N :   -0.048617
  11 C :    0.033166
  12 C :    0.041211
  13 N :   -0.051672
  14 C :   -0.059695
  15 C :    0.016406
  16 H :   -0.034292
  17 H :    0.008964
  18 H :    0.010632
  19 H :    0.010538
  20 H :    0.007792
  21 H :   -0.001994
  22 H :    0.031837
  23 H :    0.017007
Sum of atomic charges:   -0.0000000

LOEWDIN ATOMIC CHARGES
----------------------
   0 C :   -0.006275
   1 C :   -0.007821
   2 C :   -0.002104
   3 N :   -0.039443
   4 C :    0.007033
   5 C :    0.007633
   6 N :   -0.044775
   7 C :   -0.008594
   8 C :   -0.003612
   9 C :   -0.005910
  10 N :   -0.043553
  11 C :    0.007080
  12 C :    0.009264
  13 N :   -0.034679
  14 C :   -0.030584
  15 C :   -0.018100
  16 H :    0.041301
  17 H :    0.025143
  18 H :    0.025458
  19 H :    0.025509
  20 H :    0.024747
  21 H :    0.028738
  22 H :    0.020328
  23 H :    0.023216

  Mayer bond orders larger than 0.100000
B(  0-C ,  1-C ) :   1.2438 B(  0-C ,  7-C ) :   0.1303 B(  0-C ,  9-C ) :   1.2352
B(  0-C , 16-H ) :   1.0453 B(  1-C ,  2-C ) :   1.1504 B(  1-C ,  6-N ) :   1.3597
B(  2-C ,  3-N ) :   1.4216 B(  2-C ,  7-C ) :   1.2575 B(  3-N ,  4-C ) :   1.6909
B(  4-C ,  5-C ) :   1.1732 B(  4-C , 17-H ) :   0.9652 B(  5-C ,  6-N ) :   1.7016
B(  5-C , 18-H ) :   0.9643 B(  7-C ,  8-C ) :   1.2437 B(  7-C , 14-C ) :   1.1620
B(  8-C ,  9-C ) :   1.1513 B(  8-C , 13-N ) :   1.4294 B(  9-C , 10-N ) :   1.3639
B( 10-N , 11-C ) :   1.6962 B( 11-C , 12-C ) :   1.1808 B( 11-C , 19-H ) :   0.9647
B( 12-C , 13-N ) :   1.6738 B( 12-C , 20-H ) :   0.9640 B( 14-C , 15-C ) :   1.8767
B( 14-C , 21-H ) :   0.9395 B( 15-C , 22-H ) :   0.9270 B( 15-C , 23-H ) :   0.9374

Dispersion correction           -0.056198899
FINAL SINGLE POINT ENERGY      -680.630115275857

DIPOLE MOMENT
-------------
                                X             Y             Z
Electronic contribution:      0.79845      -5.22579       0.12983
Nuclear contribution   :     -0.83484       5.34238      -0.13102
                        -----------------------------------------
Total Dipole Moment    :     -0.03639       0.11659      -0.00119
                        -----------------------------------------
Magnitude (a.u.)       :      0.12215
Magnitude (Debye)      :      0.31047

Rotational constants in cm-1:     0.032772     0.015639     0.010587
Rotational constants in MHz :   982.487731   468.847980   317.391409

                             ****ORCA TERMINATED NORMALLY****
TOTAL RUN TIME: 0 days 0 hours 14 minutes 33 seconds 141 msec
