                         Program Version 4.2.0 -  RELEASE  -
|  1> # ORCA input file
|  2> # SCF done        -65.475821811263          0.000816789928
|  3> ! B3LYP/G D3BJ Opt RIJCOSX def2-SVP def2/J
|  4> * xyz 0 1
|  5>    C        3.05540        -0.17958         0.30008
|  6>    S        2.17056        -1.66314         0.29199
|  7>    C        0.66161        -0.79793         0.22063
|  8>    C        0.85323         0.59721         0.20922
|  9>    C        2.24832         0.90333         0.25388
| 10>    F        2.72482         2.15446         0.25263
| 11>    C       -0.24009         1.48518         0.15556
| 12>    O        0.08553         2.78950         0.12773
| 13>    C       -0.89372         3.80768         0.21515
| 14>    C       -0.15003         5.13111         0.29599
| 15>    C       -1.50272         0.89946         0.13527
| 16>    C       -1.68938        -0.50930         0.16430
| 17>    C       -0.59463        -1.38671         0.19194
| 18>    O       -0.71581        -2.74648         0.25730
| 19>    C       -1.05718        -3.40737        -0.95611
| 20>    C        0.08743        -3.40705        -1.96218
| 21>    C       -3.07685        -0.83928         0.18341
| 22>    F       -3.49801        -2.11239         0.24763
| 23>    C       -3.94126         0.21448         0.14540
| 24>    S       -3.05531         1.71585         0.08783
| 25>    C       -5.38212         0.26093         0.14789
| 26>    C       -6.19171        -0.79246         0.21315
| 27>    H        4.12589        -0.19137         0.33932
| 28>    H       -1.50976         3.66352         1.11025
| 29>    H       -1.54294         3.78710        -0.66866
| 30>    H        0.50437         5.13464         1.16313
| 31>    H       -0.85990         5.94864         0.37741
| 32>    H        0.45845         5.26817        -0.59260
| 33>    H       -1.94875        -2.95520        -1.40581
| 34>    H       -1.29790        -4.42610        -0.64631
| 35>    H        0.31060        -2.39287        -2.28854
| 36>    H       -0.19140        -3.99959        -2.82920
| 37>    H        0.98105        -3.83168        -1.51177
| 38>    H       -5.79211         1.26097         0.09208
| 39>    H       -5.82556        -1.80173         0.27508
| 40>    H       -7.26017        -0.66656         0.21037
| 41> *
| 42>
| 43>                          ****END OF INPUT****
 Total Charge           Charge          ....    0
 Multiplicity           Mult            ....    1
 Number of Electrons    NEL             ....  176
Dispersion correction           -0.086094821
FINAL SINGLE POINT ENERGY     -1763.741878335896
Dispersion correction            ... done
Dispersion correction           -0.085316869
FINAL SINGLE POINT ENERGY     -1763.745663095211
Dispersion correction            ... done
Dispersion correction           -0.085264433
FINAL SINGLE POINT ENERGY     -1763.745396037235
Dispersion correction            ... done
FINAL SINGLE POINT ENERGY     -1763.746187011743
FINAL SINGLE POINT ENERGY     -1763.746171238482
FINAL SINGLE POINT ENERGY     -1763.746089376016
FINAL SINGLE POINT ENERGY     -1763.745754958011
FINAL SINGLE POINT ENERGY     -1763.745700429239
FINAL SINGLE POINT ENERGY     -1763.745647544194
FINAL SINGLE POINT ENERGY     -1763.745676151988
FINAL SINGLE POINT ENERGY     -1763.746241219095
FINAL SINGLE POINT ENERGY     -1763.746229441707
FINAL SINGLE POINT ENERGY     -1763.746306340389
FINAL SINGLE POINT ENERGY     -1763.746423043720
FINAL SINGLE POINT ENERGY     -1763.746660579402
FINAL SINGLE POINT ENERGY     -1763.746647570745
FINAL SINGLE POINT ENERGY     -1763.746637257549
Dispersion correction            ... done
Dispersion correction           -0.084711806
FINAL SINGLE POINT ENERGY     -1763.746625422836
Dispersion correction            ... done
Dispersion correction           -0.084710142
FINAL SINGLE POINT ENERGY     -1763.746627158224
Dispersion correction            ... done
                    ***********************HURRAY********************

CARTESIAN COORDINATES (ANGSTROEM)
---------------------------------
  C      3.071016    0.201078   -0.132434
  S      2.260856   -1.343876   -0.013434
  C      0.696328   -0.548294   -0.035495
  C      0.810249    0.866425   -0.135026
  C      2.201655    1.246843   -0.176617
  F      2.598880    2.518043   -0.239021
  C     -0.345987    1.671533   -0.190763
  O     -0.192347    3.006795   -0.350301
  C     -0.897471    3.920735    0.497478
  C      0.049355    5.043783    0.871749
  C     -1.581922    1.018094   -0.121079
  C     -1.692182   -0.403093    0.013797
  C     -0.531332   -1.206545    0.056647
  O     -0.547912   -2.552617    0.232986
  C     -1.078054   -3.390199   -0.806133
  C      0.042102   -4.142011   -1.498797
  C     -3.075593   -0.783507    0.071181
  F     -3.448370   -2.061884    0.219186
  C     -3.987428    0.232810   -0.053858
  S     -3.163707    1.780300   -0.221474
  C     -5.440348    0.197268   -0.087773
  C     -6.214658   -0.900690   -0.059663
  H      4.157354    0.265852   -0.149085
  H     -1.260665    3.393368    1.394820
  H     -1.777597    4.310350   -0.043949
  H      0.907182    4.651375    1.437924
  H     -0.472050    5.796271    1.484521
  H      0.436571    5.536559   -0.033075
  H     -1.649654   -2.780257   -1.523189
  H     -1.784383   -4.082764   -0.323969
  H      0.730126   -3.449941   -2.008819
  H     -0.373553   -4.837395   -2.246271
  H      0.623417   -4.725286   -0.767624
  H     -5.924325    1.177553   -0.158142
  H     -5.793269   -1.904666    0.000323
  H     -7.302334   -0.806568   -0.101178

 Multiplicity           Mult            ....    1
 Number of Electrons    NEL             ....  176
 Basis Dimension        Dim             ....  386

ORBITAL ENERGIES
----------------

  NO   OCC          E(Eh)            E(eV)
   0   2.0000     -88.881424     -2418.5865
   1   2.0000     -88.877544     -2418.4809
   2   2.0000     -24.717027      -672.5845
   3   2.0000     -24.701926      -672.1736
   4   2.0000     -19.162998      -521.4517
   5   2.0000     -19.158611      -521.3323
   6   2.0000     -10.283311      -279.8231
   7   2.0000     -10.278258      -279.6856
   8   2.0000     -10.264861      -279.3211
   9   2.0000     -10.260869      -279.2124
  10   2.0000     -10.249560      -278.9047
  11   2.0000     -10.244722      -278.7730
  12   2.0000     -10.231064      -278.4014
  13   2.0000     -10.230065      -278.3742
  14   2.0000     -10.225657      -278.2543
  15   2.0000     -10.217402      -278.0296
  16   2.0000     -10.217378      -278.0290
  17   2.0000     -10.212781      -277.9039
  18   2.0000     -10.211534      -277.8700
  19   2.0000     -10.196575      -277.4629
  20   2.0000     -10.187927      -277.2276
  21   2.0000     -10.186507      -277.1889
  22   2.0000      -7.975525      -217.0251
  23   2.0000      -7.971550      -216.9169
  24   2.0000      -5.944129      -161.7480
  25   2.0000      -5.940450      -161.6478
  26   2.0000      -5.940189      -161.6408
  27   2.0000      -5.936303      -161.5350
  28   2.0000      -5.935512      -161.5135
  29   2.0000      -5.931670      -161.4089
  30   2.0000      -1.224373       -33.3169
  31   2.0000      -1.211858       -32.9763
  32   2.0000      -1.060595       -28.8603
  33   2.0000      -1.054435       -28.6926
  34   2.0000      -0.904465       -24.6117
  35   2.0000      -0.884517       -24.0689
  36   2.0000      -0.823136       -22.3987
  37   2.0000      -0.792788       -21.5728
  38   2.0000      -0.781887       -21.2762
  39   2.0000      -0.757255       -20.6060
  40   2.0000      -0.747583       -20.3428
  41   2.0000      -0.739433       -20.1210
  42   2.0000      -0.720131       -19.5958
  43   2.0000      -0.690103       -18.7787
  44   2.0000      -0.652539       -17.7565
  45   2.0000      -0.634896       -17.2764
  46   2.0000      -0.629547       -17.1308
  47   2.0000      -0.603684       -16.4271
  48   2.0000      -0.589878       -16.0514
  49   2.0000      -0.581352       -15.8194
  50   2.0000      -0.572372       -15.5750
  51   2.0000      -0.547651       -14.9023
  52   2.0000      -0.540942       -14.7198
  53   2.0000      -0.526207       -14.3188
  54   2.0000      -0.509346       -13.8600
  55   2.0000      -0.494491       -13.4558
  56   2.0000      -0.488622       -13.2961
  57   2.0000      -0.483434       -13.1549
  58   2.0000      -0.479953       -13.0602
  59   2.0000      -0.472830       -12.8663
  60   2.0000      -0.472027       -12.8445
  61   2.0000      -0.470052       -12.7908
  62   2.0000      -0.459536       -12.5046
  63   2.0000      -0.432952       -11.7812
  64   2.0000      -0.425742       -11.5850
  65   2.0000      -0.420321       -11.4375
  66   2.0000      -0.413064       -11.2400
  67   2.0000      -0.409242       -11.1360
  68   2.0000      -0.405223       -11.0267
  69   2.0000      -0.401490       -10.9251
  70   2.0000      -0.395155       -10.7527
  71   2.0000      -0.389065       -10.5870
  72   2.0000      -0.384837       -10.4720
  73   2.0000      -0.381057       -10.3691
  74   2.0000      -0.376831       -10.2541
  75   2.0000      -0.365952        -9.9581
  76   2.0000      -0.358337        -9.7508
  77   2.0000      -0.355447        -9.6722
  78   2.0000      -0.345748        -9.4083
  79   2.0000      -0.339822        -9.2470
  80   2.0000      -0.329995        -8.9796
  81   2.0000      -0.309727        -8.4281
  82   2.0000      -0.295873        -8.0511
  83   2.0000      -0.280679        -7.6377
  84   2.0000      -0.269640        -7.3373
  85   2.0000      -0.250226        -6.8090
  86   2.0000      -0.232479        -6.3261
  87   2.0000      -0.194493        -5.2924
  88   0.0000      -0.066571        -1.8115
  89   0.0000      -0.013510        -0.3676
  90   0.0000      -0.010958        -0.2982
  91   0.0000       0.007599         0.2068
  92   0.0000       0.029309         0.7975

MULLIKEN ATOMIC CHARGES
-----------------------
   0 C :   -0.149782
   1 S :    0.130509
   2 C :   -0.114995
   3 C :    0.005262
   4 C :    0.251561
   5 F :   -0.175142
   6 C :    0.107311
   7 O :   -0.326643
   8 C :    0.174118
   9 C :    0.005077
  10 C :   -0.126158
  11 C :    0.027227
  12 C :    0.089856
  13 O :   -0.344332
  14 C :    0.205920
  15 C :   -0.015083
  16 C :    0.184257
  17 F :   -0.185129
  18 C :   -0.130212
  19 S :    0.111073
  20 C :    0.031778
  21 C :   -0.025964
  22 H :    0.030824
  23 H :    0.015643
  24 H :    0.017212
  25 H :    0.025765
  26 H :    0.015410
  27 H :    0.027078
  28 H :    0.007564
  29 H :    0.018174
  30 H :    0.021220
  31 H :    0.014360
  32 H :    0.027357
  33 H :   -0.011413
  34 H :    0.030086
  35 H :    0.030212
Sum of atomic charges:   -0.0000000

LOEWDIN ATOMIC CHARGES
----------------------
   0 C :   -0.213467
   1 S :    0.410599
   2 C :   -0.168445
   3 C :   -0.083928
   4 C :    0.045235
   5 F :   -0.051403
   6 C :    0.024753
   7 O :   -0.112530
   8 C :    0.084936
   9 C :   -0.060640
  10 C :   -0.179018
  11 C :   -0.083265
  12 C :    0.018766
  13 O :   -0.124340
  14 C :    0.092678
  15 C :   -0.070518
  16 C :    0.048635
  17 F :   -0.044991
  18 C :   -0.196492
  19 S :    0.405358
  20 C :   -0.044037
  21 C :   -0.037344
  22 H :    0.032357
  23 H :    0.013297
  24 H :    0.009041
  25 H :    0.029322
  26 H :    0.029267
  27 H :    0.031170
  28 H :    0.012471
  29 H :    0.018409
  30 H :    0.023869
  31 H :    0.029220
  32 H :    0.029243
  33 H :    0.029343
  34 H :    0.023865
  35 H :    0.028583

  Mayer bond orders larger than 0.100000
B(  0-C ,  1-S ) :   1.0659 B(  0-C ,  4-C ) :   1.6065 B(  0-C , 22-H ) :   0.9584
B(  1-S ,  2-C ) :   1.0608 B(  2-C ,  3-C ) :   1.3236 B(  2-C , 12-C ) :   1.4195
B(  3-C ,  4-C ) :   1.1037 B(  3-C ,  6-C ) :   1.2862 B(  4-C ,  5-F ) :   1.1539
B(  6-C ,  7-O ) :   1.2263 B(  6-C , 10-C ) :   1.3648 B(  7-O ,  8-C ) :   0.9078
B(  8-C ,  9-C ) :   1.1263 B(  8-C , 23-H ) :   0.9398 B(  8-C , 24-H ) :   0.9452
B(  9-C , 25-H ) :   0.9657 B(  9-C , 26-H ) :   0.9588 B(  9-C , 27-H ) :   0.9642
B( 10-C , 11-C ) :   1.2920 B( 10-C , 19-S ) :   1.0388 B( 11-C , 12-C ) :   1.2365
B( 11-C , 16-C ) :   1.1250 B( 12-C , 13-O ) :   1.2166 B( 13-O , 14-C ) :   0.8915
B( 14-C , 15-C ) :   1.1179 B( 14-C , 28-H ) :   0.9391 B( 14-C , 29-H ) :   0.9565
B( 15-C , 30-H ) :   0.9634 B( 15-C , 31-H ) :   0.9578 B( 15-C , 32-H ) :   0.9651
B( 16-C , 17-F ) :   1.1122 B( 16-C , 18-C ) :   1.5443 B( 18-C , 19-S ) :   1.0404
B( 18-C , 20-C ) :   1.1033 B( 20-C , 21-C ) :   1.9218 B( 20-C , 33-H ) :   0.9472
B( 21-C , 34-H ) :   0.9477 B( 21-C , 35-H ) :   0.9432

Dispersion correction           -0.084709828
FINAL SINGLE POINT ENERGY     -1763.746625554605

DIPOLE MOMENT
-------------
                                X             Y             Z
Electronic contribution:      7.34903       0.39076       1.58674
Nuclear contribution   :     -7.80834      -0.31626      -1.69231
                        -----------------------------------------
Total Dipole Moment    :     -0.45930       0.07451      -0.10557
                        -----------------------------------------
Magnitude (a.u.)       :      0.47713
Magnitude (Debye)      :      1.21277

Rotational constants in cm-1:     0.009604     0.007437     0.004304
Rotational constants in MHz :   287.907667   222.955468   129.016618

                             ****ORCA TERMINATED NORMALLY****
TOTAL RUN TIME: 0 days 2 hours 9 minutes 42 seconds 563 msec
