                         Program Version 4.2.0 -  RELEASE  -
|  1> # ORCA input file
|  2> # SCF done        -35.557711134398          0.000714645589
|  3> ! B3LYP/G D3BJ Opt RIJCOSX def2-SVP def2/J
|  4> * xyz 0 1
|  5>    N       -1.15049         1.13502         0.02414
|  6>    C        0.15140         0.59139         0.34664
|  7>    C        1.31440         1.51713         0.04525
|  8>    S        2.78097         0.42285         0.08325
|  9>    C        1.88645        -1.03994        -0.25627
| 10>    S        2.58307        -2.49296        -0.43647
| 11>    C        0.43445        -0.71084        -0.43840
| 12>    N       -0.55682        -1.70944        -0.10110
| 13>    C       -1.86702        -1.20643        -0.47959
| 14>    C       -2.17879         0.12145         0.23608
| 15>    C       -0.41787        -2.37823         1.10524
| 16>    C       -1.37247        -2.90909         1.86040
| 17>    H       -1.16493         1.44277        -0.94567
| 18>    H        0.14397         0.34395         1.41720
| 19>    H        1.44735         2.30615         0.78049
| 20>    H        1.23630         1.95347        -0.95188
| 21>    H        0.31106        -0.49457        -1.51582
| 22>    H       -2.61756        -1.95744        -0.24246
| 23>    H       -1.86839        -1.05486        -1.56538
| 24>    H       -2.23844        -0.05900         1.31304
| 25>    H       -3.13223         0.52622        -0.10483
| 26>    H        0.61511        -2.51231         1.39252
| 27>    H       -2.42378        -2.83427         1.64902
| 28>    H       -1.10497        -3.47668         2.73202
| 29> *
| 30>
| 31>                          ****END OF INPUT****
 Total Charge           Charge          ....    0
 Multiplicity           Mult            ....    1
 Number of Electrons    NEL             ....  106
Dispersion correction           -0.057580390
FINAL SINGLE POINT ENERGY     -1217.439311460681
Dispersion correction            ... done
Dispersion correction           -0.056843459
FINAL SINGLE POINT ENERGY     -1217.442019758075
Dispersion correction            ... done
Dispersion correction           -0.056684124
FINAL SINGLE POINT ENERGY     -1217.442178829991
Dispersion correction            ... done
FINAL SINGLE POINT ENERGY     -1217.442221030001
FINAL SINGLE POINT ENERGY     -1217.442221045943
Dispersion correction            ... done
Dispersion correction           -0.056615077
FINAL SINGLE POINT ENERGY     -1217.442205163465
Dispersion correction            ... done
Dispersion correction           -0.056599249
FINAL SINGLE POINT ENERGY     -1217.442226424040
Dispersion correction            ... done
                    ***********************HURRAY********************

CARTESIAN COORDINATES (ANGSTROEM)
---------------------------------
  N     -1.145475    1.155163    0.048036
  C      0.171729    0.622307    0.338359
  C      1.318005    1.555222   -0.025758
  S      2.808275    0.474621    0.013430
  C      1.927568   -1.035677   -0.217025
  S      2.661101   -2.488741   -0.303839
  C      0.454179   -0.709772   -0.391200
  N     -0.557732   -1.697525   -0.065212
  C     -1.874323   -1.192191   -0.450526
  C     -2.188311    0.143382    0.249979
  C     -0.434795   -2.455995    1.095546
  C     -1.416056   -2.987610    1.846846
  H     -1.168848    1.485638   -0.918170
  H      0.221204    0.403580    1.420720
  H      1.450612    2.387606    0.677732
  H      1.195342    1.967120   -1.041360
  H      0.356294   -0.497923   -1.477015
  H     -2.636273   -1.952117   -0.231655
  H     -1.874630   -1.038748   -1.545461
  H     -2.289051   -0.034904    1.333140
  H     -3.147286    0.550888   -0.107559
  H      0.603082   -2.664458    1.359024
  H     -2.479651   -2.834819    1.654586
  H     -1.144190   -3.630705    2.684800

 Multiplicity           Mult            ....    1
 Number of Electrons    NEL             ....  106
 Basis Dimension        Dim             ....  236

ORBITAL ENERGIES
----------------

  NO   OCC          E(Eh)            E(eV)
   0   2.0000     -88.875193     -2418.4169
   1   2.0000     -88.819161     -2416.8922
   2   2.0000     -14.350109      -390.4863
   3   2.0000     -14.331553      -389.9814
   4   2.0000     -10.275590      -279.6130
   5   2.0000     -10.247729      -278.8549
   6   2.0000     -10.239740      -278.6375
   7   2.0000     -10.239216      -278.6232
   8   2.0000     -10.227109      -278.2938
   9   2.0000     -10.223943      -278.2076
  10   2.0000     -10.212801      -277.9044
  11   2.0000     -10.161211      -276.5006
  12   2.0000      -7.970874      -216.8985
  13   2.0000      -7.915182      -215.3831
  14   2.0000      -5.939599      -161.6247
  15   2.0000      -5.935420      -161.5110
  16   2.0000      -5.930656      -161.3814
  17   2.0000      -5.883237      -160.0910
  18   2.0000      -5.881781      -160.0514
  19   2.0000      -5.873840      -159.8353
  20   2.0000      -0.969657       -26.3857
  21   2.0000      -0.910674       -24.7807
  22   2.0000      -0.869978       -23.6733
  23   2.0000      -0.779441       -21.2097
  24   2.0000      -0.759301       -20.6616
  25   2.0000      -0.750479       -20.4216
  26   2.0000      -0.684356       -18.6223
  27   2.0000      -0.679319       -18.4852
  28   2.0000      -0.635533       -17.2937
  29   2.0000      -0.616379       -16.7725
  30   2.0000      -0.576630       -15.6909
  31   2.0000      -0.529266       -14.4021
  32   2.0000      -0.511668       -13.9232
  33   2.0000      -0.499542       -13.5932
  34   2.0000      -0.477639       -12.9972
  35   2.0000      -0.474082       -12.9004
  36   2.0000      -0.470184       -12.7944
  37   2.0000      -0.446440       -12.1483
  38   2.0000      -0.435669       -11.8552
  39   2.0000      -0.419107       -11.4045
  40   2.0000      -0.406474       -11.0607
  41   2.0000      -0.388301       -10.5662
  42   2.0000      -0.382803       -10.4166
  43   2.0000      -0.379934       -10.3385
  44   2.0000      -0.367077        -9.9887
  45   2.0000      -0.357318        -9.7231
  46   2.0000      -0.347373        -9.4525
  47   2.0000      -0.331127        -9.0104
  48   2.0000      -0.318327        -8.6621
  49   2.0000      -0.255488        -6.9522
  50   2.0000      -0.245797        -6.6885
  51   2.0000      -0.222970        -6.0673
  52   2.0000      -0.196272        -5.3408
  53   0.0000      -0.075775        -2.0619
  54   0.0000       0.013837         0.3765
  55   0.0000       0.029356         0.7988
  56   0.0000       0.037184         1.0118
  57   0.0000       0.062390         1.6977

MULLIKEN ATOMIC CHARGES
-----------------------
   0 N :   -0.219456
   1 C :   -0.005610
   2 C :    0.012264
   3 S :    0.061387
   4 C :   -0.170646
   5 S :   -0.099005
   6 C :    0.168663
   7 N :   -0.254691
   8 C :    0.119885
   9 C :    0.129390
  10 C :    0.082862
  11 C :   -0.094447
  12 H :    0.089275
  13 H :    0.015714
  14 H :    0.064048
  15 H :    0.041212
  16 H :    0.010400
  17 H :    0.022829
  18 H :   -0.007056
  19 H :    0.011219
  20 H :    0.004299
  21 H :    0.006041
  22 H :    0.000959
  23 H :    0.010463
Sum of atomic charges:   -0.0000000

LOEWDIN ATOMIC CHARGES
----------------------
   0 N :   -0.099017
   1 C :   -0.009819
   2 C :   -0.117573
   3 S :    0.339500
   4 C :   -0.290320
   5 S :    0.033658
   6 C :   -0.018423
   7 N :   -0.056689
   8 C :    0.027930
   9 C :    0.017598
  10 C :    0.017162
  11 C :   -0.157181
  12 H :    0.050465
  13 H :    0.028105
  14 H :    0.033397
  15 H :    0.021693
  16 H :    0.035349
  17 H :    0.028923
  18 H :    0.016128
  19 H :    0.025580
  20 H :    0.022380
  21 H :    0.015431
  22 H :    0.010760
  23 H :    0.024962

  Mayer bond orders larger than 0.100000
B(  0-N ,  1-C ) :   1.0712 B(  0-N ,  9-C ) :   1.0517 B(  0-N , 12-H ) :   0.9350
B(  1-C ,  2-C ) :   1.0178 B(  1-C ,  6-C ) :   0.9724 B(  1-C , 13-H ) :   0.8991
B(  2-C ,  3-S ) :   0.9848 B(  2-C , 14-H ) :   0.9402 B(  2-C , 15-H ) :   0.9307
B(  3-S ,  4-C ) :   1.1316 B(  3-S ,  5-S ) :   0.1824 B(  4-C ,  5-S ) :   1.7633
B(  4-C ,  6-C ) :   0.9161 B(  6-C ,  7-N ) :   1.0485 B(  6-C , 16-H ) :   0.8699
B(  7-N ,  8-C ) :   1.0000 B(  7-N , 10-C ) :   1.0959 B(  8-C ,  9-C ) :   1.0739
B(  8-C , 17-H ) :   0.9317 B(  8-C , 18-H ) :   0.9231 B(  9-C , 19-H ) :   0.9246
B(  9-C , 20-H ) :   0.9481 B( 10-C , 11-C ) :   1.8842 B( 10-C , 21-H ) :   0.9441
B( 11-C , 22-H ) :   0.9515 B( 11-C , 23-H ) :   0.9406

Dispersion correction           -0.056590461
FINAL SINGLE POINT ENERGY     -1217.442224092089

DIPOLE MOMENT
-------------
                                X             Y             Z
Electronic contribution:     16.06604      -1.70206      -2.74228
Nuclear contribution   :    -16.89659       3.00223       2.25690
                        -----------------------------------------
Total Dipole Moment    :     -0.83055       1.30017      -0.48539
                        -----------------------------------------
Magnitude (a.u.)       :      1.61736
Magnitude (Debye)      :      4.11101

Rotational constants in cm-1:     0.032548     0.022500     0.014855
Rotational constants in MHz :   975.754813   674.545768   445.330435

                             ****ORCA TERMINATED NORMALLY****
TOTAL RUN TIME: 0 days 0 hours 16 minutes 52 seconds 287 msec
