                         Program Version 4.2.0 -  RELEASE  -
|  1> # ORCA input file
|  2> # SCF done        -41.610542162992          0.000512694261
|  3> ! B3LYP/G D3BJ Opt RIJCOSX def2-SVP def2/J
|  4> * xyz 0 1
|  5>    C        1.69954         1.19546        -0.03954
|  6>    S        2.91081        -0.02816        -0.05366
|  7>    C        1.71906        -1.26559        -0.06463
|  8>    C        0.45290        -0.75621        -0.04106
|  9>    C        0.43269         0.68276        -0.04886
| 10>    N       -0.75602         1.38159        -0.06099
| 11>    C       -1.97934         0.61785         0.07281
| 12>    C       -1.84342        -0.71994        -0.65192
| 13>    N       -0.74877        -1.46919        -0.06668
| 14>    C       -1.02700        -2.64851         0.58969
| 15>    O       -2.09778        -3.18533         0.50189
| 16>    O       -0.03876        -3.15554         1.33695
| 17>    C       -0.79045         2.75861        -0.13904
| 18>    C       -1.83652         3.53833         0.11202
| 19>    H        2.01425         2.21736        -0.01705
| 20>    H        2.03311        -2.28805        -0.13873
| 21>    H       -2.79376         1.18881        -0.37549
| 22>    H       -2.21370         0.43921         1.13107
| 23>    H       -1.63952        -0.55204        -1.71432
| 24>    H       -2.74937        -1.31721        -0.54369
| 25>    H        0.71349        -2.55006         1.42182
| 26>    H        0.14562         3.19606        -0.45197
| 27>    H       -2.78827         3.17206         0.45095
| 28>    H       -1.75406         4.60094        -0.01732
| 29> *
| 30>
| 31>                          ****END OF INPUT****
 Total Charge           Charge          ....    0
 Multiplicity           Mult            ....    1
 Number of Electrons    NEL             ....  110
Dispersion correction           -0.052879345
FINAL SINGLE POINT ENERGY     -1006.601396511644
Dispersion correction            ... done
Dispersion correction           -0.052592276
FINAL SINGLE POINT ENERGY     -1006.604606919540
Dispersion correction            ... done
Dispersion correction           -0.052484735
FINAL SINGLE POINT ENERGY     -1006.604853546893
Dispersion correction            ... done
FINAL SINGLE POINT ENERGY     -1006.604433770501
FINAL SINGLE POINT ENERGY     -1006.604503780024
FINAL SINGLE POINT ENERGY     -1006.604463621447
FINAL SINGLE POINT ENERGY     -1006.604533274288
Dispersion correction            ... done
Dispersion correction           -0.052438636
FINAL SINGLE POINT ENERGY     -1006.604548946638
Dispersion correction            ... done
Dispersion correction           -0.052432865
FINAL SINGLE POINT ENERGY     -1006.604535363882
Dispersion correction            ... done
                    ***********************HURRAY********************

CARTESIAN COORDINATES (ANGSTROEM)
---------------------------------
  C      1.706631    1.225385    0.048048
  S      2.923467   -0.003852    0.082286
  C      1.735561   -1.257609    0.022059
  C      0.449503   -0.750905   -0.001327
  C      0.432702    0.698763   -0.016742
  N     -0.768361    1.400412   -0.107101
  C     -2.003126    0.658832    0.110188
  C     -1.924703   -0.728289   -0.515904
  N     -0.762208   -1.458554   -0.016428
  C     -0.961954   -2.763673    0.441747
  O     -1.991593   -3.363642    0.266575
  O      0.069837   -3.309545    1.110009
  C     -0.779854    2.782696   -0.227769
  C     -1.804537    3.610424    0.034469
  H      1.996564    2.270650    0.114015
  H      2.047585   -2.293820   -0.082725
  H     -2.820632    1.216095   -0.367598
  H     -2.238093    0.577366    1.188239
  H     -1.874717   -0.641868   -1.614975
  H     -2.812166   -1.318426   -0.259920
  H      0.736243   -2.634350    1.326530
  H      0.159958    3.190019   -0.609579
  H     -2.758138    3.271892    0.442476
  H     -1.693238    4.675210   -0.174324

 Multiplicity           Mult            ....    1
 Number of Electrons    NEL             ....  110
 Basis Dimension        Dim             ....  250

ORBITAL ENERGIES
----------------

  NO   OCC          E(Eh)            E(eV)
   0   2.0000     -88.886494     -2418.7245
   1   2.0000     -19.181528      -521.9559
   2   2.0000     -19.111153      -520.0409
   3   2.0000     -14.385240      -391.4423
   4   2.0000     -14.378767      -391.2661
   5   2.0000     -10.343456      -281.4598
   6   2.0000     -10.257567      -279.1226
   7   2.0000     -10.251083      -278.9462
   8   2.0000     -10.245051      -278.7820
   9   2.0000     -10.242140      -278.7028
  10   2.0000     -10.236041      -278.5368
  11   2.0000     -10.227060      -278.2924
  12   2.0000     -10.220288      -278.1082
  13   2.0000     -10.184292      -277.1287
  14   2.0000      -7.981168      -217.1786
  15   2.0000      -5.949525      -161.8948
  16   2.0000      -5.945423      -161.7832
  17   2.0000      -5.942154      -161.6942
  18   2.0000      -1.104361       -30.0512
  19   2.0000      -1.013753       -27.5856
  20   2.0000      -0.991556       -26.9816
  21   2.0000      -0.948015       -25.7968
  22   2.0000      -0.886176       -24.1141
  23   2.0000      -0.784497       -21.3472
  24   2.0000      -0.773227       -21.0406
  25   2.0000      -0.743976       -20.2446
  26   2.0000      -0.713829       -19.4243
  27   2.0000      -0.663275       -18.0486
  28   2.0000      -0.637221       -17.3397
  29   2.0000      -0.621195       -16.9036
  30   2.0000      -0.609902       -16.5963
  31   2.0000      -0.569259       -15.4903
  32   2.0000      -0.545761       -14.8509
  33   2.0000      -0.525324       -14.2948
  34   2.0000      -0.506812       -13.7910
  35   2.0000      -0.499038       -13.5795
  36   2.0000      -0.475331       -12.9344
  37   2.0000      -0.462834       -12.5943
  38   2.0000      -0.449779       -12.2391
  39   2.0000      -0.434114       -11.8128
  40   2.0000      -0.430744       -11.7211
  41   2.0000      -0.422460       -11.4957
  42   2.0000      -0.419947       -11.4273
  43   2.0000      -0.415351       -11.3023
  44   2.0000      -0.399906       -10.8820
  45   2.0000      -0.385054       -10.4778
  46   2.0000      -0.376120       -10.2347
  47   2.0000      -0.369452       -10.0533
  48   2.0000      -0.348504        -9.4833
  49   2.0000      -0.329141        -8.9564
  50   2.0000      -0.315039        -8.5726
  51   2.0000      -0.287517        -7.8237
  52   2.0000      -0.276226        -7.5165
  53   2.0000      -0.234078        -6.3696
  54   2.0000      -0.206143        -5.6094
  55   0.0000      -0.039295        -1.0693
  56   0.0000       0.004843         0.1318
  57   0.0000       0.030860         0.8397
  58   0.0000       0.037650         1.0245
  59   0.0000       0.047253         1.2858

MULLIKEN ATOMIC CHARGES
-----------------------
   0 C :   -0.216568
   1 S :    0.118407
   2 C :   -0.239432
   3 C :    0.144099
   4 C :    0.195684
   5 N :   -0.244093
   6 C :    0.156454
   7 C :    0.148804
   8 N :   -0.296530
   9 C :    0.239990
  10 O :   -0.229518
  11 O :   -0.176788
  12 C :    0.074537
  13 C :   -0.078113
  14 H :    0.022484
  15 H :    0.034119
  16 H :    0.022669
  17 H :    0.019308
  18 H :    0.032779
  19 H :    0.045055
  20 H :    0.176850
  21 H :    0.009438
  22 H :    0.017364
  23 H :    0.023001
Sum of atomic charges:    0.0000000

LOEWDIN ATOMIC CHARGES
----------------------
   0 C :   -0.238060
   1 S :    0.437502
   2 C :   -0.252380
   3 C :   -0.030687
   4 C :   -0.016892
   5 N :   -0.026622
   6 C :    0.048117
   7 C :    0.052628
   8 N :   -0.060197
   9 C :    0.086073
  10 O :   -0.193006
  11 O :   -0.035003
  12 C :    0.024046
  13 C :   -0.125642
  14 H :    0.024586
  15 H :    0.028121
  16 H :    0.034195
  17 H :    0.020137
  18 H :    0.026759
  19 H :    0.040621
  20 H :    0.078281
  21 H :    0.027712
  22 H :    0.019639
  23 H :    0.030074

  Mayer bond orders larger than 0.100000
B(  0-C ,  1-S ) :   1.1312 B(  0-C ,  4-C ) :   1.4750 B(  0-C , 14-H ) :   0.9704
B(  1-S ,  2-C ) :   1.1427 B(  2-C ,  3-C ) :   1.4711 B(  2-C , 15-H ) :   0.9653
B(  3-C ,  4-C ) :   1.2518 B(  3-C ,  8-N ) :   1.0264 B(  4-C ,  5-N ) :   1.0861
B(  5-N ,  6-C ) :   0.9689 B(  5-N , 12-C ) :   1.0957 B(  6-C ,  7-C ) :   1.0907
B(  6-C , 16-H ) :   0.9296 B(  6-C , 17-H ) :   0.9354 B(  7-C ,  8-N ) :   0.9508
B(  7-C , 18-H ) :   0.9425 B(  7-C , 19-H ) :   0.9274 B(  8-N ,  9-C ) :   1.0360
B(  9-C , 10-O ) :   2.0612 B(  9-C , 11-O ) :   1.2039 B( 11-O , 20-H ) :   0.9325
B( 12-C , 13-C ) :   1.8907 B( 12-C , 21-H ) :   0.9530 B( 13-C , 22-H ) :   0.9516
B( 13-C , 23-H ) :   0.9408

Dispersion correction           -0.052436017
FINAL SINGLE POINT ENERGY     -1006.604539654822

DIPOLE MOMENT
-------------
                                X             Y             Z
Electronic contribution:      9.04628      -8.85322       0.86600
Nuclear contribution   :     -8.55470      10.27232      -0.98458
                        -----------------------------------------
Total Dipole Moment    :      0.49158       1.41911      -0.11858
                        -----------------------------------------
Magnitude (a.u.)       :      1.50651
Magnitude (Debye)      :      3.82925

Rotational constants in cm-1:     0.026075     0.018793     0.011254
Rotational constants in MHz :   781.701764   563.408104   337.385406

                             ****ORCA TERMINATED NORMALLY****
TOTAL RUN TIME: 0 days 0 hours 18 minutes 30 seconds 132 msec
