                         Program Version 4.2.0 -  RELEASE  -
|  1> # ORCA input file
|  2> # SCF done        -36.786813281013          0.000526786793
|  3> ! B3LYP/G D3BJ Opt RIJCOSX def2-SVP def2/J
|  4> * xyz 0 1
|  5>    C        0.07400         1.16329         0.11690
|  6>    S       -0.91561        -0.23416         0.24351
|  7>    C        0.38068        -1.24898        -0.24454
|  8>    C        1.51683        -0.54287        -0.49000
|  9>    N        2.71477        -1.08800        -0.98927
| 10>    O        2.69776        -2.49384        -0.91813
| 11>    O        3.86077        -0.61394        -0.33625
| 12>    C        1.33884         0.86163        -0.28022
| 13>    N        2.41300         1.76504        -0.36646
| 14>    O        3.03352         1.74668        -1.65413
| 15>    O        1.97841         3.07468        -0.12328
| 16>    H       -0.31679         2.13201         0.34823
| 17>    H        0.24044        -2.30622        -0.33282
| 18>    H        3.15685        -2.80522        -1.71103
| 19>    H        3.80376        -0.77024         0.62262
| 20>    H        3.77845         1.13480        -1.55802
| 21>    H        2.77865         3.57842         0.08398
| 22> *
| 23>
| 24>                          ****END OF INPUT****
 Total Charge           Charge          ....    0
 Multiplicity           Mult            ....    1
 Number of Electrons    NEL             ....   92
Dispersion correction           -0.032229142
FINAL SINGLE POINT ENERGY      -963.877774931434
Dispersion correction            ... done
Dispersion correction           -0.032353285
FINAL SINGLE POINT ENERGY      -963.882638600863
Dispersion correction            ... done
Dispersion correction           -0.032436243
FINAL SINGLE POINT ENERGY      -963.883255220998
Dispersion correction            ... done
FINAL SINGLE POINT ENERGY      -963.883395375754
FINAL SINGLE POINT ENERGY      -963.883428214025
FINAL SINGLE POINT ENERGY      -963.883439744702
FINAL SINGLE POINT ENERGY      -963.883424023493
Dispersion correction            ... done
Dispersion correction           -0.032429794
FINAL SINGLE POINT ENERGY      -963.883413761743
Dispersion correction            ... done
Dispersion correction           -0.032430348
FINAL SINGLE POINT ENERGY      -963.883418983323
Dispersion correction            ... done
                    ***********************HURRAY********************

CARTESIAN COORDINATES (ANGSTROEM)
---------------------------------
  C      0.101909    1.178565    0.155604
  S     -0.896860   -0.231570    0.259978
  C      0.390395   -1.252028   -0.271127
  C      1.538769   -0.540934   -0.519356
  N      2.728512   -1.119135   -1.054107
  O      2.672517   -2.507088   -0.850459
  O      3.875925   -0.632631   -0.398338
  C      1.369453    0.874611   -0.271012
  N      2.443483    1.793207   -0.375228
  O      3.015197    1.687914   -1.672729
  O      1.947708    3.090341   -0.242927
  H     -0.269696    2.164040    0.418867
  H      0.254319   -2.321063   -0.400997
  H      3.132131   -2.860408   -1.626304
  H      3.722424   -0.732990    0.562416
  H      3.830858    1.194857   -1.480560
  H      2.677286    3.567392    0.177371

 Multiplicity           Mult            ....    1
 Number of Electrons    NEL             ....   92
 Basis Dimension        Dim             ....  188

ORBITAL ENERGIES
----------------

  NO   OCC          E(Eh)            E(eV)
   0   2.0000     -88.875173     -2418.4164
   1   2.0000     -19.184062      -522.0249
   2   2.0000     -19.183562      -522.0113
   3   2.0000     -19.172464      -521.7093
   4   2.0000     -19.151308      -521.1336
   5   2.0000     -14.442743      -393.0070
   6   2.0000     -14.427719      -392.5982
   7   2.0000     -10.232287      -278.4347
   8   2.0000     -10.229074      -278.3473
   9   2.0000     -10.213007      -277.9101
  10   2.0000     -10.209019      -277.8015
  11   2.0000      -7.970202      -216.8802
  12   2.0000      -5.938386      -161.5917
  13   2.0000      -5.934429      -161.4840
  14   2.0000      -5.931280      -161.3983
  15   2.0000      -1.133636       -30.8478
  16   2.0000      -1.113318       -30.2949
  17   2.0000      -1.019273       -27.7358
  18   2.0000      -0.999431       -27.1959
  19   2.0000      -0.894502       -24.3406
  20   2.0000      -0.811722       -22.0881
  21   2.0000      -0.804736       -21.8980
  22   2.0000      -0.701811       -19.0972
  23   2.0000      -0.691716       -18.8226
  24   2.0000      -0.604250       -16.4425
  25   2.0000      -0.587359       -15.9828
  26   2.0000      -0.559327       -15.2201
  27   2.0000      -0.551272       -15.0009
  28   2.0000      -0.525759       -14.3066
  29   2.0000      -0.498817       -13.5735
  30   2.0000      -0.481528       -13.1030
  31   2.0000      -0.469646       -12.7797
  32   2.0000      -0.442712       -12.0468
  33   2.0000      -0.417572       -11.3627
  34   2.0000      -0.410437       -11.1686
  35   2.0000      -0.398823       -10.8525
  36   2.0000      -0.387659       -10.5487
  37   2.0000      -0.366439        -9.9713
  38   2.0000      -0.345136        -9.3916
  39   2.0000      -0.330404        -8.9907
  40   2.0000      -0.321582        -8.7507
  41   2.0000      -0.316512        -8.6127
  42   2.0000      -0.292162        -7.9501
  43   2.0000      -0.266564        -7.2536
  44   2.0000      -0.230005        -6.2588
  45   2.0000      -0.215997        -5.8776
  46   0.0000      -0.018047        -0.4911
  47   0.0000       0.020715         0.5637
  48   0.0000       0.038763         1.0548
  49   0.0000       0.057305         1.5594
  50   0.0000       0.061106         1.6628

MULLIKEN ATOMIC CHARGES
-----------------------
   0 C :   -0.147332
   1 S :    0.105606
   2 C :   -0.139470
   3 C :    0.126594
   4 N :   -0.002315
   5 O :   -0.207880
   6 O :   -0.224564
   7 C :    0.189652
   8 N :   -0.040226
   9 O :   -0.226021
  10 O :   -0.194557
  11 H :    0.017919
  12 H :    0.019544
  13 H :    0.188768
  14 H :    0.167348
  15 H :    0.187085
  16 H :    0.179848
Sum of atomic charges:   -0.0000000

LOEWDIN ATOMIC CHARGES
----------------------
   0 C :   -0.207830
   1 S :    0.431923
   2 C :   -0.208041
   3 C :   -0.074926
   4 N :    0.078658
   5 O :   -0.085375
   6 O :   -0.091783
   7 C :   -0.062379
   8 N :    0.062740
   9 O :   -0.105068
  10 O :   -0.077786
  11 H :    0.028294
  12 H :    0.027116
  13 H :    0.082530
  14 H :    0.064791
  15 H :    0.058971
  16 H :    0.078166

  Mayer bond orders larger than 0.100000
B(  0-C ,  1-S ) :   1.1343 B(  0-C ,  7-C ) :   1.5404 B(  0-C , 11-H ) :   0.9591
B(  1-S ,  2-C ) :   1.1466 B(  2-C ,  3-C ) :   1.5353 B(  2-C , 12-H ) :   0.9567
B(  3-C ,  4-N ) :   0.9882 B(  3-C ,  7-C ) :   1.2676 B(  4-N ,  5-O ) :   0.9913
B(  4-N ,  6-O ) :   0.9406 B(  5-O , 13-H ) :   0.9678 B(  6-O , 14-H ) :   0.9494
B(  7-C ,  8-N ) :   1.0047 B(  8-N ,  9-O ) :   0.9430 B(  8-N , 10-O ) :   0.9988
B(  9-O , 15-H ) :   0.9529 B( 10-O , 16-H ) :   0.9712

Dispersion correction           -0.032429371
FINAL SINGLE POINT ENERGY      -963.883418423484

DIPOLE MOMENT
-------------
                                X             Y             Z
Electronic contribution:     -3.19451      -0.34704       0.45340
Nuclear contribution   :      3.76670      -0.04655       0.13873
                        -----------------------------------------
Total Dipole Moment    :      0.57219      -0.39359       0.59213
                        -----------------------------------------
Magnitude (a.u.)       :      0.91265
Magnitude (Debye)      :      2.31977

Rotational constants in cm-1:     0.035832     0.034747     0.018638
Rotational constants in MHz :  1074.214854  1041.699575   558.742952

                             ****ORCA TERMINATED NORMALLY****
TOTAL RUN TIME: 0 days 0 hours 8 minutes 33 seconds 700 msec
