                         Program Version 4.2.0 -  RELEASE  -
|  1> # ORCA input file
|  2> # SCF done        -38.752602085682          0.000673646408
|  3> ! B3LYP/G D3BJ Opt RIJCOSX def2-SVP def2/J
|  4> * xyz 0 2
|  5>    C        1.58359         1.01469         0.49228
|  6>    C        1.60528        -0.34678         0.25348
|  7>    O        2.76156        -1.05376         0.38432
|  8>    C        2.73797        -2.36183        -0.14160
|  9>    C        1.57633        -3.18502         0.39238
| 10>    S        0.01258        -2.57032        -0.31696
| 11>    C        0.33438        -0.86286        -0.06532
| 12>    C       -0.66565         0.10723        -0.10389
| 13>    S        0.02637         1.68538         0.24976
| 14>    N        0.12249         2.26053        -1.48635
| 15>    C        0.65991         3.59162        -1.63257
| 16>    C       -2.05870        -0.07749        -0.30172
| 17>    C       -2.99023         0.88110        -0.23497
| 18>    H        2.39798         1.60317         0.85663
| 19>    H        3.69129        -2.80467         0.16014
| 20>    H        2.68927        -2.32783        -1.23946
| 21>    H        1.51864        -3.11211         1.47928
| 22>    H        1.66396        -4.22665         0.09200
| 23>    H       -0.81834         2.19647        -1.86334
| 24>    H        1.64657         3.61001        -1.17069
| 25>    H        0.04186         4.37635        -1.17877
| 26>    H        0.77020         3.80692        -2.69580
| 27>    H       -2.34528        -1.09645        -0.53212
| 28>    H       -2.73270         1.90082         0.00291
| 29>    H       -4.03084         0.66889        -0.39534
| 30> *
| 31>
| 32>                          ****END OF INPUT****
 Total Charge           Charge          ....    0
 Multiplicity           Mult            ....    2
 Number of Electrons    NEL             ....  113
 Basis Dimension        Dim             ....  250

ORBITAL ENERGIES
----------------
                 SPIN UP ORBITALS
  NO   OCC          E(Eh)            E(eV)
   0   1.0000     -88.936279     -2420.0792
   1   1.0000     -88.849466     -2417.7169
   2   1.0000     -19.169983      -521.6418
   3   1.0000     -14.323110      -389.7516
   4   1.0000     -10.254206      -279.0311
   5   1.0000     -10.249808      -278.9115
   6   1.0000     -10.225642      -278.2539
   7   1.0000     -10.211289      -277.8633
   8   1.0000     -10.207858      -277.7699
   9   1.0000     -10.199648      -277.5465
  10   1.0000     -10.190389      -277.2946
  11   1.0000     -10.182653      -277.0841
  12   1.0000     -10.169391      -276.7232
  13   1.0000      -8.022528      -218.3041
  14   1.0000      -7.944402      -216.1782
  15   1.0000      -5.990353      -163.0058
  16   1.0000      -5.988695      -162.9607
  17   1.0000      -5.983796      -162.8274
  18   1.0000      -5.913473      -160.9138
  19   1.0000      -5.909883      -160.8161
  20   1.0000      -5.903297      -160.6369
  21   1.0000      -1.069115       -29.0921
  22   1.0000      -0.925008       -25.1708
  23   1.0000      -0.864022       -23.5112
  24   1.0000      -0.821896       -22.3649
  25   1.0000      -0.781814       -21.2742
  26   1.0000      -0.766830       -20.8665
  27   1.0000      -0.704830       -19.1794
  28   1.0000      -0.686468       -18.6797
  29   1.0000      -0.651353       -17.7242
  30   1.0000      -0.633734       -17.2448
  31   1.0000      -0.605686       -16.4815
  32   1.0000      -0.553416       -15.0592
  33   1.0000      -0.539414       -14.6782
  34   1.0000      -0.512595       -13.9484
  35   1.0000      -0.498944       -13.5769
  36   1.0000      -0.484759       -13.1910
  37   1.0000      -0.478819       -13.0293
  38   1.0000      -0.460664       -12.5353
  39   1.0000      -0.450048       -12.2464
  40   1.0000      -0.433462       -11.7951
  41   1.0000      -0.428607       -11.6630
  42   1.0000      -0.420745       -11.4490
  43   1.0000      -0.410681       -11.1752
  44   1.0000      -0.394823       -10.7437
  45   1.0000      -0.387871       -10.5545
  46   1.0000      -0.379924       -10.3383
  47   1.0000      -0.372031       -10.1235
  48   1.0000      -0.361975        -9.8498
  49   1.0000      -0.346970        -9.4415
  50   1.0000      -0.331753        -9.0274
  51   1.0000      -0.313580        -8.5329
  52   1.0000      -0.281419        -7.6578
  53   1.0000      -0.248087        -6.7508
  54   1.0000      -0.238039        -6.4774
  55   1.0000      -0.201676        -5.4879
  56   1.0000      -0.137256        -3.7349
  57   0.0000      -0.012393        -0.3372
  58   0.0000       0.021375         0.5817
  59   0.0000       0.028670         0.7802
  60   0.0000       0.052942         1.4406
  61   0.0000       0.062598         1.7034

                 SPIN DOWN ORBITALS
  NO   OCC          E(Eh)            E(eV)
   0   1.0000     -88.935959     -2420.0705
   1   1.0000     -88.849267     -2417.7115
   2   1.0000     -19.169041      -521.6161
   3   1.0000     -14.317413      -389.5966
   4   1.0000     -10.254195      -279.0308
   5   1.0000     -10.247323      -278.8438
   6   1.0000     -10.225633      -278.2536
   7   1.0000     -10.211316      -277.8640
   8   1.0000     -10.205557      -277.7073
   9   1.0000     -10.197123      -277.4778
  10   1.0000     -10.191484      -277.3244
  11   1.0000     -10.181526      -277.0534
  12   1.0000     -10.166766      -276.6518
  13   1.0000      -8.022127      -218.2932
  14   1.0000      -7.944211      -216.1730
  15   1.0000      -5.989496      -162.9825
  16   1.0000      -5.988348      -162.9512
  17   1.0000      -5.983660      -162.8237
  18   1.0000      -5.913401      -160.9118
  19   1.0000      -5.909809      -160.8141
  20   1.0000      -5.902578      -160.6173
  21   1.0000      -1.066871       -29.0310
  22   1.0000      -0.917259       -24.9599
  23   1.0000      -0.856961       -23.3191
  24   1.0000      -0.820476       -22.3263
  25   1.0000      -0.778533       -21.1850
  26   1.0000      -0.763042       -20.7634
  27   1.0000      -0.701302       -19.0834
  28   1.0000      -0.683878       -18.6093
  29   1.0000      -0.646838       -17.6014
  30   1.0000      -0.630322       -17.1519
  31   1.0000      -0.602245       -16.3879
  32   1.0000      -0.550986       -14.9931
  33   1.0000      -0.536481       -14.5984
  34   1.0000      -0.509402       -13.8615
  35   1.0000      -0.496562       -13.5121
  36   1.0000      -0.481752       -13.1091
  37   1.0000      -0.475112       -12.9284
  38   1.0000      -0.455771       -12.4022
  39   1.0000      -0.446963       -12.1625
  40   1.0000      -0.430076       -11.7030
  41   1.0000      -0.426587       -11.6080
  42   1.0000      -0.418949       -11.4002
  43   1.0000      -0.408039       -11.1033
  44   1.0000      -0.390709       -10.6317
  45   1.0000      -0.384948       -10.4750
  46   1.0000      -0.376980       -10.2581
  47   1.0000      -0.369947       -10.0668
  48   1.0000      -0.356453        -9.6996
  49   1.0000      -0.343262        -9.3406
  50   1.0000      -0.325863        -8.8672
  51   1.0000      -0.310215        -8.4414
  52   1.0000      -0.273321        -7.4374
  53   1.0000      -0.238963        -6.5025
  54   1.0000      -0.230011        -6.2589
  55   1.0000      -0.186945        -5.0870
  56   0.0000      -0.073919        -2.0114
  57   0.0000       0.002630         0.0716
  58   0.0000       0.025451         0.6926
  59   0.0000       0.030760         0.8370
  60   0.0000       0.059575         1.6211

MULLIKEN ATOMIC CHARGES AND SPIN POPULATIONS
--------------------------------------------
   0 C :   -0.174727    0.098414
   1 C :    0.233911    0.134483
   2 O :   -0.303057    0.024181
   3 C :    0.247295    0.001235
   4 C :   -0.100079    0.005807
   5 S :   -0.001416    0.032394
   6 C :   -0.016597    0.136881
   7 C :   -0.194943    0.174554
   8 S :    0.289486    0.106880
   9 N :   -0.364947    0.174865
  10 C :    0.125371    0.006092
  11 C :    0.033542   -0.089776
  12 C :   -0.071447    0.198969
  13 H :   -0.003961   -0.004352
  14 H :    0.015744   -0.000437
  15 H :    0.024532    0.000131
  16 H :    0.069137   -0.000373
  17 H :    0.048902   -0.000272
  18 H :    0.117831    0.002603
  19 H :    0.004179    0.005177
  20 H :   -0.003118    0.001818
  21 H :    0.030062    0.005589
  22 H :   -0.014665    0.002725
  23 H :   -0.002026   -0.007866
  24 H :    0.010994   -0.009722
Sum of atomic charges         :   -0.0000000

LOEWDIN ATOMIC CHARGES AND SPIN POPULATIONS
-------------------------------------------
   0 C :   -0.300266    0.087819
   1 C :    0.012286    0.137545
   2 O :   -0.094718    0.029482
   3 C :    0.073349    0.001966
   4 C :   -0.139343    0.002527
   5 S :    0.292485    0.036831
   6 C :   -0.231097    0.134018
   7 C :   -0.242686    0.148930
   8 S :    0.797472    0.103870
   9 N :   -0.260069    0.182192
  10 C :   -0.011045    0.005284
  11 C :   -0.037707   -0.047802
  12 C :   -0.108810    0.159549
  13 H :    0.015077    0.000994
  14 H :    0.024620   -0.000123
  15 H :    0.016102    0.000507
  16 H :    0.028031    0.000379
  17 H :    0.031389   -0.000028
  18 H :    0.043498    0.005859
  19 H :    0.014504    0.003091
  20 H :   -0.002230    0.001259
  21 H :    0.028495    0.005440
  22 H :    0.029006   -0.000262
  23 H :    0.002950    0.000442
  24 H :    0.018705    0.000232

  Mayer bond orders larger than 0.100000
B(  0-C ,  1-C ) :   1.4124 B(  0-C ,  8-S ) :   1.1357 B(  0-C , 13-H ) :   0.9680
B(  1-C ,  2-O ) :   1.1329 B(  1-C ,  6-C ) :   1.2850 B(  2-O ,  3-C ) :   0.9698
B(  3-C ,  4-C ) :   1.0399 B(  3-C , 14-H ) :   0.9461 B(  3-C , 15-H ) :   0.9454
B(  4-C ,  5-S ) :   1.0162 B(  4-C , 16-H ) :   0.9399 B(  4-C , 17-H ) :   0.9434
B(  5-S ,  6-C ) :   1.0085 B(  6-C ,  7-C ) :   1.3756 B(  7-C ,  8-S ) :   1.0384
B(  7-C , 11-C ) :   1.2330 B(  8-S ,  9-N ) :   0.7300 B(  9-N , 10-C ) :   1.0188
B(  9-N , 18-H ) :   0.9339 B( 10-C , 19-H ) :   0.9681 B( 10-C , 20-H ) :   0.9610
B( 10-C , 21-H ) :   0.9698 B( 11-C , 12-C ) :   1.8061 B( 11-C , 22-H ) :   0.9459
B( 12-C , 23-H ) :   0.9499 B( 12-C , 24-H ) :   0.9479

Dispersion correction           -0.056683961
FINAL SINGLE POINT ENERGY     -1275.869655111490
Dispersion correction            ... done
Dispersion correction           -0.056215405
FINAL SINGLE POINT ENERGY     -1275.874675959721
Dispersion correction            ... done
Dispersion correction           -0.056120776
FINAL SINGLE POINT ENERGY     -1275.875834283792
Dispersion correction            ... done
FINAL SINGLE POINT ENERGY     -1275.876359879776
FINAL SINGLE POINT ENERGY     -1275.876757893094
FINAL SINGLE POINT ENERGY     -1275.877345294421
FINAL SINGLE POINT ENERGY     -1275.878896418290
FINAL SINGLE POINT ENERGY     -1275.883675661079
FINAL SINGLE POINT ENERGY     -1275.886258106849
FINAL SINGLE POINT ENERGY     -1275.886754255980
FINAL SINGLE POINT ENERGY     -1275.909756542178
FINAL SINGLE POINT ENERGY     -1275.911148987831
FINAL SINGLE POINT ENERGY     -1275.911966583646
FINAL SINGLE POINT ENERGY     -1275.912500268877
FINAL SINGLE POINT ENERGY     -1275.912854587396
FINAL SINGLE POINT ENERGY     -1275.913071720488
FINAL SINGLE POINT ENERGY     -1275.913110458544
Dispersion correction           -0.057069599
FINAL SINGLE POINT ENERGY     -1275.913118693956
Dispersion correction            ... done
Dispersion correction           -0.057076257
FINAL SINGLE POINT ENERGY     -1275.913112991522
Dispersion correction            ... done

CARTESIAN COORDINATES (ANGSTROEM)
---------------------------------
  C      1.313345    1.083213    1.529194
  C      1.373983   -0.084137    0.806978
  O      2.507328   -0.816796    0.703640
  C      2.618758   -1.660358   -0.440215
  C      1.485149   -2.671197   -0.499447
  S     -0.138041   -1.870018   -0.787274
  C      0.102619   -0.442856    0.229246
  C     -0.895401    0.475230    0.517549
  S     -0.276415    1.767391    1.524092
  N      1.478545    0.878176   -2.235312
  C      1.053689    2.230139   -2.022143
  C     -2.268487    0.446650    0.051992
  C     -3.217328    1.369615    0.282981
  H      2.135709    1.563963    2.053216
  H      3.577179   -2.187161   -0.321136
  H      2.647029   -1.037833   -1.349828
  H      1.443337   -3.251241    0.435634
  H      1.629431   -3.366679   -1.338733
  H      0.634902    0.326663   -2.453868
  H      1.908904    2.889487   -1.804559
  H      0.342956    2.301390   -1.171917
  H      0.506651    2.641626   -2.898000
  H     -2.523172   -0.428442   -0.556387
  H     -3.020341    2.267518    0.877086
  H     -4.221840    1.253066   -0.128508

Dispersion correction           -0.057090186
FINAL SINGLE POINT ENERGY     -1275.913131668456
Dispersion correction            ... done

DIPOLE MOMENT
-------------
                                X             Y             Z
Electronic contribution:     -1.16468      -2.65614       7.80901
Nuclear contribution   :      1.11089       2.39153      -8.15629
                        -----------------------------------------
Total Dipole Moment    :     -0.05379      -0.26461      -0.34728
                        -----------------------------------------
Magnitude (a.u.)       :      0.43991
Magnitude (Debye)      :      1.11815

Rotational constants in cm-1:     0.027002     0.016994     0.015530
Rotational constants in MHz :   809.498361   509.472813   465.584507

                             ****ORCA TERMINATED NORMALLY****
TOTAL RUN TIME: 0 days 3 hours 42 minutes 21 seconds 904 msec
