                         Program Version 4.2.0 -  RELEASE  -
|  1> # ORCA input file
|  2> # SCF done        -46.302596673076          0.000708063772
|  3> ! B3LYP/G D3BJ Opt RIJCOSX def2-SVP def2/J
|  4> * xyz 0 1
|  5>    C        1.20982         0.28834        -0.00663
|  6>    C        0.79352        -0.99907        -0.00333
|  7>    N        1.62886        -2.15126         0.00029
|  8>    O        2.82824        -1.96733        -0.00080
|  9>    O        1.08435        -3.23477         0.00491
| 10>    C       -0.66989        -1.05031        -0.00436
| 11>    C       -1.12735         0.21345        -0.00915
| 12>    C        0.01368         1.12221        -0.01100
| 13>    C       -0.01492         2.48300        -0.01443
| 14>    C        1.12600         3.39189        -0.01103
| 15>    C        0.66839         4.65560        -0.01518
| 16>    C       -0.79499         4.60420        -0.02177
| 17>    N       -1.63053         5.75624        -0.02888
| 18>    O       -2.82987         5.57207        -0.03222
| 19>    O       -1.08623         6.83987        -0.02918
| 20>    C       -1.21116         3.31674        -0.02073
| 21>    H        2.22380         0.63592        -0.00719
| 22>    H       -1.22715        -1.96716        -0.00150
| 23>    H       -2.15136         0.52967        -0.01074
| 24>    H        2.15005         3.07582        -0.00544
| 25>    H        1.22555         5.57253        -0.01404
| 26>    H       -2.22509         2.96906        -0.02502
| 27> *
| 28>
| 29>                          ****END OF INPUT****
 Total Charge           Charge          ....    0
 Multiplicity           Mult            ....    1
 Number of Electrons    NEL             ....  112
Dispersion correction           -0.045213208
FINAL SINGLE POINT ENERGY      -794.252303122326
Dispersion correction            ... done
Dispersion correction           -0.045105167
FINAL SINGLE POINT ENERGY      -794.255986486526
Dispersion correction            ... done
Dispersion correction           -0.045084689
FINAL SINGLE POINT ENERGY      -794.256112764542
Dispersion correction            ... done
FINAL SINGLE POINT ENERGY      -794.255879218907
FINAL SINGLE POINT ENERGY      -794.256219923374
FINAL SINGLE POINT ENERGY      -794.256219358606
FINAL SINGLE POINT ENERGY      -794.256206308646
FINAL SINGLE POINT ENERGY      -794.256216187413
FINAL SINGLE POINT ENERGY      -794.256213725436
FINAL SINGLE POINT ENERGY      -794.256137485314
FINAL SINGLE POINT ENERGY      -794.255243056213
FINAL SINGLE POINT ENERGY      -794.256157625226
FINAL SINGLE POINT ENERGY      -794.256120572712
FINAL SINGLE POINT ENERGY      -794.256009589022
FINAL SINGLE POINT ENERGY      -794.256066387421
Dispersion correction            ... done
Dispersion correction           -0.045069921
FINAL SINGLE POINT ENERGY      -794.256058843319
Dispersion correction            ... done
Dispersion correction           -0.045069542
FINAL SINGLE POINT ENERGY      -794.256053536372
Dispersion correction            ... done
                    ***********************HURRAY********************

CARTESIAN COORDINATES (ANGSTROEM)
---------------------------------
  C      1.221533    0.284654   -0.055896
  C      0.787352   -0.998527   -0.002585
  N      1.647489   -2.161413    0.099040
  O      2.853986   -1.976872    0.066465
  O      1.092319   -3.244786    0.219084
  C     -0.683508   -1.064838   -0.026608
  C     -1.146012    0.208867   -0.086149
  C      0.011840    1.118832   -0.098215
  C     -0.013205    2.485737   -0.101861
  C      1.144675    3.395617   -0.088600
  C      0.682062    4.669633   -0.037742
  C     -0.788896    4.603616   -0.021118
  N     -1.649039    5.767353    0.070084
  O     -2.855431    5.583135    0.032657
  O     -1.093978    6.851091    0.187111
  C     -1.223039    3.320246   -0.070169
  H      2.254554    0.619205   -0.045955
  H     -1.248482   -1.993222    0.001895
  H     -2.185275    0.528785   -0.119297
  H      2.184062    3.075452   -0.114564
  H      1.246910    5.598138   -0.010868
  H     -2.256195    2.986005   -0.064128

 Multiplicity           Mult            ....    1
 Number of Electrons    NEL             ....  112
 Basis Dimension        Dim             ....  254

ORBITAL ENERGIES
----------------

  NO   OCC          E(Eh)            E(eV)
   0   2.0000     -19.177488      -521.8460
   1   2.0000     -19.177481      -521.8458
   2   2.0000     -19.175475      -521.7912
   3   2.0000     -19.175466      -521.7910
   4   2.0000     -14.576147      -396.6371
   5   2.0000     -14.576133      -396.6367
   6   2.0000     -10.273476      -279.5555
   7   2.0000     -10.273468      -279.5553
   8   2.0000     -10.265675      -279.3432
   9   2.0000     -10.265234      -279.3312
  10   2.0000     -10.244807      -278.7754
  11   2.0000     -10.244788      -278.7749
  12   2.0000     -10.239915      -278.6422
  13   2.0000     -10.239902      -278.6419
  14   2.0000     -10.232052      -278.4283
  15   2.0000     -10.232041      -278.4280
  16   2.0000      -1.236919       -33.6583
  17   2.0000      -1.236898       -33.6577
  18   2.0000      -1.063480       -28.9388
  19   2.0000      -1.063460       -28.9382
  20   2.0000      -0.932911       -25.3858
  21   2.0000      -0.913615       -24.8607
  22   2.0000      -0.827286       -22.5116
  23   2.0000      -0.799498       -21.7555
  24   2.0000      -0.768056       -20.8999
  25   2.0000      -0.747180       -20.3318
  26   2.0000      -0.708056       -19.2672
  27   2.0000      -0.656262       -17.8578
  28   2.0000      -0.609497       -16.5852
  29   2.0000      -0.579043       -15.7566
  30   2.0000      -0.578937       -15.7537
  31   2.0000      -0.577522       -15.7152
  32   2.0000      -0.562138       -15.2966
  33   2.0000      -0.557177       -15.1616
  34   2.0000      -0.557068       -15.1586
  35   2.0000      -0.545848       -14.8533
  36   2.0000      -0.520476       -14.1629
  37   2.0000      -0.516015       -14.0415
  38   2.0000      -0.480874       -13.0853
  39   2.0000      -0.475724       -12.9451
  40   2.0000      -0.460601       -12.5336
  41   2.0000      -0.442610       -12.0440
  42   2.0000      -0.441949       -12.0260
  43   2.0000      -0.440405       -11.9840
  44   2.0000      -0.428836       -11.6692
  45   2.0000      -0.400597       -10.9008
  46   2.0000      -0.399409       -10.8685
  47   2.0000      -0.326322        -8.8797
  48   2.0000      -0.326280        -8.8785
  49   2.0000      -0.325322        -8.8525
  50   2.0000      -0.323441        -8.8013
  51   2.0000      -0.309500        -8.4219
  52   2.0000      -0.309204        -8.4139
  53   2.0000      -0.303311        -8.2535
  54   2.0000      -0.281310        -7.6548
  55   2.0000      -0.274099        -7.4586
  56   0.0000      -0.168785        -4.5929
  57   0.0000      -0.094244        -2.5645
  58   0.0000      -0.081962        -2.2303
  59   0.0000      -0.022242        -0.6052
  60   0.0000       0.037253         1.0137

MULLIKEN ATOMIC CHARGES
-----------------------
   0 C :   -0.040314
   1 C :    0.161621
   2 N :    0.244620
   3 O :   -0.238435
   4 O :   -0.238594
   5 C :    0.031518
   6 C :    0.010495
   7 C :    0.045456
   8 C :    0.045461
   9 C :    0.010476
  10 C :    0.031523
  11 C :    0.161535
  12 N :    0.244714
  13 O :   -0.238459
  14 O :   -0.238572
  15 C :   -0.040327
  16 H :    0.012448
  17 H :    0.011179
  18 H :    0.000017
  19 H :    0.000008
  20 H :    0.011190
  21 H :    0.012441
Sum of atomic charges:    0.0000000

LOEWDIN ATOMIC CHARGES
----------------------
   0 C :    0.007895
   1 C :   -0.010920
   2 N :    0.272392
   3 O :   -0.202831
   4 O :   -0.200775
   5 C :    0.010396
   6 C :   -0.028497
   7 C :    0.035746
   8 C :    0.035769
   9 C :   -0.028501
  10 C :    0.010394
  11 C :   -0.010912
  12 N :    0.272387
  13 O :   -0.202822
  14 O :   -0.200755
  15 C :    0.007881
  16 H :    0.041940
  17 H :    0.041441
  18 H :    0.033194
  19 H :    0.033194
  20 H :    0.041439
  21 H :    0.041945

  Mayer bond orders larger than 0.100000
B(  0-C ,  1-C ) :   1.6177 B(  0-C ,  7-C ) :   1.0156 B(  0-C , 16-H ) :   1.0136
B(  1-C ,  2-N ) :   0.8841 B(  1-C ,  5-C ) :   1.0854 B(  2-N ,  3-O ) :   1.5357
B(  2-N ,  4-O ) :   1.5196 B(  3-O ,  4-O ) :   0.2934 B(  5-C ,  6-C ) :   1.6156
B(  5-C , 17-H ) :   1.0080 B(  6-C ,  7-C ) :   1.0762 B(  6-C , 18-H ) :   1.0033
B(  7-C ,  8-C ) :   1.5170 B(  8-C ,  9-C ) :   1.0761 B(  8-C , 15-C ) :   1.0155
B(  9-C , 10-C ) :   1.6155 B(  9-C , 19-H ) :   1.0033 B( 10-C , 11-C ) :   1.0855
B( 10-C , 20-H ) :   1.0080 B( 11-C , 12-N ) :   0.8842 B( 11-C , 15-C ) :   1.6178
B( 12-N , 13-O ) :   1.5357 B( 12-N , 14-O ) :   1.5196 B( 13-O , 14-O ) :   0.2934
B( 15-C , 21-H ) :   1.0136

Dispersion correction           -0.045069528
FINAL SINGLE POINT ENERGY      -794.256055072782

DIPOLE MOMENT
-------------
                                X             Y             Z
Electronic contribution:     -0.00013       0.00109       0.22441
Nuclear contribution   :      0.00003      -0.00159      -0.40169
                        -----------------------------------------
Total Dipole Moment    :     -0.00009      -0.00050      -0.17728
                        -----------------------------------------
Magnitude (a.u.)       :      0.17728
Magnitude (Debye)      :      0.45061

Rotational constants in cm-1:     0.067671     0.006721     0.006123
Rotational constants in MHz :  2028.716053   201.480677   183.563152

                             ****ORCA TERMINATED NORMALLY****
TOTAL RUN TIME: 0 days 0 hours 36 minutes 33 seconds 178 msec
