                         Program Version 4.2.0 -  RELEASE  -
|  1> # ORCA input file
|  2> # SCF done        -37.135126159842          0.000349020039
|  3> ! B3LYP/G D3BJ Opt RIJCOSX def2-SVP def2/J
|  4> * xyz 0 1
|  5>    N        2.33424         1.47613        -0.02831
|  6>    C        1.13642         0.84261        -0.54685
|  7>    C        1.26927        -0.72258        -0.39624
|  8>    N        0.07632        -1.32190         0.16885
|  9>    C       -1.13807        -0.82777        -0.45668
| 10>    C       -1.24284         0.73535        -0.39517
| 11>    C       -2.46021         1.11327         0.43953
| 12>    S       -3.68314        -0.19084         0.13126
| 13>    C       -2.36504        -1.43809         0.21737
| 14>    N       -0.03392         1.33544         0.14225
| 15>    N        2.36841        -0.91633         0.52526
| 16>    S        3.54878         0.29408         0.08567
| 17>    H        2.15097         1.91167         0.87117
| 18>    H        1.03459         1.10575        -1.60821
| 19>    H        1.43606        -1.17710        -1.38727
| 20>    H        0.06515        -1.14721         1.17139
| 21>    H       -1.09541        -1.14337        -1.50500
| 22>    H       -1.36559         1.12780        -1.41087
| 23>    H       -2.88195         2.07298         0.15623
| 24>    H       -2.22604         1.12270         1.50626
| 25>    H       -2.70765        -2.34499        -0.27180
| 26>    H       -2.16490        -1.65365         1.26871
| 27>    H        0.04770         1.11944         1.13551
| 28>    H        2.76994        -1.84433         0.48086
| 29> *
| 30>
| 31>                          ****END OF INPUT****
 Total Charge           Charge          ....    0
 Multiplicity           Mult            ....    1
 Number of Electrons    NEL             ....  108
Dispersion correction           -0.054906656
FINAL SINGLE POINT ENERGY     -1250.682022179058
Dispersion correction            ... done
Dispersion correction           -0.054504472
FINAL SINGLE POINT ENERGY     -1250.684134773557
Dispersion correction            ... done
Dispersion correction           -0.054448553
FINAL SINGLE POINT ENERGY     -1250.684450481345
Dispersion correction            ... done
FINAL SINGLE POINT ENERGY     -1250.684522971472
FINAL SINGLE POINT ENERGY     -1250.684538669264
FINAL SINGLE POINT ENERGY     -1250.684541943684
Dispersion correction            ... done
Dispersion correction           -0.054504536
FINAL SINGLE POINT ENERGY     -1250.684539901974
Dispersion correction            ... done
Dispersion correction           -0.054501307
FINAL SINGLE POINT ENERGY     -1250.684535055778
Dispersion correction            ... done
                    ***********************HURRAY********************

CARTESIAN COORDINATES (ANGSTROEM)
---------------------------------
  N      2.348515    1.498510   -0.043244
  C      1.137876    0.850107   -0.563925
  C      1.278085   -0.725850   -0.390651
  N      0.077026   -1.346960    0.143387
  C     -1.144486   -0.836598   -0.462862
  C     -1.241947    0.742732   -0.392318
  C     -2.462792    1.120957    0.447098
  S     -3.705612   -0.178956    0.125431
  C     -2.383903   -1.441413    0.215320
  N     -0.025475    1.351548    0.136647
  N      2.356185   -0.907800    0.576749
  S      3.570469    0.315444    0.115336
  H      2.142888    1.931431    0.858168
  H      1.016602    1.084134   -1.635660
  H      1.498502   -1.170123   -1.382871
  H      0.073520   -1.199558    1.153261
  H     -1.137776   -1.135231   -1.523916
  H     -1.386620    1.127788   -1.414015
  H     -2.872753    2.104434    0.182270
  H     -2.206151    1.134753    1.521906
  H     -2.727331   -2.366223   -0.265567
  H     -2.165281   -1.671089    1.272340
  H      0.066083    1.087459    1.121626
  H      2.767465   -1.840437    0.499411

 Multiplicity           Mult            ....    1
 Number of Electrons    NEL             ....  108
 Basis Dimension        Dim             ....  236

ORBITAL ENERGIES
----------------

  NO   OCC          E(Eh)            E(eV)
   0   2.0000     -88.878194     -2418.4986
   1   2.0000     -88.833676     -2417.2872
   2   2.0000     -14.345204      -390.3529
   3   2.0000     -14.342960      -390.2918
   4   2.0000     -14.329694      -389.9308
   5   2.0000     -14.322476      -389.7344
   6   2.0000     -10.250752      -278.9371
   7   2.0000     -10.247828      -278.8576
   8   2.0000     -10.226100      -278.2663
   9   2.0000     -10.225665      -278.2545
  10   2.0000     -10.218844      -278.0689
  11   2.0000     -10.218358      -278.0556
  12   2.0000      -7.969794      -216.8691
  13   2.0000      -7.929270      -215.7664
  14   2.0000      -5.941387      -161.6734
  15   2.0000      -5.936107      -161.5297
  16   2.0000      -5.925592      -161.2436
  17   2.0000      -5.898727      -160.5125
  18   2.0000      -5.894969      -160.4103
  19   2.0000      -5.887365      -160.2033
  20   2.0000      -0.983652       -26.7665
  21   2.0000      -0.923276       -25.1236
  22   2.0000      -0.908616       -24.7247
  23   2.0000      -0.844231       -22.9727
  24   2.0000      -0.829234       -22.5646
  25   2.0000      -0.732603       -19.9351
  26   2.0000      -0.721644       -19.6369
  27   2.0000      -0.674919       -18.3655
  28   2.0000      -0.645474       -17.5642
  29   2.0000      -0.603591       -16.4245
  30   2.0000      -0.593730       -16.1562
  31   2.0000      -0.574395       -15.6301
  32   2.0000      -0.545436       -14.8421
  33   2.0000      -0.507798       -13.8179
  34   2.0000      -0.493118       -13.4184
  35   2.0000      -0.483341       -13.1524
  36   2.0000      -0.466612       -12.6972
  37   2.0000      -0.460461       -12.5298
  38   2.0000      -0.439036       -11.9468
  39   2.0000      -0.436697       -11.8831
  40   2.0000      -0.411429       -11.1956
  41   2.0000      -0.399015       -10.8577
  42   2.0000      -0.386032       -10.5045
  43   2.0000      -0.382274       -10.4022
  44   2.0000      -0.368624       -10.0308
  45   2.0000      -0.363860        -9.9011
  46   2.0000      -0.344996        -9.3878
  47   2.0000      -0.324656        -8.8343
  48   2.0000      -0.302027        -8.2186
  49   2.0000      -0.279232        -7.5983
  50   2.0000      -0.268306        -7.3010
  51   2.0000      -0.227348        -6.1865
  52   2.0000      -0.221333        -6.0228
  53   2.0000      -0.205347        -5.5878
  54   0.0000      -0.004990        -0.1358
  55   0.0000       0.032863         0.8943
  56   0.0000       0.035643         0.9699
  57   0.0000       0.041541         1.1304
  58   0.0000       0.053756         1.4628

MULLIKEN ATOMIC CHARGES
-----------------------
   0 N :   -0.291242
   1 C :    0.156547
   2 C :    0.126742
   3 N :   -0.174533
   4 C :    0.031020
   5 C :    0.035146
   6 C :    0.001426
   7 S :   -0.087069
   8 C :    0.011340
   9 N :   -0.188723
  10 N :   -0.356365
  11 S :    0.204209
  12 H :    0.131214
  13 H :   -0.008339
  14 H :   -0.017017
  15 H :    0.083818
  16 H :   -0.008149
  17 H :   -0.004285
  18 H :    0.047557
  19 H :    0.024628
  20 H :    0.044381
  21 H :    0.025418
  22 H :    0.080781
  23 H :    0.131495
Sum of atomic charges:    0.0000000

LOEWDIN ATOMIC CHARGES
----------------------
   0 N :   -0.219603
   1 C :    0.037713
   2 C :    0.017951
   3 N :   -0.099104
   4 C :   -0.007307
   5 C :   -0.010058
   6 C :   -0.122468
   7 S :    0.200512
   8 C :   -0.121681
   9 N :   -0.093047
  10 N :   -0.245838
  11 S :    0.338711
  12 H :    0.050364
  13 H :    0.012831
  14 H :   -0.004444
  15 H :    0.041915
  16 H :    0.018449
  17 H :    0.020225
  18 H :    0.029284
  19 H :    0.013746
  20 H :    0.028521
  21 H :    0.015930
  22 H :    0.040985
  23 H :    0.056413

  Mayer bond orders larger than 0.100000
B(  0-N ,  1-C ) :   1.0439 B(  0-N , 11-S ) :   1.0417 B(  0-N , 12-H ) :   0.9215
B(  1-C ,  2-C ) :   0.9353 B(  1-C ,  9-N ) :   1.0799 B(  1-C , 13-H ) :   0.9061
B(  2-C ,  3-N ) :   1.0892 B(  2-C , 10-N ) :   0.9863 B(  2-C , 14-H ) :   0.9020
B(  3-N ,  4-C ) :   1.0757 B(  3-N , 15-H ) :   0.9004 B(  4-C ,  5-C ) :   0.9713
B(  4-C ,  8-C ) :   1.0427 B(  4-C , 16-H ) :   0.9012 B(  5-C ,  6-C ) :   1.0310
B(  5-C ,  9-N ) :   1.0617 B(  5-C , 17-H ) :   0.9006 B(  6-C ,  7-S ) :   1.0189
B(  6-C , 18-H ) :   0.9469 B(  6-C , 19-H ) :   0.9279 B(  7-S ,  8-C ) :   1.0210
B(  8-C , 20-H ) :   0.9446 B(  8-C , 21-H ) :   0.9272 B(  9-N , 22-H ) :   0.9028
B( 10-N , 11-S ) :   0.9243 B( 10-N , 23-H ) :   0.9293

Dispersion correction           -0.054498543
FINAL SINGLE POINT ENERGY     -1250.684529880374

DIPOLE MOMENT
-------------
                                X             Y             Z
Electronic contribution:      4.65036       0.92288       0.20716
Nuclear contribution   :     -4.56618      -1.31337       0.04616
                        -----------------------------------------
Total Dipole Moment    :      0.08418      -0.39049       0.25332
                        -----------------------------------------
Magnitude (a.u.)       :      0.47301
Magnitude (Debye)      :      1.20230

Rotational constants in cm-1:     0.074501     0.012958     0.011575
Rotational constants in MHz :  2233.493169   388.462693   347.024554

                             ****ORCA TERMINATED NORMALLY****
TOTAL RUN TIME: 0 days 0 hours 13 minutes 43 seconds 504 msec
