                         Program Version 4.2.0 -  RELEASE  -
|  1> # ORCA input file
|  2> # SCF done        -34.729260454460          0.000649247954
|  3> ! B3LYP/G D3BJ Opt RIJCOSX def2-SVP def2/J
|  4> * xyz 0 1
|  5>    C        1.28113        -1.28907         0.27642
|  6>    S        2.58741        -0.16849         0.25171
|  7>    C        1.51612         1.16613        -0.01348
|  8>    C        0.23746         0.74735        -0.07231
|  9>    C        0.08343        -0.66035         0.09210
| 10>    C       -1.27688        -1.12919         0.03216
| 11>    C       -2.20229        -0.17719        -0.16996
| 12>    S       -1.39795         1.44815        -0.30574
| 13>    O       -1.53206         1.98802        -1.62993
| 14>    O       -1.74707         2.29750         0.79841
| 15>    C       -3.62372        -0.29049        -0.27961
| 16>    C       -4.40997         0.76527        -0.48206
| 17>    H        1.47695        -2.33198         0.42558
| 18>    H        1.91038         2.15763        -0.10463
| 19>    H       -1.50581        -2.17821         0.14529
| 20>    H       -4.03654        -1.28894        -0.18843
| 21>    H       -3.99577         1.75453        -0.57276
| 22>    H       -5.47877         0.66679        -0.56212
| 23> *
| 24>
| 25>                          ****END OF INPUT****
 Total Charge           Charge          ....    0
 Multiplicity           Mult            ....    1
 Number of Electrons    NEL             ....  102
Dispersion correction           -0.045662471
FINAL SINGLE POINT ENERGY     -1254.636636748352
Dispersion correction            ... done
Dispersion correction           -0.045437101
FINAL SINGLE POINT ENERGY     -1254.641609700687
Dispersion correction            ... done
Dispersion correction           -0.045367955
FINAL SINGLE POINT ENERGY     -1254.642330994053
Dispersion correction            ... done
FINAL SINGLE POINT ENERGY     -1254.642380255806
FINAL SINGLE POINT ENERGY     -1254.642343194786
Dispersion correction            ... done
Dispersion correction           -0.045354774
FINAL SINGLE POINT ENERGY     -1254.642393257233
Dispersion correction            ... done
Dispersion correction           -0.045357554
FINAL SINGLE POINT ENERGY     -1254.642396160811
Dispersion correction            ... done
                    ***********************HURRAY********************

CARTESIAN COORDINATES (ANGSTROEM)
---------------------------------
  C      1.319247   -1.309441    0.288460
  S      2.613038   -0.151419    0.302255
  C      1.525875    1.179018    0.031055
  C      0.247315    0.722568   -0.060197
  C      0.105355   -0.696326    0.087679
  C     -1.277980   -1.148654    0.003802
  C     -2.187517   -0.164205   -0.196794
  S     -1.357608    1.458069   -0.372919
  O     -1.447672    1.902335   -1.766163
  O     -1.763248    2.362768    0.706756
  C     -3.625930   -0.258845   -0.299281
  C     -4.464470    0.784894   -0.411125
  H      1.532668   -2.366496    0.438820
  H      1.900908    2.197695   -0.048313
  H     -1.561352   -2.197756    0.111353
  H     -4.026162   -1.278390   -0.265540
  H     -4.103246    1.815594   -0.431239
  H     -5.543170    0.626050   -0.477967

 Multiplicity           Mult            ....    1
 Number of Electrons    NEL             ....  102
 Basis Dimension        Dim             ....  206

ORBITAL ENERGIES
----------------

  NO   OCC          E(Eh)            E(eV)
   0   2.0000     -89.064346     -2423.5641
   1   2.0000     -88.903863     -2419.1971
   2   2.0000     -19.124310      -520.3989
   3   2.0000     -19.121903      -520.3334
   4   2.0000     -10.249001      -278.8895
   5   2.0000     -10.242720      -278.7186
   6   2.0000     -10.235338      -278.5177
   7   2.0000     -10.234486      -278.4945
   8   2.0000     -10.231738      -278.4198
   9   2.0000     -10.228348      -278.3275
  10   2.0000     -10.218017      -278.0464
  11   2.0000     -10.206656      -277.7372
  12   2.0000      -8.128945      -221.1998
  13   2.0000      -7.998661      -217.6546
  14   2.0000      -6.096735      -165.9006
  15   2.0000      -6.096512      -165.8945
  16   2.0000      -6.096182      -165.8855
  17   2.0000      -5.966937      -162.3686
  18   2.0000      -5.962536      -162.2489
  19   2.0000      -5.959962      -162.1788
  20   2.0000      -1.098172       -29.8828
  21   2.0000      -0.986625       -26.8474
  22   2.0000      -0.918463       -24.9927
  23   2.0000      -0.856220       -23.2989
  24   2.0000      -0.794617       -21.6226
  25   2.0000      -0.763649       -20.7800
  26   2.0000      -0.730446       -19.8764
  27   2.0000      -0.686721       -18.6866
  28   2.0000      -0.635555       -17.2943
  29   2.0000      -0.591634       -16.0992
  30   2.0000      -0.580925       -15.8078
  31   2.0000      -0.551981       -15.0202
  32   2.0000      -0.519561       -14.1380
  33   2.0000      -0.492403       -13.3990
  34   2.0000      -0.478189       -13.0122
  35   2.0000      -0.458795       -12.4844
  36   2.0000      -0.454884       -12.3780
  37   2.0000      -0.439676       -11.9642
  38   2.0000      -0.432795       -11.7770
  39   2.0000      -0.418531       -11.3888
  40   2.0000      -0.418075       -11.3764
  41   2.0000      -0.389331       -10.5942
  42   2.0000      -0.379532       -10.3276
  43   2.0000      -0.371566       -10.1108
  44   2.0000      -0.328757        -8.9459
  45   2.0000      -0.327030        -8.8989
  46   2.0000      -0.304031        -8.2731
  47   2.0000      -0.300764        -8.1842
  48   2.0000      -0.290401        -7.9022
  49   2.0000      -0.271408        -7.3854
  50   2.0000      -0.238396        -6.4871
  51   0.0000      -0.082250        -2.2381
  52   0.0000      -0.047818        -1.3012
  53   0.0000       0.004583         0.1247
  54   0.0000       0.013671         0.3720
  55   0.0000       0.046306         1.2601

MULLIKEN ATOMIC CHARGES
-----------------------
   0 C :   -0.133508
   1 S :    0.124905
   2 C :   -0.124777
   3 C :    0.009936
   4 C :    0.096825
   5 C :    0.050967
   6 C :   -0.032417
   7 S :    0.784580
   8 O :   -0.460325
   9 O :   -0.460729
  10 C :    0.000715
  11 C :   -0.003277
  12 H :    0.030870
  13 H :    0.044078
  14 H :   -0.008434
  15 H :   -0.007283
  16 H :    0.050313
  17 H :    0.037560
Sum of atomic charges:    0.0000000

LOEWDIN ATOMIC CHARGES
----------------------
   0 C :   -0.180449
   1 S :    0.457124
   2 C :   -0.160573
   3 C :   -0.205939
   4 C :   -0.076507
   5 C :   -0.014178
   6 C :   -0.145575
   7 S :    1.177613
   8 O :   -0.500372
   9 O :   -0.500319
  10 C :   -0.043644
  11 C :   -0.011574
  12 H :    0.031472
  13 H :    0.039115
  14 H :    0.037287
  15 H :    0.035472
  16 H :    0.028471
  17 H :    0.032575

  Mayer bond orders larger than 0.100000
B(  0-C ,  1-S ) :   1.1609 B(  0-C ,  4-C ) :   1.5038 B(  0-C , 12-H ) :   0.9598
B(  1-S ,  2-C ) :   1.1656 B(  2-C ,  3-C ) :   1.6008 B(  2-C , 13-H ) :   0.9732
B(  3-C ,  4-C ) :   1.2482 B(  3-C ,  7-S ) :   0.7690 B(  4-C ,  5-C ) :   1.0597
B(  5-C ,  6-C ) :   1.6422 B(  5-C , 11-C ) :   0.1074 B(  5-C , 14-H ) :   0.9918
B(  6-C ,  7-S ) :   0.8019 B(  6-C , 10-C ) :   1.1657 B(  7-S ,  8-O ) :   1.6685
B(  7-S ,  9-O ) :   1.6519 B( 10-C , 11-C ) :   1.8757 B( 10-C , 15-H ) :   0.9634
B( 11-C , 16-H ) :   0.9382 B( 11-C , 17-H ) :   0.9469

Dispersion correction           -0.045359110
FINAL SINGLE POINT ENERGY     -1254.642398633966

DIPOLE MOMENT
-------------
                                X             Y             Z
Electronic contribution:      8.24068       2.27971       0.26034
Nuclear contribution   :     -7.66837      -3.87823       0.10588
                        -----------------------------------------
Total Dipole Moment    :      0.57231      -1.59853       0.36622
                        -----------------------------------------
Magnitude (a.u.)       :      1.73694
Magnitude (Debye)      :      4.41494

Rotational constants in cm-1:     0.058410     0.017313     0.014550
Rotational constants in MHz :  1751.078399   519.045445   436.197408

                             ****ORCA TERMINATED NORMALLY****
TOTAL RUN TIME: 0 days 0 hours 12 minutes 20 seconds 159 msec
