                         Program Version 4.2.0 -  RELEASE  -
|  1> # ORCA input file
|  2> # SCF done        -21.628292856300          0.000806754733
|  3> ! B3LYP/G D3BJ Opt RIJCOSX def2-SVP def2/J
|  4> * xyz 0 1
|  5>    C        1.59251        -0.92540         0.00119
|  6>    S        2.35511         0.62294         0.00109
|  7>    C        0.24492        -0.78347         0.00289
|  8>    S       -1.14273        -1.82719         0.00133
|  9>    C       -2.14022        -0.36740         0.00814
| 10>    N       -1.54531         0.75464         0.00631
| 11>    C       -0.18956         0.59237         0.00459
| 12>    C        0.85795         1.46452         0.00365
| 13>    H        2.18595        -1.81608        -0.00085
| 14>    H       -3.20795        -0.47130         0.00794
| 15>    H        0.83799         2.53446         0.00421
| 16> *
| 17>
| 18>                          ****END OF INPUT****
 Total Charge           Charge          ....    0
 Multiplicity           Mult            ....    1
 Number of Electrons    NEL             ....   72
Dispersion correction           -0.026721309
FINAL SINGLE POINT ENERGY     -1043.071322235191
Dispersion correction            ... done
Dispersion correction           -0.026687791
FINAL SINGLE POINT ENERGY     -1043.073488157936
Dispersion correction            ... done
Dispersion correction           -0.026678366
FINAL SINGLE POINT ENERGY     -1043.073599289551
Dispersion correction            ... done
FINAL SINGLE POINT ENERGY     -1043.073617884158
Dispersion correction            ... done
Dispersion correction           -0.026668433
FINAL SINGLE POINT ENERGY     -1043.073622139790
Dispersion correction            ... done
Dispersion correction           -0.026668729
FINAL SINGLE POINT ENERGY     -1043.073624564066
Dispersion correction            ... done
                    ***********************HURRAY********************

CARTESIAN COORDINATES (ANGSTROEM)
---------------------------------
  C      1.614917   -0.935854    0.000362
  S      2.369627    0.629774    0.000652
  C      0.251395   -0.793626    0.002645
  S     -1.154608   -1.836395    0.004364
  C     -2.161056   -0.362228    0.006174
  N     -1.557279    0.772361    0.006399
  C     -0.186615    0.585323    0.004501
  C      0.867377    1.474216    0.004070
  H      2.219861   -1.839899   -0.001409
  H     -3.248974   -0.476827    0.007536
  H      0.834015    2.561245    0.005197

 Multiplicity           Mult            ....    1
 Number of Electrons    NEL             ....   72
 Basis Dimension        Dim             ....  135

ORBITAL ENERGIES
----------------

  NO   OCC          E(Eh)            E(eV)
   0   2.0000     -88.889254     -2418.7996
   1   2.0000     -88.880056     -2418.5493
   2   2.0000     -14.338296      -390.1649
   3   2.0000     -10.260404      -279.1998
   4   2.0000     -10.229859      -278.3686
   5   2.0000     -10.227107      -278.2937
   6   2.0000     -10.225731      -278.2563
   7   2.0000     -10.221476      -278.1405
   8   2.0000      -7.983837      -217.2513
   9   2.0000      -7.975313      -217.0193
  10   2.0000      -5.952038      -161.9632
  11   2.0000      -5.947747      -161.8464
  12   2.0000      -5.945275      -161.7792
  13   2.0000      -5.943720      -161.7369
  14   2.0000      -5.939992      -161.6354
  15   2.0000      -5.935547      -161.5144
  16   2.0000      -0.968225       -26.3467
  17   2.0000      -0.880460       -23.9585
  18   2.0000      -0.801362       -21.8062
  19   2.0000      -0.734806       -19.9951
  20   2.0000      -0.713494       -19.4152
  21   2.0000      -0.615602       -16.7514
  22   2.0000      -0.577333       -15.7100
  23   2.0000      -0.552824       -15.0431
  24   2.0000      -0.478938       -13.0326
  25   2.0000      -0.466692       -12.6993
  26   2.0000      -0.446477       -12.1493
  27   2.0000      -0.434541       -11.8245
  28   2.0000      -0.416892       -11.3442
  29   2.0000      -0.368895       -10.0382
  30   2.0000      -0.362764        -9.8713
  31   2.0000      -0.353298        -9.6137
  32   2.0000      -0.310098        -8.4382
  33   2.0000      -0.284689        -7.7468
  34   2.0000      -0.252986        -6.8841
  35   2.0000      -0.228311        -6.2126
  36   0.0000      -0.050656        -1.3784
  37   0.0000      -0.002155        -0.0587
  38   0.0000       0.016955         0.4614
  39   0.0000       0.028850         0.7851
  40   0.0000       0.077297         2.1033

MULLIKEN ATOMIC CHARGES
-----------------------
   0 C :   -0.179613
   1 S :    0.110645
   2 C :    0.014637
   3 S :    0.069598
   4 C :    0.002568
   5 N :   -0.078637
   6 C :    0.095899
   7 C :   -0.148278
   8 H :    0.032691
   9 H :    0.051314
  10 H :    0.029177
Sum of atomic charges:   -0.0000000

LOEWDIN ATOMIC CHARGES
----------------------
   0 C :   -0.219480
   1 S :    0.456428
   2 C :   -0.208241
   3 S :    0.344772
   4 C :   -0.097962
   5 N :   -0.094474
   6 C :   -0.066060
   7 C :   -0.199977
   8 H :    0.028704
   9 H :    0.022910
  10 H :    0.033378

  Mayer bond orders larger than 0.100000
B(  0-C ,  1-S ) :   1.1692 B(  0-C ,  2-C ) :   1.5242 B(  0-C ,  7-C ) :   0.1070
B(  0-C ,  8-H ) :   0.9767 B(  1-S ,  7-C ) :   1.1760 B(  2-C ,  3-S ) :   1.0392
B(  2-C ,  6-C ) :   1.2192 B(  3-S ,  4-C ) :   1.0666 B(  3-S ,  5-N ) :   0.1245
B(  4-C ,  5-N ) :   1.7833 B(  4-C ,  9-H ) :   0.9560 B(  5-N ,  6-C ) :   1.2474
B(  6-C ,  7-C ) :   1.4697 B(  7-C , 10-H ) :   0.9758

Dispersion correction           -0.026669353
FINAL SINGLE POINT ENERGY     -1043.073626085886

DIPOLE MOMENT
-------------
                                X             Y             Z
Electronic contribution:      0.85442      -1.18097      -0.00173
Nuclear contribution   :     -0.64892       0.81641       0.00122
                        -----------------------------------------
Total Dipole Moment    :      0.20550      -0.36456      -0.00050
                        -----------------------------------------
Magnitude (a.u.)       :      0.41849
Magnitude (Debye)      :      1.06372

Rotational constants in cm-1:     0.124383     0.040561     0.030587
Rotational constants in MHz :  3728.909196  1215.996926   916.972376

                             ****ORCA TERMINATED NORMALLY****
TOTAL RUN TIME: 0 days 0 hours 4 minutes 2 seconds 711 msec
