                         Program Version 4.2.0 -  RELEASE  -
|  1> # ORCA input file
|  2> # SCF done        -33.020548503063          0.000647030830
|  3> ! B3LYP/G D3BJ Opt RIJCOSX def2-SVP def2/J
|  4> * xyz 0 1
|  5>    C        0.69958        -1.88974         0.01328
|  6>    C        1.38384        -0.68835         0.00145
|  7>    C        0.68041         0.51243        -0.00756
|  8>    S        1.69155         1.93979        -0.02388
|  9>    C        3.23696         0.94467         0.01068
| 10>    C        2.87815        -0.54457        -0.00868
| 11>    C       -0.70556         0.50213        -0.00513
| 12>    C       -1.39110        -0.70894         0.00614
| 13>    C       -2.88741        -0.58743         0.00388
| 14>    C       -3.26844         0.89642         0.00808
| 15>    S       -1.73777         1.91437        -0.01642
| 16>    C       -0.68904        -1.90006         0.01565
| 17>    H        1.24964        -2.81818         0.02009
| 18>    H        3.77662         1.22789         0.91332
| 19>    H        3.82533         1.24060        -0.85639
| 20>    H        3.30445        -1.05108         0.86056
| 21>    H        3.28639        -1.02458        -0.90163
| 22>    H       -3.29983        -1.08995         0.88214
| 23>    H       -3.29479        -1.08399        -0.88028
| 24>    H       -3.82304         1.17839         0.90192
| 25>    H       -3.85066         1.17699        -0.86825
| 26>    H       -1.22523        -2.83656         0.02443
| 27> *
| 28>
| 29>                          ****END OF INPUT****
 Total Charge           Charge          ....    0
 Multiplicity           Mult            ....    1
 Number of Electrons    NEL             ....  102
Dispersion correction           -0.052972489
FINAL SINGLE POINT ENERGY     -1183.028955755322
Dispersion correction            ... done
Dispersion correction           -0.052661607
FINAL SINGLE POINT ENERGY     -1183.031759501564
Dispersion correction            ... done
Dispersion correction           -0.052599766
FINAL SINGLE POINT ENERGY     -1183.031925224248
Dispersion correction            ... done
FINAL SINGLE POINT ENERGY     -1183.031966936665
FINAL SINGLE POINT ENERGY     -1183.032034629460
FINAL SINGLE POINT ENERGY     -1183.032167380353
FINAL SINGLE POINT ENERGY     -1183.032269114973
FINAL SINGLE POINT ENERGY     -1183.032305397103
FINAL SINGLE POINT ENERGY     -1183.032326327920
FINAL SINGLE POINT ENERGY     -1183.032329046608
FINAL SINGLE POINT ENERGY     -1183.032342849310
FINAL SINGLE POINT ENERGY     -1183.033373757251
FINAL SINGLE POINT ENERGY     -1183.034394227280
FINAL SINGLE POINT ENERGY     -1183.034997795575
FINAL SINGLE POINT ENERGY     -1183.035577167009
FINAL SINGLE POINT ENERGY     -1183.036091144183
FINAL SINGLE POINT ENERGY     -1183.036365672007
Dispersion correction            ... done
Dispersion correction           -0.052899551
FINAL SINGLE POINT ENERGY     -1183.036358572625
Dispersion correction            ... done
Dispersion correction           -0.052899241
FINAL SINGLE POINT ENERGY     -1183.036358328714
Dispersion correction            ... done
                    ***********************HURRAY********************

CARTESIAN COORDINATES (ANGSTROEM)
---------------------------------
  C      0.708123   -1.908261    0.176985
  C      1.396976   -0.713439   -0.023248
  C      0.684511    0.486793   -0.212635
  S      1.715803    1.907586   -0.444610
  C      3.194634    0.954323    0.127603
  C      2.893216   -0.529539   -0.132479
  C     -0.709583    0.476378   -0.211947
  C     -1.403486   -0.734470   -0.021100
  C     -2.902659   -0.573586   -0.126710
  C     -3.226258    0.906348    0.130220
  S     -1.762392    1.881274   -0.443781
  C     -0.696322   -1.918725    0.178219
  H      1.261549   -2.836711    0.337704
  H      3.335515    1.155166    1.200933
  H      4.075714    1.319065   -0.416236
  H      3.448029   -1.174587    0.566011
  H      3.215741   -0.809151   -1.152131
  H     -3.445079   -1.224643    0.575973
  H     -3.224685   -0.861848   -1.144062
  H     -3.370844    1.107122    1.203039
  H     -4.112706    1.256361   -0.414609
  H     -1.235750   -2.855206    0.340261

 Multiplicity           Mult            ....    1
 Number of Electrons    NEL             ....  102
 Basis Dimension        Dim             ....  226

ORBITAL ENERGIES
----------------

  NO   OCC          E(Eh)            E(eV)
   0   2.0000     -88.841419     -2417.4979
   1   2.0000     -88.841334     -2417.4956
   2   2.0000     -10.220220      -278.1063
   3   2.0000     -10.220191      -278.1055
   4   2.0000     -10.212800      -277.9044
   5   2.0000     -10.212456      -277.8951
   6   2.0000     -10.203501      -277.6514
   7   2.0000     -10.203475      -277.6507
   8   2.0000     -10.196024      -277.4479
   9   2.0000     -10.195966      -277.4463
  10   2.0000     -10.189150      -277.2609
  11   2.0000     -10.188825      -277.2520
  12   2.0000      -7.936450      -215.9618
  13   2.0000      -7.936386      -215.9600
  14   2.0000      -5.905697      -160.7022
  15   2.0000      -5.905650      -160.7009
  16   2.0000      -5.901845      -160.5974
  17   2.0000      -5.901827      -160.5969
  18   2.0000      -5.895107      -160.4140
  19   2.0000      -5.895098      -160.4138
  20   2.0000      -0.881895       -23.9976
  21   2.0000      -0.842188       -22.9171
  22   2.0000      -0.795796       -21.6547
  23   2.0000      -0.757934       -20.6244
  24   2.0000      -0.731842       -19.9144
  25   2.0000      -0.699606       -19.0372
  26   2.0000      -0.691679       -18.8215
  27   2.0000      -0.609841       -16.5946
  28   2.0000      -0.604156       -16.4399
  29   2.0000      -0.570628       -15.5276
  30   2.0000      -0.560936       -15.2638
  31   2.0000      -0.495774       -13.4907
  32   2.0000      -0.482315       -13.1245
  33   2.0000      -0.470966       -12.8156
  34   2.0000      -0.455296       -12.3892
  35   2.0000      -0.439356       -11.9555
  36   2.0000      -0.430822       -11.7233
  37   2.0000      -0.404931       -11.0187
  38   2.0000      -0.394275       -10.7288
  39   2.0000      -0.386606       -10.5201
  40   2.0000      -0.383173       -10.4267
  41   2.0000      -0.372122       -10.1260
  42   2.0000      -0.366562        -9.9747
  43   2.0000      -0.349956        -9.5228
  44   2.0000      -0.347836        -9.4651
  45   2.0000      -0.330904        -9.0044
  46   2.0000      -0.314826        -8.5668
  47   2.0000      -0.289276        -7.8716
  48   2.0000      -0.275145        -7.4871
  49   2.0000      -0.214030        -5.8240
  50   2.0000      -0.197089        -5.3631
  51   0.0000      -0.011764        -0.3201
  52   0.0000      -0.007990        -0.2174
  53   0.0000       0.010138         0.2759
  54   0.0000       0.052565         1.4304
  55   0.0000       0.060240         1.6392

MULLIKEN ATOMIC CHARGES
-----------------------
   0 C :   -0.034453
   1 C :   -0.031956
   2 C :   -0.081782
   3 S :   -0.006354
   4 C :   -0.065739
   5 C :    0.123013
   6 C :   -0.081449
   7 C :   -0.031943
   8 C :    0.122654
   9 C :   -0.065501
  10 S :   -0.006352
  11 C :   -0.034826
  12 H :   -0.037038
  13 H :    0.055635
  14 H :    0.042322
  15 H :    0.013571
  16 H :    0.022810
  17 H :    0.013727
  18 H :    0.022752
  19 H :    0.055585
  20 H :    0.042358
  21 H :   -0.037033
Sum of atomic charges:   -0.0000000

LOEWDIN ATOMIC CHARGES
----------------------
   0 C :   -0.037627
   1 C :   -0.047304
   2 C :   -0.171602
   3 S :    0.259538
   4 C :   -0.108897
   5 C :   -0.030374
   6 C :   -0.171643
   7 C :   -0.047296
   8 C :   -0.030353
   9 C :   -0.108897
  10 S :    0.259571
  11 C :   -0.037683
  12 H :    0.024345
  13 H :    0.022019
  14 H :    0.023656
  15 H :    0.031665
  16 H :    0.034607
  17 H :    0.031713
  18 H :    0.034571
  19 H :    0.022012
  20 H :    0.023645
  21 H :    0.024336

  Mayer bond orders larger than 0.100000
B(  0-C ,  1-C ) :   1.4239 B(  0-C , 11-C ) :   1.3153 B(  0-C , 12-H ) :   0.9902
B(  1-C ,  2-C ) :   1.3950 B(  1-C ,  5-C ) :   1.0287 B(  2-C ,  3-S ) :   1.0056
B(  2-C ,  6-C ) :   1.4788 B(  3-S ,  4-C ) :   0.9899 B(  4-C ,  5-C ) :   1.0559
B(  4-C , 13-H ) :   0.9513 B(  4-C , 14-H ) :   0.9517 B(  5-C , 15-H ) :   0.9282
B(  5-C , 16-H ) :   0.9170 B(  6-C ,  7-C ) :   1.3950 B(  6-C , 10-S ) :   1.0053
B(  7-C ,  8-C ) :   1.0288 B(  7-C , 11-C ) :   1.4242 B(  8-C ,  9-C ) :   1.0558
B(  8-C , 17-H ) :   0.9284 B(  8-C , 18-H ) :   0.9170 B(  9-C , 10-S ) :   0.9899
B(  9-C , 19-H ) :   0.9513 B(  9-C , 20-H ) :   0.9517 B( 11-C , 21-H ) :   0.9901

Dispersion correction           -0.052899403
FINAL SINGLE POINT ENERGY     -1183.036358932620

DIPOLE MOMENT
-------------
                                X             Y             Z
Electronic contribution:     -0.05570       7.47352      -2.13809
Nuclear contribution   :      0.06136      -8.27178       2.43475
                        -----------------------------------------
Total Dipole Moment    :      0.00566      -0.79826       0.29666
                        -----------------------------------------
Magnitude (a.u.)       :      0.85162
Magnitude (Debye)      :      2.16464

Rotational constants in cm-1:     0.044277     0.020321     0.014191
Rotational constants in MHz :  1327.399779   609.202210   425.434960

                             ****ORCA TERMINATED NORMALLY****
TOTAL RUN TIME: 0 days 1 hours 17 minutes 59 seconds 712 msec
