                         Program Version 4.2.0 -  RELEASE  -
|  1> # ORCA input file
|  2> # SCF done        -30.851999876793          0.000674880607
|  3> ! B3LYP/G D3BJ Opt RIJCOSX def2-SVP def2/J
|  4> * xyz 0 1
|  5>    C        0.15584        -1.53291        -0.09345
|  6>    C       -0.47157        -0.31846        -0.05217
|  7>    C       -1.83288        -0.05295        -0.18652
|  8>    N       -2.95681         0.15640        -0.29827
|  9>    S        0.66512         0.98452         0.20461
| 10>    C        1.97258        -0.15232         0.25019
| 11>    O        3.24461         0.21725         0.43469
| 12>    C        3.50060         1.59288         0.59728
| 13>    C        1.55573        -1.46129         0.07769
| 14>    C        2.48787        -2.57186         0.08279
| 15>    C        2.16458        -3.85017        -0.07138
| 16>    H       -0.38343        -2.45025        -0.24360
| 17>    H        4.57582         1.68748         0.73396
| 18>    H        2.97879         1.98842         1.47477
| 19>    H        3.18783         2.15775        -0.28694
| 20>    H        3.51986        -2.28270         0.22703
| 21>    H        1.14986        -4.17751        -0.21890
| 22>    H        2.91543        -4.62038        -0.05790
| 23> *
| 24>
| 25>                          ****END OF INPUT****
 Total Charge           Charge          ....    0
 Multiplicity           Mult            ....    1
 Number of Electrons    NEL             ....   86
Dispersion correction           -0.036189206
FINAL SINGLE POINT ENERGY      -836.770140442466
Dispersion correction            ... done
Dispersion correction           -0.035920401
FINAL SINGLE POINT ENERGY      -836.772889160057
Dispersion correction            ... done
Dispersion correction           -0.035888675
FINAL SINGLE POINT ENERGY      -836.772958700785
Dispersion correction            ... done
FINAL SINGLE POINT ENERGY      -836.772963343137
FINAL SINGLE POINT ENERGY      -836.772941323737
FINAL SINGLE POINT ENERGY      -836.772936246671
FINAL SINGLE POINT ENERGY      -836.772928338110
FINAL SINGLE POINT ENERGY      -836.772903607346
Dispersion correction            ... done
Dispersion correction           -0.035892233
FINAL SINGLE POINT ENERGY      -836.772894556019
Dispersion correction            ... done
Dispersion correction           -0.035890877
FINAL SINGLE POINT ENERGY      -836.772891374481
Dispersion correction            ... done
                    ***********************HURRAY********************

CARTESIAN COORDINATES (ANGSTROEM)
---------------------------------
  C      0.146502   -1.535106   -0.097613
  C     -0.494911   -0.316158   -0.060119
  C     -1.876235   -0.042219   -0.190221
  N     -3.009827    0.195824   -0.299621
  S      0.645597    1.002436    0.154541
  C      1.972187   -0.136440    0.187355
  O      3.243625    0.244285    0.332270
  C      3.515309    1.605399    0.623162
  C      1.563354   -1.459819    0.042514
  C      2.500131   -2.581833    0.047683
  C      2.177857   -3.881483   -0.032763
  H     -0.399175   -2.468531   -0.229643
  H      4.598006    1.686265    0.779202
  H      2.985972    1.924385    1.537645
  H      3.214052    2.255151   -0.216908
  H      3.553697   -2.298129    0.129986
  H      1.143408   -4.226791   -0.111613
  H      2.950282   -4.653338   -0.021978

 Multiplicity           Mult            ....    1
 Number of Electrons    NEL             ....   86
 Basis Dimension        Dim             ....  193

ORBITAL ENERGIES
----------------

  NO   OCC          E(Eh)            E(eV)
   0   2.0000     -88.903112     -2419.1767
   1   2.0000     -19.208487      -522.6895
   2   2.0000     -14.326764      -389.8511
   3   2.0000     -10.297741      -280.2158
   4   2.0000     -10.276613      -279.6409
   5   2.0000     -10.251808      -278.9659
   6   2.0000     -10.231421      -278.4111
   7   2.0000     -10.224256      -278.2162
   8   2.0000     -10.212742      -277.9028
   9   2.0000     -10.205967      -277.7185
  10   2.0000     -10.193473      -277.3785
  11   2.0000      -7.998073      -217.6386
  12   2.0000      -5.966391      -162.3538
  13   2.0000      -5.962464      -162.2469
  14   2.0000      -5.958724      -162.1451
  15   2.0000      -1.105203       -30.0741
  16   2.0000      -0.909998       -24.7623
  17   2.0000      -0.887731       -24.1564
  18   2.0000      -0.804969       -21.9043
  19   2.0000      -0.771785       -21.0013
  20   2.0000      -0.742254       -20.1978
  21   2.0000      -0.720231       -19.5985
  22   2.0000      -0.639086       -17.3904
  23   2.0000      -0.599792       -16.3212
  24   2.0000      -0.571281       -15.5454
  25   2.0000      -0.537534       -14.6271
  26   2.0000      -0.518043       -14.0967
  27   2.0000      -0.507678       -13.8146
  28   2.0000      -0.487053       -13.2534
  29   2.0000      -0.453148       -12.3308
  30   2.0000      -0.451402       -12.2833
  31   2.0000      -0.426493       -11.6055
  32   2.0000      -0.408077       -11.1044
  33   2.0000      -0.402516       -10.9530
  34   2.0000      -0.382692       -10.4136
  35   2.0000      -0.376225       -10.2376
  36   2.0000      -0.358766        -9.7625
  37   2.0000      -0.353089        -9.6080
  38   2.0000      -0.339042        -9.2258
  39   2.0000      -0.335516        -9.1298
  40   2.0000      -0.316118        -8.6020
  41   2.0000      -0.263049        -7.1579
  42   2.0000      -0.222885        -6.0650
  43   0.0000      -0.053949        -1.4680
  44   0.0000      -0.031313        -0.8521
  45   0.0000      -0.011628        -0.3164
  46   0.0000       0.017908         0.4873
  47   0.0000       0.054902         1.4940

MULLIKEN ATOMIC CHARGES
-----------------------
   0 C :    0.080445
   1 C :   -0.263961
   2 C :   -0.110050
   3 N :    0.071227
   4 S :    0.122930
   5 C :    0.026938
   6 O :   -0.277296
   7 C :    0.170288
   8 C :    0.044106
   9 C :    0.001153
  10 C :   -0.026311
  11 H :   -0.004894
  12 H :    0.053211
  13 H :    0.035745
  14 H :    0.041739
  15 H :   -0.003762
  16 H :    0.011063
  17 H :    0.027430
Sum of atomic charges:    0.0000000

LOEWDIN ATOMIC CHARGES
----------------------
   0 C :    0.005058
   1 C :   -0.235857
   2 C :   -0.055050
   3 N :   -0.070050
   4 S :    0.425979
   5 C :   -0.084118
   6 O :   -0.081178
   7 C :    0.078819
   8 C :   -0.103972
   9 C :   -0.021252
  10 C :   -0.051442
  11 H :    0.040178
  12 H :    0.035469
  13 H :    0.018414
  14 H :    0.019493
  15 H :    0.032120
  16 H :    0.019500
  17 H :    0.027890

  Mayer bond orders larger than 0.100000
B(  0-C ,  1-C ) :   1.5283 B(  0-C ,  8-C ) :   1.2382 B(  0-C , 11-H ) :   0.9950
B(  1-C ,  2-C ) :   1.1920 B(  1-C ,  4-S ) :   1.0737 B(  2-C ,  3-N ) :   2.9673
B(  4-S ,  5-C ) :   1.1079 B(  5-C ,  6-O ) :   1.1861 B(  5-C ,  8-C ) :   1.4231
B(  6-O ,  7-C ) :   0.9321 B(  7-C , 12-H ) :   0.9795 B(  7-C , 13-H ) :   0.9629
B(  7-C , 14-H ) :   0.9645 B(  8-C ,  9-C ) :   1.0932 B(  9-C , 10-C ) :   1.9235
B(  9-C , 15-H ) :   0.9604 B( 10-C , 16-H ) :   0.9478 B( 10-C , 17-H ) :   0.9470

Dispersion correction           -0.035890707
FINAL SINGLE POINT ENERGY      -836.772893074623

DIPOLE MOMENT
-------------
                                X             Y             Z
Electronic contribution:     -8.44837       4.87632      -0.87354
Nuclear contribution   :     10.48117      -4.57247       1.18631
                        -----------------------------------------
Total Dipole Moment    :      2.03280       0.30385       0.31277
                        -----------------------------------------
Magnitude (a.u.)       :      2.07905
Magnitude (Debye)      :      5.28451

Rotational constants in cm-1:     0.041303     0.026587     0.016234
Rotational constants in MHz :  1238.243367   797.059740   486.668676

                             ****ORCA TERMINATED NORMALLY****
TOTAL RUN TIME: 0 days 0 hours 13 minutes 4 seconds 24 msec
