                         Program Version 4.2.0 -  RELEASE  -
|  1> # ORCA input file
|  2> # SCF done        -33.924998983562          0.000657061288
|  3> ! B3LYP/G D3BJ Opt RIJCOSX def2-SVP def2/J
|  4> * xyz 0 1
|  5>    C        1.53565        -1.28177        -0.00851
|  6>    S        2.75807        -0.08018        -0.00951
|  7>    C        1.56359         1.19039         0.06926
|  8>    C        0.29256         0.66693         0.07379
|  9>    C        0.28208        -0.75287         0.03020
| 10>    C       -0.97170        -1.58030        -0.00626
| 11>    C       -1.12094        -2.24109        -1.38149
| 12>    C       -2.18872        -0.71718         0.34248
| 13>    C       -2.15196         0.61900        -0.39107
| 14>    C       -0.97608         1.45886         0.10175
| 15>    C        2.04899         2.54692         0.10565
| 16>    C        1.39231         3.62823         0.51690
| 17>    H        1.81521        -2.31663        -0.03270
| 18>    H       -0.88430        -2.38138         0.73799
| 19>    H       -1.17417        -1.49229        -2.16785
| 20>    H       -2.02526        -2.84501        -1.41433
| 21>    H       -0.26815        -2.88399        -1.58520
| 22>    H       -2.20024        -0.52766         1.41871
| 23>    H       -3.10076        -1.26110         0.08916
| 24>    H       -3.08339         1.16295        -0.22084
| 25>    H       -2.05746         0.45001        -1.46496
| 26>    H       -1.17344         1.78174         1.12989
| 27>    H       -0.86630         2.35495        -0.51372
| 28>    H        3.07677         2.65090        -0.22288
| 29>    H        0.39043         3.59513         0.90331
| 30>    H        1.86312         4.59609         0.49700
| 31> *
| 32>
| 33>                          ****END OF INPUT****
 Total Charge           Charge          ....    0
 Multiplicity           Mult            ....    1
 Number of Electrons    NEL             ....   96
Dispersion correction           -0.055018464
FINAL SINGLE POINT ENERGY      -825.411346825121
Dispersion correction            ... done
Dispersion correction           -0.054505446
FINAL SINGLE POINT ENERGY      -825.414820503258
Dispersion correction            ... done
Dispersion correction           -0.054371993
FINAL SINGLE POINT ENERGY      -825.414939208263
Dispersion correction            ... done
FINAL SINGLE POINT ENERGY      -825.414805465660
FINAL SINGLE POINT ENERGY      -825.414744001311
FINAL SINGLE POINT ENERGY      -825.414753626014
FINAL SINGLE POINT ENERGY      -825.414686908231
FINAL SINGLE POINT ENERGY      -825.414706353827
Dispersion correction            ... done
Dispersion correction           -0.054263294
FINAL SINGLE POINT ENERGY      -825.414768525353
Dispersion correction            ... done
Dispersion correction           -0.054255606
FINAL SINGLE POINT ENERGY      -825.414756896891
Dispersion correction            ... done
                    ***********************HURRAY********************

CARTESIAN COORDINATES (ANGSTROEM)
---------------------------------
  C      1.573673   -1.324648    0.129316
  S      2.783634   -0.105522    0.219207
  C      1.589599    1.173224    0.173436
  C      0.305944    0.639597    0.092985
  C      0.303687   -0.795222    0.059162
  C     -0.962707   -1.617006   -0.075907
  C     -1.143209   -2.149856   -1.509551
  C     -2.180807   -0.795282    0.388094
  C     -2.214766    0.598491   -0.243777
  C     -0.973016    1.435406    0.103580
  C      2.087506    2.539467    0.212201
  C      1.402906    3.696420    0.279746
  H      1.853576   -2.377416    0.127864
  H     -0.865424   -2.493652    0.586493
  H     -1.277976   -1.327774   -2.229232
  H     -2.024961   -2.808366   -1.575620
  H     -0.261416   -2.725325   -1.830203
  H     -2.154468   -0.695717    1.487423
  H     -3.103673   -1.345333    0.139148
  H     -3.116308    1.138464    0.087356
  H     -2.298678    0.501731   -1.339246
  H     -1.095749    1.880993    1.108332
  H     -0.893164    2.288976   -0.588656
  H      3.181404    2.613126    0.173881
  H      0.315900    3.750424    0.337835
  H      1.944402    4.645447    0.282905

 Multiplicity           Mult            ....    1
 Number of Electrons    NEL             ....   96
 Basis Dimension        Dim             ....  242

ORBITAL ENERGIES
----------------

  NO   OCC          E(Eh)            E(eV)
   0   2.0000     -88.865985     -2418.1664
   1   2.0000     -10.209367      -277.8110
   2   2.0000     -10.203944      -277.6634
   3   2.0000     -10.200650      -277.5738
   4   2.0000     -10.196086      -277.4496
   5   2.0000     -10.191610      -277.3278
   6   2.0000     -10.191357      -277.3209
   7   2.0000     -10.189339      -277.2660
   8   2.0000     -10.186582      -277.1910
   9   2.0000     -10.185296      -277.1560
  10   2.0000     -10.184574      -277.1363
  11   2.0000     -10.181475      -277.0520
  12   2.0000      -7.961099      -216.6325
  13   2.0000      -5.929025      -161.3370
  14   2.0000      -5.925189      -161.2326
  15   2.0000      -5.922615      -161.1625
  16   2.0000      -0.880207       -23.9516
  17   2.0000      -0.818074       -22.2609
  18   2.0000      -0.782280       -21.2869
  19   2.0000      -0.756920       -20.5968
  20   2.0000      -0.726223       -19.7615
  21   2.0000      -0.693358       -18.8672
  22   2.0000      -0.670393       -18.2423
  23   2.0000      -0.609956       -16.5977
  24   2.0000      -0.602872       -16.4050
  25   2.0000      -0.572954       -15.5909
  26   2.0000      -0.537029       -14.6133
  27   2.0000      -0.504474       -13.7274
  28   2.0000      -0.482536       -13.1305
  29   2.0000      -0.465823       -12.6757
  30   2.0000      -0.452673       -12.3179
  31   2.0000      -0.431422       -11.7396
  32   2.0000      -0.430610       -11.7175
  33   2.0000      -0.421788       -11.4774
  34   2.0000      -0.404354       -11.0030
  35   2.0000      -0.400669       -10.9028
  36   2.0000      -0.387844       -10.5538
  37   2.0000      -0.377905       -10.2833
  38   2.0000      -0.366961        -9.9855
  39   2.0000      -0.361338        -9.8325
  40   2.0000      -0.353512        -9.6196
  41   2.0000      -0.334037        -9.0896
  42   2.0000      -0.327185        -8.9032
  43   2.0000      -0.320023        -8.7083
  44   2.0000      -0.314171        -8.5490
  45   2.0000      -0.294974        -8.0266
  46   2.0000      -0.238874        -6.5001
  47   2.0000      -0.210412        -5.7256
  48   0.0000      -0.040244        -1.0951
  49   0.0000       0.026664         0.7256
  50   0.0000       0.037206         1.0124
  51   0.0000       0.049012         1.3337
  52   0.0000       0.069355         1.8872

MULLIKEN ATOMIC CHARGES
-----------------------
   0 C :   -0.131451
   1 S :    0.098709
   2 C :   -0.165189
   3 C :   -0.039832
   4 C :   -0.013116
   5 C :   -0.010259
   6 C :    0.051976
   7 C :    0.047938
   8 C :    0.027435
   9 C :    0.088739
  10 C :    0.037239
  11 C :   -0.046936
  12 H :    0.009972
  13 H :   -0.013031
  14 H :    0.008610
  15 H :    0.008686
  16 H :    0.005972
  17 H :    0.000356
  18 H :   -0.012323
  19 H :   -0.008574
  20 H :    0.003631
  21 H :    0.015678
  22 H :    0.018972
  23 H :   -0.011030
  24 H :    0.011175
  25 H :    0.016652
Sum of atomic charges:    0.0000000

LOEWDIN ATOMIC CHARGES
----------------------
   0 C :   -0.201517
   1 S :    0.428439
   2 C :   -0.185767
   3 C :   -0.054563
   4 C :   -0.057685
   5 C :   -0.026667
   6 C :   -0.045367
   7 C :   -0.024160
   8 C :   -0.029935
   9 C :   -0.025943
  10 C :   -0.041735
  11 C :   -0.064268
  12 H :    0.020803
  13 H :    0.027149
  14 H :    0.020991
  15 H :    0.020891
  16 H :    0.022505
  17 H :    0.021179
  18 H :    0.019788
  19 H :    0.023018
  20 H :    0.019839
  21 H :    0.031479
  22 H :    0.031072
  23 H :    0.027413
  24 H :    0.018386
  25 H :    0.024656

  Mayer bond orders larger than 0.100000
B(  0-C ,  1-S ) :   1.1547 B(  0-C ,  4-C ) :   1.5273 B(  0-C , 12-H ) :   0.9641
B(  1-S ,  2-C ) :   1.1273 B(  2-C ,  3-C ) :   1.4929 B(  2-C , 10-C ) :   1.1258
B(  3-C ,  4-C ) :   1.3087 B(  3-C ,  9-C ) :   1.0730 B(  4-C ,  5-C ) :   0.9900
B(  5-C ,  6-C ) :   1.0746 B(  5-C ,  7-C ) :   1.0610 B(  5-C , 13-H ) :   0.8964
B(  6-C , 14-H ) :   0.9596 B(  6-C , 15-H ) :   0.9625 B(  6-C , 16-H ) :   0.9618
B(  7-C ,  8-C ) :   1.0778 B(  7-C , 17-H ) :   0.9380 B(  7-C , 18-H ) :   0.9328
B(  8-C ,  9-C ) :   1.0820 B(  8-C , 19-H ) :   0.9275 B(  8-C , 20-H ) :   0.9394
B(  9-C , 21-H ) :   0.9100 B(  9-C , 22-H ) :   0.9061 B( 10-C , 11-C ) :   1.9022
B( 10-C , 23-H ) :   0.9418 B( 11-C , 24-H ) :   0.9540 B( 11-C , 25-H ) :   0.9399

Dispersion correction           -0.054256862
FINAL SINGLE POINT ENERGY      -825.414766090637

DIPOLE MOMENT
-------------
                                X             Y             Z
Electronic contribution:     14.49649      -0.06024       2.94279
Nuclear contribution   :    -14.91902      -0.11894      -2.97045
                        -----------------------------------------
Total Dipole Moment    :     -0.42253      -0.17917      -0.02765
                        -----------------------------------------
Magnitude (a.u.)       :      0.45978
Magnitude (Debye)      :      1.16868

Rotational constants in cm-1:     0.041295     0.022926     0.015789
Rotational constants in MHz :  1237.992925   687.302046   473.339692

                             ****ORCA TERMINATED NORMALLY****
TOTAL RUN TIME: 0 days 0 hours 23 minutes 23 seconds 780 msec
