                         Program Version 4.2.0 -  RELEASE  -
|  1> # ORCA input file
|  2> # SCF done        -37.647906261623          0.000860298588
|  3> ! B3LYP/G D3BJ Opt RIJCOSX def2-SVP def2/J
|  4> * xyz 0 1
|  5>    C        1.35575         1.59755        -0.95662
|  6>    C        2.43411         0.64534        -0.54365
|  7>    C        3.08873         0.67475         0.61693
|  8>    O        4.09342        -0.25500         0.76993
|  9>    C        4.72525        -0.48850         2.00379
| 10>    C        3.89363        -1.29036         3.01325
| 11>    C        2.86671        -0.47274         3.81953
| 12>    O        1.74108        -0.13755         3.01898
| 13>    C        1.64633         1.19979         2.61208
| 14>    C        2.79319         1.67451         1.69955
| 15>    C        2.37688        -1.30676         4.97247
| 16>    C        2.71716        -1.10771         6.23087
| 17>    H        1.06812         1.40982        -1.98766
| 18>    H        1.68979         2.63402        -0.88008
| 19>    H        0.46887         1.48822        -0.33274
| 20>    H        2.71539        -0.11855        -1.25183
| 21>    H        5.09044         0.43992         2.46412
| 22>    H        5.60026        -1.08579         1.72678
| 23>    H        4.58032        -1.75989         3.72020
| 24>    H        3.35553        -2.07248         2.47547
| 25>    H        3.34321         0.43774         4.21061
| 26>    H        1.58203         1.86665         3.48768
| 27>    H        0.70088         1.24620         2.06755
| 28>    H        3.68509         1.87029         2.29633
| 29>    H        2.48925         2.61697         1.24297
| 30>    H        1.70010        -2.09897         4.68865
| 31>    H        3.38537        -0.31261         6.52099
| 32>    H        2.34996        -1.73327         7.02629
| 33> *
| 34>
| 35>                          ****END OF INPUT****
 Total Charge           Charge          ....    0
 Multiplicity           Mult            ....    1
 Number of Electrons    NEL             ....   92
Dispersion correction           -0.048311169
FINAL SINGLE POINT ENERGY      -540.724857739753
Dispersion correction            ... done
Dispersion correction           -0.047970932
FINAL SINGLE POINT ENERGY      -540.727758460397
Dispersion correction            ... done
Dispersion correction           -0.047865538
FINAL SINGLE POINT ENERGY      -540.728043969546
Dispersion correction            ... done
FINAL SINGLE POINT ENERGY      -540.728128256737
FINAL SINGLE POINT ENERGY      -540.728142681094
FINAL SINGLE POINT ENERGY      -540.728140314207
FINAL SINGLE POINT ENERGY      -540.728132275787
FINAL SINGLE POINT ENERGY      -540.728117097648
FINAL SINGLE POINT ENERGY      -540.728120798586
FINAL SINGLE POINT ENERGY      -540.728194481942
FINAL SINGLE POINT ENERGY      -540.729630956563
FINAL SINGLE POINT ENERGY      -540.729667653573
FINAL SINGLE POINT ENERGY      -540.729650007295
FINAL SINGLE POINT ENERGY      -540.729749509538
FINAL SINGLE POINT ENERGY      -540.729840103158
FINAL SINGLE POINT ENERGY      -540.729981252467
FINAL SINGLE POINT ENERGY      -540.729991395562
Dispersion correction            ... done
Dispersion correction           -0.047084432
FINAL SINGLE POINT ENERGY      -540.730005366851
Dispersion correction            ... done
Dispersion correction           -0.047086392
FINAL SINGLE POINT ENERGY      -540.730009735190
Dispersion correction            ... done
                    ***********************HURRAY********************

CARTESIAN COORDINATES (ANGSTROEM)
---------------------------------
  C      1.655694    1.933918   -1.258701
  C      2.476444    0.806283   -0.708652
  C      2.827130    0.584817    0.571054
  O      3.481978   -0.594556    0.833548
  C      4.454766   -0.689782    1.859026
  C      3.928196   -1.347987    3.131145
  C      2.917872   -0.528990    3.944081
  O      1.724955   -0.358631    3.185112
  C      1.457794    0.936722    2.710165
  C      2.503576    1.489720    1.731078
  C      2.559950   -1.230172    5.226980
  C      2.997943   -0.882650    6.438001
  H      2.249214    2.573476   -1.937904
  H      1.233169    2.584169   -0.478536
  H      0.809370    1.550793   -1.855195
  H      2.820621    0.049955   -1.421936
  H      4.906410    0.292701    2.085221
  H      5.262258   -1.316800    1.447368
  H      4.791304   -1.580696    3.777107
  H      3.454324   -2.306244    2.861414
  H      3.365261    0.453256    4.192398
  H      1.344927    1.649732    3.553551
  H      0.485269    0.870218    2.197729
  H      3.424180    1.739290    2.283487
  H      2.126196    2.448543    1.349942
  H      1.905461   -2.100464    5.098029
  H      3.646425   -0.012403    6.586677
  H      2.726161   -1.452628    7.330251

 Multiplicity           Mult            ....    1
 Number of Electrons    NEL             ....   92
 Basis Dimension        Dim             ....  248

ORBITAL ENERGIES
----------------

  NO   OCC          E(Eh)            E(eV)
   0   2.0000     -19.141108      -520.8560
   1   2.0000     -19.130443      -520.5658
   2   2.0000     -10.242489      -278.7123
   3   2.0000     -10.240323      -278.6534
   4   2.0000     -10.237365      -278.5729
   5   2.0000     -10.231004      -278.3998
   6   2.0000     -10.193618      -277.3825
   7   2.0000     -10.192217      -277.3443
   8   2.0000     -10.189198      -277.2622
   9   2.0000     -10.187082      -277.2046
  10   2.0000     -10.183200      -277.0990
  11   2.0000     -10.166181      -276.6358
  12   2.0000      -1.038853       -28.2686
  13   2.0000      -1.023090       -27.8397
  14   2.0000      -0.814055       -22.1516
  15   2.0000      -0.782680       -21.2978
  16   2.0000      -0.751773       -20.4568
  17   2.0000      -0.740704       -20.1556
  18   2.0000      -0.699342       -19.0301
  19   2.0000      -0.642421       -17.4812
  20   2.0000      -0.625087       -17.0095
  21   2.0000      -0.589768       -16.0484
  22   2.0000      -0.563116       -15.3232
  23   2.0000      -0.540945       -14.7199
  24   2.0000      -0.505143       -13.7456
  25   2.0000      -0.492589       -13.4040
  26   2.0000      -0.483023       -13.1437
  27   2.0000      -0.466617       -12.6973
  28   2.0000      -0.454867       -12.3776
  29   2.0000      -0.445120       -12.1123
  30   2.0000      -0.433695       -11.8014
  31   2.0000      -0.419951       -11.4275
  32   2.0000      -0.407634       -11.0923
  33   2.0000      -0.404365       -11.0033
  34   2.0000      -0.398264       -10.8373
  35   2.0000      -0.380044       -10.3415
  36   2.0000      -0.371210       -10.1011
  37   2.0000      -0.365832        -9.9548
  38   2.0000      -0.355811        -9.6821
  39   2.0000      -0.347150        -9.4464
  40   2.0000      -0.328629        -8.9425
  41   2.0000      -0.314420        -8.5558
  42   2.0000      -0.295145        -8.0313
  43   2.0000      -0.268846        -7.3157
  44   2.0000      -0.259848        -7.0708
  45   2.0000      -0.206354        -5.6152
  46   0.0000       0.002358         0.0642
  47   0.0000       0.028221         0.7679
  48   0.0000       0.051877         1.4116
  49   0.0000       0.066406         1.8070
  50   0.0000       0.076157         2.0723

MULLIKEN ATOMIC CHARGES
-----------------------
   0 C :    0.076003
   1 C :   -0.142520
   2 C :    0.083672
   3 O :   -0.332460
   4 C :    0.222786
   5 C :    0.072841
   6 C :    0.153842
   7 O :   -0.386642
   8 C :    0.234214
   9 C :    0.047015
  10 C :   -0.018744
  11 C :   -0.029420
  12 H :    0.018356
  13 H :   -0.000792
  14 H :    0.016772
  15 H :   -0.013295
  16 H :   -0.013935
  17 H :    0.009071
  18 H :   -0.003600
  19 H :    0.004973
  20 H :   -0.032813
  21 H :   -0.004294
  22 H :    0.003707
  23 H :   -0.004195
  24 H :   -0.005093
  25 H :    0.010125
  26 H :    0.012337
  27 H :    0.022091
Sum of atomic charges:   -0.0000000

LOEWDIN ATOMIC CHARGES
----------------------
   0 C :   -0.055567
   1 C :   -0.093501
   2 C :    0.034582
   3 O :   -0.119297
   4 C :    0.084648
   5 C :   -0.048333
   6 C :    0.067625
   7 O :   -0.165363
   8 C :    0.082341
   9 C :   -0.063250
  10 C :   -0.020332
  11 C :   -0.059397
  12 H :    0.028984
  13 H :    0.020558
  14 H :    0.030024
  15 H :    0.024856
  16 H :    0.006182
  17 H :    0.022457
  18 H :    0.029178
  19 H :    0.029840
  20 H :    0.007488
  21 H :    0.003950
  22 H :    0.021239
  23 H :    0.021528
  24 H :    0.034997
  25 H :    0.029700
  26 H :    0.019445
  27 H :    0.025417

  Mayer bond orders larger than 0.100000
B(  0-C ,  1-C ) :   1.0797 B(  0-C , 12-H ) :   0.9536 B(  0-C , 13-H ) :   0.9564
B(  0-C , 14-H ) :   0.9499 B(  1-C ,  2-C ) :   1.8676 B(  1-C , 15-H ) :   0.9377
B(  2-C ,  3-O ) :   1.0713 B(  2-C ,  9-C ) :   1.0353 B(  3-O ,  4-C ) :   0.9771
B(  4-C ,  5-C ) :   1.0839 B(  4-C , 16-H ) :   0.9315 B(  4-C , 17-H ) :   0.9418
B(  5-C ,  6-C ) :   1.0370 B(  5-C , 18-H ) :   0.9236 B(  5-C , 19-H ) :   0.9073
B(  6-C ,  7-O ) :   0.9415 B(  6-C , 10-C ) :   1.0274 B(  6-C , 20-H ) :   0.9103
B(  7-O ,  8-C ) :   1.0249 B(  8-C ,  9-C ) :   1.0592 B(  8-C , 21-H ) :   0.9376
B(  8-C , 22-H ) :   0.9452 B(  9-C , 23-H ) :   0.8978 B(  9-C , 24-H ) :   0.9027
B( 10-C , 11-C ) :   2.0041 B( 10-C , 25-H ) :   0.9555 B( 11-C , 26-H ) :   0.9521
B( 11-C , 27-H ) :   0.9468

Dispersion correction           -0.047086133
FINAL SINGLE POINT ENERGY      -540.730008906424

DIPOLE MOMENT
-------------
                                X             Y             Z
Electronic contribution:     -0.13728      -4.24007       0.11693
Nuclear contribution   :      0.58177       4.81420       0.35983
                        -----------------------------------------
Total Dipole Moment    :      0.44449       0.57413       0.47677
                        -----------------------------------------
Magnitude (a.u.)       :      0.86862
Magnitude (Debye)      :      2.20786

Rotational constants in cm-1:     0.069384     0.017355     0.014935
Rotational constants in MHz :  2080.076370   520.282343   447.737904

                             ****ORCA TERMINATED NORMALLY****
TOTAL RUN TIME: 0 days 1 hours 9 minutes 15 seconds 785 msec
