                         Program Version 4.2.0 -  RELEASE  -
|  1> # ORCA input file
|  2> # SCF done        -48.907127307709          0.000835737245
|  3> ! B3LYP/G D3BJ Opt RIJCOSX def2-SVP def2/J
|  4> * xyz 0 1
|  5>    C        2.74508         0.96565         0.11111
|  6>    C        3.58517        -0.08549         0.06636
|  7>    S        2.77929        -1.61486        -0.02872
|  8>    C        1.22876        -0.81703        -0.00970
|  9>    C        1.36463         0.58729         0.07545
| 10>    C        0.23680         1.41354         0.10625
| 11>    C        0.41990         2.90350         0.15649
| 12>    C        0.65829         3.38518         1.58949
| 13>    C       -1.01925         0.80073         0.08606
| 14>    C       -1.10097        -0.60958        -0.04173
| 15>    C       -0.00020        -1.44992        -0.09345
| 16>    C       -0.13183        -2.93875        -0.18841
| 17>    C       -0.23022        -3.56334         1.20418
| 18>    S       -2.75083        -1.16459        -0.14990
| 19>    C       -3.31589         0.45857        -0.02052
| 20>    C       -2.33932         1.38979         0.11431
| 21>    C       -2.67753         2.79530         0.32395
| 22>    C       -3.60922         3.43728        -0.36739
| 23>    H        3.08803         1.98244         0.17412
| 24>    H        4.65780        -0.07466         0.08629
| 25>    H       -0.45681         3.39689        -0.26306
| 26>    H        1.27768         3.17968        -0.46007
| 27>    H       -0.16764         3.09691         2.23603
| 28>    H        0.75833         4.46810         1.61385
| 29>    H        1.56600         2.94269         1.99291
| 30>    H        0.73928        -3.34548        -0.70688
| 31>    H       -1.02844        -3.18716        -0.76079
| 32>    H        0.66104        -3.33406         1.78395
| 33>    H       -0.32609        -4.64332         1.12675
| 34>    H       -1.09827        -3.17431         1.73153
| 35>    H       -4.37440         0.63395        -0.00858
| 36>    H       -2.15688         3.29808         1.12724
| 37>    H       -4.13824         2.96635        -1.17948
| 38>    H       -3.86383         4.46210        -0.15838
| 39> *
| 40>
| 41>                          ****END OF INPUT****
 Total Charge           Charge          ....    0
 Multiplicity           Mult            ....    1
 Number of Electrons    NEL             ....  144
Dispersion correction           -0.086032161
FINAL SINGLE POINT ENERGY     -1415.132543715849
Dispersion correction            ... done
Dispersion correction           -0.085304522
FINAL SINGLE POINT ENERGY     -1415.137931034109
Dispersion correction            ... done
Dispersion correction           -0.085201185
FINAL SINGLE POINT ENERGY     -1415.138063699851
Dispersion correction            ... done
FINAL SINGLE POINT ENERGY     -1415.137995476651
FINAL SINGLE POINT ENERGY     -1415.137988392100
FINAL SINGLE POINT ENERGY     -1415.138022141016
Dispersion correction            ... done
Dispersion correction           -0.085181710
FINAL SINGLE POINT ENERGY     -1415.138029016209
Dispersion correction            ... done
Dispersion correction           -0.085177699
FINAL SINGLE POINT ENERGY     -1415.138021284804
Dispersion correction            ... done
                    ***********************HURRAY********************

CARTESIAN COORDINATES (ANGSTROEM)
---------------------------------
  C      2.794958    1.000449    0.020913
  C      3.654876   -0.051877   -0.030832
  S      2.851743   -1.601096   -0.100291
  C      1.277550   -0.815782   -0.068931
  C      1.403636    0.603583    0.010870
  C      0.262064    1.430706    0.076647
  C      0.447786    2.924456    0.212477
  C      0.661916    3.361678    1.669326
  C     -1.001864    0.801500    0.060780
  C     -1.071636   -0.624051   -0.059490
  C      0.042388   -1.466794   -0.120098
  C     -0.098023   -2.967867   -0.156284
  C     -0.344402   -3.563185    1.238757
  S     -2.731746   -1.197594   -0.121926
  C     -3.320652    0.430241    0.018513
  C     -2.343652    1.384758    0.111686
  C     -2.702227    2.803932    0.280537
  C     -3.665283    3.424984   -0.415373
  H      3.134753    2.034856    0.067665
  H      4.743716   -0.013517   -0.036288
  H     -0.413727    3.453540   -0.215607
  H      1.313226    3.236765   -0.392186
  H     -0.214033    3.113533    2.289877
  H      0.836535    4.447367    1.743274
  H      1.526691    2.844843    2.111668
  H      0.805731   -3.412978   -0.602595
  H     -0.931265   -3.236446   -0.827826
  H      0.504049   -3.351715    1.907539
  H     -0.482204   -4.654889    1.189074
  H     -1.246706   -3.126958    1.693091
  H     -4.393084    0.612117    0.075471
  H     -2.171720    3.362473    1.058691
  H     -4.199860    2.917033   -1.223590
  H     -3.949317    4.457406   -0.196278

 Multiplicity           Mult            ....    1
 Number of Electrons    NEL             ....  144
 Basis Dimension        Dim             ....  340

ORBITAL ENERGIES
----------------

  NO   OCC          E(Eh)            E(eV)
   0   2.0000     -88.868433     -2418.2330
   1   2.0000     -88.868274     -2418.2287
   2   2.0000     -10.216075      -277.9935
   3   2.0000     -10.215725      -277.9840
   4   2.0000     -10.215618      -277.9811
   5   2.0000     -10.213690      -277.9286
   6   2.0000     -10.203420      -277.6492
   7   2.0000     -10.201857      -277.6067
   8   2.0000     -10.200948      -277.5819
   9   2.0000     -10.200226      -277.5622
  10   2.0000     -10.199888      -277.5531
  11   2.0000     -10.197414      -277.4857
  12   2.0000     -10.196265      -277.4545
  13   2.0000     -10.194894      -277.4172
  14   2.0000     -10.191063      -277.3129
  15   2.0000     -10.189572      -277.2723
  16   2.0000     -10.185125      -277.1513
  17   2.0000     -10.183247      -277.1002
  18   2.0000      -7.963329      -216.6932
  19   2.0000      -7.962988      -216.6839
  20   2.0000      -5.931693      -161.4096
  21   2.0000      -5.931456      -161.4031
  22   2.0000      -5.927744      -161.3021
  23   2.0000      -5.927476      -161.2948
  24   2.0000      -5.924004      -161.2003
  25   2.0000      -5.923537      -161.1876
  26   2.0000      -0.896655       -24.3992
  27   2.0000      -0.869955       -23.6727
  28   2.0000      -0.814541       -22.1648
  29   2.0000      -0.810152       -22.0454
  30   2.0000      -0.779603       -21.2141
  31   2.0000      -0.754762       -20.5381
  32   2.0000      -0.732240       -19.9253
  33   2.0000      -0.721965       -19.6457
  34   2.0000      -0.705168       -19.1886
  35   2.0000      -0.680524       -18.5180
  36   2.0000      -0.642798       -17.4914
  37   2.0000      -0.607655       -16.5351
  38   2.0000      -0.605078       -16.4650
  39   2.0000      -0.586762       -15.9666
  40   2.0000      -0.574748       -15.6397
  41   2.0000      -0.542838       -14.7714
  42   2.0000      -0.525720       -14.3056
  43   2.0000      -0.515735       -14.0339
  44   2.0000      -0.484650       -13.1880
  45   2.0000      -0.462930       -12.5970
  46   2.0000      -0.455144       -12.3851
  47   2.0000      -0.444897       -12.1063
  48   2.0000      -0.440618       -11.9898
  49   2.0000      -0.437021       -11.8919
  50   2.0000      -0.430849       -11.7240
  51   2.0000      -0.422980       -11.5099
  52   2.0000      -0.415287       -11.3005
  53   2.0000      -0.395939       -10.7741
  54   2.0000      -0.392463       -10.6795
  55   2.0000      -0.388433       -10.5698
  56   2.0000      -0.381063       -10.3693
  57   2.0000      -0.375022       -10.2049
  58   2.0000      -0.373180       -10.1547
  59   2.0000      -0.369196       -10.0463
  60   2.0000      -0.360505        -9.8098
  61   2.0000      -0.358735        -9.7617
  62   2.0000      -0.350783        -9.5453
  63   2.0000      -0.343848        -9.3566
  64   2.0000      -0.333128        -9.0649
  65   2.0000      -0.325135        -8.8474
  66   2.0000      -0.304165        -8.2767
  67   2.0000      -0.292504        -7.9594
  68   2.0000      -0.274772        -7.4769
  69   2.0000      -0.245613        -6.6835
  70   2.0000      -0.229180        -6.2363
  71   2.0000      -0.197394        -5.3714
  72   0.0000      -0.042707        -1.1621
  73   0.0000      -0.025495        -0.6938
  74   0.0000      -0.005436        -0.1479
  75   0.0000       0.020924         0.5694
  76   0.0000       0.034564         0.9405

MULLIKEN ATOMIC CHARGES
-----------------------
   0 C :   -0.001068
   1 C :   -0.060634
   2 S :    0.081721
   3 C :   -0.142907
   4 C :    0.097492
   5 C :   -0.147016
   6 C :    0.043549
   7 C :    0.021274
   8 C :    0.144289
   9 C :   -0.159477
  10 C :   -0.074445
  11 C :    0.037922
  12 C :    0.015748
  13 S :    0.086706
  14 C :   -0.115923
  15 C :    0.047990
  16 C :   -0.038194
  17 C :   -0.031634
  18 H :   -0.018407
  19 H :    0.027921
  20 H :    0.006576
  21 H :   -0.000704
  22 H :    0.015647
  23 H :    0.016271
  24 H :    0.008970
  25 H :    0.004000
  26 H :    0.011272
  27 H :    0.017699
  28 H :    0.020055
  29 H :    0.013410
  30 H :    0.020395
  31 H :    0.011337
  32 H :    0.020067
  33 H :    0.020098
Sum of atomic charges:   -0.0000000

LOEWDIN ATOMIC CHARGES
----------------------
   0 C :   -0.064104
   1 C :   -0.169946
   2 S :    0.381598
   3 C :   -0.151921
   4 C :   -0.049933
   5 C :   -0.014323
   6 C :   -0.028937
   7 C :   -0.051032
   8 C :   -0.044260
   9 C :   -0.149882
  10 C :   -0.058734
  11 C :   -0.034519
  12 C :   -0.050872
  13 S :    0.393701
  14 C :   -0.168992
  15 C :   -0.061478
  16 C :   -0.023008
  17 C :   -0.050176
  18 H :    0.027930
  19 H :    0.026133
  20 H :    0.028467
  21 H :    0.026214
  22 H :    0.021607
  23 H :    0.023855
  24 H :    0.023791
  25 H :    0.022237
  26 H :    0.024983
  27 H :    0.024954
  28 H :    0.024838
  29 H :    0.019813
  30 H :    0.025362
  31 H :    0.029937
  32 H :    0.022684
  33 H :    0.024009

  Mayer bond orders larger than 0.100000
B(  0-C ,  1-C ) :   1.6292 B(  0-C ,  4-C ) :   1.1634 B(  0-C , 18-H ) :   0.9812
B(  1-C ,  2-S ) :   1.0981 B(  1-C , 19-H ) :   0.9624 B(  2-S ,  3-C ) :   1.0578
B(  3-C ,  4-C ) :   1.2745 B(  3-C , 10-C ) :   1.4380 B(  4-C ,  5-C ) :   1.3382
B(  5-C ,  6-C ) :   1.0873 B(  5-C ,  8-C ) :   1.3532 B(  6-C ,  7-C ) :   1.1078
B(  6-C , 20-H ) :   0.9116 B(  6-C , 21-H ) :   0.9059 B(  7-C , 22-H ) :   0.9609
B(  7-C , 23-H ) :   0.9647 B(  7-C , 24-H ) :   0.9611 B(  8-C ,  9-C ) :   1.2533
B(  8-C , 15-C ) :   1.1366 B(  9-C , 10-C ) :   1.4322 B(  9-C , 13-S ) :   1.0626
B( 10-C , 11-C ) :   1.0802 B( 11-C , 12-C ) :   1.1041 B( 11-C , 25-H ) :   0.9162
B( 11-C , 26-H ) :   0.9134 B( 12-C , 27-H ) :   0.9663 B( 12-C , 28-H ) :   0.9648
B( 12-C , 29-H ) :   0.9664 B( 13-S , 14-C ) :   1.0935 B( 14-C , 15-C ) :   1.6060
B( 14-C , 30-H ) :   0.9603 B( 15-C , 16-C ) :   1.0281 B( 16-C , 17-C ) :   1.9609
B( 16-C , 31-H ) :   0.9417 B( 17-C , 32-H ) :   0.9552 B( 17-C , 33-H ) :   0.9453

Dispersion correction           -0.085176555
FINAL SINGLE POINT ENERGY     -1415.138016130615

DIPOLE MOMENT
-------------
                                X             Y             Z
Electronic contribution:      2.19721     -10.13431      -6.02454
Nuclear contribution   :     -2.11127      10.48323       6.14846
                        -----------------------------------------
Total Dipole Moment    :      0.08594       0.34892       0.12392
                        -----------------------------------------
Magnitude (a.u.)       :      0.38011
Magnitude (Debye)      :      0.96617

Rotational constants in cm-1:     0.016100     0.010432     0.006706
Rotational constants in MHz :   482.664094   312.749530   201.049535

                             ****ORCA TERMINATED NORMALLY****
TOTAL RUN TIME: 0 days 0 hours 34 minutes 2 seconds 734 msec
