                         Program Version 4.2.0 -  RELEASE  -
|  1> # ORCA input file
|  2> # SCF done        -31.936024921368          0.000889644136
|  3> ! B3LYP/G D3BJ Opt RIJCOSX def2-SVP def2/J
|  4> * xyz 0 1
|  5>    C       -1.53460         1.27126        -0.05846
|  6>    S       -2.69686         0.02564        -0.08495
|  7>    C       -1.49584        -1.22066        -0.00411
|  8>    C       -0.22039        -0.66425         0.00629
|  9>    C       -0.25121         0.77440        -0.01301
| 10>    C        0.95361         1.51559         0.00996
| 11>    C        2.13966         0.84360         0.02326
| 12>    S        3.69869         1.67660         0.06125
| 13>    C        2.18030        -0.57457        -0.01540
| 14>    C        1.03833        -1.31139        -0.02618
| 15>    C       -1.94916        -2.58447         0.05764
| 16>    C       -1.29153        -3.61716         0.58152
| 17>    H       -1.84590         2.29650        -0.07236
| 18>    H        0.90780         2.59496         0.00968
| 19>    H        3.20171         2.91159         0.09634
| 20>    H        3.14677        -1.05445        -0.04316
| 21>    H        1.08718        -2.38614        -0.08646
| 22>    H       -2.95036        -2.73853        -0.32937
| 23>    H       -0.32527        -3.51689         1.04262
| 24>    H       -1.72326        -4.60258         0.58445
| 25> *
| 26>
| 27>                          ****END OF INPUT****
 Total Charge           Charge          ....    0
 Multiplicity           Mult            ....    1
 Number of Electrons    NEL             ....  100
Dispersion correction           -0.048681231
FINAL SINGLE POINT ENERGY     -1181.780618172626
Dispersion correction            ... done
Dispersion correction           -0.048408115
FINAL SINGLE POINT ENERGY     -1181.784022988627
Dispersion correction            ... done
Dispersion correction           -0.048334510
FINAL SINGLE POINT ENERGY     -1181.784143871598
Dispersion correction            ... done
FINAL SINGLE POINT ENERGY     -1181.784170824033
Dispersion correction            ... done
Dispersion correction           -0.048324903
FINAL SINGLE POINT ENERGY     -1181.784188205438
Dispersion correction            ... done
Dispersion correction           -0.048329527
FINAL SINGLE POINT ENERGY     -1181.784193655595
Dispersion correction            ... done
                    ***********************HURRAY********************

CARTESIAN COORDINATES (ANGSTROEM)
---------------------------------
  C     -1.566292    1.293005   -0.051551
  S     -2.717156    0.026851   -0.080061
  C     -1.517688   -1.223286    0.002296
  C     -0.233649   -0.652717    0.024493
  C     -0.265389    0.798525    0.000648
  C      0.955600    1.541286    0.016417
  C      2.158522    0.873414    0.026891
  S      3.745971    1.670466    0.047470
  C      2.189925   -0.563832    0.011172
  C      1.036986   -1.303512    0.012891
  C     -1.964256   -2.605134    0.057966
  C     -1.295562   -3.660772    0.555201
  H     -1.886044    2.332961   -0.073492
  H      0.914989    2.633277    0.012246
  H      3.291261    2.942859    0.000382
  H      3.158373   -1.068655   -0.015920
  H      1.092453   -2.391395   -0.023177
  H     -2.972852   -2.779466   -0.334862
  H     -0.312873   -3.567399    1.019790
  H     -1.742650   -4.657425    0.530749

 Multiplicity           Mult            ....    1
 Number of Electrons    NEL             ....  100
 Basis Dimension        Dim             ....  216

ORBITAL ENERGIES
----------------

  NO   OCC          E(Eh)            E(eV)
   0   2.0000     -88.885947     -2418.7096
   1   2.0000     -88.855405     -2417.8785
   2   2.0000     -10.227440      -278.3028
   3   2.0000     -10.222241      -278.1613
   4   2.0000     -10.214583      -277.9529
   5   2.0000     -10.207652      -277.7643
   6   2.0000     -10.205449      -277.7044
   7   2.0000     -10.202892      -277.6348
   8   2.0000     -10.201379      -277.5936
   9   2.0000     -10.200826      -277.5786
  10   2.0000     -10.198924      -277.5268
  11   2.0000     -10.191783      -277.3325
  12   2.0000      -7.980678      -217.1653
  13   2.0000      -7.949786      -216.3247
  14   2.0000      -5.948344      -161.8627
  15   2.0000      -5.944375      -161.7547
  16   2.0000      -5.942940      -161.7156
  17   2.0000      -5.919017      -161.0646
  18   2.0000      -5.915123      -160.9587
  19   2.0000      -5.908840      -160.7877
  20   2.0000      -0.896456       -24.3938
  21   2.0000      -0.845879       -23.0175
  22   2.0000      -0.790287       -21.5048
  23   2.0000      -0.778794       -21.1921
  24   2.0000      -0.747227       -20.3331
  25   2.0000      -0.712563       -19.3898
  26   2.0000      -0.687658       -18.7121
  27   2.0000      -0.621047       -16.8995
  28   2.0000      -0.608034       -16.5454
  29   2.0000      -0.571212       -15.5435
  30   2.0000      -0.551700       -15.0125
  31   2.0000      -0.501641       -13.6504
  32   2.0000      -0.481665       -13.1068
  33   2.0000      -0.478089       -13.0095
  34   2.0000      -0.463709       -12.6182
  35   2.0000      -0.435216       -11.8428
  36   2.0000      -0.425486       -11.5781
  37   2.0000      -0.415234       -11.2991
  38   2.0000      -0.405247       -11.0273
  39   2.0000      -0.391550       -10.6546
  40   2.0000      -0.377537       -10.2733
  41   2.0000      -0.362474        -9.8634
  42   2.0000      -0.354840        -9.6557
  43   2.0000      -0.349987        -9.5236
  44   2.0000      -0.337593        -9.1864
  45   2.0000      -0.311644        -8.4803
  46   2.0000      -0.293014        -7.9733
  47   2.0000      -0.266936        -7.2637
  48   2.0000      -0.229459        -6.2439
  49   2.0000      -0.197039        -5.3617
  50   0.0000      -0.071033        -1.9329
  51   0.0000      -0.013674        -0.3721
  52   0.0000       0.013497         0.3673
  53   0.0000       0.015228         0.4144
  54   0.0000       0.033020         0.8985

MULLIKEN ATOMIC CHARGES
-----------------------
   0 C :   -0.136309
   1 S :    0.141464
   2 C :   -0.171459
   3 C :    0.127087
   4 C :    0.088128
   5 C :   -0.036745
   6 C :   -0.045930
   7 S :    0.016837
   8 C :    0.029897
   9 C :   -0.034088
  10 C :    0.028071
  11 C :   -0.042930
  12 H :    0.016611
  13 H :   -0.040404
  14 H :    0.056674
  15 H :   -0.019151
  16 H :   -0.021081
  17 H :   -0.006824
  18 H :    0.025220
  19 H :    0.024933
Sum of atomic charges:   -0.0000000

LOEWDIN ATOMIC CHARGES
----------------------
   0 C :   -0.214013
   1 S :    0.481209
   2 C :   -0.189553
   3 C :   -0.048361
   4 C :   -0.043298
   5 C :   -0.060021
   6 C :   -0.152171
   7 S :    0.218865
   8 C :   -0.042576
   9 C :   -0.011219
  10 C :   -0.042868
  11 C :   -0.055185
  12 H :    0.024130
  13 H :    0.023320
  14 H :   -0.023004
  15 H :    0.026839
  16 H :    0.030223
  17 H :    0.029001
  18 H :    0.021910
  19 H :    0.026773

  Mayer bond orders larger than 0.100000
B(  0-C ,  1-S ) :   1.1851 B(  0-C ,  2-C ) :   0.1116 B(  0-C ,  4-C ) :   1.3908
B(  0-C , 12-H ) :   0.9652 B(  1-S ,  2-C ) :   1.1697 B(  2-C ,  3-C ) :   1.3594
B(  2-C , 10-C ) :   1.1148 B(  3-C ,  4-C ) :   1.1992 B(  3-C ,  9-C ) :   1.1919
B(  4-C ,  5-C ) :   1.1961 B(  5-C ,  6-C ) :   1.5291 B(  5-C , 13-H ) :   0.9875
B(  6-C ,  7-S ) :   1.0412 B(  6-C ,  8-C ) :   1.1840 B(  7-S , 14-H ) :   0.9529
B(  8-C ,  9-C ) :   1.5734 B(  8-C , 15-H ) :   0.9757 B(  9-C , 16-H ) :   0.9868
B( 10-C , 11-C ) :   1.9114 B( 10-C , 17-H ) :   0.9430 B( 11-C , 18-H ) :   0.9521
B( 11-C , 19-H ) :   0.9435

Dispersion correction           -0.048329995
FINAL SINGLE POINT ENERGY     -1181.784198149390

DIPOLE MOMENT
-------------
                                X             Y             Z
Electronic contribution:     -0.59552       5.72474      -0.77424
Nuclear contribution   :      0.31325      -5.49080       0.73924
                        -----------------------------------------
Total Dipole Moment    :     -0.28227       0.23394      -0.03500
                        -----------------------------------------
Magnitude (a.u.)       :      0.36828
Magnitude (Debye)      :      0.93610

Rotational constants in cm-1:     0.050171     0.014418     0.011242
Rotational constants in MHz :  1504.085593   432.239916   337.022442

                             ****ORCA TERMINATED NORMALLY****
TOTAL RUN TIME: 0 days 0 hours 11 minutes 37 seconds 52 msec
