                         Program Version 4.2.0 -  RELEASE  -
|  1> # ORCA input file
|  2> # SCF done        -41.134096779863          0.000441009004
|  3> ! B3LYP/G D3BJ Opt RIJCOSX def2-SVP def2/J
|  4> * xyz 0 1
|  5>    C        1.24682         0.51704         0.10733
|  6>    C       -0.09613         0.83545         0.13727
|  7>    C       -0.61516         2.17519         0.15955
|  8>    O        0.04875         3.18383         0.17158
|  9>    C       -2.16877         2.28237         0.15828
| 10>    F       -2.71480         1.65311         1.21360
| 11>    F       -2.57873         3.54548         0.19646
| 12>    F       -2.70093         1.72154        -0.94212
| 13>    S       -1.08300        -0.59690         0.13855
| 14>    C        0.30495        -1.57607         0.10222
| 15>    C        1.49054        -0.86844         0.08512
| 16>    C        2.78917        -1.51683         0.04630
| 17>    C        3.95606        -0.88805        -0.02302
| 18>    H        2.00344         1.27965         0.10360
| 19>    H        0.19587        -2.64395         0.09293
| 20>    H        2.75683        -2.59798         0.07308
| 21>    H        4.03312         0.18476        -0.05698
| 22>    H        4.88297        -1.43340        -0.05096
| 23> *
| 24>
| 25>                          ****END OF INPUT****
 Total Charge           Charge          ....    0
 Multiplicity           Mult            ....    1
 Number of Electrons    NEL             ....  104
Dispersion correction           -0.036820438
FINAL SINGLE POINT ENERGY     -1080.186404967877
Dispersion correction            ... done
Dispersion correction           -0.036464101
FINAL SINGLE POINT ENERGY     -1080.189588334923
Dispersion correction            ... done
Dispersion correction           -0.036409363
FINAL SINGLE POINT ENERGY     -1080.189645342836
Dispersion correction            ... done
FINAL SINGLE POINT ENERGY     -1080.189705148909
FINAL SINGLE POINT ENERGY     -1080.189741008192
Dispersion correction            ... done
Dispersion correction           -0.036418073
FINAL SINGLE POINT ENERGY     -1080.189741614246
Dispersion correction            ... done
Dispersion correction           -0.036413923
FINAL SINGLE POINT ENERGY     -1080.189740515015
Dispersion correction            ... done
                    ***********************HURRAY********************

CARTESIAN COORDINATES (ANGSTROEM)
---------------------------------
  C      1.225769    0.522412    0.089545
  C     -0.125125    0.818777    0.120229
  C     -0.671570    2.179722    0.143043
  O      0.013089    3.177172    0.139870
  C     -2.219691    2.332232    0.173131
  F     -2.731341    1.742233    1.269034
  F     -2.568346    3.609832    0.178382
  F     -2.775791    1.738979   -0.899868
  S     -1.087532   -0.642613    0.127066
  C      0.322591   -1.610030    0.089114
  C      1.502210   -0.877121    0.070422
  C      2.817274   -1.520420    0.033571
  C      4.008664   -0.907784    0.004880
  H      1.977878    1.312243    0.081156
  H      0.231319   -2.696266    0.081584
  H      2.787646   -2.615949    0.028550
  H      4.110217    0.181384    0.006220
  H      4.933738   -1.488004   -0.023139

 Multiplicity           Mult            ....    1
 Number of Electrons    NEL             ....  104
 Basis Dimension        Dim             ....  211

ORBITAL ENERGIES
----------------

  NO   OCC          E(Eh)            E(eV)
   0   2.0000     -88.904371     -2419.2109
   1   2.0000     -24.731950      -672.9906
   2   2.0000     -24.731815      -672.9869
   3   2.0000     -24.730552      -672.9525
   4   2.0000     -19.156074      -521.2633
   5   2.0000     -10.441087      -284.1164
   6   2.0000     -10.309972      -280.5486
   7   2.0000     -10.243403      -278.7372
   8   2.0000     -10.241815      -278.6940
   9   2.0000     -10.226168      -278.2682
  10   2.0000     -10.225874      -278.2602
  11   2.0000     -10.215345      -277.9737
  12   2.0000     -10.204667      -277.6831
  13   2.0000      -7.999205      -217.6694
  14   2.0000      -5.967234      -162.3767
  15   2.0000      -5.962975      -162.2608
  16   2.0000      -5.960781      -162.2011
  17   2.0000      -1.312068       -35.7032
  18   2.0000      -1.221622       -33.2420
  19   2.0000      -1.218023       -33.1441
  20   2.0000      -1.064393       -28.9636
  21   2.0000      -0.910654       -24.7802
  22   2.0000      -0.809337       -22.0232
  23   2.0000      -0.771882       -21.0040
  24   2.0000      -0.749505       -20.3951
  25   2.0000      -0.725393       -19.7389
  26   2.0000      -0.661489       -18.0000
  27   2.0000      -0.616153       -16.7664
  28   2.0000      -0.606784       -16.5114
  29   2.0000      -0.605349       -16.4724
  30   2.0000      -0.600412       -16.3380
  31   2.0000      -0.558868       -15.2076
  32   2.0000      -0.535320       -14.5668
  33   2.0000      -0.491208       -13.3665
  34   2.0000      -0.482913       -13.1407
  35   2.0000      -0.481915       -13.1136
  36   2.0000      -0.465446       -12.6654
  37   2.0000      -0.457444       -12.4477
  38   2.0000      -0.455846       -12.4042
  39   2.0000      -0.443160       -12.0590
  40   2.0000      -0.440611       -11.9896
  41   2.0000      -0.428588       -11.6625
  42   2.0000      -0.421637       -11.4733
  43   2.0000      -0.418746       -11.3947
  44   2.0000      -0.409781       -11.1507
  45   2.0000      -0.400966       -10.9108
  46   2.0000      -0.380924       -10.3655
  47   2.0000      -0.367972       -10.0130
  48   2.0000      -0.326440        -8.8829
  49   2.0000      -0.289886        -7.8882
  50   2.0000      -0.277219        -7.5435
  51   2.0000      -0.248264        -6.7556
  52   0.0000      -0.094156        -2.5621
  53   0.0000      -0.046717        -1.2712
  54   0.0000       0.016858         0.4587
  55   0.0000       0.017693         0.4815
  56   0.0000       0.054401         1.4803

MULLIKEN ATOMIC CHARGES
-----------------------
   0 C :    0.020371
   1 C :   -0.144433
   2 C :    0.024935
   3 O :   -0.159977
   4 C :    0.510715
   5 F :   -0.175181
   6 F :   -0.135025
   7 F :   -0.175833
   8 S :    0.175750
   9 C :   -0.115080
  10 C :    0.099933
  11 C :    0.000031
  12 C :   -0.023651
  13 H :    0.013017
  14 H :    0.038277
  15 H :   -0.007314
  16 H :    0.024207
  17 H :    0.029257
Sum of atomic charges:   -0.0000000

LOEWDIN ATOMIC CHARGES
----------------------
   0 C :    0.007087
   1 C :   -0.228346
   2 C :    0.016744
   3 O :   -0.114329
   4 C :    0.134747
   5 F :   -0.064626
   6 F :   -0.028463
   7 F :   -0.065315
   8 S :    0.474835
   9 C :   -0.165529
  10 C :   -0.062184
  11 C :   -0.026112
  12 C :   -0.038152
  13 H :    0.041478
  14 H :    0.031287
  15 H :    0.031794
  16 H :    0.024864
  17 H :    0.030220

  Mayer bond orders larger than 0.100000
B(  0-C ,  1-C ) :   1.4903 B(  0-C , 10-C ) :   1.2469 B(  0-C , 13-H ) :   0.9956
B(  1-C ,  2-C ) :   1.0112 B(  1-C ,  8-S ) :   1.1203 B(  2-C ,  3-O ) :   2.1642
B(  2-C ,  4-C ) :   0.8778 B(  4-C ,  5-F ) :   1.1254 B(  4-C ,  6-F ) :   1.1853
B(  4-C ,  7-F ) :   1.1239 B(  8-S ,  9-C ) :   1.2019 B(  9-C , 10-C ) :   1.4504
B(  9-C , 14-H ) :   0.9674 B( 10-C , 11-C ) :   1.0890 B( 11-C , 12-C ) :   1.9311
B( 11-C , 15-H ) :   0.9621 B( 12-C , 16-H ) :   0.9502 B( 12-C , 17-H ) :   0.9456

Dispersion correction           -0.036413353
FINAL SINGLE POINT ENERGY     -1080.189740619052

DIPOLE MOMENT
-------------
                                X             Y             Z
Electronic contribution:    -20.88215      11.65378       0.55190
Nuclear contribution   :     21.52877     -13.05514      -0.58075
                        -----------------------------------------
Total Dipole Moment    :      0.64662      -1.40136      -0.02885
                        -----------------------------------------
Magnitude (a.u.)       :      1.54362
Magnitude (Debye)      :      3.92357

Rotational constants in cm-1:     0.053940     0.013306     0.011313
Rotational constants in MHz :  1617.083071   398.896702   339.168000

                             ****ORCA TERMINATED NORMALLY****
TOTAL RUN TIME: 0 days 0 hours 11 minutes 5 seconds 618 msec
