                         Program Version 4.2.0 -  RELEASE  -
|  1> # ORCA input file
|  2> # SCF done        -48.901644360689          0.000206274680
|  3> ! B3LYP/G D3BJ Opt RIJCOSX def2-SVP def2/J
|  4> * xyz 0 1
|  5>    C       -2.85252         0.26224         0.20116
|  6>    C       -3.04671        -1.07152         0.26214
|  7>    S       -1.57940        -1.98680         0.22090
|  8>    C       -0.65905        -0.51732         0.12020
|  9>    C       -1.47330         0.62384         0.11696
| 10>    C       -0.89208         1.90802         0.02081
| 11>    C       -1.83002         3.08548        -0.04796
| 12>    C       -2.33266         3.28759        -1.47952
| 13>    C        0.48282         2.04166        -0.06678
| 14>    C        1.11845         3.40196        -0.18348
| 15>    C        1.37375         4.01224         1.19722
| 16>    C        1.30948         0.89008        -0.03483
| 17>    C        2.74381         0.76990        -0.13299
| 18>    C        3.14697        -0.52780        -0.14950
| 19>    S        1.87223        -1.67800        -0.02026
| 20>    C        0.71751        -0.38359         0.03701
| 21>    C        3.74467         1.83663        -0.18511
| 22>    C        4.73248         1.86020        -1.06816
| 23>    H       -3.66358         0.96729         0.21377
| 24>    H       -3.97763        -1.59997         0.32931
| 25>    H       -1.34479         3.99640         0.29702
| 26>    H       -2.68103         2.90592         0.61099
| 27>    H       -1.49975         3.48311        -2.15162
| 28>    H       -3.02088         4.12879        -1.52623
| 29>    H       -2.84715         2.39656        -1.83171
| 30>    H        0.47894         4.06977        -0.76049
| 31>    H        2.05979         3.31230        -0.72592
| 32>    H        0.43658         4.18362         1.72221
| 33>    H        1.89571         4.96224         1.10236
| 34>    H        1.97411         3.34279         1.80925
| 35>    H        4.15865        -0.88115        -0.19844
| 36>    H        3.68441         2.59781         0.58033
| 37>    H        4.81445         1.11824        -1.84497
| 38>    H        5.48277         2.63230        -1.05885
| 39> *
| 40>
| 41>                          ****END OF INPUT****
 Total Charge           Charge          ....    0
 Multiplicity           Mult            ....    1
 Number of Electrons    NEL             ....  144
Dispersion correction           -0.086117837
FINAL SINGLE POINT ENERGY     -1415.127756596276
Dispersion correction            ... done
Dispersion correction           -0.085271778
FINAL SINGLE POINT ENERGY     -1415.133238539472
Dispersion correction            ... done
Dispersion correction           -0.085121128
FINAL SINGLE POINT ENERGY     -1415.133384954890
Dispersion correction            ... done
FINAL SINGLE POINT ENERGY     -1415.133422198835
Dispersion correction            ... done
Dispersion correction           -0.085116433
FINAL SINGLE POINT ENERGY     -1415.133416706959
Dispersion correction            ... done
Dispersion correction           -0.085150233
FINAL SINGLE POINT ENERGY     -1415.133416476632
Dispersion correction            ... done
                    ***********************HURRAY********************

CARTESIAN COORDINATES (ANGSTROEM)
---------------------------------
  C     -2.886545    0.220992    0.172242
  C     -3.074739   -1.126217    0.255388
  S     -1.578944   -2.026605    0.248322
  C     -0.663813   -0.543708    0.130686
  C     -1.493474    0.596921    0.096428
  C     -0.920159    1.898894   -0.005026
  C     -1.869986    3.079627   -0.068257
  C     -2.375567    3.370818   -1.490398
  C      0.469670    2.044906   -0.087408
  C      1.088334    3.424999   -0.165126
  C      1.420739    3.996139    1.220733
  C      1.314758    0.885943   -0.040157
  C      2.772720    0.769973   -0.128490
  C      3.185507   -0.537697   -0.064039
  S      1.898435   -1.688525    0.092763
  C      0.726003   -0.397974    0.069474
  C      3.770076    1.849141   -0.265443
  C      4.812742    1.813463   -1.108394
  H     -3.714462    0.929158    0.162547
  H     -4.018893   -1.664530    0.325742
  H     -1.398274    3.979381    0.349221
  H     -2.732682    2.875734    0.584686
  H     -1.545928    3.650505   -2.158069
  H     -3.107514    4.194625   -1.496345
  H     -2.861225    2.482875   -1.924677
  H      0.411044    4.112307   -0.690111
  H      1.997494    3.388980   -0.779792
  H      0.506347    4.142675    1.815836
  H      1.939141    4.965626    1.142197
  H      2.064872    3.309104    1.790441
  H      4.217639   -0.883726   -0.068905
  H      3.666144    2.712238    0.397514
  H      4.951638    0.989498   -1.814889
  H      5.555932    2.615288   -1.123874

 Multiplicity           Mult            ....    1
 Number of Electrons    NEL             ....  144
 Basis Dimension        Dim             ....  340

ORBITAL ENERGIES
----------------

  NO   OCC          E(Eh)            E(eV)
   0   2.0000     -88.871915     -2418.3277
   1   2.0000     -88.871823     -2418.3252
   2   2.0000     -10.219436      -278.0850
   3   2.0000     -10.218109      -278.0489
   4   2.0000     -10.217026      -278.0194
   5   2.0000     -10.213806      -277.9318
   6   2.0000     -10.203364      -277.6476
   7   2.0000     -10.201216      -277.5892
   8   2.0000     -10.200582      -277.5719
   9   2.0000     -10.196861      -277.4707
  10   2.0000     -10.196730      -277.4671
  11   2.0000     -10.196293      -277.4552
  12   2.0000     -10.194876      -277.4167
  13   2.0000     -10.191270      -277.3186
  14   2.0000     -10.189812      -277.2789
  15   2.0000     -10.188216      -277.2355
  16   2.0000     -10.184404      -277.1317
  17   2.0000     -10.183905      -277.1181
  18   2.0000      -7.966933      -216.7913
  19   2.0000      -7.966769      -216.7868
  20   2.0000      -5.935250      -161.5064
  21   2.0000      -5.935196      -161.5049
  22   2.0000      -5.931266      -161.3980
  23   2.0000      -5.931182      -161.3957
  24   2.0000      -5.927748      -161.3022
  25   2.0000      -5.927399      -161.2927
  26   2.0000      -0.899777       -24.4842
  27   2.0000      -0.869088       -23.6491
  28   2.0000      -0.827545       -22.5186
  29   2.0000      -0.792430       -21.5631
  30   2.0000      -0.773117       -21.0376
  31   2.0000      -0.760617       -20.6974
  32   2.0000      -0.738793       -20.1036
  33   2.0000      -0.724190       -19.7062
  34   2.0000      -0.693268       -18.8648
  35   2.0000      -0.689080       -18.7508
  36   2.0000      -0.635186       -17.2843
  37   2.0000      -0.615982       -16.7617
  38   2.0000      -0.601281       -16.3617
  39   2.0000      -0.591153       -16.0861
  40   2.0000      -0.563402       -15.3309
  41   2.0000      -0.549606       -14.9555
  42   2.0000      -0.531044       -14.4504
  43   2.0000      -0.509947       -13.8764
  44   2.0000      -0.482728       -13.1357
  45   2.0000      -0.462754       -12.5922
  46   2.0000      -0.460615       -12.5340
  47   2.0000      -0.447235       -12.1699
  48   2.0000      -0.441652       -12.0180
  49   2.0000      -0.429464       -11.6863
  50   2.0000      -0.423795       -11.5321
  51   2.0000      -0.419637       -11.4189
  52   2.0000      -0.409871       -11.1531
  53   2.0000      -0.409097       -11.1321
  54   2.0000      -0.399147       -10.8613
  55   2.0000      -0.384952       -10.4751
  56   2.0000      -0.382621       -10.4116
  57   2.0000      -0.379230       -10.3194
  58   2.0000      -0.368364       -10.0237
  59   2.0000      -0.367929       -10.0119
  60   2.0000      -0.357870        -9.7381
  61   2.0000      -0.353538        -9.6202
  62   2.0000      -0.349383        -9.5072
  63   2.0000      -0.347451        -9.4546
  64   2.0000      -0.337561        -9.1855
  65   2.0000      -0.319864        -8.7039
  66   2.0000      -0.304793        -8.2938
  67   2.0000      -0.293318        -7.9816
  68   2.0000      -0.269637        -7.3372
  69   2.0000      -0.253935        -6.9099
  70   2.0000      -0.214243        -5.8298
  71   2.0000      -0.209374        -5.6974
  72   0.0000      -0.042761        -1.1636
  73   0.0000      -0.022778        -0.6198
  74   0.0000      -0.004781        -0.1301
  75   0.0000       0.015346         0.4176
  76   0.0000       0.028690         0.7807

MULLIKEN ATOMIC CHARGES
-----------------------
   0 C :    0.003622
   1 C :   -0.062583
   2 S :    0.106045
   3 C :   -0.124252
   4 C :    0.066425
   5 C :   -0.096646
   6 C :    0.051895
   7 C :    0.017928
   8 C :   -0.117840
   9 C :    0.029077
  10 C :    0.030884
  11 C :    0.112968
  12 C :    0.042964
  13 C :   -0.113270
  14 S :    0.113897
  15 C :   -0.148210
  16 C :   -0.037293
  17 C :   -0.037503
  18 H :   -0.013766
  19 H :    0.024860
  20 H :   -0.005297
  21 H :   -0.000587
  22 H :    0.010624
  23 H :    0.016289
  24 H :    0.012339
  25 H :   -0.002772
  26 H :    0.007150
  27 H :    0.007720
  28 H :    0.011287
  29 H :    0.017880
  30 H :    0.018229
  31 H :    0.013927
  32 H :    0.021234
  33 H :    0.022777
Sum of atomic charges:   -0.0000000

LOEWDIN ATOMIC CHARGES
----------------------
   0 C :   -0.064285
   1 C :   -0.170666
   2 S :    0.394838
   3 C :   -0.180773
   4 C :   -0.047245
   5 C :   -0.023743
   6 C :   -0.027911
   7 C :   -0.051069
   8 C :   -0.021682
   9 C :   -0.032281
  10 C :   -0.051122
  11 C :   -0.041717
  12 C :   -0.061033
  13 C :   -0.170616
  14 S :    0.404684
  15 C :   -0.178217
  16 C :   -0.023105
  17 C :   -0.051775
  18 H :    0.029251
  19 H :    0.025820
  20 H :    0.023356
  21 H :    0.024933
  22 H :    0.022503
  23 H :    0.023289
  24 H :    0.023597
  25 H :    0.025042
  26 H :    0.028510
  27 H :    0.022831
  28 H :    0.022998
  29 H :    0.022169
  30 H :    0.025020
  31 H :    0.031035
  32 H :    0.022760
  33 H :    0.024607

  Mayer bond orders larger than 0.100000
B(  0-C ,  1-C ) :   1.6106 B(  0-C ,  4-C ) :   1.1877 B(  0-C , 18-H ) :   0.9799
B(  1-C ,  2-S ) :   1.1110 B(  1-C , 19-H ) :   0.9637 B(  2-S ,  3-C ) :   1.0745
B(  3-C ,  4-C ) :   1.3565 B(  3-C , 15-C ) :   1.3925 B(  4-C ,  5-C ) :   1.2493
B(  5-C ,  6-C ) :   1.0803 B(  5-C ,  8-C ) :   1.4957 B(  6-C ,  7-C ) :   1.1135
B(  6-C , 20-H ) :   0.9106 B(  6-C , 21-H ) :   0.9124 B(  7-C , 22-H ) :   0.9620
B(  7-C , 23-H ) :   0.9648 B(  7-C , 24-H ) :   0.9643 B(  8-C ,  9-C ) :   1.0849
B(  8-C , 11-C ) :   1.2434 B(  9-C , 10-C ) :   1.1146 B(  9-C , 25-H ) :   0.9046
B(  9-C , 26-H ) :   0.9060 B( 10-C , 27-H ) :   0.9570 B( 10-C , 28-H ) :   0.9623
B( 10-C , 29-H ) :   0.9577 B( 11-C , 12-C ) :   1.1672 B( 11-C , 15-C ) :   1.3421
B( 12-C , 13-C ) :   1.5880 B( 12-C , 16-C ) :   1.0248 B( 13-C , 14-S ) :   1.1052
B( 13-C , 30-H ) :   0.9611 B( 14-S , 15-C ) :   1.0790 B( 16-C , 17-C ) :   1.9629
B( 16-C , 31-H ) :   0.9403 B( 17-C , 32-H ) :   0.9542 B( 17-C , 33-H ) :   0.9461

Dispersion correction           -0.085155589
FINAL SINGLE POINT ENERGY     -1415.133403633749

DIPOLE MOMENT
-------------
                                X             Y             Z
Electronic contribution:     -0.68527     -28.95068       2.71062
Nuclear contribution   :      0.52723      29.47519      -2.71563
                        -----------------------------------------
Total Dipole Moment    :     -0.15804       0.52451      -0.00502
                        -----------------------------------------
Magnitude (a.u.)       :      0.54783
Magnitude (Debye)      :      1.39246

Rotational constants in cm-1:     0.015094     0.010885     0.006748
Rotational constants in MHz :   452.506218   326.321465   202.301489

                             ****ORCA TERMINATED NORMALLY****
TOTAL RUN TIME: 0 days 0 hours 28 minutes 16 seconds 64 msec
