                         Program Version 4.2.0 -  RELEASE  -
|  1> # ORCA input file
|  2> # SCF done        -39.196406042745          0.000986175592
|  3> ! B3LYP/G D3BJ Opt RIJCOSX def2-SVP def2/J
|  4> * xyz 0 1
|  5>    C        1.40996         1.35408         0.02690
|  6>    S        2.63713         0.20920         0.40993
|  7>    C        1.45984        -1.03864         0.54917
|  8>    C        0.19890        -0.59148         0.31209
|  9>    C        0.17103         0.79897         0.00573
| 10>    C       -1.09847         1.50387        -0.34581
| 11>    C       -2.31036         0.77369         0.24003
| 12>    C       -2.36609         0.95436         1.75557
| 13>    C       -2.28068        -0.71861        -0.15609
| 14>    C       -1.04235        -1.42029         0.41578
| 15>    C       -2.41042        -0.85395        -1.65547
| 16>    C       -1.36203        -1.02921        -2.46056
| 17>    C       -3.74311        -0.76626        -2.24399
| 18>    C       -4.89947        -0.60351        -1.61129
| 19>    H        1.68376         2.37252        -0.16493
| 20>    H        1.77413        -2.03203         0.80152
| 21>    H       -1.19269         1.53353        -1.43611
| 22>    H       -1.06996         2.53579         0.01057
| 23>    H       -3.21421         1.21587        -0.19351
| 24>    H       -1.42798         0.65708         2.21720
| 25>    H       -3.17087         0.36144         2.18615
| 26>    H       -2.54535         1.99932         1.99977
| 27>    H       -3.15522        -1.20196         0.29132
| 28>    H       -0.90009        -2.38021        -0.08668
| 29>    H       -1.22076        -1.63987         1.47314
| 30>    H       -0.35160        -1.09551        -2.09823
| 31>    H       -1.48681        -1.10969        -3.52828
| 32>    H       -3.75493        -0.84946        -3.32444
| 33>    H       -4.98405        -0.51304        -0.54188
| 34>    H       -5.82685        -0.55453        -2.15609
| 35> *
| 36>
| 37>                          ****END OF INPUT****
 Total Charge           Charge          ....    0
 Multiplicity           Mult            ....    1
 Number of Electrons    NEL             ....  110
Dispersion correction           -0.068811628
FINAL SINGLE POINT ENERGY      -902.757842367665
Dispersion correction            ... done
Dispersion correction           -0.067766709
FINAL SINGLE POINT ENERGY      -902.762099315971
Dispersion correction            ... done
Dispersion correction           -0.067641710
FINAL SINGLE POINT ENERGY      -902.762231484993
Dispersion correction            ... done
FINAL SINGLE POINT ENERGY      -902.762179093499
FINAL SINGLE POINT ENERGY      -902.762251239662
Dispersion correction            ... done
Dispersion correction           -0.067620643
FINAL SINGLE POINT ENERGY      -902.762247704432
Dispersion correction            ... done
Dispersion correction           -0.067643595
FINAL SINGLE POINT ENERGY      -902.762247090427
Dispersion correction            ... done
                    ***********************HURRAY********************

CARTESIAN COORDINATES (ANGSTROEM)
---------------------------------
  C      1.455405    1.388903    0.014578
  S      2.696439    0.215289    0.285268
  C      1.526945   -1.050930    0.437927
  C      0.241422   -0.586049    0.292150
  C      0.200773    0.828460    0.028155
  C     -1.092978    1.536716   -0.279646
  C     -2.319807    0.780536    0.261208
  C     -2.463066    0.950081    1.776598
  C     -2.261494   -0.719349   -0.153027
  C     -1.017074   -1.401356    0.447300
  C     -2.397628   -0.882751   -1.657466
  C     -1.359805   -1.167193   -2.468056
  C     -3.729132   -0.725799   -2.264490
  C     -4.903681   -0.560109   -1.636121
  H      1.719292    2.428465   -0.174349
  H      1.846793   -2.069498    0.653959
  H     -1.187643    1.631183   -1.374867
  H     -1.074635    2.562636    0.121026
  H     -3.210924    1.216780   -0.214916
  H     -1.541915    0.668238    2.310096
  H     -3.284201    0.334185    2.177810
  H     -2.677510    2.000276    2.029096
  H     -3.139829   -1.206640    0.299461
  H     -0.889050   -2.404018    0.011201
  H     -1.199402   -1.561223    1.523639
  H     -0.343838   -1.305135   -2.096026
  H     -1.515305   -1.271889   -3.545858
  H     -3.734172   -0.776945   -3.360003
  H     -4.991131   -0.505932   -0.547849
  H     -5.832449   -0.475464   -2.205290

 Multiplicity           Mult            ....    1
 Number of Electrons    NEL             ....  110
 Basis Dimension        Dim             ....  280

ORBITAL ENERGIES
----------------

  NO   OCC          E(Eh)            E(eV)
   0   2.0000     -88.864716     -2418.1319
   1   2.0000     -10.200573      -277.5717
   2   2.0000     -10.199752      -277.5494
   3   2.0000     -10.196783      -277.4686
   4   2.0000     -10.194817      -277.4151
   5   2.0000     -10.194641      -277.4103
   6   2.0000     -10.191914      -277.3361
   7   2.0000     -10.190273      -277.2914
   8   2.0000     -10.188197      -277.2349
   9   2.0000     -10.188154      -277.2338
  10   2.0000     -10.186814      -277.1973
  11   2.0000     -10.185651      -277.1656
  12   2.0000     -10.182887      -277.0904
  13   2.0000     -10.179459      -276.9972
  14   2.0000      -7.959780      -216.5966
  15   2.0000      -5.927843      -161.3048
  16   2.0000      -5.923787      -161.1944
  17   2.0000      -5.921261      -161.1257
  18   2.0000      -0.876136       -23.8409
  19   2.0000      -0.836802       -22.7705
  20   2.0000      -0.792045       -21.5526
  21   2.0000      -0.758211       -20.6320
  22   2.0000      -0.734609       -19.9897
  23   2.0000      -0.726386       -19.7660
  24   2.0000      -0.692312       -18.8388
  25   2.0000      -0.666394       -18.1335
  26   2.0000      -0.631115       -17.1735
  27   2.0000      -0.591967       -16.1082
  28   2.0000      -0.568624       -15.4731
  29   2.0000      -0.562049       -15.2941
  30   2.0000      -0.526640       -14.3306
  31   2.0000      -0.496427       -13.5085
  32   2.0000      -0.485422       -13.2090
  33   2.0000      -0.477677       -12.9983
  34   2.0000      -0.466115       -12.6836
  35   2.0000      -0.449881       -12.2419
  36   2.0000      -0.431654       -11.7459
  37   2.0000      -0.416656       -11.3378
  38   2.0000      -0.408405       -11.1133
  39   2.0000      -0.404220       -10.9994
  40   2.0000      -0.395730       -10.7684
  41   2.0000      -0.394653       -10.7391
  42   2.0000      -0.383924       -10.4471
  43   2.0000      -0.372734       -10.1426
  44   2.0000      -0.369653       -10.0588
  45   2.0000      -0.364081        -9.9072
  46   2.0000      -0.345814        -9.4101
  47   2.0000      -0.333326        -9.0703
  48   2.0000      -0.331712        -9.0264
  49   2.0000      -0.322932        -8.7874
  50   2.0000      -0.315808        -8.5936
  51   2.0000      -0.300895        -8.1878
  52   2.0000      -0.239046        -6.5048
  53   2.0000      -0.231906        -6.3105
  54   2.0000      -0.226417        -6.1611
  55   0.0000      -0.032980        -0.8974
  56   0.0000      -0.013438        -0.3657
  57   0.0000       0.044875         1.2211
  58   0.0000       0.055589         1.5127
  59   0.0000       0.059641         1.6229

MULLIKEN ATOMIC CHARGES
-----------------------
   0 C :   -0.143132
   1 S :    0.088272
   2 C :   -0.146562
   3 C :   -0.053339
   4 C :   -0.041566
   5 C :    0.185272
   6 C :   -0.090120
   7 C :    0.070470
   8 C :   -0.004986
   9 C :    0.167258
  10 C :   -0.026404
  11 C :   -0.039073
  12 C :   -0.011174
  13 C :   -0.033081
  14 H :    0.006966
  15 H :    0.007380
  16 H :    0.016985
  17 H :   -0.015034
  18 H :   -0.016059
  19 H :    0.018975
  20 H :   -0.001583
  21 H :    0.002701
  22 H :   -0.019324
  23 H :   -0.002685
  24 H :    0.010741
  25 H :    0.031906
  26 H :    0.008658
  27 H :   -0.013117
  28 H :    0.021792
  29 H :    0.019864
Sum of atomic charges:    0.0000000

LOEWDIN ATOMIC CHARGES
----------------------
   0 C :   -0.204641
   1 S :    0.419045
   2 C :   -0.207577
   3 C :   -0.070614
   4 C :   -0.064914
   5 C :   -0.017273
   6 C :   -0.020966
   7 C :   -0.047998
   8 C :   -0.016401
   9 C :   -0.016020
  10 C :   -0.021408
  11 C :   -0.044137
  12 C :   -0.019947
  13 C :   -0.058808
  14 H :    0.020318
  15 H :    0.020131
  16 H :    0.032394
  17 H :    0.025852
  18 H :    0.021077
  19 H :    0.023998
  20 H :    0.019345
  21 H :    0.023494
  22 H :    0.024452
  23 H :    0.028861
  24 H :    0.032432
  25 H :    0.026122
  26 H :    0.020642
  27 H :    0.028073
  28 H :    0.019079
  29 H :    0.025390

  Mayer bond orders larger than 0.100000
B(  0-C ,  1-S ) :   1.1571 B(  0-C ,  4-C ) :   1.5534 B(  0-C , 14-H ) :   0.9629
B(  1-S ,  2-C ) :   1.1591 B(  2-C ,  3-C ) :   1.5392 B(  2-C , 15-H ) :   0.9649
B(  3-C ,  4-C ) :   1.2843 B(  3-C ,  9-C ) :   1.0358 B(  4-C ,  5-C ) :   1.0352
B(  5-C ,  6-C ) :   1.0537 B(  5-C , 16-H ) :   0.9051 B(  5-C , 17-H ) :   0.9113
B(  6-C ,  7-C ) :   1.0731 B(  6-C ,  8-C ) :   1.0110 B(  6-C , 18-H ) :   0.9072
B(  7-C , 19-H ) :   0.9610 B(  7-C , 20-H ) :   0.9595 B(  7-C , 21-H ) :   0.9591
B(  8-C ,  9-C ) :   1.0595 B(  8-C , 10-C ) :   1.0023 B(  8-C , 22-H ) :   0.8769
B(  9-C , 23-H ) :   0.9109 B(  9-C , 24-H ) :   0.9058 B( 10-C , 11-C ) :   1.9015
B( 10-C , 12-C ) :   1.0962 B( 11-C , 13-C ) :   0.1188 B( 11-C , 25-H ) :   0.9304
B( 11-C , 26-H ) :   0.9386 B( 12-C , 13-C ) :   1.9065 B( 12-C , 27-H ) :   0.9588
B( 13-C , 28-H ) :   0.9422 B( 13-C , 29-H ) :   0.9471

Dispersion correction           -0.067638482
FINAL SINGLE POINT ENERGY      -902.762243482138

DIPOLE MOMENT
-------------
                                X             Y             Z
Electronic contribution:     16.92484      -0.24447      -0.06834
Nuclear contribution   :    -17.29943       0.26932       0.10479
                        -----------------------------------------
Total Dipole Moment    :     -0.37459       0.02485       0.03645
                        -----------------------------------------
Magnitude (a.u.)       :      0.37718
Magnitude (Debye)      :      0.95872

Rotational constants in cm-1:     0.041492     0.013241     0.011944
Rotational constants in MHz :  1243.907094   396.948180   358.057384

                             ****ORCA TERMINATED NORMALLY****
TOTAL RUN TIME: 0 days 0 hours 19 minutes 6 seconds 17 msec
