                         Program Version 4.2.0 -  RELEASE  -
|  1> # ORCA input file
|  2> # SCF done        -37.089900207283          0.000799748131
|  3> ! B3LYP/G D3BJ Opt RIJCOSX def2-SVP def2/J
|  4> * xyz 0 1
|  5>    C        1.54578        -1.25759         0.05968
|  6>    S        2.77476        -0.06750         0.05574
|  7>    C        1.59139         1.21856         0.04015
|  8>    C        0.31373         0.70375         0.04271
|  9>    C        0.29637        -0.71660         0.04758
| 10>    C       -0.95326        -1.54686        -0.01979
| 11>    C       -1.09795        -2.14248        -1.42526
| 12>    C       -2.17262        -0.70722         0.36843
| 13>    C       -2.15388         0.65289        -0.31943
| 14>    C       -0.95458         1.50371         0.11253
| 15>    C       -1.13766         2.04995         1.53403
| 16>    C        2.13804         2.55180         0.00342
| 17>    C        1.51134         3.72490        -0.05604
| 18>    H        1.81457        -2.29570         0.07065
| 19>    H       -0.85933        -2.38159         0.68541
| 20>    H       -1.14984        -1.35754        -2.17542
| 21>    H       -2.00127        -2.74540        -1.48895
| 22>    H       -0.24329        -2.77354        -1.65664
| 23>    H       -2.18470        -0.56751         1.45067
| 24>    H       -3.08316        -1.24514         0.09658
| 25>    H       -3.07416         1.19399        -0.08870
| 26>    H       -2.11911         0.50981        -1.40117
| 27>    H       -0.88178         2.35082        -0.57759
| 28>    H       -1.21464         1.23630         2.25053
| 29>    H       -2.04142         2.65298         1.59404
| 30>    H       -0.28739         2.66495         1.81753
| 31>    H        3.22176         2.55750         0.01533
| 32>    H        0.44378         3.83615        -0.07695
| 33>    H        2.07977         4.63898        -0.09121
| 34> *
| 35>
| 36>                          ****END OF INPUT****
 Total Charge           Charge          ....    0
 Multiplicity           Mult            ....    1
 Number of Electrons    NEL             ....  104
Dispersion correction           -0.063142690
FINAL SINGLE POINT ENERGY      -864.701776432250
Dispersion correction            ... done
Dispersion correction           -0.062405832
FINAL SINGLE POINT ENERGY      -864.705404516354
Dispersion correction            ... done
Dispersion correction           -0.062343034
FINAL SINGLE POINT ENERGY      -864.705572772906
Dispersion correction            ... done
FINAL SINGLE POINT ENERGY      -864.705479716142
FINAL SINGLE POINT ENERGY      -864.705497270643
FINAL SINGLE POINT ENERGY      -864.705527514541
Dispersion correction            ... done
Dispersion correction           -0.062274377
FINAL SINGLE POINT ENERGY      -864.705498435408
Dispersion correction            ... done
Dispersion correction           -0.062259429
FINAL SINGLE POINT ENERGY      -864.705478674372
Dispersion correction            ... done
                    ***********************HURRAY********************

CARTESIAN COORDINATES (ANGSTROEM)
---------------------------------
  C      1.581894   -1.280986    0.064738
  S      2.803984   -0.073677    0.056933
  C      1.621196    1.216914    0.050114
  C      0.328484    0.695504    0.066325
  C      0.313934   -0.740626    0.058321
  C     -0.954493   -1.566794   -0.037578
  C     -1.098457   -2.192247   -1.437722
  C     -2.187680   -0.724050    0.341330
  C     -2.163723    0.667229   -0.296660
  C     -0.947595    1.507623    0.142844
  C     -1.153453    2.094297    1.553594
  C      2.156196    2.569506   -0.016070
  C      1.519349    3.754542   -0.052314
  H      1.851820   -2.336465    0.063633
  H     -0.871958   -2.399668    0.681490
  H     -1.200284   -1.416768   -2.212784
  H     -1.985478   -2.844732   -1.487998
  H     -0.215236   -2.797222   -1.693548
  H     -2.241307   -0.625613    1.438388
  H     -3.098695   -1.262115    0.031090
  H     -3.084963    1.213754   -0.035213
  H     -2.160154    0.566009   -1.394797
  H     -0.853358    2.352063   -0.559624
  H     -1.352856    1.297163    2.285700
  H     -2.010292    2.787656    1.567069
  H     -0.264018    2.642685    1.895894
  H      3.252067    2.601302   -0.060952
  H      0.435485    3.861096   -0.012227
  H      2.100842    4.675992   -0.132117

 Multiplicity           Mult            ....    1
 Number of Electrons    NEL             ....  104
 Basis Dimension        Dim             ....  266

ORBITAL ENERGIES
----------------

  NO   OCC          E(Eh)            E(eV)
   0   2.0000     -88.866535     -2418.1814
   1   2.0000     -10.210471      -277.8410
   2   2.0000     -10.204049      -277.6663
   3   2.0000     -10.201628      -277.6004
   4   2.0000     -10.195920      -277.4451
   5   2.0000     -10.195274      -277.4275
   6   2.0000     -10.190830      -277.3066
   7   2.0000     -10.189842      -277.2797
   8   2.0000     -10.185171      -277.1526
   9   2.0000     -10.184137      -277.1245
  10   2.0000     -10.183923      -277.1186
  11   2.0000     -10.181289      -277.0470
  12   2.0000     -10.178735      -276.9775
  13   2.0000      -7.961659      -216.6478
  14   2.0000      -5.929556      -161.3514
  15   2.0000      -5.925723      -161.2471
  16   2.0000      -5.923236      -161.1794
  17   2.0000      -0.881040       -23.9743
  18   2.0000      -0.820659       -22.3313
  19   2.0000      -0.789626       -21.4868
  20   2.0000      -0.764005       -20.7896
  21   2.0000      -0.726252       -19.7623
  22   2.0000      -0.696825       -18.9616
  23   2.0000      -0.693382       -18.8679
  24   2.0000      -0.647577       -17.6215
  25   2.0000      -0.604007       -16.4359
  26   2.0000      -0.596110       -16.2210
  27   2.0000      -0.569077       -15.4854
  28   2.0000      -0.537921       -14.6376
  29   2.0000      -0.496426       -13.5085
  30   2.0000      -0.482869       -13.1395
  31   2.0000      -0.472736       -12.8638
  32   2.0000      -0.453048       -12.3281
  33   2.0000      -0.435394       -11.8477
  34   2.0000      -0.433146       -11.7865
  35   2.0000      -0.422118       -11.4864
  36   2.0000      -0.409711       -11.1488
  37   2.0000      -0.404131       -10.9970
  38   2.0000      -0.391131       -10.6432
  39   2.0000      -0.387537       -10.5454
  40   2.0000      -0.375125       -10.2077
  41   2.0000      -0.373201       -10.1553
  42   2.0000      -0.358600        -9.7580
  43   2.0000      -0.352430        -9.5901
  44   2.0000      -0.349326        -9.5056
  45   2.0000      -0.332004        -9.0343
  46   2.0000      -0.320918        -8.7326
  47   2.0000      -0.316981        -8.6255
  48   2.0000      -0.311644        -8.4803
  49   2.0000      -0.293924        -7.9981
  50   2.0000      -0.239595        -6.5197
  51   2.0000      -0.210757        -5.7350
  52   0.0000      -0.041803        -1.1375
  53   0.0000       0.025449         0.6925
  54   0.0000       0.036054         0.9811
  55   0.0000       0.048681         1.3247
  56   0.0000       0.070666         1.9229

MULLIKEN ATOMIC CHARGES
-----------------------
   0 C :   -0.131017
   1 S :    0.099329
   2 C :   -0.171691
   3 C :    0.012128
   4 C :   -0.012352
   5 C :   -0.015861
   6 C :    0.052178
   7 C :    0.059996
   8 C :    0.060203
   9 C :   -0.049921
  10 C :    0.061685
  11 C :    0.042193
  12 C :   -0.047879
  13 H :    0.010230
  14 H :   -0.009821
  15 H :    0.008427
  16 H :    0.007653
  17 H :    0.005882
  18 H :   -0.000114
  19 H :   -0.015128
  20 H :   -0.014684
  21 H :   -0.000841
  22 H :   -0.000845
  23 H :    0.000956
  24 H :    0.006837
  25 H :    0.016585
  26 H :   -0.011218
  27 H :    0.019112
  28 H :    0.017978
Sum of atomic charges:   -0.0000000

LOEWDIN ATOMIC CHARGES
----------------------
   0 C :   -0.201621
   1 S :    0.431646
   2 C :   -0.184604
   3 C :   -0.047613
   4 C :   -0.056424
   5 C :   -0.026521
   6 C :   -0.044319
   7 C :   -0.024516
   8 C :   -0.023176
   9 C :   -0.027682
  10 C :   -0.045389
  11 C :   -0.043320
  12 C :   -0.063847
  13 H :    0.020701
  14 H :    0.027704
  15 H :    0.021497
  16 H :    0.020308
  17 H :    0.021645
  18 H :    0.019699
  19 H :    0.020274
  20 H :    0.020662
  21 H :    0.019881
  22 H :    0.026584
  23 H :    0.020819
  24 H :    0.020883
  25 H :    0.025272
  26 H :    0.027290
  27 H :    0.019140
  28 H :    0.025026

  Mayer bond orders larger than 0.100000
B(  0-C ,  1-S ) :   1.1568 B(  0-C ,  4-C ) :   1.5222 B(  0-C , 13-H ) :   0.9637
B(  1-S ,  2-C ) :   1.1303 B(  2-C ,  3-C ) :   1.4883 B(  2-C , 11-C ) :   1.1241
B(  3-C ,  4-C ) :   1.3185 B(  3-C ,  9-C ) :   1.0186 B(  4-C ,  5-C ) :   0.9920
B(  5-C ,  6-C ) :   1.0764 B(  5-C ,  7-C ) :   1.0609 B(  5-C , 14-H ) :   0.8966
B(  6-C , 15-H ) :   0.9601 B(  6-C , 16-H ) :   0.9615 B(  6-C , 17-H ) :   0.9626
B(  7-C ,  8-C ) :   1.0742 B(  7-C , 18-H ) :   0.9346 B(  7-C , 19-H ) :   0.9287
B(  8-C ,  9-C ) :   1.0574 B(  8-C , 20-H ) :   0.9275 B(  8-C , 21-H ) :   0.9362
B(  9-C , 10-C ) :   1.0782 B(  9-C , 22-H ) :   0.8863 B( 10-C , 23-H ) :   0.9543
B( 10-C , 24-H ) :   0.9610 B( 10-C , 25-H ) :   0.9594 B( 11-C , 12-C ) :   1.9021
B( 11-C , 26-H ) :   0.9383 B( 12-C , 27-H ) :   0.9524 B( 12-C , 28-H ) :   0.9394

Dispersion correction           -0.062257725
FINAL SINGLE POINT ENERGY      -864.705483933306

DIPOLE MOMENT
-------------
                                X             Y             Z
Electronic contribution:     15.84233      -1.89677       0.21406
Nuclear contribution   :    -16.21964       1.71942      -0.23114
                        -----------------------------------------
Total Dipole Moment    :     -0.37731      -0.17735      -0.01708
                        -----------------------------------------
Magnitude (a.u.)       :      0.41726
Magnitude (Debye)      :      1.06059

Rotational constants in cm-1:     0.031821     0.021969     0.014461
Rotational constants in MHz :   953.962607   658.604957   433.522706

                             ****ORCA TERMINATED NORMALLY****
TOTAL RUN TIME: 0 days 0 hours 21 minutes 21 seconds 0 msec
