                         Program Version 4.2.0 -  RELEASE  -
|  1> # ORCA input file
|  2> # SCF done        -66.040357580357          0.000340269094
|  3> ! B3LYP/G D3BJ Opt RIJCOSX def2-SVP def2/J
|  4> * xyz 0 1
|  5>    C       -3.52521        -0.91732        -0.61165
|  6>    C       -3.55873        -1.79978         0.45974
|  7>    C       -2.63526        -1.71653         1.48762
|  8>    C       -1.65107        -0.73430         1.48237
|  9>    C       -1.61723         0.15555         0.43318
| 10>    C       -2.54461         0.05547        -0.60945
| 11>    N       -2.29308         1.04063        -1.55387
| 12>    C       -3.04918         1.23659        -2.76016
| 13>    C       -1.23351         1.82610        -1.19287
| 14>    O       -0.80957         2.75559        -1.83907
| 15>    C       -0.73529         1.33636         0.16593
| 16>    C       -0.92521         2.45498         1.21367
| 17>    C       -0.41423         1.97112         2.57018
| 18>    O        0.71527         1.64935         2.85656
| 19>    N       -1.48133         1.92583         3.42361
| 20>    C       -1.38752         1.47698         4.78551
| 21>    C       -2.64813         2.35969         2.80843
| 22>    C       -3.91671         2.44701         3.33804
| 23>    C       -4.94764         2.92565         2.52165
| 24>    C       -4.65876         3.30625         1.20962
| 25>    C       -3.37787         3.21552         0.68487
| 26>    C       -2.37055         2.73035         1.48766
| 27>    C       -6.32196         3.04667         2.99403
| 28>    C       -6.76397         2.82855         4.22675
| 29>    H       -4.24210        -0.99364        -1.41395
| 30>    H       -4.31703        -2.56801         0.48558
| 31>    H       -2.67784        -2.42343         2.30211
| 32>    H       -0.92466        -0.67804         2.27851
| 33>    H       -2.99589         0.35110        -3.39667
| 34>    H       -2.61250         2.08573        -3.28508
| 35>    H       -4.09446         1.44949        -2.52579
| 36>    H        0.32774         1.08303         0.12393
| 37>    H       -0.37036         3.33569         0.87820
| 38>    H       -0.34777         1.20854         4.97023
| 39>    H       -2.02422         0.60403         4.94508
| 40>    H       -1.68434         2.27078         5.47398
| 41>    H       -4.11171         2.14840         4.35468
| 42>    H       -5.45684         3.68526         0.58780
| 43>    H       -3.17672         3.52604        -0.32916
| 44>    H       -7.02933         3.35655         2.23463
| 45>    H       -6.12046         2.52908         5.03582
| 46>    H       -7.80420         2.94834         4.47594
| 47> *
| 48>
| 49>                          ****END OF INPUT****
 Total Charge           Charge          ....    0
 Multiplicity           Mult            ....    1
 Number of Electrons    NEL             ....  168
Dispersion correction           -0.105303701
FINAL SINGLE POINT ENERGY     -1032.310746317115
Dispersion correction            ... done
Dispersion correction           -0.103751971
FINAL SINGLE POINT ENERGY     -1032.316588617904
Dispersion correction            ... done
Dispersion correction           -0.103644579
FINAL SINGLE POINT ENERGY     -1032.316993483710
Dispersion correction            ... done
FINAL SINGLE POINT ENERGY     -1032.316935282371
FINAL SINGLE POINT ENERGY     -1032.316981193608
FINAL SINGLE POINT ENERGY     -1032.316892284017
FINAL SINGLE POINT ENERGY     -1032.316998568194
FINAL SINGLE POINT ENERGY     -1032.317008000495
FINAL SINGLE POINT ENERGY     -1032.316987887606
Dispersion correction            ... done
Dispersion correction           -0.103364843
FINAL SINGLE POINT ENERGY     -1032.316977681827
Dispersion correction            ... done
Dispersion correction           -0.103266412
FINAL SINGLE POINT ENERGY     -1032.316972355832
Dispersion correction            ... done
                    ***********************HURRAY********************

CARTESIAN COORDINATES (ANGSTROEM)
---------------------------------
  C     -3.407350   -1.122928   -0.572892
  C     -3.314334   -2.052030    0.475954
  C     -2.341043   -1.925174    1.470810
  C     -1.433836   -0.851243    1.446693
  C     -1.528183    0.085827    0.425267
  C     -2.503211   -0.063464   -0.579500
  N     -2.382801    0.974864   -1.514492
  C     -3.251380    1.183151   -2.646386
  C     -1.362732    1.847379   -1.176041
  O     -1.067148    2.853519   -1.786784
  C     -0.752462    1.349720    0.143720
  C     -0.914064    2.458831    1.217565
  C     -0.438045    1.913039    2.573065
  O      0.669399    1.499035    2.842848
  N     -1.535003    1.904163    3.421911
  C     -1.505413    1.371980    4.761994
  C     -2.670160    2.441159    2.799463
  C     -3.941957    2.602874    3.327528
  C     -4.936945    3.200585    2.519984
  C     -4.597906    3.641592    1.228724
  C     -3.308244    3.460560    0.704512
  C     -2.346607    2.840586    1.487798
  C     -6.322038    3.367284    2.988460
  C     -6.878841    2.803912    4.070409
  H     -4.163080   -1.235438   -1.352792
  H     -4.011655   -2.893022    0.506530
  H     -2.280114   -2.667019    2.270712
  H     -0.661637   -0.759065    2.213383
  H     -3.254274    0.302236   -3.308772
  H     -2.872087    2.051947   -3.200748
  H     -4.284334    1.386426   -2.315842
  H      0.325808    1.163117    0.012184
  H     -0.289293    3.313188    0.913234
  H     -0.491380    0.995714    4.950703
  H     -2.226222    0.544653    4.870098
  H     -1.751136    2.149225    5.503884
  H     -4.168893    2.283892    4.344581
  H     -5.363505    4.125505    0.617885
  H     -3.060513    3.810927   -0.298798
  H     -6.946896    4.007038    2.354908
  H     -6.323077    2.134755    4.732819
  H     -7.921448    2.995949    4.333609

 Multiplicity           Mult            ....    1
 Number of Electrons    NEL             ....  168
 Basis Dimension        Dim             ....  426

ORBITAL ENERGIES
----------------

  NO   OCC          E(Eh)            E(eV)
   0   2.0000     -19.116881      -520.1968
   1   2.0000     -19.116440      -520.1848
   2   2.0000     -14.378677      -391.2637
   3   2.0000     -14.378221      -391.2513
   4   2.0000     -10.295706      -280.1604
   5   2.0000     -10.295157      -280.1455
   6   2.0000     -10.237308      -278.5713
   7   2.0000     -10.237273      -278.5704
   8   2.0000     -10.235060      -278.5101
   9   2.0000     -10.234647      -278.4989
  10   2.0000     -10.219677      -278.0915
  11   2.0000     -10.219272      -278.0805
  12   2.0000     -10.206502      -277.7330
  13   2.0000     -10.200818      -277.5784
  14   2.0000     -10.200697      -277.5751
  15   2.0000     -10.200658      -277.5740
  16   2.0000     -10.200348      -277.5656
  17   2.0000     -10.200307      -277.5645
  18   2.0000     -10.199775      -277.5500
  19   2.0000     -10.199450      -277.5411
  20   2.0000     -10.198171      -277.5063
  21   2.0000     -10.193759      -277.3863
  22   2.0000     -10.193514      -277.3796
  23   2.0000     -10.192474      -277.3513
  24   2.0000      -1.045442       -28.4479
  25   2.0000      -1.043267       -28.3887
  26   2.0000      -0.967972       -26.3399
  27   2.0000      -0.966131       -26.2898
  28   2.0000      -0.861396       -23.4398
  29   2.0000      -0.853280       -23.2189
  30   2.0000      -0.828382       -22.5414
  31   2.0000      -0.793943       -21.6043
  32   2.0000      -0.767795       -20.8928
  33   2.0000      -0.751783       -20.4571
  34   2.0000      -0.749690       -20.4001
  35   2.0000      -0.722510       -19.6605
  36   2.0000      -0.712879       -19.3984
  37   2.0000      -0.708967       -19.2920
  38   2.0000      -0.668660       -18.1952
  39   2.0000      -0.623597       -16.9689
  40   2.0000      -0.621521       -16.9124
  41   2.0000      -0.612136       -16.6571
  42   2.0000      -0.595404       -16.2018
  43   2.0000      -0.581041       -15.8109
  44   2.0000      -0.567063       -15.4306
  45   2.0000      -0.541321       -14.7301
  46   2.0000      -0.531365       -14.4592
  47   2.0000      -0.521296       -14.1852
  48   2.0000      -0.508149       -13.8274
  49   2.0000      -0.503840       -13.7102
  50   2.0000      -0.488927       -13.3044
  51   2.0000      -0.480367       -13.0715
  52   2.0000      -0.469180       -12.7670
  53   2.0000      -0.464592       -12.6422
  54   2.0000      -0.461559       -12.5597
  55   2.0000      -0.456760       -12.4291
  56   2.0000      -0.451176       -12.2771
  57   2.0000      -0.447724       -12.1832
  58   2.0000      -0.445345       -12.1184
  59   2.0000      -0.437522       -11.9056
  60   2.0000      -0.428352       -11.6561
  61   2.0000      -0.420567       -11.4442
  62   2.0000      -0.412946       -11.2368
  63   2.0000      -0.405310       -11.0290
  64   2.0000      -0.401554       -10.9268
  65   2.0000      -0.401216       -10.9177
  66   2.0000      -0.393865       -10.7176
  67   2.0000      -0.385741       -10.4966
  68   2.0000      -0.384368       -10.4592
  69   2.0000      -0.380380       -10.3507
  70   2.0000      -0.373939       -10.1754
  71   2.0000      -0.372372       -10.1328
  72   2.0000      -0.359312        -9.7774
  73   2.0000      -0.349833        -9.5194
  74   2.0000      -0.342770        -9.3272
  75   2.0000      -0.326674        -8.8893
  76   2.0000      -0.310950        -8.4614
  77   2.0000      -0.292152        -7.9498
  78   2.0000      -0.274652        -7.4737
  79   2.0000      -0.265105        -7.2139
  80   2.0000      -0.262460        -7.1419
  81   2.0000      -0.244357        -6.6493
  82   2.0000      -0.223919        -6.0931
  83   2.0000      -0.220628        -6.0036
  84   0.0000      -0.050188        -1.3657
  85   0.0000      -0.029258        -0.7962
  86   0.0000      -0.016811        -0.4574
  87   0.0000      -0.013250        -0.3606
  88   0.0000       0.003843         0.1046

MULLIKEN ATOMIC CHARGES
-----------------------
   0 C :   -0.088310
   1 C :    0.029601
   2 C :    0.021327
   3 C :   -0.046605
   4 C :   -0.038613
   5 C :    0.198369
   6 N :   -0.250876
   7 C :    0.118424
   8 C :    0.138351
   9 O :   -0.217393
  10 C :    0.045507
  11 C :    0.046488
  12 C :    0.138898
  13 O :   -0.217555
  14 N :   -0.256152
  15 C :    0.129843
  16 C :    0.213869
  17 C :   -0.121156
  18 C :    0.111621
  19 C :   -0.024640
  20 C :   -0.035901
  21 C :   -0.043973
  22 C :   -0.012265
  23 C :   -0.020826
  24 H :   -0.033975
  25 H :   -0.012908
  26 H :   -0.017081
  27 H :   -0.007082
  28 H :    0.035059
  29 H :    0.052092
  30 H :    0.031535
  31 H :    0.047047
  32 H :    0.044788
  33 H :    0.048432
  34 H :    0.030364
  35 H :    0.032883
  36 H :   -0.051825
  37 H :   -0.029837
  38 H :   -0.012092
  39 H :   -0.012208
  40 H :    0.013483
  41 H :    0.023291
Sum of atomic charges:    0.0000000

LOEWDIN ATOMIC CHARGES
----------------------
   0 C :   -0.061336
   1 C :   -0.013704
   2 C :   -0.043420
   3 C :   -0.018317
   4 C :   -0.040712
   5 C :    0.035924
   6 N :   -0.013639
   7 C :    0.033281
   8 C :    0.081701
   9 O :   -0.199735
  10 C :   -0.019226
  11 C :   -0.019337
  12 C :    0.082217
  13 O :   -0.197462
  14 N :   -0.014765
  15 C :    0.034426
  16 C :    0.037117
  17 C :   -0.050146
  18 C :   -0.015909
  19 C :   -0.034636
  20 C :   -0.016058
  21 C :   -0.039317
  22 C :   -0.019743
  23 C :   -0.049011
  24 H :    0.027511
  25 H :    0.028759
  26 H :    0.026775
  27 H :    0.032140
  28 H :    0.027062
  29 H :    0.038271
  30 H :    0.025913
  31 H :    0.054928
  32 H :    0.053963
  33 H :    0.037603
  34 H :    0.025911
  35 H :    0.026961
  36 H :    0.024348
  37 H :    0.024591
  38 H :    0.032490
  39 H :    0.028555
  40 H :    0.019185
  41 H :    0.026836

  Mayer bond orders larger than 0.100000
B(  0-C ,  1-C ) :   1.3317 B(  0-C ,  5-C ) :   1.3717 B(  0-C , 24-H ) :   0.9961
B(  1-C ,  2-C ) :   1.4075 B(  1-C , 25-H ) :   0.9789 B(  2-C ,  3-C ) :   1.3146
B(  2-C , 26-H ) :   0.9831 B(  3-C ,  4-C ) :   1.4562 B(  3-C , 27-H ) :   0.9838
B(  4-C ,  5-C ) :   1.3456 B(  4-C , 10-C ) :   0.9546 B(  5-C ,  6-N ) :   1.0327
B(  6-N ,  7-C ) :   0.9754 B(  6-N ,  8-C ) :   1.1336 B(  7-C , 28-H ) :   0.9683
B(  7-C , 29-H ) :   0.9562 B(  7-C , 30-H ) :   0.9677 B(  8-C ,  9-O ) :   2.0989
B(  8-C , 10-C ) :   0.9226 B( 10-C , 11-C ) :   1.0257 B( 10-C , 31-H ) :   0.8693
B( 11-C , 12-C ) :   0.9244 B( 11-C , 21-C ) :   0.9503 B( 11-C , 32-H ) :   0.8737
B( 12-C , 13-O ) :   2.1052 B( 12-C , 14-N ) :   1.1239 B( 14-N , 15-C ) :   0.9775
B( 14-N , 16-C ) :   1.0301 B( 15-C , 33-H ) :   0.9564 B( 15-C , 34-H ) :   0.9660
B( 15-C , 35-H ) :   0.9679 B( 16-C , 17-C ) :   1.3816 B( 16-C , 21-C ) :   1.3330
B( 17-C , 18-C ) :   1.2711 B( 17-C , 36-H ) :   0.9882 B( 18-C , 19-C ) :   1.3737
B( 18-C , 22-C ) :   1.0733 B( 19-C , 20-C ) :   1.3009 B( 19-C , 37-H ) :   0.9852
B( 20-C , 21-C ) :   1.4523 B( 20-C , 38-H ) :   0.9828 B( 22-C , 23-C ) :   1.9274
B( 22-C , 39-H ) :   0.9621 B( 23-C , 40-H ) :   0.9449 B( 23-C , 41-H ) :   0.9449

Dispersion correction           -0.103258925
FINAL SINGLE POINT ENERGY     -1032.316977248100

DIPOLE MOMENT
-------------
                                X             Y             Z
Electronic contribution:     11.24531       2.36543      -4.37579
Nuclear contribution   :    -12.73660      -3.02771       4.69150
                        -----------------------------------------
Total Dipole Moment    :     -1.49128      -0.66228       0.31571
                        -----------------------------------------
Magnitude (a.u.)       :      1.66199
Magnitude (Debye)      :      4.22445

Rotational constants in cm-1:     0.010231     0.007480     0.006659
Rotational constants in MHz :   306.705413   224.257453   199.625240

                             ****ORCA TERMINATED NORMALLY****
TOTAL RUN TIME: 0 days 1 hours 16 minutes 53 seconds 493 msec
