                         Program Version 4.2.0 -  RELEASE  -
|  1> # ORCA input file
|  2> # SCF done        -22.015991499315          0.000386879363
|  3> ! B3LYP/G D3BJ Opt RIJCOSX def2-SVP def2/J
|  4> * xyz 0 1
|  5>    C        1.46037        -0.69820         0.20889
|  6>    C        1.42614         0.76428         0.16378
|  7>    C        0.20111         1.18126        -0.17496
|  8>    C       -0.65981        -0.01617        -0.37675
|  9>    O       -1.82402        -0.02813        -0.68490
| 10>    C        0.24876        -1.20187        -0.10458
| 11>    C       -0.13005        -2.58545        -0.17392
| 12>    C       -1.34234        -3.02885        -0.50713
| 13>    H        2.34317        -1.25947         0.45907
| 14>    H        2.28437         1.37671         0.37861
| 15>    H       -0.15747         2.18529        -0.29492
| 16>    H        0.66013        -3.28739         0.06869
| 17>    H       -2.14196        -2.35239        -0.75262
| 18>    H       -1.56388        -4.08182        -0.54201
| 19> *
| 20>
| 21>                          ****END OF INPUT****
 Total Charge           Charge          ....    0
 Multiplicity           Mult            ....    1
 Number of Electrons    NEL             ....   56
Dispersion correction           -0.023546034
FINAL SINGLE POINT ENERGY      -345.281889483908
Dispersion correction            ... done
Dispersion correction           -0.023386867
FINAL SINGLE POINT ENERGY      -345.284298791563
Dispersion correction            ... done
Dispersion correction           -0.023378277
FINAL SINGLE POINT ENERGY      -345.284359380525
Dispersion correction            ... done
FINAL SINGLE POINT ENERGY      -345.284347266785
Dispersion correction            ... done
Dispersion correction           -0.023382911
FINAL SINGLE POINT ENERGY      -345.284374394768
Dispersion correction            ... done
Dispersion correction           -0.023384478
FINAL SINGLE POINT ENERGY      -345.284374596823
Dispersion correction            ... done
                    ***********************HURRAY********************

CARTESIAN COORDINATES (ANGSTROEM)
---------------------------------
  C      1.469477   -0.700150    0.212038
  C      1.432787    0.787171    0.175612
  C      0.204520    1.214895   -0.173682
  C     -0.648873   -0.002440   -0.393360
  O     -1.811251   -0.020445   -0.726051
  C      0.256865   -1.209769   -0.115970
  C     -0.133264   -2.601434   -0.193961
  C     -1.365056   -3.054918   -0.491671
  H      2.355965   -1.278526    0.476806
  H      2.294362    1.414498    0.408744
  H     -0.163672    2.231681   -0.297454
  H      0.666632   -3.319904    0.021024
  H     -2.181447   -2.365624   -0.709602
  H     -1.572525   -4.127233   -0.525223

 Multiplicity           Mult            ....    1
 Number of Electrons    NEL             ....   56
 Basis Dimension        Dim             ....  142

ORBITAL ENERGIES
----------------

  NO   OCC          E(Eh)            E(eV)
   0   2.0000     -19.147992      -521.0434
   1   2.0000     -10.285956      -279.8951
   2   2.0000     -10.221783      -278.1489
   3   2.0000     -10.212988      -277.9095
   4   2.0000     -10.205943      -277.7178
   5   2.0000     -10.202479      -277.6236
   6   2.0000     -10.198571      -277.5172
   7   2.0000     -10.191152      -277.3153
   8   2.0000      -1.048828       -28.5401
   9   2.0000      -0.868178       -23.6243
  10   2.0000      -0.784499       -21.3473
  11   2.0000      -0.713867       -19.4253
  12   2.0000      -0.665524       -18.1098
  13   2.0000      -0.597393       -16.2559
  14   2.0000      -0.564000       -15.3472
  15   2.0000      -0.513350       -13.9690
  16   2.0000      -0.503123       -13.6907
  17   2.0000      -0.460764       -12.5380
  18   2.0000      -0.432328       -11.7642
  19   2.0000      -0.431344       -11.7375
  20   2.0000      -0.429484       -11.6869
  21   2.0000      -0.413918       -11.2633
  22   2.0000      -0.392476       -10.6798
  23   2.0000      -0.370974       -10.0947
  24   2.0000      -0.346821        -9.4375
  25   2.0000      -0.305496        -8.3130
  26   2.0000      -0.263664        -7.1747
  27   2.0000      -0.226545        -6.1646
  28   0.0000      -0.111248        -3.0272
  29   0.0000      -0.009977        -0.2715
  30   0.0000       0.056543         1.5386
  31   0.0000       0.067583         1.8390
  32   0.0000       0.081387         2.2147

MULLIKEN ATOMIC CHARGES
-----------------------
   0 C :   -0.033215
   1 C :    0.055173
   2 C :   -0.031212
   3 C :    0.134794
   4 O :   -0.141843
   5 C :   -0.001092
   6 C :   -0.013168
   7 C :   -0.010448
   8 H :   -0.006991
   9 H :    0.004658
  10 H :   -0.003879
  11 H :   -0.018297
  12 H :    0.043331
  13 H :    0.022188
Sum of atomic charges:    0.0000000

LOEWDIN ATOMIC CHARGES
----------------------
   0 C :   -0.011358
   1 C :    0.018788
   2 C :   -0.065188
   3 C :    0.099892
   4 O :   -0.100235
   5 C :   -0.057311
   6 C :   -0.031974
   7 C :   -0.023333
   8 H :    0.026331
   9 H :    0.030017
  10 H :    0.031527
  11 H :    0.028877
  12 H :    0.028757
  13 H :    0.025210

  Mayer bond orders larger than 0.100000
B(  0-C ,  1-C ) :   1.0091 B(  0-C ,  5-C ) :   1.6636 B(  0-C ,  7-C ) :   0.1215
B(  0-C ,  8-H ) :   0.9947 B(  1-C ,  2-C ) :   1.7056 B(  1-C ,  9-H ) :   0.9924
B(  2-C ,  3-C ) :   0.9863 B(  2-C , 10-H ) :   1.0079 B(  3-C ,  4-O ) :   2.1408
B(  3-C ,  5-C ) :   0.8997 B(  5-C ,  6-C ) :   1.1496 B(  6-C ,  7-C ) :   1.8772
B(  6-C , 11-H ) :   0.9582 B(  7-C , 12-H ) :   0.9386 B(  7-C , 13-H ) :   0.9444

Dispersion correction           -0.023384868
FINAL SINGLE POINT ENERGY      -345.284373173113

DIPOLE MOMENT
-------------
                                X             Y             Z
Electronic contribution:     -0.98311       2.98954      -0.39028
Nuclear contribution   :      1.97508      -3.01285       0.68017
                        -----------------------------------------
Total Dipole Moment    :      0.99197      -0.02330       0.28989
                        -----------------------------------------
Magnitude (a.u.)       :      1.03372
Magnitude (Debye)      :      2.62751

Rotational constants in cm-1:     0.130386     0.064145     0.042997
Rotational constants in MHz :  3908.859667  1923.021691  1289.023687

                             ****ORCA TERMINATED NORMALLY****
TOTAL RUN TIME: 0 days 0 hours 4 minutes 48 seconds 748 msec
