                         Program Version 4.2.0 -  RELEASE  -
|  1> # ORCA input file
|  2> # SCF done        -34.508615739492          0.000613158065
|  3> ! B3LYP/G D3BJ Opt RIJCOSX def2-SVP def2/J
|  4> * xyz 0 1
|  5>    C        1.53633         1.18603        -0.23476
|  6>    S        2.72648        -0.03645        -0.04343
|  7>    C        1.50912        -1.22530         0.18464
|  8>    C        0.25598        -0.70273         0.11642
|  9>    C        0.27156         0.69872        -0.12912
| 10>    C       -0.97703         1.50850        -0.29773
| 11>    C       -2.20016         0.76010         0.25577
| 12>    C       -2.17891         0.77027         1.70064
| 13>    N       -2.15767         0.77512         2.84314
| 14>    C       -2.21465        -0.70310        -0.24685
| 15>    C       -2.17852        -0.71534        -1.69142
| 16>    N       -2.14096        -0.72192        -2.83327
| 17>    C       -1.01104        -1.47571         0.31560
| 18>    H        1.83958         2.19710        -0.41969
| 19>    H        1.78943        -2.24477         0.35957
| 20>    H       -1.13944         1.70072        -1.36373
| 21>    H       -0.87180         2.47507         0.20147
| 22>    H       -3.11626         1.27006        -0.06853
| 23>    H       -3.14414        -1.19240         0.07072
| 24>    H       -0.93630        -2.45583        -0.16226
| 25>    H       -1.17078        -1.63845         1.38699
| 26> *
| 27>
| 28>                          ****END OF INPUT****
 Total Charge           Charge          ....    0
 Multiplicity           Mult            ....    1
 Number of Electrons    NEL             ....   98
Dispersion correction           -0.051010440
FINAL SINGLE POINT ENERGY      -893.106922778052
Dispersion correction            ... done
Dispersion correction           -0.050249996
FINAL SINGLE POINT ENERGY      -893.111030691430
Dispersion correction            ... done
Dispersion correction           -0.050025323
FINAL SINGLE POINT ENERGY      -893.111240424005
Dispersion correction            ... done
FINAL SINGLE POINT ENERGY      -893.111247070646
Dispersion correction            ... done
Dispersion correction           -0.049924882
FINAL SINGLE POINT ENERGY      -893.111228799544
Dispersion correction            ... done
Dispersion correction           -0.049948711
FINAL SINGLE POINT ENERGY      -893.111255601878
Dispersion correction            ... done
                    ***********************HURRAY********************

CARTESIAN COORDINATES (ANGSTROEM)
---------------------------------
  C      1.590408    1.211728   -0.162496
  S      2.779042   -0.033095   -0.025452
  C      1.561707   -1.247402    0.129051
  C      0.295651   -0.714748    0.087380
  C      0.311947    0.711347   -0.100962
  C     -0.949179    1.512106   -0.294639
  C     -2.192737    0.770596    0.243709
  C     -2.256835    0.814561    1.708944
  N     -2.300210    0.845501    2.865937
  C     -2.211185   -0.714416   -0.235619
  C     -2.281578   -0.756701   -1.700580
  N     -2.326177   -0.785785   -2.857567
  C     -0.982472   -1.483259    0.297584
  H      1.895083    2.246559   -0.311034
  H      1.842670   -2.289556    0.272916
  H     -1.114244    1.687999   -1.370922
  H     -0.871634    2.500097    0.181466
  H     -3.097569    1.271396   -0.135848
  H     -3.125633   -1.194274    0.148017
  H     -0.933083   -2.475942   -0.172227
  H     -1.143155   -1.647022    1.376512

 Multiplicity           Mult            ....    1
 Number of Electrons    NEL             ....   98
 Basis Dimension        Dim             ....  226

ORBITAL ENERGIES
----------------

  NO   OCC          E(Eh)            E(eV)
   0   2.0000     -88.884278     -2418.6642
   1   2.0000     -14.341815      -390.2606
   2   2.0000     -14.341788      -390.2599
   3   2.0000     -10.268718      -279.4260
   4   2.0000     -10.268623      -279.4234
   5   2.0000     -10.240676      -278.6630
   6   2.0000     -10.240607      -278.6611
   7   2.0000     -10.228057      -278.3196
   8   2.0000     -10.227988      -278.3177
   9   2.0000     -10.220497      -278.1139
  10   2.0000     -10.220446      -278.1125
  11   2.0000     -10.211647      -277.8730
  12   2.0000     -10.211419      -277.8668
  13   2.0000      -7.979322      -217.1284
  14   2.0000      -5.947363      -161.8360
  15   2.0000      -5.943212      -161.7230
  16   2.0000      -5.940915      -161.6605
  17   2.0000      -0.923497       -25.1296
  18   2.0000      -0.910808       -24.7843
  19   2.0000      -0.896636       -24.3987
  20   2.0000      -0.861653       -23.4468
  21   2.0000      -0.796815       -21.6824
  22   2.0000      -0.766126       -20.8473
  23   2.0000      -0.728197       -19.8153
  24   2.0000      -0.669577       -18.2201
  25   2.0000      -0.667916       -18.1749
  26   2.0000      -0.587802       -15.9949
  27   2.0000      -0.567904       -15.4535
  28   2.0000      -0.530414       -14.4333
  29   2.0000      -0.524661       -14.2768
  30   2.0000      -0.504900       -13.7390
  31   2.0000      -0.479559       -13.0495
  32   2.0000      -0.456527       -12.4227
  33   2.0000      -0.447532       -12.1780
  34   2.0000      -0.438346       -11.9280
  35   2.0000      -0.424160       -11.5420
  36   2.0000      -0.417645       -11.3647
  37   2.0000      -0.387603       -10.5472
  38   2.0000      -0.378942       -10.3115
  39   2.0000      -0.376985       -10.2583
  40   2.0000      -0.373717       -10.1694
  41   2.0000      -0.368973       -10.0403
  42   2.0000      -0.359434        -9.7807
  43   2.0000      -0.359025        -9.7696
  44   2.0000      -0.344121        -9.3640
  45   2.0000      -0.339838        -9.2475
  46   2.0000      -0.333893        -9.0857
  47   2.0000      -0.257673        -7.0116
  48   2.0000      -0.248217        -6.7543
  49   0.0000      -0.037364        -1.0167
  50   0.0000      -0.000490        -0.0133
  51   0.0000       0.006855         0.1865
  52   0.0000       0.009340         0.2542
  53   0.0000       0.027997         0.7618

MULLIKEN ATOMIC CHARGES
-----------------------
   0 C :   -0.135654
   1 S :    0.114971
   2 C :   -0.135872
   3 C :   -0.031418
   4 C :   -0.031746
   5 C :    0.169829
   6 C :   -0.090829
   7 C :   -0.199059
   8 N :    0.093488
   9 C :   -0.091980
  10 C :   -0.198402
  11 N :    0.093740
  12 C :    0.170912
  13 H :    0.018156
  14 H :    0.018311
  15 H :    0.048044
  16 H :    0.024716
  17 H :    0.045523
  18 H :    0.044923
  19 H :    0.024114
  20 H :    0.048236
Sum of atomic charges:   -0.0000000

LOEWDIN ATOMIC CHARGES
----------------------
   0 C :   -0.193333
   1 S :    0.446237
   2 C :   -0.193519
   3 C :   -0.070818
   4 C :   -0.070860
   5 C :   -0.001847
   6 C :   -0.032190
   7 C :   -0.031654
   8 N :   -0.062317
   9 C :   -0.032292
  10 C :   -0.031627
  11 N :   -0.062204
  12 C :   -0.001721
  13 H :    0.025294
  14 H :    0.025352
  15 H :    0.044548
  16 H :    0.040751
  17 H :    0.058608
  18 H :    0.058462
  19 H :    0.040605
  20 H :    0.044523

  Mayer bond orders larger than 0.100000
B(  0-C ,  1-S ) :   1.1723 B(  0-C ,  4-C ) :   1.5528 B(  0-C , 13-H ) :   0.9651
B(  1-S ,  2-C ) :   1.1722 B(  2-C ,  3-C ) :   1.5529 B(  2-C , 14-H ) :   0.9649
B(  3-C ,  4-C ) :   1.2922 B(  3-C , 12-C ) :   1.0276 B(  4-C ,  5-C ) :   1.0277
B(  5-C ,  6-C ) :   1.0555 B(  5-C , 15-H ) :   0.9086 B(  5-C , 16-H ) :   0.9181
B(  6-C ,  7-C ) :   1.0988 B(  6-C ,  9-C ) :   1.0652 B(  6-C , 17-H ) :   0.8622
B(  7-C ,  8-N ) :   3.0706 B(  9-C , 10-C ) :   1.0985 B(  9-C , 12-C ) :   1.0556
B(  9-C , 18-H ) :   0.8619 B( 10-C , 11-N ) :   3.0707 B( 12-C , 19-H ) :   0.9179
B( 12-C , 20-H ) :   0.9087

Dispersion correction           -0.049957940
FINAL SINGLE POINT ENERGY      -893.111259015653

DIPOLE MOMENT
-------------
                                X             Y             Z
Electronic contribution:      3.76429      -0.05160      -0.03264
Nuclear contribution   :     -3.55377       0.04977       0.03179
                        -----------------------------------------
Total Dipole Moment    :      0.21052      -0.00183      -0.00085
                        -----------------------------------------
Magnitude (a.u.)       :      0.21053
Magnitude (Debye)      :      0.53514

Rotational constants in cm-1:     0.034531     0.019363     0.015688
Rotational constants in MHz :  1035.223137   580.488742   470.310673

                             ****ORCA TERMINATED NORMALLY****
TOTAL RUN TIME: 0 days 0 hours 12 minutes 24 seconds 656 msec
