                         Program Version 4.2.0 -  RELEASE  -
|  1> # ORCA input file
|  2> # SCF done        -23.920868550564          0.000066985600
|  3> ! B3LYP/G D3BJ Opt RIJCOSX def2-SVP def2/J
|  4> * xyz 0 1
|  5>    C        0.98648         1.34371        -0.00259
|  6>    C       -0.28937         0.71941         0.08024
|  7>    C       -1.55907         1.23723         0.16266
|  8>    S       -2.73495         0.00000         0.23898
|  9>    C       -1.55907        -1.23723         0.16266
| 10>    C       -0.28937        -0.71941         0.08024
| 11>    C        0.98648        -1.34371        -0.00259
| 12>    N        2.08672        -0.66665        -0.07407
| 13>    N        2.08672         0.66665        -0.07407
| 14>    H        1.08058         2.42094        -0.00872
| 15>    H       -1.85746         2.26601         0.18204
| 16>    H       -1.85746        -2.26601         0.18204
| 17>    H        1.08058        -2.42094        -0.00872
| 18> *
| 19>
| 20>                          ****END OF INPUT****
 Total Charge           Charge          ....    0
 Multiplicity           Mult            ....    1
 Number of Electrons    NEL             ....   70
Dispersion correction           -0.028924053
FINAL SINGLE POINT ENERGY      -738.346427870556
Dispersion correction            ... done
Dispersion correction           -0.028853836
FINAL SINGLE POINT ENERGY      -738.349050285467
Dispersion correction            ... done
Dispersion correction           -0.028840824
FINAL SINGLE POINT ENERGY      -738.349224209276
Dispersion correction            ... done
Dispersion correction           -0.028833860
FINAL SINGLE POINT ENERGY      -738.349207151646
Dispersion correction            ... done
Dispersion correction           -0.028836281
FINAL SINGLE POINT ENERGY      -738.349264732621
Dispersion correction            ... done
                    ***********************HURRAY********************

CARTESIAN COORDINATES (ANGSTROEM)
---------------------------------
  C      0.992854    1.351567   -0.003021
  C     -0.290238    0.720546    0.080761
  C     -1.570084    1.251659    0.164744
  S     -2.740645   -0.000005    0.242660
  C     -1.570084   -1.251662    0.164747
  C     -0.290238   -0.720544    0.080764
  C      0.992852   -1.351565   -0.003019
  N      2.112956   -0.686157   -0.076134
  N      2.112957    0.686158   -0.076135
  H      1.079001    2.444804   -0.008007
  H     -1.873757    2.296855    0.179375
  H     -1.873760   -2.296855    0.179372
  H      1.078995   -2.444802   -0.008007

 Multiplicity           Mult            ....    1
 Number of Electrons    NEL             ....   70
 Basis Dimension        Dim             ....  150

ORBITAL ENERGIES
----------------

  NO   OCC          E(Eh)            E(eV)
   0   2.0000     -88.913019     -2419.4462
   1   2.0000     -14.347117      -390.4049
   2   2.0000     -14.346971      -390.4009
   3   2.0000     -10.241041      -278.6729
   4   2.0000     -10.240979      -278.6712
   5   2.0000     -10.238698      -278.6091
   6   2.0000     -10.238619      -278.6070
   7   2.0000     -10.223544      -278.1968
   8   2.0000     -10.223363      -278.1918
   9   2.0000      -8.007549      -217.8965
  10   2.0000      -5.975151      -162.5921
  11   2.0000      -5.970942      -162.4776
  12   2.0000      -5.970183      -162.4570
  13   2.0000      -0.996915       -27.1274
  14   2.0000      -0.910466       -24.7750
  15   2.0000      -0.831812       -22.6348
  16   2.0000      -0.788170       -21.4472
  17   2.0000      -0.747254       -20.3338
  18   2.0000      -0.662689       -18.0327
  19   2.0000      -0.619410       -16.8550
  20   2.0000      -0.600257       -16.3338
  21   2.0000      -0.551221       -14.9995
  22   2.0000      -0.500597       -13.6219
  23   2.0000      -0.496147       -13.5009
  24   2.0000      -0.451002       -12.2724
  25   2.0000      -0.441825       -12.0227
  26   2.0000      -0.435962       -11.8631
  27   2.0000      -0.404103       -10.9962
  28   2.0000      -0.390067       -10.6143
  29   2.0000      -0.384823       -10.4716
  30   2.0000      -0.321883        -8.7589
  31   2.0000      -0.297754        -8.1023
  32   2.0000      -0.290307        -7.8996
  33   2.0000      -0.245071        -6.6687
  34   2.0000      -0.232367        -6.3230
  35   0.0000      -0.086729        -2.3600
  36   0.0000      -0.019057        -0.5186
  37   0.0000       0.004640         0.1263
  38   0.0000       0.025668         0.6985
  39   0.0000       0.059737         1.6255

MULLIKEN ATOMIC CHARGES
-----------------------
   0 C :    0.022352
   1 C :    0.063923
   2 C :   -0.123505
   3 S :    0.162214
   4 C :   -0.123504
   5 C :    0.063934
   6 C :    0.022347
   7 N :   -0.078237
   8 N :   -0.078235
   9 H :    0.000521
  10 H :    0.033835
  11 H :    0.033835
  12 H :    0.000520
Sum of atomic charges:    0.0000000

LOEWDIN ATOMIC CHARGES
----------------------
   0 C :    0.012274
   1 C :   -0.074365
   2 C :   -0.191267
   3 S :    0.509040
   4 C :   -0.191268
   5 C :   -0.074365
   6 C :    0.012274
   7 N :   -0.060567
   8 N :   -0.060567
   9 H :    0.027774
  10 H :    0.031631
  11 H :    0.031631
  12 H :    0.027774

  Mayer bond orders larger than 0.100000
B(  0-C ,  1-C ) :   1.1145 B(  0-C ,  8-N ) :   1.7760 B(  0-C ,  9-H ) :   0.9866
B(  1-C ,  2-C ) :   1.4082 B(  1-C ,  5-C ) :   1.2336 B(  2-C ,  3-S ) :   1.2215
B(  2-C ,  4-C ) :   0.1110 B(  2-C , 10-H ) :   0.9663 B(  3-S ,  4-C ) :   1.2215
B(  4-C ,  5-C ) :   1.4082 B(  4-C , 11-H ) :   0.9663 B(  5-C ,  6-C ) :   1.1145
B(  6-C ,  7-N ) :   1.7760 B(  6-C , 12-H ) :   0.9866 B(  7-N ,  8-N ) :   1.1139

Dispersion correction           -0.028836555
FINAL SINGLE POINT ENERGY      -738.349265798544

DIPOLE MOMENT
-------------
                                X             Y             Z
Electronic contribution:     -1.93245      -0.00001       0.13374
Nuclear contribution   :      0.01324       0.00000      -0.01043
                        -----------------------------------------
Total Dipole Moment    :     -1.91921      -0.00000       0.12330
                        -----------------------------------------
Magnitude (a.u.)       :      1.92317
Magnitude (Debye)      :      4.88830

Rotational constants in cm-1:     0.129812     0.038059     0.029430
Rotational constants in MHz :  3891.653512  1140.972511   882.297058

                             ****ORCA TERMINATED NORMALLY****
TOTAL RUN TIME: 0 days 0 hours 4 minutes 34 seconds 852 msec
