                         Program Version 4.2.0 -  RELEASE  -
|  1> # ORCA input file
|  2> # SCF done        -27.182480828816          0.000773660331
|  3> ! B3LYP/G D3BJ Opt RIJCOSX def2-SVP def2/J
|  4> * xyz 0 1
|  5>    C        0.64430        -1.27120        -0.04066
|  6>    C        1.85028        -0.76080        -0.26016
|  7>    C        1.94482         0.68845        -0.21404
|  8>    C        0.80463         1.34009         0.04847
|  9>    S       -0.49747         0.08995         0.25045
| 10>    O       -1.46671         0.17718        -0.80759
| 11>    O       -0.99284         0.06028         1.59958
| 12>    C        0.52105         2.73446         0.16865
| 13>    C       -0.69812         3.18554         0.46092
| 14>    H        0.33425        -2.29485        -0.02360
| 15>    H        2.73447        -1.34502        -0.46386
| 16>    H        2.89378         1.17205        -0.38474
| 17>    H        1.34982         3.41457         0.01009
| 18>    H       -1.51593         2.50310         0.61848
| 19>    H       -0.90552         4.23775         0.55176
| 20> *
| 21>
| 22>                          ****END OF INPUT****
 Total Charge           Charge          ....    0
 Multiplicity           Mult            ....    1
 Number of Electrons    NEL             ....   74
Dispersion correction           -0.031706650
FINAL SINGLE POINT ENERGY      -780.374654093791
Dispersion correction            ... done
Dispersion correction           -0.031485518
FINAL SINGLE POINT ENERGY      -780.379095893275
Dispersion correction            ... done
Dispersion correction           -0.031440529
FINAL SINGLE POINT ENERGY      -780.379782926490
Dispersion correction            ... done
FINAL SINGLE POINT ENERGY      -780.379828322903
FINAL SINGLE POINT ENERGY      -780.379810214902
Dispersion correction            ... done
Dispersion correction           -0.031466078
FINAL SINGLE POINT ENERGY      -780.379789544549
Dispersion correction            ... done
Dispersion correction           -0.031463824
FINAL SINGLE POINT ENERGY      -780.379779277615
Dispersion correction            ... done
                    ***********************HURRAY********************

CARTESIAN COORDINATES (ANGSTROEM)
---------------------------------
  C      0.652290   -1.276524   -0.040774
  C      1.875202   -0.777766   -0.281293
  C      1.972152    0.690517   -0.220645
  C      0.810898    1.325099    0.054549
  S     -0.489475    0.062296    0.277705
  O     -1.481872    0.146349   -0.799676
  O     -0.928348    0.056890    1.677168
  C      0.505001    2.726512    0.202392
  C     -0.728812    3.213900    0.427486
  H      0.294493   -2.305002   -0.032482
  H      2.741832   -1.397995   -0.516173
  H      2.914474    1.212815   -0.396279
  H      1.359551    3.406435    0.114101
  H     -1.598905    2.560287    0.514681
  H     -0.897669    4.287736    0.532991

 Multiplicity           Mult            ....    1
 Number of Electrons    NEL             ....   74
 Basis Dimension        Dim             ....  160

ORBITAL ENERGIES
----------------

  NO   OCC          E(Eh)            E(eV)
   0   2.0000     -89.060943     -2423.4715
   1   2.0000     -19.126108      -520.4479
   2   2.0000     -19.125665      -520.4358
   3   2.0000     -10.240588      -278.6606
   4   2.0000     -10.237537      -278.5776
   5   2.0000     -10.233384      -278.4645
   6   2.0000     -10.231451      -278.4119
   7   2.0000     -10.222636      -278.1721
   8   2.0000     -10.212359      -277.8924
   9   2.0000      -8.126665      -221.1378
  10   2.0000      -6.094334      -165.8352
  11   2.0000      -6.094278      -165.8337
  12   2.0000      -6.093693      -165.8178
  13   2.0000      -1.099455       -29.9177
  14   2.0000      -0.988329       -26.8938
  15   2.0000      -0.882415       -24.0117
  16   2.0000      -0.810158       -22.0455
  17   2.0000      -0.741970       -20.1900
  18   2.0000      -0.705795       -19.2057
  19   2.0000      -0.625462       -17.0197
  20   2.0000      -0.595696       -16.2097
  21   2.0000      -0.552564       -15.0360
  22   2.0000      -0.531628       -14.4663
  23   2.0000      -0.484411       -13.1815
  24   2.0000      -0.466347       -12.6899
  25   2.0000      -0.461004       -12.5446
  26   2.0000      -0.453207       -12.3324
  27   2.0000      -0.446085       -12.1386
  28   2.0000      -0.422660       -11.5012
  29   2.0000      -0.392448       -10.6790
  30   2.0000      -0.387740       -10.5509
  31   2.0000      -0.347560        -9.4576
  32   2.0000      -0.328346        -8.9348
  33   2.0000      -0.307520        -8.3680
  34   2.0000      -0.300238        -8.1699
  35   2.0000      -0.292300        -7.9539
  36   2.0000      -0.248411        -6.7596
  37   0.0000      -0.099588        -2.7099
  38   0.0000      -0.010362        -0.2820
  39   0.0000       0.040062         1.0901
  40   0.0000       0.046009         1.2520
  41   0.0000       0.056288         1.5317

MULLIKEN ATOMIC CHARGES
-----------------------
   0 C :   -0.023293
   1 C :    0.043235
   2 C :    0.015778
   3 C :   -0.038413
   4 S :    0.751504
   5 O :   -0.465877
   6 O :   -0.464513
   7 C :    0.016863
   8 C :   -0.000708
   9 H :    0.054332
  10 H :    0.019419
  11 H :    0.004456
  12 H :   -0.002952
  13 H :    0.051660
  14 H :    0.038509
Sum of atomic charges:   -0.0000000

LOEWDIN ATOMIC CHARGES
----------------------
   0 C :   -0.157959
   1 C :   -0.013635
   2 C :   -0.036509
   3 C :   -0.137916
   4 S :    1.174099
   5 O :   -0.499229
   6 O :   -0.498263
   7 C :   -0.041771
   8 C :   -0.003483
   9 H :    0.039366
  10 H :    0.040210
  11 H :    0.036140
  12 H :    0.036912
  13 H :    0.028646
  14 H :    0.033392

  Mayer bond orders larger than 0.100000
B(  0-C ,  1-C ) :   1.7447 B(  0-C ,  4-S ) :   0.8321 B(  0-C ,  9-H ) :   0.9698
B(  1-C ,  2-C ) :   1.0733 B(  1-C , 10-H ) :   0.9872 B(  2-C ,  3-C ) :   1.6664
B(  2-C ,  8-C ) :   0.1141 B(  2-C , 11-H ) :   0.9879 B(  3-C ,  4-S ) :   0.7781
B(  3-C ,  7-C ) :   1.1787 B(  4-S ,  5-O ) :   1.6360 B(  4-S ,  6-O ) :   1.6441
B(  7-C ,  8-C ) :   1.8634 B(  7-C , 12-H ) :   0.9627 B(  8-C , 13-H ) :   0.9386
B(  8-C , 14-H ) :   0.9493

Dispersion correction           -0.031460982
FINAL SINGLE POINT ENERGY      -780.379778585327

DIPOLE MOMENT
-------------
                                X             Y             Z
Electronic contribution:     -2.39654      -3.79394       0.41269
Nuclear contribution   :      4.03159       3.96080      -0.77614
                        -----------------------------------------
Total Dipole Moment    :      1.63505       0.16686      -0.36346
                        -----------------------------------------
Magnitude (a.u.)       :      1.68325
Magnitude (Debye)      :      4.27848

Rotational constants in cm-1:     0.071384     0.051677     0.036718
Rotational constants in MHz :  2140.023771  1549.232479  1100.784022

                             ****ORCA TERMINATED NORMALLY****
TOTAL RUN TIME: 0 days 0 hours 6 minutes 38 seconds 207 msec
