                         Program Version 4.2.0 -  RELEASE  -
|  1> # ORCA input file
|  2> # SCF done        -22.334222040692          0.000801322574
|  3> ! B3LYP/G D3BJ Opt RIJCOSX def2-SVP def2/J
|  4> * xyz 0 1
|  5>    C       -0.36168         1.02095         0.12599
|  6>    S       -1.26235        -0.43710         0.02325
|  7>    C        0.18267        -1.36988         0.06358
|  8>    C        1.29327        -0.59756         0.13673
|  9>    C        0.97795         0.78571         0.18001
| 10>    S        2.16795         2.08913         0.23178
| 11>    C        3.32194         1.41909         1.38185
| 12>    C        4.51592         1.94633         1.59298
| 13>    H       -0.86196         1.96756         0.13003
| 14>    H        0.12159        -2.43868         0.01823
| 15>    H        2.29664        -0.98313         0.14865
| 16>    H        2.95311         0.56113         1.92143
| 17>    H        4.85882         2.80822         1.04822
| 18>    H        5.18530         1.53071         2.32542
| 19> *
| 20>
| 21>                          ****END OF INPUT****
 Total Charge           Charge          ....    0
 Multiplicity           Mult            ....    1
 Number of Electrons    NEL             ....   74
Dispersion correction           -0.029711850
FINAL SINGLE POINT ENERGY     -1028.227721774007
Dispersion correction            ... done
Dispersion correction           -0.029451990
FINAL SINGLE POINT ENERGY     -1028.230789272907
Dispersion correction            ... done
Dispersion correction           -0.029479690
FINAL SINGLE POINT ENERGY     -1028.230936955586
Dispersion correction            ... done
FINAL SINGLE POINT ENERGY     -1028.230960997829
FINAL SINGLE POINT ENERGY     -1028.230990993663
Dispersion correction            ... done
Dispersion correction           -0.029501347
FINAL SINGLE POINT ENERGY     -1028.230985739765
Dispersion correction            ... done
Dispersion correction           -0.029503583
FINAL SINGLE POINT ENERGY     -1028.230991165791
Dispersion correction            ... done
                    ***********************HURRAY********************

CARTESIAN COORDINATES (ANGSTROEM)
---------------------------------
  C     -0.397029    1.005123    0.146378
  S     -1.253208   -0.488738   -0.025016
  C      0.219868   -1.394587   -0.006390
  C      1.318323   -0.584025    0.103185
  C      0.963779    0.803826    0.201190
  S      2.120501    2.144748    0.293506
  C      3.257529    1.520678    1.497473
  C      4.548476    1.870723    1.534023
  H     -0.930473    1.951957    0.206823
  H      0.191505   -2.478988   -0.102561
  H      2.346262   -0.946708    0.109776
  H      2.815982    0.860651    2.251774
  H      4.995804    2.516366    0.772750
  H      5.191849    1.521454    2.345237

 Multiplicity           Mult            ....    1
 Number of Electrons    NEL             ....   74
 Basis Dimension        Dim             ....  150

ORBITAL ENERGIES
----------------

  NO   OCC          E(Eh)            E(eV)
   0   2.0000     -88.881286     -2418.5828
   1   2.0000     -88.854697     -2417.8592
   2   2.0000     -10.221862      -278.1510
   3   2.0000     -10.219989      -278.1000
   4   2.0000     -10.219034      -278.0741
   5   2.0000     -10.218461      -278.0584
   6   2.0000     -10.202321      -277.6193
   7   2.0000     -10.192891      -277.3627
   8   2.0000      -7.976423      -217.0495
   9   2.0000      -7.949503      -216.3170
  10   2.0000      -5.944564      -161.7598
  11   2.0000      -5.940384      -161.6461
  12   2.0000      -5.937790      -161.5755
  13   2.0000      -5.918590      -161.0530
  14   2.0000      -5.914801      -160.9499
  15   2.0000      -5.908550      -160.7798
  16   2.0000      -0.888644       -24.1812
  17   2.0000      -0.814831       -22.1727
  18   2.0000      -0.750369       -20.4186
  19   2.0000      -0.730392       -19.8750
  20   2.0000      -0.683093       -18.5879
  21   2.0000      -0.575695       -15.6655
  22   2.0000      -0.564807       -15.3692
  23   2.0000      -0.541659       -14.7393
  24   2.0000      -0.509355       -13.8603
  25   2.0000      -0.459225       -12.4961
  26   2.0000      -0.433281       -11.7902
  27   2.0000      -0.418144       -11.3783
  28   2.0000      -0.406490       -11.0612
  29   2.0000      -0.390971       -10.6389
  30   2.0000      -0.383719       -10.4415
  31   2.0000      -0.356659        -9.7052
  32   2.0000      -0.335194        -9.1211
  33   2.0000      -0.314816        -8.5666
  34   2.0000      -0.271048        -7.3756
  35   2.0000      -0.253037        -6.8855
  36   2.0000      -0.213798        -5.8178
  37   0.0000      -0.028920        -0.7870
  38   0.0000      -0.002288        -0.0622
  39   0.0000       0.028112         0.7650
  40   0.0000       0.034881         0.9492
  41   0.0000       0.062204         1.6927

MULLIKEN ATOMIC CHARGES
-----------------------
   0 C :   -0.109025
   1 S :    0.102151
   2 C :   -0.095775
   3 C :    0.052506
   4 C :   -0.055772
   5 S :    0.055798
   6 C :   -0.106024
   7 C :   -0.022055
   8 H :    0.029561
   9 H :    0.038114
  10 H :    0.001035
  11 H :    0.047227
  12 H :    0.028449
  13 H :    0.033811
Sum of atomic charges:    0.0000000

LOEWDIN ATOMIC CHARGES
----------------------
   0 C :   -0.209579
   1 S :    0.432688
   2 C :   -0.188140
   3 C :   -0.075127
   4 C :   -0.207944
   5 S :    0.324425
   6 C :   -0.161470
   7 C :   -0.083887
   8 H :    0.027058
   9 H :    0.027640
  10 H :    0.032993
  11 H :    0.025884
  12 H :    0.025183
  13 H :    0.030277

  Mayer bond orders larger than 0.100000
B(  0-C ,  1-S ) :   1.1683 B(  0-C ,  4-C ) :   1.5598 B(  0-C ,  8-H ) :   0.9713
B(  1-S ,  2-C ) :   1.1758 B(  2-C ,  3-C ) :   1.5711 B(  2-C ,  9-H ) :   0.9655
B(  3-C ,  4-C ) :   1.2468 B(  3-C , 10-H ) :   0.9940 B(  4-C ,  5-S ) :   0.9918
B(  5-S ,  6-C ) :   1.0323 B(  6-C ,  7-C ) :   1.9560 B(  6-C , 11-H ) :   0.9412
B(  7-C , 12-H ) :   0.9556 B(  7-C , 13-H ) :   0.9528

Dispersion correction           -0.029502499
FINAL SINGLE POINT ENERGY     -1028.230990549036

DIPOLE MOMENT
-------------
                                X             Y             Z
Electronic contribution:     -7.34367       0.13192      -2.85410
Nuclear contribution   :      7.35385      -0.56539       3.03795
                        -----------------------------------------
Total Dipole Moment    :      0.01018      -0.43348       0.18385
                        -----------------------------------------
Magnitude (a.u.)       :      0.47096
Magnitude (Debye)      :      1.19709

Rotational constants in cm-1:     0.149788     0.025261     0.022457
Rotational constants in MHz :  4490.545721   757.318361   673.258471

                             ****ORCA TERMINATED NORMALLY****
TOTAL RUN TIME: 0 days 0 hours 5 minutes 39 seconds 286 msec
