                         Program Version 4.2.0 -  RELEASE  -
|  1> # ORCA input file
|  2> # SCF done        -36.400341074651          0.000891887331
|  3> ! B3LYP/G D3BJ Opt RIJCOSX def2-SVP def2/J
|  4> * xyz 0 1
|  5>    C        2.78315        -0.42185        -0.35933
|  6>    N        1.75718        -1.21315        -0.28851
|  7>    C        0.67395        -0.39166        -0.13212
|  8>    C        1.09949         1.02117        -0.10134
|  9>    C       -0.06373         1.90910         0.06129
| 10>    O       -0.09449         3.11491         0.13369
| 11>    C       -1.19011         0.94796         0.11222
| 12>    C       -0.68146        -0.44377        -0.00691
| 13>    N       -1.71458        -1.33085         0.03163
| 14>    C       -2.78709        -0.60169         0.15792
| 15>    C       -2.53375         0.83346         0.21261
| 16>    C        2.45823         1.01115        -0.25480
| 17>    C        3.36780         2.12128        -0.30606
| 18>    C        4.68249         2.01697        -0.49700
| 19>    H        3.77041        -0.83134        -0.48397
| 20>    H       -3.75751        -1.06448         0.21381
| 21>    H       -3.28425         1.59259         0.31200
| 22>    H        2.90553         3.09153        -0.17974
| 23>    H        5.17303         1.06747        -0.63015
| 24>    H        5.31252         2.88859        -0.53028
| 25> *
| 26>
| 27>                          ****END OF INPUT****
 Total Charge           Charge          ....    0
 Multiplicity           Mult            ....    1
 Number of Electrons    NEL             ....   94
Dispersion correction           -0.041680017
FINAL SINGLE POINT ENERGY      -606.993264955652
Dispersion correction            ... done
Dispersion correction           -0.041688803
FINAL SINGLE POINT ENERGY      -606.996778475558
Dispersion correction            ... done
Dispersion correction           -0.041653568
FINAL SINGLE POINT ENERGY      -606.996985253303
Dispersion correction            ... done
FINAL SINGLE POINT ENERGY      -606.997008790072
Dispersion correction            ... done
Dispersion correction           -0.041617751
FINAL SINGLE POINT ENERGY      -606.997026601222
Dispersion correction            ... done
Dispersion correction           -0.041620074
FINAL SINGLE POINT ENERGY      -606.997029221877
Dispersion correction            ... done
                    ***********************HURRAY********************

CARTESIAN COORDINATES (ANGSTROEM)
---------------------------------
  C      2.778709   -0.444878   -0.384652
  N      1.737372   -1.241361   -0.317845
  C      0.668068   -0.384279   -0.163710
  C      1.100968    1.024783   -0.137037
  C     -0.071510    1.931121    0.027795
  O     -0.096042    3.141668    0.082066
  C     -1.208880    0.954231    0.101819
  C     -0.699589   -0.434556   -0.025908
  N     -1.714184   -1.356440    0.030637
  C     -2.799196   -0.622812    0.186171
  C     -2.555774    0.832846    0.239706
  C      2.462580    1.009388   -0.280112
  C      3.382490    2.127596   -0.320173
  C      4.716661    2.029278   -0.451981
  H      3.784158   -0.857196   -0.511807
  H     -3.782909   -1.095548    0.268056
  H     -3.310505    1.606268    0.369749
  H      2.913701    3.111811   -0.228791
  H      5.223578    1.064885   -0.545299
  H      5.347114    2.920581   -0.473723

 Multiplicity           Mult            ....    1
 Number of Electrons    NEL             ....   94
 Basis Dimension        Dim             ....  226

ORBITAL ENERGIES
----------------

  NO   OCC          E(Eh)            E(eV)
   0   2.0000     -19.139204      -520.8042
   1   2.0000     -14.347264      -390.4089
   2   2.0000     -14.341269      -390.2458
   3   2.0000     -10.299091      -280.2525
   4   2.0000     -10.267051      -279.3807
   5   2.0000     -10.261823      -279.2384
   6   2.0000     -10.261535      -279.2306
   7   2.0000     -10.257497      -279.1207
   8   2.0000     -10.233458      -278.4666
   9   2.0000     -10.226373      -278.2738
  10   2.0000     -10.221214      -278.1334
  11   2.0000     -10.220210      -278.1061
  12   2.0000     -10.217389      -278.0293
  13   2.0000     -10.215855      -277.9875
  14   2.0000      -1.043833       -28.4041
  15   2.0000      -0.991332       -26.9755
  16   2.0000      -0.974114       -26.5070
  17   2.0000      -0.850579       -23.1454
  18   2.0000      -0.822303       -22.3760
  19   2.0000      -0.781595       -21.2683
  20   2.0000      -0.754740       -20.5375
  21   2.0000      -0.690752       -18.7963
  22   2.0000      -0.678352       -18.4589
  23   2.0000      -0.627812       -17.0836
  24   2.0000      -0.613404       -16.6916
  25   2.0000      -0.572449       -15.5771
  26   2.0000      -0.557057       -15.1583
  27   2.0000      -0.522610       -14.2209
  28   2.0000      -0.502463       -13.6727
  29   2.0000      -0.491371       -13.3709
  30   2.0000      -0.476963       -12.9788
  31   2.0000      -0.468893       -12.7592
  32   2.0000      -0.450721       -12.2648
  33   2.0000      -0.442419       -12.0388
  34   2.0000      -0.436219       -11.8701
  35   2.0000      -0.415755       -11.3133
  36   2.0000      -0.412816       -11.2333
  37   2.0000      -0.405334       -11.0297
  38   2.0000      -0.400936       -10.9100
  39   2.0000      -0.381144       -10.3714
  40   2.0000      -0.337169        -9.1748
  41   2.0000      -0.298193        -8.1142
  42   2.0000      -0.296156        -8.0588
  43   2.0000      -0.290910        -7.9161
  44   2.0000      -0.282312        -7.6821
  45   2.0000      -0.268438        -7.3046
  46   2.0000      -0.254258        -6.9187
  47   0.0000      -0.146359        -3.9826
  48   0.0000      -0.092827        -2.5260
  49   0.0000      -0.031663        -0.8616
  50   0.0000       0.014882         0.4049
  51   0.0000       0.058465         1.5909

MULLIKEN ATOMIC CHARGES
-----------------------
   0 C :    0.080015
   1 N :   -0.068387
   2 C :    0.060952
   3 C :   -0.096076
   4 C :    0.218203
   5 O :   -0.143017
   6 C :   -0.029217
   7 C :    0.009145
   8 N :   -0.081896
   9 C :    0.103805
  10 C :   -0.096990
  11 C :   -0.045720
  12 C :   -0.011336
  13 C :   -0.007127
  14 H :    0.009445
  15 H :    0.014051
  16 H :    0.003855
  17 H :    0.015466
  18 H :    0.024870
  19 H :    0.039962
Sum of atomic charges:    0.0000000

LOEWDIN ATOMIC CHARGES
----------------------
   0 C :    0.097293
   1 N :   -0.087238
   2 C :    0.050179
   3 C :   -0.053635
   4 C :    0.067796
   5 O :   -0.137310
   6 C :   -0.041031
   7 C :    0.036098
   8 N :   -0.098014
   9 C :    0.083245
  10 C :   -0.030523
  11 C :   -0.037490
  12 C :   -0.019049
  13 C :   -0.018053
  14 H :    0.024755
  15 H :    0.025286
  16 H :    0.037483
  17 H :    0.042359
  18 H :    0.024451
  19 H :    0.033399

  Mayer bond orders larger than 0.100000
B(  0-C ,  1-N ) :   1.6884 B(  0-C , 11-C ) :   1.0164 B(  0-C , 14-H ) :   0.9813
B(  1-N ,  2-C ) :   1.2684 B(  2-C ,  3-C ) :   1.0475 B(  2-C ,  7-C ) :   1.4584
B(  3-C ,  4-C ) :   0.9067 B(  3-C , 11-C ) :   1.5683 B(  4-C ,  5-O ) :   2.2357
B(  4-C ,  6-C ) :   0.8938 B(  6-C ,  7-C ) :   1.0426 B(  6-C , 10-C ) :   1.6114
B(  7-C ,  8-N ) :   1.2895 B(  8-N ,  9-C ) :   1.6404 B(  9-C , 10-C ) :   1.0455
B(  9-C , 15-H ) :   0.9810 B( 10-C , 16-H ) :   1.0007 B( 11-C , 12-C ) :   1.1240
B( 12-C , 13-C ) :   1.8698 B( 12-C , 17-H ) :   0.9618 B( 13-C , 18-H ) :   0.9501
B( 13-C , 19-H ) :   0.9475

Dispersion correction           -0.041619974
FINAL SINGLE POINT ENERGY      -606.997029896076

DIPOLE MOMENT
-------------
                                X             Y             Z
Electronic contribution:     -6.03126      -2.43945       0.47739
Nuclear contribution   :      6.36556       2.73266      -0.48322
                        -----------------------------------------
Total Dipole Moment    :      0.33430       0.29321      -0.00583
                        -----------------------------------------
Magnitude (a.u.)       :      0.44471
Magnitude (Debye)      :      1.13035

Rotational constants in cm-1:     0.053855     0.017364     0.013130
Rotational constants in MHz :  1614.518521   520.554931   393.640836

                             ****ORCA TERMINATED NORMALLY****
TOTAL RUN TIME: 0 days 0 hours 11 minutes 18 seconds 809 msec
