                         Program Version 4.2.0 -  RELEASE  -
|  1> # ORCA input file
|  2> # SCF done        -37.054384587560          0.000354609333
|  3> ! B3LYP/G D3BJ Opt RIJCOSX def2-SVP def2/J
|  4> * xyz 0 1
|  5>    C        0.81619         1.41246        -0.24700
|  6>    S       -0.53650         0.42317        -0.60986
|  7>    C        0.45913        -1.00862        -0.55852
|  8>    C        1.76819        -0.69186        -0.26236
|  9>    C        1.96947         0.70477        -0.09354
| 10>    C        3.27411         1.35198         0.26009
| 11>    C        3.48318         1.37256         1.77558
| 12>    C        2.86924        -1.70651        -0.19693
| 13>    C        3.40761        -2.01827        -1.59546
| 14>    C       -0.10059        -2.29919        -0.80904
| 15>    C       -1.37885        -2.53113        -1.15824
| 16>    C       -1.90837        -3.84228        -1.40758
| 17>    C       -3.17074        -4.07489        -1.76428
| 18>    H        0.68274         2.47382        -0.17138
| 19>    H        3.27656         2.37755        -0.11494
| 20>    H        4.09723         0.81782        -0.21730
| 21>    H        2.69317         1.94517         2.25589
| 22>    H        4.44014         1.82793         2.02024
| 23>    H        3.46502         0.36347         2.18118
| 24>    H        2.50102        -2.62570         0.26335
| 25>    H        3.68088        -1.32862         0.42557
| 26>    H        2.61651        -2.41615        -2.22701
| 27>    H        4.21062        -2.74987        -1.53899
| 28>    H        3.79322        -1.11530        -2.06399
| 29>    H        0.57774        -3.13671        -0.70927
| 30>    H       -2.06153        -1.69793        -1.26731
| 31>    H       -1.21785        -4.66894        -1.29284
| 32>    H       -3.87689        -3.27020        -1.88559
| 33>    H       -3.53937        -5.06957        -1.94526
| 34> *
| 35>
| 36>                          ****END OF INPUT****
 Total Charge           Charge          ....    0
 Multiplicity           Mult            ....    1
 Number of Electrons    NEL             ....  104
Dispersion correction           -0.056489179
FINAL SINGLE POINT ENERGY      -864.682563581892
Dispersion correction            ... done
Dispersion correction           -0.055840983
FINAL SINGLE POINT ENERGY      -864.686778335989
Dispersion correction            ... done
Dispersion correction           -0.055751614
FINAL SINGLE POINT ENERGY      -864.686957092331
Dispersion correction            ... done
FINAL SINGLE POINT ENERGY      -864.686947266234
FINAL SINGLE POINT ENERGY      -864.686966220290
Dispersion correction            ... done
Dispersion correction           -0.055742338
FINAL SINGLE POINT ENERGY      -864.686972209818
Dispersion correction            ... done
Dispersion correction           -0.055741075
FINAL SINGLE POINT ENERGY      -864.686961882426
Dispersion correction            ... done
                    ***********************HURRAY********************

CARTESIAN COORDINATES (ANGSTROEM)
---------------------------------
  C      0.836287    1.469553   -0.298032
  S     -0.528065    0.489248   -0.688444
  C      0.442593   -0.967132   -0.626683
  C      1.765624   -0.672555   -0.311035
  C      1.988103    0.736885   -0.125926
  C      3.299685    1.342980    0.302448
  C      3.456162    1.365073    1.827240
  C      2.861972   -1.707879   -0.250247
  C      3.496449   -1.993837   -1.621687
  C     -0.132066   -2.268343   -0.875056
  C     -1.424862   -2.535976   -1.180548
  C     -1.948143   -3.868019   -1.394642
  C     -3.234945   -4.146155   -1.671845
  H      0.721235    2.549027   -0.202433
  H      3.373733    2.369949   -0.089488
  H      4.135224    0.785510   -0.150280
  H      2.666821    1.976930    2.289294
  H      4.430731    1.782738    2.127574
  H      3.371140    0.352238    2.251088
  H      2.466521   -2.644762    0.172783
  H      3.642993   -1.374080    0.450060
  H      2.744617   -2.380125   -2.327086
  H      4.306578   -2.736637   -1.542717
  H      3.919842   -1.076640   -2.060580
  H      0.562596   -3.110419   -0.789446
  H     -2.137277   -1.707118   -1.272417
  H     -1.228869   -4.692306   -1.313095
  H     -3.979853   -3.349148   -1.760266
  H     -3.583549   -5.170038   -1.823323

 Multiplicity           Mult            ....    1
 Number of Electrons    NEL             ....  104
 Basis Dimension        Dim             ....  266

ORBITAL ENERGIES
----------------

  NO   OCC          E(Eh)            E(eV)
   0   2.0000     -88.865591     -2418.1557
   1   2.0000     -10.211124      -277.8588
   2   2.0000     -10.206060      -277.7210
   3   2.0000     -10.199419      -277.5403
   4   2.0000     -10.195356      -277.4297
   5   2.0000     -10.194086      -277.3952
   6   2.0000     -10.193436      -277.3775
   7   2.0000     -10.193226      -277.3718
   8   2.0000     -10.192164      -277.3429
   9   2.0000     -10.191171      -277.3159
  10   2.0000     -10.184934      -277.1461
  11   2.0000     -10.184609      -277.1373
  12   2.0000     -10.183898      -277.1180
  13   2.0000      -7.960671      -216.6209
  14   2.0000      -5.928673      -161.3274
  15   2.0000      -5.924881      -161.2242
  16   2.0000      -5.921935      -161.1440
  17   2.0000      -0.879391       -23.9294
  18   2.0000      -0.806905       -21.9570
  19   2.0000      -0.785305       -21.3692
  20   2.0000      -0.776160       -21.1204
  21   2.0000      -0.743104       -20.2209
  22   2.0000      -0.704825       -19.1793
  23   2.0000      -0.690106       -18.7787
  24   2.0000      -0.628189       -17.0939
  25   2.0000      -0.614314       -16.7163
  26   2.0000      -0.606748       -16.5105
  27   2.0000      -0.559913       -15.2360
  28   2.0000      -0.533120       -14.5069
  29   2.0000      -0.515955       -14.0398
  30   2.0000      -0.487071       -13.2539
  31   2.0000      -0.468218       -12.7409
  32   2.0000      -0.459519       -12.5041
  33   2.0000      -0.440881       -11.9970
  34   2.0000      -0.435993       -11.8640
  35   2.0000      -0.423229       -11.5166
  36   2.0000      -0.406543       -11.0626
  37   2.0000      -0.400268       -10.8918
  38   2.0000      -0.397145       -10.8069
  39   2.0000      -0.386833       -10.5263
  40   2.0000      -0.378299       -10.2940
  41   2.0000      -0.369906       -10.0656
  42   2.0000      -0.365333        -9.9412
  43   2.0000      -0.354478        -9.6458
  44   2.0000      -0.352671        -9.5967
  45   2.0000      -0.341632        -9.2963
  46   2.0000      -0.335756        -9.1364
  47   2.0000      -0.327626        -8.9152
  48   2.0000      -0.327237        -8.9046
  49   2.0000      -0.268596        -7.3089
  50   2.0000      -0.240240        -6.5373
  51   2.0000      -0.199703        -5.4342
  52   0.0000      -0.057764        -1.5718
  53   0.0000       0.013206         0.3594
  54   0.0000       0.038165         1.0385
  55   0.0000       0.045027         1.2253
  56   0.0000       0.063369         1.7244

MULLIKEN ATOMIC CHARGES
-----------------------
   0 C :   -0.123843
   1 S :    0.092117
   2 C :   -0.119057
   3 C :   -0.037195
   4 C :   -0.052293
   5 C :    0.088902
   6 C :    0.027619
   7 C :    0.071532
   8 C :    0.014205
   9 C :    0.004932
  10 C :   -0.002710
  11 C :    0.002925
  12 C :   -0.030802
  13 H :    0.013843
  14 H :   -0.007182
  15 H :   -0.003269
  16 H :    0.007949
  17 H :    0.008663
  18 H :    0.009884
  19 H :    0.001659
  20 H :   -0.003530
  21 H :    0.014315
  22 H :    0.017089
  23 H :    0.011328
  24 H :   -0.018595
  25 H :   -0.009607
  26 H :   -0.012079
  27 H :    0.014956
  28 H :    0.018245
Sum of atomic charges:   -0.0000000

LOEWDIN ATOMIC CHARGES
----------------------
   0 C :   -0.194944
   1 S :    0.417766
   2 C :   -0.179520
   3 C :   -0.051175
   4 C :   -0.060983
   5 C :   -0.027775
   6 C :   -0.047799
   7 C :   -0.029437
   8 C :   -0.050327
   9 C :   -0.039771
  10 C :   -0.035541
  11 C :   -0.028706
  12 C :   -0.055195
  13 H :    0.021979
  14 H :    0.027282
  15 H :    0.023835
  16 H :    0.023070
  17 H :    0.021491
  18 H :    0.021282
  19 H :    0.026327
  20 H :    0.025597
  21 H :    0.024212
  22 H :    0.023295
  23 H :    0.022706
  24 H :    0.029269
  25 H :    0.021196
  26 H :    0.026620
  27 H :    0.021797
  28 H :    0.023449

  Mayer bond orders larger than 0.100000
B(  0-C ,  1-S ) :   1.1441 B(  0-C ,  4-C ) :   1.5487 B(  0-C , 13-H ) :   0.9633
B(  1-S ,  2-C ) :   1.1121 B(  2-C ,  3-C ) :   1.4724 B(  2-C ,  9-C ) :   1.1481
B(  3-C ,  4-C ) :   1.2796 B(  3-C ,  7-C ) :   1.0975 B(  4-C ,  5-C ) :   1.0695
B(  5-C ,  6-C ) :   1.1025 B(  5-C , 14-H ) :   0.9193 B(  5-C , 15-H ) :   0.9165
B(  6-C , 16-H ) :   0.9658 B(  6-C , 17-H ) :   0.9650 B(  6-C , 18-H ) :   0.9685
B(  7-C ,  8-C ) :   1.1093 B(  7-C , 19-H ) :   0.9092 B(  7-C , 20-H ) :   0.9099
B(  8-C , 21-H ) :   0.9658 B(  8-C , 22-H ) :   0.9646 B(  8-C , 23-H ) :   0.9654
B(  9-C , 10-C ) :   1.6675 B(  9-C , 12-C ) :   0.1120 B(  9-C , 24-H ) :   0.9614
B( 10-C , 11-C ) :   1.1347 B( 10-C , 25-H ) :   0.9688 B( 11-C , 12-C ) :   1.8674
B( 11-C , 26-H ) :   0.9692 B( 12-C , 27-H ) :   0.9529 B( 12-C , 28-H ) :   0.9488

Dispersion correction           -0.055737865
FINAL SINGLE POINT ENERGY      -864.686953035460

DIPOLE MOMENT
-------------
                                X             Y             Z
Electronic contribution:    -11.94311       4.77459      -2.23279
Nuclear contribution   :     12.50702      -4.68178       2.37220
                        -----------------------------------------
Total Dipole Moment    :      0.56391       0.09281       0.13941
                        -----------------------------------------
Magnitude (a.u.)       :      0.58825
Magnitude (Debye)      :      1.49522

Rotational constants in cm-1:     0.040653     0.012277     0.010149
Rotational constants in MHz :  1218.749116   368.051348   304.251099

                             ****ORCA TERMINATED NORMALLY****
TOTAL RUN TIME: 0 days 0 hours 16 minutes 42 seconds 908 msec
