                         Program Version 4.2.0 -  RELEASE  -
|  1> # ORCA input file
|  2> # SCF done        -28.724143471252          0.000959484972
|  3> ! B3LYP/G D3BJ Opt RIJCOSX def2-SVP def2/J
|  4> * xyz 0 1
|  5>    C        1.50773         1.24122         0.00953
|  6>    S        2.70046         0.01867         0.20519
|  7>    C        1.48294        -1.19560         0.24788
|  8>    C        0.23166        -0.68304         0.11542
|  9>    C        0.24700         0.73520        -0.02548
| 10>    C       -1.00077         1.53942        -0.22229
| 11>    C       -2.23297         0.75586         0.21589
| 12>    S       -2.38227         0.74677         2.04779
| 13>    C       -2.21772        -0.65581        -0.36210
| 14>    C       -1.03881        -1.47450         0.16205
| 15>    H        1.81145         2.26577        -0.07425
| 16>    H        1.76721        -2.22151         0.37217
| 17>    H       -1.10479         1.78457        -1.28520
| 18>    H       -0.93504         2.48279         0.32443
| 19>    H       -3.13825         1.27655        -0.10442
| 20>    H       -1.11244         0.43029         2.28503
| 21>    H       -2.15239        -0.57016        -1.44995
| 22>    H       -3.15142        -1.16490        -0.11772
| 23>    H       -0.93216        -2.39170        -0.42081
| 24>    H       -1.23736        -1.77171         1.19695
| 25> *
| 26>
| 27>                          ****END OF INPUT****
 Total Charge           Charge          ....    0
 Multiplicity           Mult            ....    1
 Number of Electrons    NEL             ....   90
Dispersion correction           -0.046613228
FINAL SINGLE POINT ENERGY     -1106.853328173736
Dispersion correction            ... done
Dispersion correction           -0.046028006
FINAL SINGLE POINT ENERGY     -1106.856026887994
Dispersion correction            ... done
Dispersion correction           -0.045995673
FINAL SINGLE POINT ENERGY     -1106.856156402552
Dispersion correction            ... done
FINAL SINGLE POINT ENERGY     -1106.856162440928
FINAL SINGLE POINT ENERGY     -1106.856164723292
FINAL SINGLE POINT ENERGY     -1106.856123145308
Dispersion correction            ... done
Dispersion correction           -0.046086689
FINAL SINGLE POINT ENERGY     -1106.856143881946
Dispersion correction            ... done
Dispersion correction           -0.046077620
FINAL SINGLE POINT ENERGY     -1106.856151844024
Dispersion correction            ... done
                    ***********************HURRAY********************

CARTESIAN COORDINATES (ANGSTROEM)
---------------------------------
  C      1.529884    1.261724    0.085664
  S      2.724059    0.026417    0.272415
  C      1.517184   -1.211086    0.226779
  C      0.250607   -0.695939    0.079131
  C      0.261964    0.742054   -0.020033
  C     -1.000497    1.529841   -0.260176
  C     -2.237572    0.764649    0.230382
  S     -2.385464    0.812435    2.072107
  C     -2.248904   -0.662701   -0.334944
  C     -1.034998   -1.487574    0.114903
  H      1.827070    2.308510    0.039390
  H      1.803730   -2.256575    0.333650
  H     -1.118009    1.705437   -1.345929
  H     -0.943886    2.518020    0.217824
  H     -3.142481    1.293534   -0.104467
  H     -1.096843    0.489454    2.330881
  H     -2.263535   -0.585277   -1.437255
  H     -3.174582   -1.175900   -0.034061
  H     -0.947370   -2.399389   -0.496214
  H     -1.208296   -1.829455    1.150062

 Multiplicity           Mult            ....    1
 Number of Electrons    NEL             ....   90
 Basis Dimension        Dim             ....  198

ORBITAL ENERGIES
----------------

  NO   OCC          E(Eh)            E(eV)
   0   2.0000     -88.870640     -2418.2931
   1   2.0000     -88.830502     -2417.2008
   2   2.0000     -10.223855      -278.2052
   3   2.0000     -10.206656      -277.7372
   4   2.0000     -10.205970      -277.7186
   5   2.0000     -10.199647      -277.5465
   6   2.0000     -10.194881      -277.4168
   7   2.0000     -10.194661      -277.4108
   8   2.0000     -10.194194      -277.3981
   9   2.0000     -10.194150      -277.3969
  10   2.0000      -7.965686      -216.7573
  11   2.0000      -7.925002      -215.6503
  12   2.0000      -5.933752      -161.4656
  13   2.0000      -5.929631      -161.3535
  14   2.0000      -5.927239      -161.2884
  15   2.0000      -5.894154      -160.3881
  16   2.0000      -5.890707      -160.2943
  17   2.0000      -5.883762      -160.1053
  18   2.0000      -0.881840       -23.9961
  19   2.0000      -0.830081       -22.5876
  20   2.0000      -0.764869       -20.8131
  21   2.0000      -0.743625       -20.2351
  22   2.0000      -0.706478       -19.2243
  23   2.0000      -0.682616       -18.5749
  24   2.0000      -0.629817       -17.1382
  25   2.0000      -0.573433       -15.6039
  26   2.0000      -0.568381       -15.4664
  27   2.0000      -0.505445       -13.7539
  28   2.0000      -0.501312       -13.6414
  29   2.0000      -0.461164       -12.5489
  30   2.0000      -0.443298       -12.0628
  31   2.0000      -0.439182       -11.9507
  32   2.0000      -0.413562       -11.2536
  33   2.0000      -0.406093       -11.0504
  34   2.0000      -0.400965       -10.9108
  35   2.0000      -0.400619       -10.9014
  36   2.0000      -0.369194       -10.0463
  37   2.0000      -0.352222        -9.5844
  38   2.0000      -0.342581        -9.3221
  39   2.0000      -0.335309        -9.1242
  40   2.0000      -0.329779        -8.9737
  41   2.0000      -0.316112        -8.6019
  42   2.0000      -0.243098        -6.6150
  43   2.0000      -0.235261        -6.4018
  44   2.0000      -0.230719        -6.2782
  45   0.0000      -0.019878        -0.5409
  46   0.0000       0.032865         0.8943
  47   0.0000       0.049181         1.3383
  48   0.0000       0.050490         1.3739
  49   0.0000       0.059314         1.6140

MULLIKEN ATOMIC CHARGES
-----------------------
   0 C :   -0.138299
   1 S :    0.095856
   2 C :   -0.140352
   3 C :   -0.045788
   4 C :   -0.072103
   5 C :    0.210095
   6 C :   -0.208712
   7 S :   -0.073291
   8 C :    0.087962
   9 C :    0.126739
  10 H :    0.011617
  11 H :    0.010274
  12 H :    0.015939
  13 H :    0.000620
  14 H :    0.031886
  15 H :    0.065675
  16 H :    0.005918
  17 H :    0.001326
  18 H :    0.003515
  19 H :    0.011126
Sum of atomic charges:   -0.0000000

LOEWDIN ATOMIC CHARGES
----------------------
   0 C :   -0.203244
   1 S :    0.426055
   2 C :   -0.202746
   3 C :   -0.071656
   4 C :   -0.076043
   5 C :   -0.029420
   6 C :   -0.123344
   7 S :    0.136139
   8 C :   -0.037562
   9 C :   -0.027311
  10 H :    0.022064
  11 H :    0.021444
  12 H :    0.033820
  13 H :    0.027522
  14 H :    0.025111
  15 H :   -0.027212
  16 H :    0.023207
  17 H :    0.024104
  18 H :    0.031135
  19 H :    0.027939

  Mayer bond orders larger than 0.100000
B(  0-C ,  1-S ) :   1.1636 B(  0-C ,  4-C ) :   1.5512 B(  0-C , 10-H ) :   0.9650
B(  1-S ,  2-C ) :   1.1638 B(  2-C ,  3-C ) :   1.5550 B(  2-C , 11-H ) :   0.9656
B(  3-C ,  4-C ) :   1.2851 B(  3-C ,  9-C ) :   1.0395 B(  4-C ,  5-C ) :   1.0348
B(  5-C ,  6-C ) :   1.0264 B(  5-C , 12-H ) :   0.9057 B(  5-C , 13-H ) :   0.9146
B(  6-C ,  7-S ) :   1.0358 B(  6-C ,  8-C ) :   1.0094 B(  6-C , 14-H ) :   0.9245
B(  7-S , 15-H ) :   0.9464 B(  8-C ,  9-C ) :   1.0872 B(  8-C , 16-H ) :   0.9314
B(  8-C , 17-H ) :   0.9288 B(  9-C , 18-H ) :   0.9174 B(  9-C , 19-H ) :   0.9147

Dispersion correction           -0.046079591
FINAL SINGLE POINT ENERGY     -1106.856149976007

DIPOLE MOMENT
-------------
                                X             Y             Z
Electronic contribution:      7.74795       1.47685       3.17961
Nuclear contribution   :     -7.71915      -1.59492      -3.68611
                        -----------------------------------------
Total Dipole Moment    :      0.02880      -0.11806      -0.50651
                        -----------------------------------------
Magnitude (a.u.)       :      0.52088
Magnitude (Debye)      :      1.32398

Rotational constants in cm-1:     0.065487     0.021825     0.019898
Rotational constants in MHz :  1963.240469   654.307295   596.526001

                             ****ORCA TERMINATED NORMALLY****
TOTAL RUN TIME: 0 days 0 hours 11 minutes 10 seconds 129 msec
