                         Program Version 4.2.0 -  RELEASE  -
|  1> # ORCA input file
|  2> # SCF done        -29.428256285370          0.000727665141
|  3> ! B3LYP/G D3BJ Opt RIJCOSX def2-SVP def2/J
|  4> * xyz 0 1
|  5>    C       -1.53992         1.13910        -0.12864
|  6>    N       -2.30033         0.02250        -0.04491
|  7>    C       -1.56035        -1.11327         0.08359
|  8>    C       -0.22017        -0.70213         0.08285
|  9>    C       -0.21587         0.73658        -0.05342
| 10>    N        0.93234         1.44175        -0.08850
| 11>    C        2.01887         0.72391         0.01133
| 12>    C        2.01483        -0.68675         0.14790
| 13>    N        0.92121        -1.40342         0.18423
| 14>    C       -2.15221        -2.41507         0.18740
| 15>    C       -1.44845        -3.53918         0.30797
| 16>    H       -1.96461         2.11615        -0.23363
| 17>    H       -3.30921         0.02329        -0.07307
| 18>    H        2.95534         1.26537        -0.01305
| 19>    H        2.94692        -1.22993         0.23073
| 20>    H       -3.23642        -2.43917         0.16366
| 21>    H       -0.37318        -3.50999         0.33030
| 22>    H       -1.92734        -4.49936         0.38474
| 23> *
| 24>
| 25>                          ****END OF INPUT****
 Total Charge           Charge          ....    0
 Multiplicity           Mult            ....    1
 Number of Electrons    NEL             ....   76
Dispersion correction           -0.034918543
FINAL SINGLE POINT ENERGY      -472.974457347380
Dispersion correction            ... done
Dispersion correction           -0.034795755
FINAL SINGLE POINT ENERGY      -472.977314330202
Dispersion correction            ... done
Dispersion correction           -0.034763000
FINAL SINGLE POINT ENERGY      -472.977435928462
Dispersion correction            ... done
FINAL SINGLE POINT ENERGY      -472.977471780506
Dispersion correction            ... done
Dispersion correction           -0.034734368
FINAL SINGLE POINT ENERGY      -472.977477649435
Dispersion correction            ... done
Dispersion correction           -0.034733922
FINAL SINGLE POINT ENERGY      -472.977478019296
Dispersion correction            ... done
                    ***********************HURRAY********************

CARTESIAN COORDINATES (ANGSTROEM)
---------------------------------
  C     -1.546657    1.160696   -0.131626
  N     -2.296595    0.022500   -0.039514
  C     -1.547883   -1.124194    0.096090
  C     -0.205582   -0.687286    0.093583
  C     -0.209617    0.754403   -0.053765
  N      0.938691    1.473684   -0.098293
  C      2.037059    0.759013    0.004799
  C      2.042094   -0.668361    0.154180
  N      0.944284   -1.392051    0.200321
  C     -2.153596   -2.432091    0.196336
  C     -1.485604   -3.594739    0.300747
  H     -1.991720    2.144045   -0.249106
  H     -3.309412    0.011780   -0.076542
  H      2.994356    1.293039   -0.026765
  H      3.000856   -1.193053    0.237840
  H     -3.251357   -2.443825    0.178469
  H     -0.393274   -3.611507    0.321591
  H     -2.024593   -4.541674    0.371134

 Multiplicity           Mult            ....    1
 Number of Electrons    NEL             ....   76
 Basis Dimension        Dim             ....  189

ORBITAL ENERGIES
----------------

  NO   OCC          E(Eh)            E(eV)
   0   2.0000     -14.407211      -392.0401
   1   2.0000     -14.335678      -390.0936
   2   2.0000     -14.333478      -390.0338
   3   2.0000     -10.228017      -278.3185
   4   2.0000     -10.225946      -278.2621
   5   2.0000     -10.225711      -278.2557
   6   2.0000     -10.225204      -278.2419
   7   2.0000     -10.216711      -278.0108
   8   2.0000     -10.215196      -277.9696
   9   2.0000     -10.203184      -277.6427
  10   2.0000     -10.183556      -277.1087
  11   2.0000      -1.001535       -27.2531
  12   2.0000      -0.957993       -26.0683
  13   2.0000      -0.898903       -24.4604
  14   2.0000      -0.789737       -21.4898
  15   2.0000      -0.779700       -21.2167
  16   2.0000      -0.716313       -19.4919
  17   2.0000      -0.685892       -18.6641
  18   2.0000      -0.636874       -17.3302
  19   2.0000      -0.596499       -16.2316
  20   2.0000      -0.578227       -15.7344
  21   2.0000      -0.536991       -14.6123
  22   2.0000      -0.509206       -13.8562
  23   2.0000      -0.492622       -13.4049
  24   2.0000      -0.479157       -13.0385
  25   2.0000      -0.463408       -12.6100
  26   2.0000      -0.453955       -12.3527
  27   2.0000      -0.423768       -11.5313
  28   2.0000      -0.408582       -11.1181
  29   2.0000      -0.404613       -11.0101
  30   2.0000      -0.395413       -10.7597
  31   2.0000      -0.366347        -9.9688
  32   2.0000      -0.342235        -9.3127
  33   2.0000      -0.307679        -8.3724
  34   2.0000      -0.296613        -8.0712
  35   2.0000      -0.262811        -7.1514
  36   2.0000      -0.238670        -6.4945
  37   2.0000      -0.199853        -5.4383
  38   0.0000      -0.069284        -1.8853
  39   0.0000      -0.019899        -0.5415
  40   0.0000       0.018165         0.4943
  41   0.0000       0.034940         0.9508
  42   0.0000       0.081460         2.2166

MULLIKEN ATOMIC CHARGES
-----------------------
   0 C :   -0.051431
   1 N :   -0.028713
   2 C :    0.027747
   3 C :   -0.048865
   4 C :    0.059285
   5 N :   -0.046622
   6 C :    0.020099
   7 C :    0.027331
   8 N :   -0.041414
   9 C :   -0.030280
  10 C :   -0.022391
  11 H :   -0.007069
  12 H :    0.126610
  13 H :   -0.000834
  14 H :   -0.003042
  15 H :   -0.032669
  16 H :    0.038050
  17 H :    0.014207
Sum of atomic charges:   -0.0000000

LOEWDIN ATOMIC CHARGES
----------------------
   0 C :   -0.028976
   1 N :    0.128207
   2 C :   -0.030148
   3 C :   -0.045127
   4 C :   -0.048568
   5 N :   -0.052962
   6 C :   -0.008763
   7 C :   -0.009990
   8 N :   -0.048409
   9 C :   -0.049085
  10 C :   -0.041767
  11 H :    0.024946
  12 H :    0.094301
  13 H :    0.020225
  14 H :    0.020237
  15 H :    0.023138
  16 H :    0.029514
  17 H :    0.023228

  Mayer bond orders larger than 0.100000
B(  0-C ,  1-N ) :   1.2367 B(  0-C ,  2-C ) :   0.1325 B(  0-C ,  4-C ) :   1.2948
B(  0-C , 11-H ) :   1.0030 B(  1-N ,  2-C ) :   1.2350 B(  1-N , 12-H ) :   0.9291
B(  2-C ,  3-C ) :   1.2551 B(  2-C ,  9-C ) :   1.1288 B(  3-C ,  4-C ) :   1.2411
B(  3-C ,  8-N ) :   1.4160 B(  4-C ,  5-N ) :   1.3893 B(  5-N ,  6-C ) :   1.6723
B(  6-C ,  7-C ) :   1.2050 B(  6-C , 13-H ) :   0.9647 B(  7-C ,  8-N ) :   1.6510
B(  7-C , 14-H ) :   0.9649 B(  9-C , 10-C ) :   1.9008 B(  9-C , 15-H ) :   0.9384
B( 10-C , 16-H ) :   0.9411 B( 10-C , 17-H ) :   0.9387

Dispersion correction           -0.034734508
FINAL SINGLE POINT ENERGY      -472.977479840891

DIPOLE MOMENT
-------------
                                X             Y             Z
Electronic contribution:      1.45455       4.43286      -0.32661
Nuclear contribution   :     -2.50739      -4.33252       0.27617
                        -----------------------------------------
Total Dipole Moment    :     -1.05285       0.10034      -0.05044
                        -----------------------------------------
Magnitude (a.u.)       :      1.05882
Magnitude (Debye)      :      2.69131

Rotational constants in cm-1:     0.069471     0.035206     0.023366
Rotational constants in MHz :  2082.683671  1055.462801   700.509072

                             ****ORCA TERMINATED NORMALLY****
TOTAL RUN TIME: 0 days 0 hours 6 minutes 32 seconds 200 msec
