                         Program Version 4.2.0 -  RELEASE  -
|  1> # ORCA input file
|  2> # SCF done        -21.737615786812          0.000467894907
|  3> ! B3LYP/G D3BJ Opt RIJCOSX def2-SVP def2/J
|  4> * xyz 0 1
|  5>    C       -2.09668         0.07810         0.00275
|  6>    N       -1.34085        -1.06473         0.00280
|  7>    C       -0.02702        -0.69959         0.00079
|  8>    C        1.29326        -1.19049        -0.00018
|  9>    C        2.09668        -0.07810        -0.00275
| 10>    N        1.34085         1.06473        -0.00280
| 11>    C        0.02702         0.69959        -0.00079
| 12>    C       -1.29326         1.19049         0.00018
| 13>    H       -3.16805         0.02312         0.00447
| 14>    H       -1.70443        -2.00136         0.00409
| 15>    H        1.62154        -2.21089         0.00062
| 16>    H        3.16805        -0.02312        -0.00447
| 17>    H        1.70443         2.00136        -0.00409
| 18>    H       -1.62154         2.21089        -0.00062
| 19> *
| 20>
| 21>                          ****END OF INPUT****
 Total Charge           Charge          ....    0
 Multiplicity           Mult            ....    1
 Number of Electrons    NEL             ....   56
Dispersion correction           -0.022999163
FINAL SINGLE POINT ENERGY      -341.501076174232
Dispersion correction            ... done
Dispersion correction           -0.023116172
FINAL SINGLE POINT ENERGY      -341.503795656761
Dispersion correction            ... done
Dispersion correction           -0.023132478
FINAL SINGLE POINT ENERGY      -341.503864725467
Dispersion correction            ... done
Dispersion correction           -0.023131577
FINAL SINGLE POINT ENERGY      -341.503872967699
Dispersion correction            ... done
Dispersion correction           -0.023127574
FINAL SINGLE POINT ENERGY      -341.503872251804
Dispersion correction            ... done
                    ***********************HURRAY********************

CARTESIAN COORDINATES (ANGSTROEM)
---------------------------------
  C     -2.125287    0.083531    0.002521
  N     -1.352163   -1.064034    0.003057
  C     -0.022709   -0.701139    0.000822
  C      1.310999   -1.206880   -0.000482
  C      2.125288   -0.083532   -0.002523
  N      1.352163    1.064033   -0.003055
  C      0.022709    0.701139   -0.000819
  C     -1.310998    1.206880    0.000482
  H     -3.211704    0.021156    0.003979
  H     -1.717879   -2.004842    0.004620
  H      1.656259   -2.238002    0.000167
  H      3.211705   -0.021155   -0.003983
  H      1.717879    2.004842   -0.004616
  H     -1.656261    2.238002   -0.000170

 Multiplicity           Mult            ....    1
 Number of Electrons    NEL             ....   56
 Basis Dimension        Dim             ....  142

ORBITAL ENERGIES
----------------

  NO   OCC          E(Eh)            E(eV)
   0   2.0000     -14.359418      -390.7396
   1   2.0000     -14.359353      -390.7378
   2   2.0000     -10.200822      -277.5785
   3   2.0000     -10.200821      -277.5785
   4   2.0000     -10.188480      -277.2426
   5   2.0000     -10.187995      -277.2294
   6   2.0000     -10.167595      -276.6743
   7   2.0000     -10.167525      -276.6724
   8   2.0000      -0.967509       -26.3273
   9   2.0000      -0.932488       -25.3743
  10   2.0000      -0.754377       -20.5276
  11   2.0000      -0.749161       -20.3857
  12   2.0000      -0.682863       -18.5816
  13   2.0000      -0.596592       -16.2341
  14   2.0000      -0.583436       -15.8761
  15   2.0000      -0.565051       -15.3758
  16   2.0000      -0.521407       -14.1882
  17   2.0000      -0.455383       -12.3916
  18   2.0000      -0.451760       -12.2930
  19   2.0000      -0.421625       -11.4730
  20   2.0000      -0.417284       -11.3549
  21   2.0000      -0.406796       -11.0695
  22   2.0000      -0.379508       -10.3269
  23   2.0000      -0.358294        -9.7497
  24   2.0000      -0.352374        -9.5886
  25   2.0000      -0.259151        -7.0519
  26   2.0000      -0.205088        -5.5807
  27   2.0000      -0.179695        -4.8898
  28   0.0000       0.025773         0.7013
  29   0.0000       0.059003         1.6056
  30   0.0000       0.064514         1.7555
  31   0.0000       0.084816         2.3080
  32   0.0000       0.105627         2.8742

MULLIKEN ATOMIC CHARGES
-----------------------
   0 C :    0.041787
   1 N :   -0.073789
   2 C :    0.077678
   3 C :   -0.109980
   4 C :    0.041784
   5 N :   -0.073790
   6 C :    0.077682
   7 C :   -0.109983
   8 H :   -0.007961
   9 H :    0.113956
  10 H :   -0.041691
  11 H :   -0.007959
  12 H :    0.113957
  13 H :   -0.041690
Sum of atomic charges:    0.0000000

LOEWDIN ATOMIC CHARGES
----------------------
   0 C :   -0.020285
   1 N :    0.057677
   2 C :   -0.043232
   3 C :   -0.112727
   4 C :   -0.020286
   5 N :    0.057677
   6 C :   -0.043231
   7 C :   -0.112727
   8 H :    0.015969
   9 H :    0.082810
  10 H :    0.019789
  11 H :    0.015969
  12 H :    0.082810
  13 H :    0.019789

  Mayer bond orders larger than 0.100000
B(  0-C ,  1-N ) :   1.1899 B(  0-C ,  7-C ) :   1.4757 B(  0-C ,  8-H ) :   0.9827
B(  1-N ,  2-C ) :   1.1514 B(  1-N ,  9-H ) :   0.9471 B(  2-C ,  3-C ) :   1.2376
B(  2-C ,  6-C ) :   1.3771 B(  3-C ,  4-C ) :   1.4757 B(  3-C , 10-H ) :   1.0288
B(  4-C ,  5-N ) :   1.1899 B(  4-C , 11-H ) :   0.9827 B(  5-N ,  6-C ) :   1.1514
B(  5-N , 12-H ) :   0.9471 B(  6-C ,  7-C ) :   1.2376 B(  7-C , 13-H ) :   1.0288

Dispersion correction           -0.023125848
FINAL SINGLE POINT ENERGY      -341.503870373664

DIPOLE MOMENT
-------------
                                X             Y             Z
Electronic contribution:     -0.00000       0.00000       0.00000
Nuclear contribution   :     -0.00000       0.00000      -0.00001
                        -----------------------------------------
Total Dipole Moment    :     -0.00000       0.00000      -0.00000
                        -----------------------------------------
Magnitude (a.u.)       :      0.00000
Magnitude (Debye)      :      0.00001

Rotational constants in cm-1:     0.174064     0.072247     0.051056
Rotational constants in MHz :  5218.321970  2165.899299  1530.609604

                             ****ORCA TERMINATED NORMALLY****
TOTAL RUN TIME: 0 days 0 hours 3 minutes 18 seconds 44 msec
