                         Program Version 4.2.0 -  RELEASE  -
|  1> # ORCA input file
|  2> # SCF done        -44.205214270306          0.000282995668
|  3> ! B3LYP/G D3BJ Opt RIJCOSX def2-SVP def2/J
|  4> * xyz 0 1
|  5>    C       -0.92425         1.57305         0.03441
|  6>    C       -2.08210         0.84993         0.11425
|  7>    F       -3.26193         1.49614         0.14992
|  8>    C       -2.11588        -0.56224         0.16235
|  9>    F       -3.33744        -1.12303         0.23771
| 10>    C       -0.97550        -1.34329         0.13272
| 11>    C        0.22729        -0.60344         0.04966
| 12>    C        0.25674         0.82381         0.00185
| 13>    N        1.54378         1.19427        -0.07723
| 14>    N        2.20055         0.06827        -0.07589
| 15>    C        3.63508         0.03884        -0.10737
| 16>    C        4.19940         0.11502         1.30816
| 17>    N        1.49893        -1.02738        -0.00247
| 18>    C       -0.89944        -2.79328         0.17464
| 19>    C       -1.90943        -3.65008         0.28805
| 20>    H       -0.92712         2.64846        -0.00102
| 21>    H        3.96873         0.89435        -0.69738
| 22>    H        3.93333        -0.89375        -0.58952
| 23>    H        3.87951         1.03594         1.78922
| 24>    H        5.28476         0.09568         1.27353
| 25>    H        3.85169        -0.72993         1.89738
| 26>    H        0.11680        -3.15852         0.10617
| 27>    H       -2.93727        -3.34448         0.36244
| 28>    H       -1.72704        -4.71104         0.30882
| 29> *
| 30>
| 31>                          ****END OF INPUT****
 Total Charge           Charge          ....    0
 Multiplicity           Mult            ....    1
 Number of Electrons    NEL             ....  108
Dispersion correction           -0.045842041
FINAL SINGLE POINT ENERGY      -749.856170436152
Dispersion correction            ... done
Dispersion correction           -0.045702441
FINAL SINGLE POINT ENERGY      -749.859414602401
Dispersion correction            ... done
Dispersion correction           -0.045717309
FINAL SINGLE POINT ENERGY      -749.859306703750
Dispersion correction            ... done
FINAL SINGLE POINT ENERGY      -749.859262892865
FINAL SINGLE POINT ENERGY      -749.859191865275
Dispersion correction            ... done
Dispersion correction           -0.045759156
FINAL SINGLE POINT ENERGY      -749.859226014779
Dispersion correction            ... done
Dispersion correction           -0.045757499
FINAL SINGLE POINT ENERGY      -749.859226726962
Dispersion correction            ... done
                    ***********************HURRAY********************

CARTESIAN COORDINATES (ANGSTROEM)
---------------------------------
  C     -0.912353    1.589942   -0.007771
  C     -2.069190    0.873877    0.180623
  F     -3.238513    1.505833    0.322270
  C     -2.099460   -0.553737    0.249578
  F     -3.305383   -1.101955    0.442929
  C     -0.963624   -1.343335    0.138895
  C      0.246933   -0.598679   -0.015900
  C      0.277205    0.827811   -0.093458
  N      1.565397    1.210973   -0.212428
  N      2.224830    0.064548   -0.208288
  C      3.678509    0.033746   -0.113409
  C      4.123638    0.127349    1.342988
  N      1.516054   -1.045033   -0.088736
  C     -0.902493   -2.804550    0.185978
  C     -1.918974   -3.679115    0.247128
  H     -0.929413    2.677936   -0.065303
  H      4.054604    0.875180   -0.709817
  H      4.003148   -0.907124   -0.577069
  H      3.783148    1.075091    1.785908
  H      5.220422    0.076553    1.418785
  H      3.694519   -0.701709    1.924485
  H      0.120499   -3.191014    0.151117
  H     -2.963382   -3.367554    0.274633
  H     -1.706931   -4.751731    0.267260

 Multiplicity           Mult            ....    1
 Number of Electrons    NEL             ....  108
 Basis Dimension        Dim             ....  255

ORBITAL ENERGIES
----------------

  NO   OCC          E(Eh)            E(eV)
   0   2.0000     -24.713933      -672.5003
   1   2.0000     -24.709318      -672.3747
   2   2.0000     -14.456190      -393.3729
   3   2.0000     -14.365897      -390.9159
   4   2.0000     -14.364788      -390.8857
   5   2.0000     -10.290135      -280.0088
   6   2.0000     -10.289146      -279.9819
   7   2.0000     -10.250100      -278.9194
   8   2.0000     -10.231185      -278.4047
   9   2.0000     -10.229753      -278.3657
  10   2.0000     -10.221911      -278.1523
  11   2.0000     -10.213465      -277.9225
  12   2.0000     -10.203265      -277.6450
  13   2.0000     -10.203156      -277.6420
  14   2.0000     -10.193702      -277.3847
  15   2.0000      -1.230472       -33.4829
  16   2.0000      -1.213656       -33.0253
  17   2.0000      -1.117391       -30.4058
  18   2.0000      -0.901725       -24.5372
  19   2.0000      -0.890813       -24.2402
  20   2.0000      -0.838398       -22.8140
  21   2.0000      -0.797678       -21.7059
  22   2.0000      -0.752286       -20.4707
  23   2.0000      -0.740233       -20.1428
  24   2.0000      -0.688114       -18.7245
  25   2.0000      -0.648616       -17.6497
  26   2.0000      -0.637129       -17.3372
  27   2.0000      -0.610298       -16.6070
  28   2.0000      -0.580166       -15.7871
  29   2.0000      -0.567516       -15.4429
  30   2.0000      -0.546153       -14.8616
  31   2.0000      -0.537990       -14.6395
  32   2.0000      -0.511538       -13.9197
  33   2.0000      -0.497137       -13.5278
  34   2.0000      -0.493823       -13.4376
  35   2.0000      -0.481229       -13.0949
  36   2.0000      -0.470765       -12.8102
  37   2.0000      -0.462762       -12.5924
  38   2.0000      -0.460192       -12.5225
  39   2.0000      -0.452549       -12.3145
  40   2.0000      -0.426619       -11.6089
  41   2.0000      -0.417269       -11.3545
  42   2.0000      -0.410746       -11.1770
  43   2.0000      -0.398159       -10.8344
  44   2.0000      -0.394441       -10.7333
  45   2.0000      -0.376307       -10.2398
  46   2.0000      -0.361081        -9.8255
  47   2.0000      -0.359237        -9.7753
  48   2.0000      -0.335007        -9.1160
  49   2.0000      -0.326443        -8.8830
  50   2.0000      -0.306557        -8.3418
  51   2.0000      -0.289462        -7.8767
  52   2.0000      -0.256498        -6.9797
  53   2.0000      -0.229297        -6.2395
  54   0.0000      -0.073356        -1.9961
  55   0.0000      -0.015878        -0.4321
  56   0.0000       0.012579         0.3423
  57   0.0000       0.052680         1.4335
  58   0.0000       0.055930         1.5219

MULLIKEN ATOMIC CHARGES
-----------------------
   0 C :   -0.152715
   1 C :    0.262045
   2 F :   -0.182677
   3 C :    0.137209
   4 F :   -0.178895
   5 C :    0.021428
   6 C :   -0.031435
   7 C :    0.060093
   8 N :   -0.068098
   9 N :   -0.105391
  10 C :    0.167143
  11 C :   -0.019906
  12 N :   -0.076899
  13 C :   -0.027901
  14 C :   -0.011227
  15 H :   -0.011210
  16 H :    0.032241
  17 H :    0.029011
  18 H :    0.032170
  19 H :    0.032895
  20 H :    0.032842
  21 H :   -0.000206
  22 H :    0.031560
  23 H :    0.027922
Sum of atomic charges:    0.0000000

LOEWDIN ATOMIC CHARGES
----------------------
   0 C :   -0.054273
   1 C :    0.059678
   2 F :   -0.051835
   3 C :    0.061249
   4 F :   -0.043897
   5 C :   -0.054940
   6 C :   -0.047136
   7 C :   -0.052260
   8 N :   -0.098286
   9 N :    0.146070
  10 C :    0.045062
  11 C :   -0.055725
  12 N :   -0.098262
  13 C :   -0.023136
  14 C :   -0.029781
  15 H :    0.045433
  16 H :    0.034952
  17 H :    0.034144
  18 H :    0.031527
  19 H :    0.033685
  20 H :    0.031687
  21 H :    0.034708
  22 H :    0.023162
  23 H :    0.028175

  Mayer bond orders larger than 0.100000
B(  0-C ,  1-C ) :   1.4341 B(  0-C ,  5-C ) :   0.1246 B(  0-C ,  7-C ) :   1.1415
B(  0-C , 15-H ) :   1.0368 B(  1-C ,  2-F ) :   1.0924 B(  1-C ,  3-C ) :   1.1652
B(  3-C ,  4-F ) :   1.1150 B(  3-C ,  5-C ) :   1.3703 B(  5-C ,  6-C ) :   1.1720
B(  5-C , 13-C ) :   1.1315 B(  6-C ,  7-C ) :   1.2124 B(  6-C , 12-N ) :   1.4633
B(  7-C ,  8-N ) :   1.4346 B(  8-N ,  9-N ) :   1.2164 B(  8-N , 12-N ) :   0.1691
B(  9-N , 10-C ) :   0.9311 B(  9-N , 12-N ) :   1.2024 B( 10-C , 11-C ) :   1.1133
B( 10-C , 16-H ) :   0.9417 B( 10-C , 17-H ) :   0.9420 B( 11-C , 18-H ) :   0.9672
B( 11-C , 19-H ) :   0.9663 B( 11-C , 20-H ) :   0.9669 B( 13-C , 14-C ) :   1.8995
B( 13-C , 21-H ) :   0.9562 B( 14-C , 22-H ) :   0.9440 B( 14-C , 23-H ) :   0.9429

Dispersion correction           -0.045756959
FINAL SINGLE POINT ENERGY      -749.859221155832

DIPOLE MOMENT
-------------
                                X             Y             Z
Electronic contribution:    -20.48229       5.94772      -2.26473
Nuclear contribution   :     21.72195      -6.06577       2.30363
                        -----------------------------------------
Total Dipole Moment    :      1.23966      -0.11805       0.03890
                        -----------------------------------------
Magnitude (a.u.)       :      1.24587
Magnitude (Debye)      :      3.16676

Rotational constants in cm-1:     0.034209     0.013678     0.010179
Rotational constants in MHz :  1025.560436   410.070964   305.145597

                             ****ORCA TERMINATED NORMALLY****
TOTAL RUN TIME: 0 days 0 hours 15 minutes 49 seconds 181 msec
