                         Program Version 4.2.0 -  RELEASE  -
|  1> # ORCA input file
|  2> # SCF done        -50.490416285868          0.000392720895
|  3> ! B3LYP/G D3BJ Opt RIJCOSX def2-SVP def2/J
|  4> * xyz 0 1
|  5>    C        2.97043        -0.52104        -0.23755
|  6>    N        2.51037         0.65316        -0.07040
|  7>    C        1.14439         0.67533        -0.07699
|  8>    C        0.56157        -0.60012        -0.25870
|  9>    S        1.79718        -1.80616        -0.43850
| 10>    C       -0.80965        -0.72331        -0.24159
| 11>    C       -1.58865         0.41564        -0.02422
| 12>    C       -1.02913         1.69721         0.07000
| 13>    C        0.35960         1.82859         0.05145
| 14>    C        1.09302         3.13640         0.15837
| 15>    C        1.81657         3.48542        -1.14391
| 16>    C       -1.94270         2.89703         0.09576
| 17>    C       -2.02294         3.55034        -1.28566
| 18>    N       -2.96238         0.12679         0.08907
| 19>    C       -3.27671        -1.09874        -0.56606
| 20>    S       -1.76652        -2.17826        -0.46201
| 21>    C       -3.62987         0.48735         1.25476
| 22>    C       -4.91301         0.25866         1.50432
| 23>    H        4.01750        -0.75206        -0.25961
| 24>    H        1.84318         3.03839         0.94625
| 25>    H        0.41479         3.94381         0.42782
| 26>    H        2.56779         2.73168        -1.36111
| 27>    H        2.30771         4.45111        -1.05003
| 28>    H        1.12016         3.52937        -1.97854
| 29>    H       -1.59458         3.62669         0.82873
| 30>    H       -2.94855         2.59413         0.38231
| 31>    H       -1.05533         3.93022        -1.59782
| 32>    H       -2.72914         4.37718        -1.26655
| 33>    H       -2.36109         2.82502        -2.02215
| 34>    H       -3.47184        -0.94746        -1.63246
| 35>    H       -4.11033        -1.61731        -0.09712
| 36>    H       -3.01149         1.01115         1.97196
| 37>    H       -5.56641        -0.24152         0.81170
| 38>    H       -5.34715         0.57340         2.43447
| 39> *
| 40>
| 41>                          ****END OF INPUT****
 Total Charge           Charge          ....    0
 Multiplicity           Mult            ....    1
 Number of Electrons    NEL             ....  146
Dispersion correction           -0.083961173
FINAL SINGLE POINT ENERGY     -1448.380737744306
Dispersion correction            ... done
Dispersion correction           -0.083208271
FINAL SINGLE POINT ENERGY     -1448.386477291815
Dispersion correction            ... done
Dispersion correction           -0.083042605
FINAL SINGLE POINT ENERGY     -1448.386734825689
Dispersion correction            ... done
FINAL SINGLE POINT ENERGY     -1448.386859567695
FINAL SINGLE POINT ENERGY     -1448.386960842313
FINAL SINGLE POINT ENERGY     -1448.387022633501
FINAL SINGLE POINT ENERGY     -1448.387084083727
Dispersion correction            ... done
Dispersion correction           -0.083043688
FINAL SINGLE POINT ENERGY     -1448.387124220722
Dispersion correction            ... done
Dispersion correction           -0.083032426
FINAL SINGLE POINT ENERGY     -1448.387131394533
Dispersion correction            ... done
                    ***********************HURRAY********************

CARTESIAN COORDINATES (ANGSTROEM)
---------------------------------
  C      3.025613   -0.577930   -0.299483
  N      2.583557    0.614079   -0.083829
  C      1.197329    0.644035   -0.054067
  C      0.589208   -0.623336   -0.251510
  S      1.811458   -1.843216   -0.503768
  C     -0.794300   -0.742271   -0.217875
  C     -1.562954    0.411716    0.007271
  C     -0.984912    1.701759    0.118287
  C      0.422702    1.814704    0.113770
  C      1.168619    3.125808    0.230490
  C      1.784195    3.600829   -1.094394
  C     -1.878067    2.928842    0.095931
  C     -2.120149    3.434645   -1.335240
  N     -2.949874    0.116266    0.104920
  C     -3.272180   -1.128369   -0.556779
  S     -1.759953   -2.213729   -0.388300
  C     -3.687629    0.530578    1.217412
  C     -4.994828    0.312431    1.430964
  H      4.084825   -0.842808   -0.354270
  H      1.986419    2.984238    0.954617
  H      0.514478    3.907222    0.640991
  H      2.507905    2.860346   -1.463701
  H      2.314746    4.556664   -0.956452
  H      1.015591    3.747834   -1.868801
  H     -1.436805    3.733022    0.701930
  H     -2.849445    2.707572    0.554728
  H     -1.177209    3.729384   -1.818698
  H     -2.791611    4.307922   -1.340982
  H     -2.581300    2.646763   -1.950662
  H     -3.477873   -0.992923   -1.630831
  H     -4.122293   -1.620669   -0.071186
  H     -3.089802    1.066998    1.959585
  H     -5.636886   -0.190331    0.704465
  H     -5.451785    0.650015    2.361456

 Multiplicity           Mult            ....    1
 Number of Electrons    NEL             ....  146
 Basis Dimension        Dim             ....  340

ORBITAL ENERGIES
----------------

  NO   OCC          E(Eh)            E(eV)
   0   2.0000     -88.880262     -2418.5549
   1   2.0000     -88.854795     -2417.8619
   2   2.0000     -14.369810      -391.0224
   3   2.0000     -14.333371      -390.0309
   4   2.0000     -10.260936      -279.2143
   5   2.0000     -10.254019      -279.0260
   6   2.0000     -10.235526      -278.5228
   7   2.0000     -10.231737      -278.4197
   8   2.0000     -10.225625      -278.2534
   9   2.0000     -10.224996      -278.2363
  10   2.0000     -10.221308      -278.1359
  11   2.0000     -10.203892      -277.6620
  12   2.0000     -10.199389      -277.5395
  13   2.0000     -10.192632      -277.3556
  14   2.0000     -10.186290      -277.1830
  15   2.0000     -10.183391      -277.1042
  16   2.0000     -10.180073      -277.0139
  17   2.0000     -10.175171      -276.8805
  18   2.0000      -7.975492      -217.0242
  19   2.0000      -7.949987      -216.3301
  20   2.0000      -5.943668      -161.7354
  21   2.0000      -5.939862      -161.6319
  22   2.0000      -5.936276      -161.5343
  23   2.0000      -5.919097      -161.0668
  24   2.0000      -5.915705      -160.9745
  25   2.0000      -5.908434      -160.7767
  26   2.0000      -0.977066       -26.5873
  27   2.0000      -0.962528       -26.1917
  28   2.0000      -0.855688       -23.2845
  29   2.0000      -0.825972       -22.4758
  30   2.0000      -0.795430       -21.6448
  31   2.0000      -0.775333       -21.0979
  32   2.0000      -0.762393       -20.7458
  33   2.0000      -0.744757       -20.2659
  34   2.0000      -0.723781       -19.6951
  35   2.0000      -0.703432       -19.1414
  36   2.0000      -0.654319       -17.8049
  37   2.0000      -0.637037       -17.3346
  38   2.0000      -0.629482       -17.1291
  39   2.0000      -0.610699       -16.6180
  40   2.0000      -0.575871       -15.6702
  41   2.0000      -0.560848       -15.2614
  42   2.0000      -0.548587       -14.9278
  43   2.0000      -0.526190       -14.3184
  44   2.0000      -0.518681       -14.1140
  45   2.0000      -0.486227       -13.2309
  46   2.0000      -0.472694       -12.8627
  47   2.0000      -0.466937       -12.7060
  48   2.0000      -0.452050       -12.3009
  49   2.0000      -0.441706       -12.0194
  50   2.0000      -0.431730       -11.7480
  51   2.0000      -0.427743       -11.6395
  52   2.0000      -0.422373       -11.4934
  53   2.0000      -0.419997       -11.4287
  54   2.0000      -0.411052       -11.1853
  55   2.0000      -0.406816       -11.0700
  56   2.0000      -0.392765       -10.6877
  57   2.0000      -0.382995       -10.4218
  58   2.0000      -0.381287       -10.3753
  59   2.0000      -0.373427       -10.1615
  60   2.0000      -0.364879        -9.9289
  61   2.0000      -0.362538        -9.8652
  62   2.0000      -0.353941        -9.6312
  63   2.0000      -0.349863        -9.5203
  64   2.0000      -0.337511        -9.1842
  65   2.0000      -0.328022        -8.9259
  66   2.0000      -0.321228        -8.7411
  67   2.0000      -0.300030        -8.1642
  68   2.0000      -0.278830        -7.5874
  69   2.0000      -0.269854        -7.3431
  70   2.0000      -0.255896        -6.9633
  71   2.0000      -0.222694        -6.0598
  72   2.0000      -0.196632        -5.3506
  73   0.0000      -0.044060        -1.1989
  74   0.0000      -0.014855        -0.4042
  75   0.0000      -0.006918        -0.1882
  76   0.0000       0.012759         0.3472
  77   0.0000       0.024976         0.6796

MULLIKEN ATOMIC CHARGES
-----------------------
   0 C :    0.003611
   1 N :   -0.096587
   2 C :    0.049156
   3 C :   -0.124643
   4 S :    0.093425
   5 C :   -0.117734
   6 C :    0.133956
   7 C :   -0.140940
   8 C :   -0.134379
   9 C :    0.111028
  10 C :    0.003942
  11 C :    0.073937
  12 C :    0.025828
  13 N :   -0.275907
  14 C :    0.102515
  15 S :    0.007428
  16 C :    0.085331
  17 C :   -0.081707
  18 H :    0.044798
  19 H :    0.011605
  20 H :   -0.020371
  21 H :    0.027019
  22 H :    0.008026
  23 H :    0.002929
  24 H :   -0.000937
  25 H :   -0.005897
  26 H :    0.003100
  27 H :    0.015626
  28 H :    0.013066
  29 H :    0.065247
  30 H :    0.052640
  31 H :    0.026550
  32 H :    0.016925
  33 H :    0.021412
Sum of atomic charges:    0.0000000

LOEWDIN ATOMIC CHARGES
----------------------
   0 C :   -0.113899
   1 N :   -0.095667
   2 C :   -0.032748
   3 C :   -0.194460
   4 S :    0.374219
   5 C :   -0.186356
   6 C :    0.000133
   7 C :   -0.039728
   8 C :   -0.019936
   9 C :   -0.024749
  10 C :   -0.049899
  11 C :   -0.027752
  12 C :   -0.047189
  13 N :   -0.048326
  14 C :   -0.024244
  15 S :    0.250520
  16 C :    0.026410
  17 C :   -0.127138
  18 H :    0.021433
  19 H :    0.035250
  20 H :    0.020030
  21 H :    0.025041
  22 H :    0.022486
  23 H :    0.016367
  24 H :    0.025376
  25 H :    0.025647
  26 H :    0.020453
  27 H :    0.024208
  28 H :    0.024297
  29 H :    0.017765
  30 H :    0.024210
  31 H :    0.029681
  32 H :    0.019361
  33 H :    0.029205

  Mayer bond orders larger than 0.100000
B(  0-C ,  1-N ) :   1.7385 B(  0-C ,  4-S ) :   1.0916 B(  0-C , 18-H ) :   0.9573
B(  1-N ,  2-C ) :   1.2835 B(  1-N ,  4-S ) :   0.1231 B(  2-C ,  3-C ) :   1.3116
B(  2-C ,  8-C ) :   1.3319 B(  3-C ,  4-S ) :   1.0541 B(  3-C ,  5-C ) :   1.5007
B(  5-C ,  6-C ) :   1.3949 B(  5-C , 15-S ) :   1.0071 B(  6-C ,  7-C ) :   1.3552
B(  6-C , 13-N ) :   1.0145 B(  7-C ,  8-C ) :   1.3934 B(  7-C , 11-C ) :   1.0873
B(  8-C ,  9-C ) :   1.1036 B(  9-C , 10-C ) :   1.1108 B(  9-C , 19-H ) :   0.9029
B(  9-C , 20-H ) :   0.9072 B( 10-C , 21-H ) :   0.9630 B( 10-C , 22-H ) :   0.9605
B( 10-C , 23-H ) :   0.9610 B( 11-C , 12-C ) :   1.1150 B( 11-C , 24-H ) :   0.9059
B( 11-C , 25-H ) :   0.9053 B( 12-C , 26-H ) :   0.9650 B( 12-C , 27-H ) :   0.9611
B( 12-C , 28-H ) :   0.9637 B( 13-N , 14-C ) :   1.0092 B( 13-N , 16-C ) :   1.0756
B( 14-C , 15-S ) :   0.9639 B( 14-C , 29-H ) :   0.9470 B( 14-C , 30-H ) :   0.9442
B( 16-C , 17-C ) :   1.8963 B( 16-C , 31-H ) :   0.9484 B( 17-C , 32-H ) :   0.9500
B( 17-C , 33-H ) :   0.9448

Dispersion correction           -0.083031535
FINAL SINGLE POINT ENERGY     -1448.387129259378

DIPOLE MOMENT
-------------
                                X             Y             Z
Electronic contribution:      9.99565     -25.86095       1.11702
Nuclear contribution   :    -10.43385      25.95474      -1.21615
                        -----------------------------------------
Total Dipole Moment    :     -0.43819       0.09379      -0.09913
                        -----------------------------------------
Magnitude (a.u.)       :      0.45895
Magnitude (Debye)      :      1.16656

Rotational constants in cm-1:     0.015259     0.010935     0.006899
Rotational constants in MHz :   457.463088   327.834644   206.815892

                             ****ORCA TERMINATED NORMALLY****
TOTAL RUN TIME: 0 days 0 hours 35 minutes 44 seconds 492 msec
