                         Program Version 4.2.0 -  RELEASE  -
|  1> # ORCA input file
|  2> # SCF done        -38.909329647501          0.000644811610
|  3> ! B3LYP/G D3BJ Opt RIJCOSX def2-SVP def2/J
|  4> * xyz 0 1
|  5>    C       -0.86943        -0.09941         1.73844
|  6>    S       -0.23975         1.49279         1.62801
|  7>    C        1.22284         0.92539         0.94987
|  8>    C        1.23718        -0.43910         0.81201
|  9>    C        0.01240        -1.03985         1.26618
| 10>    C       -0.19850        -2.43817         1.21645
| 11>    S        0.83960        -3.53635         0.52739
| 12>    O        0.39687        -3.73100        -1.27647
| 13>    C       -0.59666        -2.90316        -1.74579
| 14>    C        2.28834        -2.56241         0.20426
| 15>    C        2.32682        -1.22136         0.33800
| 16>    O        3.40248        -3.23012        -0.16566
| 17>    C        3.28209        -4.59247        -0.52121
| 18>    H       -1.84921        -0.25764         2.14056
| 19>    H        1.99816         1.61842         0.69206
| 20>    H       -1.05780        -2.87476         1.69580
| 21>    H       -1.37257        -3.49517        -2.24088
| 22>    H       -0.19171        -2.16381        -2.44720
| 23>    H       -1.06562        -2.35715        -0.90427
| 24>    H        3.25029        -0.71923         0.08732
| 25>    H        4.23501        -4.86332        -0.97209
| 26>    H        2.47264        -4.74579        -1.23852
| 27>    H        3.10890        -5.21343         0.36350
| 28> *
| 29>
| 30>                          ****END OF INPUT****
 Total Charge           Charge          ....    0
 Multiplicity           Mult            ....    1
 Number of Electrons    NEL             ....  112
Dispersion correction           -0.053582156
FINAL SINGLE POINT ENERGY     -1295.143427847644
Dispersion correction            ... done
Dispersion correction           -0.053273671
FINAL SINGLE POINT ENERGY     -1295.148437695803
Dispersion correction            ... done
Dispersion correction           -0.053161516
FINAL SINGLE POINT ENERGY     -1295.149681148529
Dispersion correction            ... done
FINAL SINGLE POINT ENERGY     -1295.150216100565
FINAL SINGLE POINT ENERGY     -1295.150497186090
FINAL SINGLE POINT ENERGY     -1295.150804143398
FINAL SINGLE POINT ENERGY     -1295.151077633571
FINAL SINGLE POINT ENERGY     -1295.151237758071
FINAL SINGLE POINT ENERGY     -1295.151370749238
FINAL SINGLE POINT ENERGY     -1295.151440382909
FINAL SINGLE POINT ENERGY     -1295.151306948646
FINAL SINGLE POINT ENERGY     -1295.151283477531
FINAL SINGLE POINT ENERGY     -1295.151286170181
FINAL SINGLE POINT ENERGY     -1295.151313591527
FINAL SINGLE POINT ENERGY     -1295.151355903401
FINAL SINGLE POINT ENERGY     -1295.151359939890
FINAL SINGLE POINT ENERGY     -1295.151367910982
Dispersion correction            ... done
Dispersion correction           -0.054162975
FINAL SINGLE POINT ENERGY     -1295.151368483045
Dispersion correction            ... done
Dispersion correction           -0.054155421
FINAL SINGLE POINT ENERGY     -1295.151375547905
Dispersion correction            ... done
                    ***********************HURRAY********************

CARTESIAN COORDINATES (ANGSTROEM)
---------------------------------
  C     -0.917397   -0.065494    1.810063
  S     -0.360015    1.520462    1.417268
  C      1.083565    0.915623    0.704364
  C      1.147142   -0.465959    0.765609
  C     -0.024731   -1.041915    1.398744
  C     -0.148004   -2.461598    1.584464
  S      0.762513   -3.584590    0.779388
  O      0.282360   -3.928304   -0.998697
  C     -0.317234   -2.841175   -1.650123
  C      2.220449   -2.644835    0.315742
  C      2.230548   -1.289410    0.299182
  O      3.322585   -3.352405    0.003896
  C      3.199661   -4.575190   -0.719473
  H     -1.874618   -0.207854    2.307301
  H      1.824050    1.594380    0.285578
  H     -0.987253   -2.889441    2.135229
  H     -0.879083   -3.224917   -2.519609
  H      0.418041   -2.094135   -2.010670
  H     -1.041559   -2.310640   -0.998488
  H      3.146763   -0.817448   -0.064984
  H      4.222182   -4.878571   -0.977801
  H      2.585896   -4.444269   -1.622421
  H      2.736509   -5.359417   -0.096804

 Multiplicity           Mult            ....    1
 Number of Electrons    NEL             ....  112
 Basis Dimension        Dim             ....  240

ORBITAL ENERGIES
----------------

  NO   OCC          E(Eh)            E(eV)
   0   2.0000     -88.943687     -2420.2808
   1   2.0000     -88.879516     -2418.5346
   2   2.0000     -19.176661      -521.8235
   3   2.0000     -19.115073      -520.1476
   4   2.0000     -10.276559      -279.6394
   5   2.0000     -10.245310      -278.7891
   6   2.0000     -10.217342      -278.0280
   7   2.0000     -10.213217      -277.9158
   8   2.0000     -10.208139      -277.7776
   9   2.0000     -10.207979      -277.7732
  10   2.0000     -10.207593      -277.7627
  11   2.0000     -10.204936      -277.6904
  12   2.0000     -10.204683      -277.6836
  13   2.0000      -8.028531      -218.4674
  14   2.0000      -7.974207      -216.9892
  15   2.0000      -5.996775      -163.1805
  16   2.0000      -5.994616      -163.1218
  17   2.0000      -5.989520      -162.9831
  18   2.0000      -5.942187      -161.6951
  19   2.0000      -5.938029      -161.5820
  20   2.0000      -5.936028      -161.5275
  21   2.0000      -1.072535       -29.1852
  22   2.0000      -0.977243       -26.5921
  23   2.0000      -0.891224       -24.2514
  24   2.0000      -0.849183       -23.1074
  25   2.0000      -0.787046       -21.4166
  26   2.0000      -0.752947       -20.4887
  27   2.0000      -0.728918       -19.8349
  28   2.0000      -0.683070       -18.5873
  29   2.0000      -0.657077       -17.8800
  30   2.0000      -0.624521       -16.9941
  31   2.0000      -0.586047       -15.9471
  32   2.0000      -0.576162       -15.6782
  33   2.0000      -0.532924       -14.5016
  34   2.0000      -0.521646       -14.1947
  35   2.0000      -0.496859       -13.5202
  36   2.0000      -0.479368       -13.0443
  37   2.0000      -0.475512       -12.9393
  38   2.0000      -0.456372       -12.4185
  39   2.0000      -0.437186       -11.8964
  40   2.0000      -0.435218       -11.8429
  41   2.0000      -0.423939       -11.5360
  42   2.0000      -0.420938       -11.4543
  43   2.0000      -0.404567       -11.0088
  44   2.0000      -0.398679       -10.8486
  45   2.0000      -0.377903       -10.2833
  46   2.0000      -0.367656       -10.0044
  47   2.0000      -0.360570        -9.8116
  48   2.0000      -0.340525        -9.2662
  49   2.0000      -0.334543        -9.1034
  50   2.0000      -0.320306        -8.7160
  51   2.0000      -0.295479        -8.0404
  52   2.0000      -0.280412        -7.6304
  53   2.0000      -0.254204        -6.9172
  54   2.0000      -0.216388        -5.8882
  55   2.0000      -0.198749        -5.4082
  56   0.0000      -0.053892        -1.4665
  57   0.0000      -0.009351        -0.2544
  58   0.0000       0.013851         0.3769
  59   0.0000       0.035808         0.9744
  60   0.0000       0.049173         1.3381

MULLIKEN ATOMIC CHARGES
-----------------------
   0 C :   -0.154087
   1 S :    0.117848
   2 C :   -0.140047
   3 C :    0.079696
   4 C :    0.140081
   5 C :   -0.182631
   6 S :    0.344122
   7 O :   -0.504044
   8 C :    0.179350
   9 C :    0.027100
  10 C :    0.055239
  11 O :   -0.310142
  12 C :    0.182542
  13 H :    0.011959
  14 H :    0.017239
  15 H :    0.024590
  16 H :    0.016956
  17 H :    0.000417
  18 H :    0.007538
  19 H :   -0.014440
  20 H :    0.030708
  21 H :    0.040188
  22 H :    0.029818
Sum of atomic charges:   -0.0000000

LOEWDIN ATOMIC CHARGES
----------------------
   0 C :   -0.218923
   1 S :    0.451671
   2 C :   -0.203139
   3 C :   -0.065675
   4 C :   -0.069239
   5 C :   -0.309729
   6 S :    0.781383
   7 O :   -0.395989
   8 C :    0.028943
   9 C :   -0.094650
  10 C :   -0.059417
  11 O :   -0.108055
  12 C :    0.077625
  13 H :    0.022467
  14 H :    0.024623
  15 H :    0.025723
  16 H :    0.017603
  17 H :   -0.003254
  18 H :    0.001607
  19 H :    0.040867
  20 H :    0.025130
  21 H :    0.018432
  22 H :    0.011996

  Mayer bond orders larger than 0.100000
B(  0-C ,  1-S ) :   1.1645 B(  0-C ,  4-C ) :   1.4647 B(  0-C , 13-H ) :   0.9633
B(  1-S ,  2-C ) :   1.1861 B(  2-C ,  3-C ) :   1.4556 B(  2-C , 14-H ) :   0.9636
B(  3-C ,  4-C ) :   1.1957 B(  3-C , 10-C ) :   1.1266 B(  4-C ,  5-C ) :   1.1369
B(  5-C ,  6-S ) :   1.4007 B(  5-C ,  7-O ) :   0.1458 B(  5-C , 15-H ) :   0.9486
B(  6-S ,  7-O ) :   0.5506 B(  6-S ,  9-C ) :   0.9661 B(  7-O ,  8-C ) :   1.0119
B(  8-C , 16-H ) :   0.9690 B(  8-C , 17-H ) :   0.9608 B(  8-C , 18-H ) :   0.9568
B(  9-C , 10-C ) :   1.6279 B(  9-C , 11-O ) :   1.1392 B( 10-C , 19-H ) :   0.9704
B( 11-O , 12-C ) :   0.9251 B( 12-C , 20-H ) :   0.9758 B( 12-C , 21-H ) :   0.9596
B( 12-C , 22-H ) :   0.9664

Dispersion correction           -0.054152961
FINAL SINGLE POINT ENERGY     -1295.151378387374

DIPOLE MOMENT
-------------
                                X             Y             Z
Electronic contribution:     -1.48500       6.57498       7.91368
Nuclear contribution   :      1.59537      -6.51526      -8.00673
                        -----------------------------------------
Total Dipole Moment    :      0.11037       0.05972      -0.09305
                        -----------------------------------------
Magnitude (a.u.)       :      0.15622
Magnitude (Debye)      :      0.39709

Rotational constants in cm-1:     0.043710     0.013701     0.012333
Rotational constants in MHz :  1310.403865   410.740555   369.727477

                             ****ORCA TERMINATED NORMALLY****
TOTAL RUN TIME: 0 days 0 hours 40 minutes 27 seconds 218 msec
