                         Program Version 4.2.0 -  RELEASE  -
|  1> # ORCA input file
|  2> # SCF done        -31.827904206657          0.000624224859
|  3> ! B3LYP/G D3BJ Opt RIJCOSX def2-SVP def2/J
|  4> * xyz 0 1
|  5>    C        1.42834        -1.30462        -0.00286
|  6>    S        2.70623        -0.16804        -0.00996
|  7>    C        1.59931         1.16678         0.09504
|  8>    C        0.29857         0.71442         0.14578
|  9>    C        0.20389        -0.70609         0.07643
| 10>    O       -0.92114        -1.48324         0.12094
| 11>    C       -2.15211        -0.86572        -0.02696
| 12>    S       -2.39455         0.47024         1.21137
| 13>    S       -1.10169         1.77764         0.29751
| 14>    C        2.13024         2.50240         0.11471
| 15>    C        1.44813         3.61982        -0.12194
| 16>    H        1.62302        -2.35555        -0.05467
| 17>    H       -2.90884        -1.62609         0.16265
| 18>    H       -2.28715        -0.42006        -1.01887
| 19>    H        3.19067         2.55196         0.32690
| 20>    H        0.40331         3.61406        -0.38119
| 21>    H        1.92613         4.58198        -0.06892
| 22> *
| 23>
| 24>                          ****END OF INPUT****
 Total Charge           Charge          ....    0
 Multiplicity           Mult            ....    1
 Number of Electrons    NEL             ....  104
Dispersion correction           -0.045339451
FINAL SINGLE POINT ENERGY     -1539.562631705626
Dispersion correction            ... done
Dispersion correction           -0.044930391
FINAL SINGLE POINT ENERGY     -1539.565612908502
Dispersion correction            ... done
Dispersion correction           -0.044897203
FINAL SINGLE POINT ENERGY     -1539.565930788492
Dispersion correction            ... done
FINAL SINGLE POINT ENERGY     -1539.565983067841
Dispersion correction            ... done
Dispersion correction           -0.044878894
FINAL SINGLE POINT ENERGY     -1539.566001096571
Dispersion correction            ... done
Dispersion correction           -0.044887544
FINAL SINGLE POINT ENERGY     -1539.566008621150
Dispersion correction            ... done
                    ***********************HURRAY********************

CARTESIAN COORDINATES (ANGSTROEM)
---------------------------------
  C      1.437014   -1.323000   -0.013513
  S      2.706506   -0.160679   -0.056221
  C      1.590058    1.177641    0.049949
  C      0.278008    0.714871    0.105195
  C      0.199897   -0.726821    0.067426
  O     -0.920130   -1.495076    0.157636
  C     -2.186826   -0.909682    0.009845
  S     -2.468186    0.486507    1.164006
  S     -1.132990    1.781677    0.171963
  C      2.139161    2.520814    0.101580
  C      1.496227    3.686437   -0.086909
  H      1.638455   -2.391460   -0.044537
  H     -2.920161   -1.690890    0.253457
  H     -2.347350   -0.538725   -1.015796
  H      3.207672    2.558680    0.341987
  H      0.444588    3.747490   -0.371274
  H      2.030418    4.632105    0.031165

 Multiplicity           Mult            ....    1
 Number of Electrons    NEL             ....  104
 Basis Dimension        Dim             ....  196

ORBITAL ENERGIES
----------------

  NO   OCC          E(Eh)            E(eV)
   0   2.0000     -88.881672     -2418.5933
   1   2.0000     -88.880729     -2418.5676
   2   2.0000     -88.869136     -2418.2521
   3   2.0000     -19.183114      -521.9991
   4   2.0000     -10.285969      -279.8954
   5   2.0000     -10.265269      -279.3322
   6   2.0000     -10.231395      -278.4104
   7   2.0000     -10.229926      -278.3704
   8   2.0000     -10.213992      -277.9368
   9   2.0000     -10.209304      -277.8093
  10   2.0000     -10.194687      -277.4115
  11   2.0000      -7.976600      -217.0543
  12   2.0000      -7.974163      -216.9880
  13   2.0000      -7.964609      -216.7280
  14   2.0000      -5.944678      -161.7629
  15   2.0000      -5.943978      -161.7439
  16   2.0000      -5.940915      -161.6605
  17   2.0000      -5.939683      -161.6270
  18   2.0000      -5.937698      -161.5730
  19   2.0000      -5.934320      -161.4810
  20   2.0000      -5.932084      -161.4202
  21   2.0000      -5.930259      -161.3706
  22   2.0000      -5.922130      -161.1494
  23   2.0000      -1.080767       -29.4092
  24   2.0000      -0.894453       -24.3393
  25   2.0000      -0.833495       -22.6805
  26   2.0000      -0.789427       -21.4814
  27   2.0000      -0.774181       -21.0665
  28   2.0000      -0.719161       -19.5694
  29   2.0000      -0.686324       -18.6758
  30   2.0000      -0.654068       -17.7981
  31   2.0000      -0.603899       -16.4329
  32   2.0000      -0.568303       -15.4643
  33   2.0000      -0.541704       -14.7405
  34   2.0000      -0.520528       -14.1643
  35   2.0000      -0.497321       -13.5328
  36   2.0000      -0.475778       -12.9466
  37   2.0000      -0.462794       -12.5933
  38   2.0000      -0.435744       -11.8572
  39   2.0000      -0.423037       -11.5114
  40   2.0000      -0.409728       -11.1493
  41   2.0000      -0.398601       -10.8465
  42   2.0000      -0.381220       -10.3735
  43   2.0000      -0.374892       -10.2013
  44   2.0000      -0.357751        -9.7349
  45   2.0000      -0.344533        -9.3752
  46   2.0000      -0.339081        -9.2269
  47   2.0000      -0.306711        -8.3460
  48   2.0000      -0.288719        -7.8565
  49   2.0000      -0.257910        -7.0181
  50   2.0000      -0.225107        -6.1255
  51   2.0000      -0.216413        -5.8889
  52   0.0000      -0.055420        -1.5081
  53   0.0000      -0.044545        -1.2121
  54   0.0000       0.021789         0.5929
  55   0.0000       0.024070         0.6550
  56   0.0000       0.035296         0.9604

MULLIKEN ATOMIC CHARGES
-----------------------
   0 C :   -0.139780
   1 S :    0.120538
   2 C :   -0.169777
   3 C :   -0.041359
   4 C :    0.222337
   5 O :   -0.288260
   6 C :    0.135763
   7 S :   -0.050140
   8 S :    0.018299
   9 C :    0.035177
  10 C :   -0.046209
  11 H :    0.023434
  12 H :    0.062425
  13 H :    0.062777
  14 H :   -0.004080
  15 H :    0.031845
  16 H :    0.027010
Sum of atomic charges:   -0.0000000

LOEWDIN ATOMIC CHARGES
----------------------
   0 C :   -0.221362
   1 S :    0.444791
   2 C :   -0.193932
   3 C :   -0.239084
   4 C :   -0.004856
   5 O :   -0.103659
   6 C :   -0.036788
   7 S :    0.107704
   8 S :    0.202289
   9 C :   -0.047479
  10 C :   -0.051680
  11 H :    0.030488
  12 H :    0.028472
  13 H :    0.012799
  14 H :    0.030476
  15 H :    0.013081
  16 H :    0.028742

  Mayer bond orders larger than 0.100000
B(  0-C ,  1-S ) :   1.1294 B(  0-C ,  4-C ) :   1.5420 B(  0-C , 11-H ) :   0.9642
B(  1-S ,  2-C ) :   1.1503 B(  2-C ,  3-C ) :   1.5068 B(  2-C ,  9-C ) :   1.1266
B(  3-C ,  4-C ) :   1.2119 B(  3-C ,  8-S ) :   0.9882 B(  4-C ,  5-O ) :   1.1075
B(  5-O ,  6-C ) :   0.9729 B(  6-C ,  7-S ) :   1.0014 B(  6-C , 12-H ) :   0.9529
B(  6-C , 13-H ) :   0.9388 B(  7-S ,  8-S ) :   1.0269 B(  9-C , 10-C ) :   1.9051
B(  9-C , 14-H ) :   0.9434 B( 10-C , 15-H ) :   0.9492 B( 10-C , 16-H ) :   0.9424

Dispersion correction           -0.044886456
FINAL SINGLE POINT ENERGY     -1539.566017438359

DIPOLE MOMENT
-------------
                                X             Y             Z
Electronic contribution:     -1.52279      -3.00667       1.74741
Nuclear contribution   :      1.44005       2.77380      -2.04099
                        -----------------------------------------
Total Dipole Moment    :     -0.08274      -0.23288      -0.29358
                        -----------------------------------------
Magnitude (a.u.)       :      0.38376
Magnitude (Debye)      :      0.97543

Rotational constants in cm-1:     0.038378     0.022087     0.014506
Rotational constants in MHz :  1150.549141   662.157079   434.881287

                             ****ORCA TERMINATED NORMALLY****
TOTAL RUN TIME: 0 days 0 hours 7 minutes 9 seconds 199 msec
