                         Program Version 4.2.0 -  RELEASE  -
|  1> # ORCA input file
|  2> # SCF done        -24.379479121308          0.000881259670
|  3> ! B3LYP/G D3BJ Opt RIJCOSX def2-SVP def2/J
|  4> * xyz 0 1
|  5>    C        2.61473         1.11384        -0.22557
|  6>    C        2.36272        -0.15919         0.05470
|  7>    C        3.05542        -0.95872         1.04700
|  8>    C        2.74583        -2.27416         1.27807
|  9>    S        3.71268        -2.98225         2.49825
| 10>    C        4.57959        -1.48720         2.73380
| 11>    C        4.10976        -0.52064         1.89001
| 12>    C        5.62570        -1.43174         3.72301
| 13>    C        6.36171        -0.36106         4.00593
| 14>    H        2.05723         1.64319        -0.97913
| 15>    H        3.38184         1.67560         0.27930
| 16>    H        1.58123        -0.68365        -0.48105
| 17>    H        1.99501        -2.86508         0.79033
| 18>    H        4.50477         0.47782         1.87019
| 19>    H        5.79434        -2.35806         4.25756
| 20>    H        6.22627         0.57882         3.49903
| 21>    H        7.12796        -0.39324         4.76026
| 22> *
| 23>
| 24>                          ****END OF INPUT****
 Total Charge           Charge          ....    0
 Multiplicity           Mult            ....    1
 Number of Electrons    NEL             ....   72
Dispersion correction           -0.032834962
FINAL SINGLE POINT ENERGY      -707.507042716638
Dispersion correction            ... done
Dispersion correction           -0.032586842
FINAL SINGLE POINT ENERGY      -707.509842470056
Dispersion correction            ... done
Dispersion correction           -0.032548342
FINAL SINGLE POINT ENERGY      -707.509883838756
Dispersion correction            ... done
FINAL SINGLE POINT ENERGY      -707.509863909231
FINAL SINGLE POINT ENERGY      -707.509874646041
FINAL SINGLE POINT ENERGY      -707.509867766299
FINAL SINGLE POINT ENERGY      -707.509821857584
FINAL SINGLE POINT ENERGY      -707.509576560817
FINAL SINGLE POINT ENERGY      -707.509717146597
FINAL SINGLE POINT ENERGY      -707.509707238869
FINAL SINGLE POINT ENERGY      -707.509618166859
Dispersion correction            ... done
Dispersion correction           -0.032569658
FINAL SINGLE POINT ENERGY      -707.509645601955
Dispersion correction            ... done
Dispersion correction           -0.032570766
FINAL SINGLE POINT ENERGY      -707.509650062540
Dispersion correction            ... done
                    ***********************HURRAY********************

CARTESIAN COORDINATES (ANGSTROEM)
---------------------------------
  C      2.621184    1.121286   -0.280383
  C      2.344287   -0.150122    0.044588
  C      3.043101   -0.964510    1.040943
  C      2.685935   -2.271390    1.323588
  S      3.680956   -2.977899    2.539484
  C      4.617534   -1.509119    2.709008
  C      4.156722   -0.544216    1.840044
  C      5.702776   -1.456087    3.682859
  C      6.315939   -0.341280    4.109775
  H      2.035952    1.648943   -1.036979
  H      3.429702    1.682044    0.196579
  H      1.518343   -0.654517   -0.468957
  H      1.881934   -2.845570    0.864956
  H      4.621054    0.438608    1.759884
  H      6.025140   -2.420422    4.091415
  H      6.018321    0.650144    3.757458
  H      7.137911   -0.391613    4.827426

 Multiplicity           Mult            ....    1
 Number of Electrons    NEL             ....   72
 Basis Dimension        Dim             ....  170

ORBITAL ENERGIES
----------------

  NO   OCC          E(Eh)            E(eV)
   0   2.0000     -88.875569     -2418.4272
   1   2.0000     -10.220481      -278.1134
   2   2.0000     -10.214418      -277.9484
   3   2.0000     -10.206408      -277.7305
   4   2.0000     -10.201899      -277.6078
   5   2.0000     -10.198958      -277.5278
   6   2.0000     -10.193855      -277.3889
   7   2.0000     -10.192709      -277.3577
   8   2.0000     -10.188236      -277.2360
   9   2.0000      -7.970869      -216.8984
  10   2.0000      -5.938845      -161.6042
  11   2.0000      -5.934903      -161.4969
  12   2.0000      -5.932294      -161.4259
  13   2.0000      -0.884632       -24.0721
  14   2.0000      -0.795753       -21.6535
  15   2.0000      -0.773457       -21.0468
  16   2.0000      -0.720611       -19.6088
  17   2.0000      -0.704584       -19.1727
  18   2.0000      -0.617995       -16.8165
  19   2.0000      -0.581158       -15.8141
  20   2.0000      -0.548552       -14.9269
  21   2.0000      -0.531939       -14.4748
  22   2.0000      -0.493530       -13.4296
  23   2.0000      -0.460967       -12.5435
  24   2.0000      -0.447183       -12.1685
  25   2.0000      -0.433156       -11.7868
  26   2.0000      -0.403584       -10.9821
  27   2.0000      -0.395810       -10.7705
  28   2.0000      -0.383167       -10.4265
  29   2.0000      -0.374743       -10.1973
  30   2.0000      -0.358420        -9.7531
  31   2.0000      -0.343702        -9.3526
  32   2.0000      -0.321714        -8.7543
  33   2.0000      -0.291629        -7.9356
  34   2.0000      -0.239556        -6.5186
  35   2.0000      -0.217347        -5.9143
  36   0.0000      -0.047039        -1.2800
  37   0.0000      -0.026165        -0.7120
  38   0.0000       0.030450         0.8286
  39   0.0000       0.053922         1.4673
  40   0.0000       0.069367         1.8876

MULLIKEN ATOMIC CHARGES
-----------------------
   0 C :   -0.030844
   1 C :    0.007037
   2 C :    0.078268
   3 C :   -0.124223
   4 S :    0.108594
   5 C :   -0.113719
   6 C :    0.010085
   7 C :    0.043496
   8 C :   -0.031845
   9 H :    0.023229
  10 H :    0.014172
  11 H :   -0.019711
  12 H :    0.021755
  13 H :   -0.024039
  14 H :   -0.009511
  15 H :    0.018165
  16 H :    0.029089
Sum of atomic charges:   -0.0000000

LOEWDIN ATOMIC CHARGES
----------------------
   0 C :   -0.054064
   1 C :   -0.020822
   2 C :   -0.064192
   3 C :   -0.189012
   4 S :    0.430579
   5 C :   -0.173451
   6 C :   -0.047907
   7 C :   -0.040730
   8 C :   -0.045334
   9 H :    0.026170
  10 H :    0.020359
  11 H :    0.028339
  12 H :    0.024413
  13 H :    0.026988
  14 H :    0.028362
  15 H :    0.022507
  16 H :    0.027795

  Mayer bond orders larger than 0.100000
B(  0-C ,  1-C ) :   1.9267 B(  0-C ,  9-H ) :   0.9461 B(  0-C , 10-H ) :   0.9458
B(  1-C ,  2-C ) :   1.0921 B(  1-C , 11-H ) :   0.9638 B(  2-C ,  3-C ) :   1.4907
B(  2-C ,  6-C ) :   1.2304 B(  3-C ,  4-S ) :   1.1559 B(  3-C , 12-H ) :   0.9671
B(  4-S ,  5-C ) :   1.1240 B(  5-C ,  6-C ) :   1.5468 B(  5-C ,  7-C ) :   1.0849
B(  6-C , 13-H ) :   0.9832 B(  7-C ,  8-C ) :   1.9357 B(  7-C , 14-H ) :   0.9523
B(  8-C , 15-H ) :   0.9512 B(  8-C , 16-H ) :   0.9475

Dispersion correction           -0.032571559
FINAL SINGLE POINT ENERGY      -707.509649767893

DIPOLE MOMENT
-------------
                                X             Y             Z
Electronic contribution:     -1.50009      -7.64000       1.70008
Nuclear contribution   :      1.49861       7.68749      -1.72952
                        -----------------------------------------
Total Dipole Moment    :     -0.00148       0.04749      -0.02943
                        -----------------------------------------
Magnitude (a.u.)       :      0.05589
Magnitude (Debye)      :      0.14207

Rotational constants in cm-1:     0.074113     0.033669     0.023195
Rotational constants in MHz :  2221.862307  1009.381771   695.382759

                             ****ORCA TERMINATED NORMALLY****
TOTAL RUN TIME: 0 days 0 hours 10 minutes 45 seconds 508 msec
