                         Program Version 4.2.0 -  RELEASE  -
|  1> # ORCA input file
|  2> # SCF done        -45.200331296132          0.000495339284
|  3> ! B3LYP/G D3BJ Opt RIJCOSX def2-SVP def2/J
|  4> * xyz 0 1
|  5>    C        1.58019        -1.32109        -0.10764
|  6>    S        2.90643        -0.23476        -0.07791
|  7>    C        1.83449         1.14204        -0.09946
|  8>    C        0.52185         0.73570        -0.11124
|  9>    C        0.38211        -0.67630        -0.11385
| 10>    C       -0.94609        -1.36246        -0.07132
| 11>    C       -2.08754        -0.40641        -0.43702
| 12>    O       -2.12131        -0.04312        -1.80227
| 13>    C       -2.62854        -1.03220        -2.66042
| 14>    C       -1.92700         0.89294         0.36982
| 15>    O       -1.89710         0.52345         1.73303
| 16>    C       -2.01854         1.59162         2.63719
| 17>    C       -0.67246         1.63253        -0.11204
| 18>    C        2.43618         2.45168        -0.08835
| 19>    C        1.87510         3.59546        -0.47136
| 20>    H        1.76291        -2.37760        -0.11284
| 21>    H       -1.13185        -1.71267         0.94709
| 22>    H       -0.94691        -2.23135        -0.73241
| 23>    H       -3.04359        -0.87987        -0.15894
| 24>    H       -2.69486        -0.57355        -3.64528
| 25>    H       -3.62630        -1.35956        -2.34207
| 26>    H       -1.97203        -1.90717        -2.71876
| 27>    H       -2.80224         1.53834         0.18328
| 28>    H       -2.14471         1.14220         3.62049
| 29>    H       -2.89302         2.21139         2.40437
| 30>    H       -1.12621         2.22632         2.64892
| 31>    H       -0.48876         2.51080         0.50967
| 32>    H       -0.87516         1.96757        -1.13249
| 33>    H        3.46497         2.45984         0.25235
| 34>    H        0.87909         3.65383        -0.87073
| 35>    H        2.42317         4.52053        -0.41683
| 36> *
| 37>
| 38>                          ****END OF INPUT****
 Total Charge           Charge          ....    0
 Multiplicity           Mult            ....    1
 Number of Electrons    NEL             ....  120
Dispersion correction           -0.063769213
FINAL SINGLE POINT ENERGY     -1014.999225036789
Dispersion correction            ... done
Dispersion correction           -0.063536455
FINAL SINGLE POINT ENERGY     -1015.002481760958
Dispersion correction            ... done
Dispersion correction           -0.063517501
FINAL SINGLE POINT ENERGY     -1015.002721887443
Dispersion correction            ... done
FINAL SINGLE POINT ENERGY     -1015.002784200359
FINAL SINGLE POINT ENERGY     -1015.002744565718
FINAL SINGLE POINT ENERGY     -1015.002727063128
FINAL SINGLE POINT ENERGY     -1015.002632984336
FINAL SINGLE POINT ENERGY     -1015.002528920550
FINAL SINGLE POINT ENERGY     -1015.002566740657
FINAL SINGLE POINT ENERGY     -1015.002692118075
FINAL SINGLE POINT ENERGY     -1015.002879875470
FINAL SINGLE POINT ENERGY     -1015.002915980427
FINAL SINGLE POINT ENERGY     -1015.002905714605
Dispersion correction            ... done
Dispersion correction           -0.063746049
FINAL SINGLE POINT ENERGY     -1015.002900224756
Dispersion correction            ... done
Dispersion correction           -0.063747755
FINAL SINGLE POINT ENERGY     -1015.002902046873
Dispersion correction            ... done
                    ***********************HURRAY********************

CARTESIAN COORDINATES (ANGSTROEM)
---------------------------------
  C      1.507972   -1.399533   -0.327034
  S      2.850704   -0.327418   -0.445535
  C      1.821427    1.079947   -0.275961
  C      0.494811    0.697345   -0.123493
  C      0.321050   -0.726388   -0.151256
  C     -1.031976   -1.359609    0.030873
  C     -2.148470   -0.383875   -0.359132
  O     -2.135076   -0.013843   -1.721924
  C     -2.323762   -1.052056   -2.644604
  C     -1.975851    0.926583    0.414898
  O     -2.015894    0.580612    1.785257
  C     -2.169659    1.652312    2.676313
  C     -0.675506    1.633296    0.000124
  C      2.456493    2.387277   -0.325451
  C      1.881900    3.603067   -0.394520
  H      1.658599   -2.476886   -0.384295
  H     -1.190180   -1.614312    1.090893
  H     -1.111035   -2.298366   -0.536718
  H     -3.128052   -0.830487   -0.094087
  H     -2.446286   -0.587841   -3.633972
  H     -3.231888   -1.647500   -2.418434
  H     -1.461841   -1.743378   -2.690587
  H     -2.827620    1.591464    0.174813
  H     -2.341024    1.225526    3.675119
  H     -3.037965    2.287844    2.407784
  H     -1.276403    2.303685    2.725639
  H     -0.451945    2.441855    0.713323
  H     -0.852758    2.120798   -0.972913
  H      3.552656    2.352931   -0.308384
  H      0.804031    3.755639   -0.446167
  H      2.505818    4.499442   -0.417588

 Multiplicity           Mult            ....    1
 Number of Electrons    NEL             ....  120
 Basis Dimension        Dim             ....  294

ORBITAL ENERGIES
----------------

  NO   OCC          E(Eh)            E(eV)
   0   2.0000     -88.863075     -2418.0872
   1   2.0000     -19.137139      -520.7480
   2   2.0000     -19.136122      -520.7204
   3   2.0000     -10.236567      -278.5512
   4   2.0000     -10.236430      -278.5474
   5   2.0000     -10.234620      -278.4982
   6   2.0000     -10.233334      -278.4632
   7   2.0000     -10.206897      -277.7438
   8   2.0000     -10.202095      -277.6131
   9   2.0000     -10.199564      -277.5443
  10   2.0000     -10.189070      -277.2587
  11   2.0000     -10.188819      -277.2519
  12   2.0000     -10.187628      -277.2195
  13   2.0000     -10.186906      -277.1998
  14   2.0000     -10.183528      -277.1079
  15   2.0000      -7.958247      -216.5549
  16   2.0000      -5.926259      -161.2617
  17   2.0000      -5.922379      -161.1561
  18   2.0000      -5.919598      -161.0804
  19   2.0000      -1.036671       -28.2092
  20   2.0000      -1.025118       -27.8949
  21   2.0000      -0.876756       -23.8577
  22   2.0000      -0.807425       -21.9711
  23   2.0000      -0.779728       -21.2175
  24   2.0000      -0.743622       -20.2350
  25   2.0000      -0.735792       -20.0219
  26   2.0000      -0.694929       -18.9100
  27   2.0000      -0.681129       -18.5345
  28   2.0000      -0.663453       -18.0535
  29   2.0000      -0.612046       -16.6546
  30   2.0000      -0.599575       -16.3153
  31   2.0000      -0.570700       -15.5295
  32   2.0000      -0.545281       -14.8378
  33   2.0000      -0.521242       -14.1837
  34   2.0000      -0.499960       -13.6046
  35   2.0000      -0.490764       -13.3544
  36   2.0000      -0.483595       -13.1593
  37   2.0000      -0.466518       -12.6946
  38   2.0000      -0.458722       -12.4824
  39   2.0000      -0.452288       -12.3074
  40   2.0000      -0.447527       -12.1778
  41   2.0000      -0.433671       -11.8008
  42   2.0000      -0.418040       -11.3754
  43   2.0000      -0.417089       -11.3496
  44   2.0000      -0.405092       -11.0231
  45   2.0000      -0.401875       -10.9356
  46   2.0000      -0.392730       -10.6867
  47   2.0000      -0.382113       -10.3978
  48   2.0000      -0.364064        -9.9067
  49   2.0000      -0.360695        -9.8150
  50   2.0000      -0.346489        -9.4285
  51   2.0000      -0.341500        -9.2927
  52   2.0000      -0.333906        -9.0860
  53   2.0000      -0.324509        -8.8303
  54   2.0000      -0.300672        -8.1817
  55   2.0000      -0.293742        -7.9931
  56   2.0000      -0.264431        -7.1955
  57   2.0000      -0.258737        -7.0406
  58   2.0000      -0.235986        -6.4215
  59   2.0000      -0.209113        -5.6903
  60   0.0000      -0.037256        -1.0138
  61   0.0000       0.029568         0.8046
  62   0.0000       0.038768         1.0549
  63   0.0000       0.050890         1.3848
  64   0.0000       0.064553         1.7566

MULLIKEN ATOMIC CHARGES
-----------------------
   0 C :   -0.141828
   1 S :    0.093187
   2 C :   -0.162543
   3 C :   -0.034392
   4 C :   -0.047013
   5 C :    0.176095
   6 C :    0.145144
   7 O :   -0.386632
   8 C :    0.192846
   9 C :    0.144033
  10 O :   -0.387372
  11 C :    0.195687
  12 C :    0.133312
  13 C :    0.030293
  14 C :   -0.043769
  15 H :    0.008102
  16 H :    0.023888
  17 H :   -0.013133
  18 H :   -0.020510
  19 H :    0.020748
  20 H :   -0.006982
  21 H :    0.015475
  22 H :   -0.017578
  23 H :    0.021312
  24 H :   -0.007593
  25 H :    0.011767
  26 H :    0.009716
  27 H :    0.031072
  28 H :   -0.011608
  29 H :    0.011183
  30 H :    0.017092
Sum of atomic charges:   -0.0000000

LOEWDIN ATOMIC CHARGES
----------------------
   0 C :   -0.203642
   1 S :    0.421625
   2 C :   -0.184467
   3 C :   -0.046511
   4 C :   -0.057055
   5 C :   -0.033335
   6 C :    0.066641
   7 O :   -0.165758
   8 C :    0.070203
   9 C :    0.068958
  10 O :   -0.165730
  11 C :    0.070257
  12 C :   -0.034836
  13 C :   -0.040624
  14 C :   -0.065046
  15 H :    0.020804
  16 H :    0.040419
  17 H :    0.023689
  18 H :    0.006754
  19 H :    0.021621
  20 H :    0.002965
  21 H :    0.006140
  22 H :    0.008600
  23 H :    0.021587
  24 H :    0.003608
  25 H :    0.004902
  26 H :    0.028058
  27 H :    0.039977
  28 H :    0.027296
  29 H :    0.018447
  30 H :    0.024454

  Mayer bond orders larger than 0.100000
B(  0-C ,  1-S ) :   1.1486 B(  0-C ,  4-C ) :   1.5297 B(  0-C , 15-H ) :   0.9650
B(  1-S ,  2-C ) :   1.1201 B(  2-C ,  3-C ) :   1.5041 B(  2-C , 13-C ) :   1.1207
B(  3-C ,  4-C ) :   1.3072 B(  3-C , 12-C ) :   1.0530 B(  4-C ,  5-C ) :   1.0128
B(  5-C ,  6-C ) :   1.0478 B(  5-C , 16-H ) :   0.8886 B(  5-C , 17-H ) :   0.9126
B(  6-C ,  7-O ) :   1.0119 B(  6-C ,  9-C ) :   1.0044 B(  6-C , 18-H ) :   0.9155
B(  7-O ,  8-C ) :   0.9972 B(  8-C , 19-H ) :   0.9786 B(  8-C , 20-H ) :   0.9593
B(  8-C , 21-H ) :   0.9649 B(  9-C , 10-O ) :   1.0039 B(  9-C , 12-C ) :   1.0275
B(  9-C , 22-H ) :   0.9143 B( 10-O , 11-C ) :   0.9975 B( 11-C , 23-H ) :   0.9782
B( 11-C , 24-H ) :   0.9595 B( 11-C , 25-H ) :   0.9630 B( 12-C , 26-H ) :   0.8974
B( 12-C , 27-H ) :   0.8889 B( 13-C , 14-C ) :   1.9047 B( 13-C , 28-H ) :   0.9435
B( 14-C , 29-H ) :   0.9508 B( 14-C , 30-H ) :   0.9405

Dispersion correction           -0.063744019
FINAL SINGLE POINT ENERGY     -1015.002909067831

DIPOLE MOMENT
-------------
                                X             Y             Z
Electronic contribution:     12.69674      -4.45084      -1.07155
Nuclear contribution   :    -13.25343       4.34929       1.11954
                        -----------------------------------------
Total Dipole Moment    :     -0.55669      -0.10155       0.04799
                        -----------------------------------------
Magnitude (a.u.)       :      0.56791
Magnitude (Debye)      :      1.44350

Rotational constants in cm-1:     0.022367     0.014510     0.011609
Rotational constants in MHz :   670.548675   434.997099   348.040547

                             ****ORCA TERMINATED NORMALLY****
TOTAL RUN TIME: 0 days 0 hours 44 minutes 1 seconds 674 msec
