                         Program Version 4.2.0 -  RELEASE  -
|  1> # ORCA input file
|  2> # SCF done        -42.724732574352          0.000753656293
|  3> ! B3LYP/G D3BJ Opt RIJCOSX def2-SVP def2/J
|  4> * xyz 0 1
|  5>    C        2.44947        -1.01603         0.14453
|  6>    C        1.10704        -0.66474         0.10504
|  7>    N       -0.01140        -1.46244         0.14993
|  8>    C       -0.01315        -2.89837         0.18847
|  9>    C        0.03736        -3.50946        -1.21663
| 10>    C        0.03518        -5.03119        -1.16331
| 11>    C       -1.12377        -0.66090         0.05272
| 12>    C       -0.72126         0.69458        -0.02346
| 13>    C        0.71348         0.69210         0.01024
| 14>    C        1.67382         1.69380        -0.03671
| 15>    C        3.00651         1.33606         0.00683
| 16>    C        3.38606        -0.00149         0.09502
| 17>    C       -1.67456         1.69988        -0.11555
| 18>    C       -3.00917         1.34726        -0.13432
| 19>    C       -3.39739         0.01112        -0.06402
| 20>    C       -2.46796        -1.00693         0.02906
| 21>    H        2.76230        -2.04772         0.20848
| 22>    H       -0.91682        -3.23318         0.70585
| 23>    H        0.85091        -3.23394         0.76958
| 24>    H        0.93818        -3.15602        -1.72291
| 25>    H       -0.82449        -3.15565        -1.78669
| 26>    H        0.89630        -5.39578        -0.60705
| 27>    H        0.07396        -5.44722        -2.16677
| 28>    H       -0.86633        -5.39577        -0.67536
| 29>    H        1.37928         2.73023        -0.10794
| 30>    H        3.76969         2.09929        -0.02953
| 31>    H        4.43679        -0.25102         0.12393
| 32>    H       -1.37300         2.73516        -0.17248
| 33>    H       -3.76692         2.11336        -0.20580
| 34>    H       -4.44924        -0.23450        -0.08407
| 35>    H       -2.78762        -2.03739         0.07762
| 36> *
| 37>
| 38>                          ****END OF INPUT****
 Total Charge           Charge          ....    0
 Multiplicity           Mult            ....    1
 Number of Electrons    NEL             ....  112
Dispersion correction           -0.065359281
FINAL SINGLE POINT ENERGY      -635.022944877120
Dispersion correction            ... done
Dispersion correction           -0.065025639
FINAL SINGLE POINT ENERGY      -635.027214572857
Dispersion correction            ... done
Dispersion correction           -0.064979008
FINAL SINGLE POINT ENERGY      -635.027342425199
Dispersion correction            ... done
FINAL SINGLE POINT ENERGY      -635.027316293818
FINAL SINGLE POINT ENERGY      -635.027199348297
FINAL SINGLE POINT ENERGY      -635.027166339256
Dispersion correction            ... done
Dispersion correction           -0.065007837
FINAL SINGLE POINT ENERGY      -635.027161970158
Dispersion correction            ... done
Dispersion correction           -0.065005676
FINAL SINGLE POINT ENERGY      -635.027158865348
Dispersion correction            ... done
                    ***********************HURRAY********************

CARTESIAN COORDINATES (ANGSTROEM)
---------------------------------
  C      2.407838   -1.070464    0.082988
  C      1.064835   -0.675275    0.066992
  N     -0.083535   -1.454124    0.110503
  C     -0.094326   -2.899320    0.143975
  C      0.116018   -3.550589   -1.225946
  C      0.211548   -5.070625   -1.127977
  C     -1.194177   -0.622243    0.044475
  C     -0.755217    0.732409   -0.012835
  C      0.693798    0.698122   -0.000866
  C      1.690074    1.680724   -0.041001
  C      3.029520    1.290839   -0.020049
  C      3.379956   -0.070694    0.039721
  C     -1.699949    1.764230   -0.063475
  C     -3.057097    1.442584   -0.064061
  C     -3.475392    0.099527   -0.019424
  C     -2.555282   -0.948100    0.032309
  H      2.695095   -2.122847    0.123928
  H     -1.049092   -3.228690    0.581838
  H      0.691966   -3.232132    0.841732
  H      1.035201   -3.140078   -1.674751
  H     -0.709525   -3.253709   -1.894216
  H      1.038083   -5.376099   -0.464976
  H      0.391321   -5.527664   -2.112677
  H     -0.712521   -5.509992   -0.715848
  H      1.418826    2.738482   -0.092013
  H      3.816502    2.047138   -0.055159
  H      4.435091   -0.356028    0.049071
  H     -1.374309    2.806859   -0.104064
  H     -3.804058    2.238230   -0.104372
  H     -4.543676   -0.132099   -0.028784
  H     -2.894269   -1.985273    0.059660

 Multiplicity           Mult            ....    1
 Number of Electrons    NEL             ....  112
 Basis Dimension        Dim             ....  299

ORBITAL ENERGIES
----------------

  NO   OCC          E(Eh)            E(eV)
   0   2.0000     -14.368464      -390.9858
   1   2.0000     -10.234226      -278.4874
   2   2.0000     -10.222365      -278.1647
   3   2.0000     -10.221489      -278.1409
   4   2.0000     -10.195144      -277.4240
   5   2.0000     -10.191191      -277.3164
   6   2.0000     -10.189768      -277.2777
   7   2.0000     -10.189470      -277.2696
   8   2.0000     -10.189098      -277.2594
   9   2.0000     -10.188602      -277.2459
  10   2.0000     -10.188446      -277.2417
  11   2.0000     -10.188186      -277.2346
  12   2.0000     -10.185190      -277.1531
  13   2.0000     -10.184944      -277.1464
  14   2.0000     -10.181692      -277.0579
  15   2.0000     -10.181224      -277.0452
  16   2.0000      -0.981049       -26.6957
  17   2.0000      -0.845282       -23.0013
  18   2.0000      -0.837337       -22.7851
  19   2.0000      -0.796351       -21.6698
  20   2.0000      -0.765029       -20.8175
  21   2.0000      -0.742966       -20.2171
  22   2.0000      -0.728177       -19.8147
  23   2.0000      -0.708826       -19.2881
  24   2.0000      -0.680428       -18.5154
  25   2.0000      -0.628972       -17.1152
  26   2.0000      -0.605629       -16.4800
  27   2.0000      -0.603258       -16.4155
  28   2.0000      -0.572321       -15.5736
  29   2.0000      -0.571064       -15.5394
  30   2.0000      -0.521106       -14.1800
  31   2.0000      -0.519135       -14.1264
  32   2.0000      -0.494575       -13.4581
  33   2.0000      -0.474083       -12.9005
  34   2.0000      -0.457783       -12.4569
  35   2.0000      -0.454935       -12.3794
  36   2.0000      -0.451905       -12.2970
  37   2.0000      -0.435936       -11.8624
  38   2.0000      -0.432595       -11.7715
  39   2.0000      -0.424568       -11.5531
  40   2.0000      -0.418314       -11.3829
  41   2.0000      -0.410004       -11.1568
  42   2.0000      -0.392902       -10.6914
  43   2.0000      -0.383036       -10.4229
  44   2.0000      -0.366289        -9.9672
  45   2.0000      -0.365105        -9.9350
  46   2.0000      -0.362216        -9.8564
  47   2.0000      -0.356918        -9.7122
  48   2.0000      -0.344820        -9.3830
  49   2.0000      -0.340120        -9.2551
  50   2.0000      -0.336978        -9.1696
  51   2.0000      -0.316925        -8.6240
  52   2.0000      -0.282340        -7.6829
  53   2.0000      -0.255706        -6.9581
  54   2.0000      -0.216894        -5.9020
  55   2.0000      -0.203596        -5.5401
  56   0.0000      -0.034741        -0.9454
  57   0.0000      -0.000605        -0.0165
  58   0.0000       0.021174         0.5762
  59   0.0000       0.034894         0.9495
  60   0.0000       0.042421         1.1543

MULLIKEN ATOMIC CHARGES
-----------------------
   0 C :   -0.066016
   1 C :    0.128249
   2 N :   -0.203972
   3 C :    0.136364
   4 C :   -0.020122
   5 C :    0.010697
   6 C :    0.131911
   7 C :    0.070105
   8 C :    0.077867
   9 C :   -0.057135
  10 C :    0.020748
  11 C :    0.016050
  12 C :   -0.052460
  13 C :    0.020830
  14 C :    0.012418
  15 C :   -0.064756
  16 H :   -0.044544
  17 H :    0.009988
  18 H :    0.011994
  19 H :    0.013524
  20 H :    0.014753
  21 H :    0.007654
  22 H :    0.016976
  23 H :    0.008151
  24 H :   -0.033238
  25 H :   -0.021620
  26 H :   -0.020993
  27 H :   -0.035331
  28 H :   -0.021983
  29 H :   -0.019034
  30 H :   -0.047072
Sum of atomic charges:    0.0000000

LOEWDIN ATOMIC CHARGES
----------------------
   0 C :   -0.063856
   1 C :    0.030129
   2 N :    0.015338
   3 C :    0.045910
   4 C :   -0.044872
   5 C :   -0.053011
   6 C :    0.031070
   7 C :   -0.043214
   8 C :   -0.042150
   9 C :   -0.016183
  10 C :   -0.049251
  11 C :   -0.023423
  12 C :   -0.015878
  13 C :   -0.049663
  14 C :   -0.024097
  15 C :   -0.062695
  16 H :    0.022780
  17 H :    0.024901
  18 H :    0.023557
  19 H :    0.024252
  20 H :    0.025420
  21 H :    0.021521
  22 H :    0.027356
  23 H :    0.021772
  24 H :    0.025893
  25 H :    0.024915
  26 H :    0.025379
  27 H :    0.025518
  28 H :    0.024784
  29 H :    0.025729
  30 H :    0.022071

  Mayer bond orders larger than 0.100000
B(  0-C ,  1-C ) :   1.3076 B(  0-C , 11-C ) :   1.3759 B(  0-C , 16-H ) :   0.9977
B(  1-C ,  2-N ) :   1.1121 B(  1-C ,  8-C ) :   1.2805 B(  2-N ,  3-C ) :   0.9821
B(  2-N ,  6-C ) :   1.1088 B(  3-C ,  4-C ) :   1.0836 B(  3-C , 17-H ) :   0.9370
B(  3-C , 18-H ) :   0.9365 B(  4-C ,  5-C ) :   1.1050 B(  4-C , 19-H ) :   0.9414
B(  4-C , 20-H ) :   0.9392 B(  5-C , 21-H ) :   0.9692 B(  5-C , 22-H ) :   0.9658
B(  5-C , 23-H ) :   0.9701 B(  6-C ,  7-C ) :   1.2755 B(  6-C , 15-C ) :   1.3108
B(  7-C ,  8-C ) :   1.1014 B(  7-C , 12-C ) :   1.3312 B(  8-C ,  9-C ) :   1.3297
B(  9-C , 10-C ) :   1.3946 B(  9-C , 24-H ) :   0.9914 B( 10-C , 11-C ) :   1.3464
B( 10-C , 25-H ) :   0.9807 B( 11-C , 26-H ) :   0.9809 B( 12-C , 13-C ) :   1.3955
B( 12-C , 27-H ) :   0.9921 B( 13-C , 14-C ) :   1.3455 B( 13-C , 28-H ) :   0.9806
B( 14-C , 15-C ) :   1.3806 B( 14-C , 29-H ) :   0.9801 B( 15-C , 30-H ) :   0.9976

Dispersion correction           -0.065000979
FINAL SINGLE POINT ENERGY      -635.027159144865

DIPOLE MOMENT
-------------
                                X             Y             Z
Electronic contribution:     -0.64776      12.94653       3.15365
Nuclear contribution   :      0.64871     -13.74023      -3.22014
                        -----------------------------------------
Total Dipole Moment    :      0.00095      -0.79371      -0.06648
                        -----------------------------------------
Magnitude (a.u.)       :      0.79649
Magnitude (Debye)      :      2.02451

Rotational constants in cm-1:     0.019915     0.018296     0.009834
Rotational constants in MHz :   597.043707   548.495847   294.827883

                             ****ORCA TERMINATED NORMALLY****
TOTAL RUN TIME: 0 days 0 hours 23 minutes 30 seconds 909 msec
