                         Program Version 4.2.0 -  RELEASE  -
|  1> # ORCA input file
|  2> # SCF done        -26.637366248416          0.000947198105
|  3> ! B3LYP/G D3BJ Opt RIJCOSX def2-SVP def2/J
|  4> * xyz 0 1
|  5>    C       -1.99330        -1.14791         0.08857
|  6>    C       -0.75007        -1.66096        -0.09590
|  7>    C        0.22178        -0.64087        -0.10472
|  8>    C       -0.30201         0.63551         0.07289
|  9>    S       -2.02100         0.57641         0.25407
| 10>    C        0.66303         1.65401         0.06611
| 11>    C        1.92826         1.15893        -0.11674
| 12>    S        1.93741        -0.58893        -0.28405
| 13>    C        3.14580         1.91991        -0.17298
| 14>    C        4.35946         1.40732        -0.35174
| 15>    H       -2.92226        -1.68026         0.14069
| 16>    H       -0.53661        -2.70653        -0.21783
| 17>    H        0.44419         2.69885         0.18886
| 18>    H        3.01302         2.98851        -0.05648
| 19>    H        4.50953         0.34751        -0.47247
| 20>    H        5.23662         2.02855        -0.38237
| 21> *
| 22>
| 23>                          ****END OF INPUT****
 Total Charge           Charge          ....    0
 Multiplicity           Mult            ....    1
 Number of Electrons    NEL             ....   86
Dispersion correction           -0.038288439
FINAL SINGLE POINT ENERGY     -1104.407098025634
Dispersion correction            ... done
Dispersion correction           -0.038133234
FINAL SINGLE POINT ENERGY     -1104.410072795931
Dispersion correction            ... done
Dispersion correction           -0.038105714
FINAL SINGLE POINT ENERGY     -1104.410172206385
Dispersion correction            ... done
FINAL SINGLE POINT ENERGY     -1104.410183981977
Dispersion correction            ... done
Dispersion correction           -0.038091162
FINAL SINGLE POINT ENERGY     -1104.410197190539
Dispersion correction            ... done
Dispersion correction           -0.038092486
FINAL SINGLE POINT ENERGY     -1104.410198983997
Dispersion correction            ... done
                    ***********************HURRAY********************

CARTESIAN COORDINATES (ANGSTROEM)
---------------------------------
  C     -2.041355   -1.161042    0.101357
  C     -0.786730   -1.682897   -0.097106
  C      0.198463   -0.654462   -0.112608
  C     -0.319279    0.631229    0.075164
  S     -2.048210    0.576329    0.272717
  C      0.665944    1.654895    0.061618
  C      1.937533    1.148402   -0.135081
  S      1.925917   -0.608914   -0.312128
  C      3.168827    1.914588   -0.188085
  C      4.414741    1.435664   -0.340981
  H     -2.983943   -1.703145    0.158971
  H     -0.581983   -2.745512   -0.229147
  H      0.468972    2.718658    0.198685
  H      3.023186    2.995715   -0.081646
  H      4.615275    0.365527   -0.449543
  H      5.276493    2.105016   -0.366278

 Multiplicity           Mult            ....    1
 Number of Electrons    NEL             ....   86
 Basis Dimension        Dim             ....  178

ORBITAL ENERGIES
----------------

  NO   OCC          E(Eh)            E(eV)
   0   2.0000     -88.878171     -2418.4980
   1   2.0000     -88.874239     -2418.3910
   2   2.0000     -10.224163      -278.2136
   3   2.0000     -10.220713      -278.1197
   4   2.0000     -10.218251      -278.0527
   5   2.0000     -10.217586      -278.0347
   6   2.0000     -10.206606      -277.7359
   7   2.0000     -10.206466      -277.7321
   8   2.0000     -10.206337      -277.7286
   9   2.0000     -10.192315      -277.3470
  10   2.0000      -7.972728      -216.9489
  11   2.0000      -7.968833      -216.8430
  12   2.0000      -5.941100      -161.6656
  13   2.0000      -5.937190      -161.5592
  14   2.0000      -5.937158      -161.5583
  15   2.0000      -5.933494      -161.4586
  16   2.0000      -5.933469      -161.4579
  17   2.0000      -5.929368      -161.3463
  18   2.0000      -0.904799       -24.6208
  19   2.0000      -0.846289       -23.0287
  20   2.0000      -0.777534       -21.1578
  21   2.0000      -0.760020       -20.6812
  22   2.0000      -0.707072       -19.2404
  23   2.0000      -0.696501       -18.9527
  24   2.0000      -0.616071       -16.7641
  25   2.0000      -0.566692       -15.4205
  26   2.0000      -0.543855       -14.7990
  27   2.0000      -0.532131       -14.4800
  28   2.0000      -0.492405       -13.3990
  29   2.0000      -0.475227       -12.9316
  30   2.0000      -0.446627       -12.1533
  31   2.0000      -0.415967       -11.3190
  32   2.0000      -0.409975       -11.1560
  33   2.0000      -0.403663       -10.9842
  34   2.0000      -0.388323       -10.5668
  35   2.0000      -0.376656       -10.2493
  36   2.0000      -0.359469        -9.7816
  37   2.0000      -0.355034        -9.6610
  38   2.0000      -0.336289        -9.1509
  39   2.0000      -0.296624        -8.0715
  40   2.0000      -0.281075        -7.6484
  41   2.0000      -0.233516        -6.3543
  42   2.0000      -0.210802        -5.7362
  43   0.0000      -0.056226        -1.5300
  44   0.0000       0.006276         0.1708
  45   0.0000       0.024435         0.6649
  46   0.0000       0.036943         1.0053
  47   0.0000       0.054845         1.4924

MULLIKEN ATOMIC CHARGES
-----------------------
   0 C :   -0.090665
   1 C :    0.020747
   2 C :   -0.050524
   3 C :   -0.040297
   4 S :    0.115372
   5 C :   -0.022310
   6 C :   -0.076233
   7 S :    0.110620
   8 C :    0.013939
   9 C :   -0.038290
  10 H :    0.032917
  11 H :   -0.005350
  12 H :   -0.013464
  13 H :   -0.006073
  14 H :    0.022915
  15 H :    0.026697
Sum of atomic charges:   -0.0000000

LOEWDIN ATOMIC CHARGES
----------------------
   0 C :   -0.177960
   1 C :   -0.074944
   2 C :   -0.201889
   3 C :   -0.208094
   4 S :    0.408515
   5 C :   -0.065518
   6 C :   -0.163056
   7 S :    0.403729
   8 C :   -0.040556
   9 C :   -0.056660
  10 H :    0.026347
  11 H :    0.034320
  12 H :    0.032722
  13 H :    0.035260
  14 H :    0.019914
  15 H :    0.027870

  Mayer bond orders larger than 0.100000
B(  0-C ,  1-C ) :   1.5687 B(  0-C ,  4-S ) :   1.1429 B(  0-C , 10-H ) :   0.9639
B(  1-C ,  2-C ) :   1.2540 B(  1-C , 11-H ) :   0.9973 B(  2-C ,  3-C ) :   1.4221
B(  2-C ,  7-S ) :   1.0745 B(  3-C ,  4-S ) :   1.0768 B(  3-C ,  5-C ) :   1.2320
B(  5-C ,  6-C ) :   1.5088 B(  5-C , 12-H ) :   0.9992 B(  6-C ,  7-S ) :   1.0859
B(  6-C ,  8-C ) :   1.1473 B(  8-C ,  9-C ) :   1.8924 B(  8-C , 13-H ) :   0.9573
B(  9-C , 14-H ) :   0.9518 B(  9-C , 15-H ) :   0.9465

Dispersion correction           -0.038093042
FINAL SINGLE POINT ENERGY     -1104.410198638277

DIPOLE MOMENT
-------------
                                X             Y             Z
Electronic contribution:     -6.22083      -2.09888       0.41462
Nuclear contribution   :      6.10108       2.09231      -0.39610
                        -----------------------------------------
Total Dipole Moment    :     -0.11975      -0.00657       0.01853
                        -----------------------------------------
Magnitude (a.u.)       :      0.12135
Magnitude (Debye)      :      0.30845

Rotational constants in cm-1:     0.094700     0.021471     0.017503
Rotational constants in MHz :  2839.033935   643.674778   524.740532

                             ****ORCA TERMINATED NORMALLY****
TOTAL RUN TIME: 0 days 0 hours 5 minutes 26 seconds 13 msec
