                         Program Version 4.2.0 -  RELEASE  -
|  1> # ORCA input file
|  2> # SCF done        -37.967990070140          0.000604699535
|  3> ! B3LYP/G D3BJ Opt RIJCOSX def2-SVP def2/J
|  4> * xyz 0 1
|  5>    C       -1.95049        -1.09855         0.26107
|  6>    S       -2.91037         0.30777         0.52838
|  7>    C       -1.55778         1.35570         0.41906
|  8>    C       -0.40400         0.65640         0.18401
|  9>    C       -0.64598        -0.75770         0.09633
| 10>    S        0.81730        -1.65161        -0.20139
| 11>    C        1.72200        -0.14618        -0.21145
| 12>    C        3.16458        -0.23976        -0.44683
| 13>    O        3.75764        -1.28007        -0.59600
| 14>    O        3.73638         0.97279        -0.49062
| 15>    C        5.14709         1.00452        -0.71265
| 16>    C        5.92082         0.80957         0.58310
| 17>    C        0.97045         0.96632         0.00110
| 18>    H       -2.40840        -2.06541         0.24328
| 19>    H       -1.68888         2.41251         0.53153
| 20>    H        5.34151         1.98836        -1.14498
| 21>    H        5.40930         0.22110        -1.43124
| 22>    H        5.61665         1.55100         1.31821
| 23>    H        6.98459         0.91477         0.39037
| 24>    H        5.73176        -0.18378         0.98270
| 25>    H        1.38105         1.95876         0.02438
| 26> *
| 27>
| 28>                          ****END OF INPUT****
 Total Charge           Charge          ....    0
 Multiplicity           Mult            ....    1
 Number of Electrons    NEL             ....  110
Dispersion correction           -0.045639659
FINAL SINGLE POINT ENERGY     -1294.060741063485
Dispersion correction            ... done
Dispersion correction           -0.045496143
FINAL SINGLE POINT ENERGY     -1294.063029418315
Dispersion correction            ... done
Dispersion correction           -0.045442208
FINAL SINGLE POINT ENERGY     -1294.062981235581
Dispersion correction            ... done
FINAL SINGLE POINT ENERGY     -1294.063070404235
FINAL SINGLE POINT ENERGY     -1294.062971430132
FINAL SINGLE POINT ENERGY     -1294.062758178517
FINAL SINGLE POINT ENERGY     -1294.062690934581
FINAL SINGLE POINT ENERGY     -1294.062677941218
Dispersion correction            ... done
Dispersion correction           -0.045524306
FINAL SINGLE POINT ENERGY     -1294.062646951890
Dispersion correction            ... done
Dispersion correction           -0.045531084
FINAL SINGLE POINT ENERGY     -1294.062617837126
Dispersion correction            ... done
                    ***********************HURRAY********************

CARTESIAN COORDINATES (ANGSTROEM)
---------------------------------
  C     -1.939363   -1.095754    0.377302
  S     -2.853737    0.334902    0.731344
  C     -1.505272    1.378466    0.499520
  C     -0.373511    0.657569    0.157665
  C     -0.637710   -0.764533    0.088897
  S      0.803505   -1.676401   -0.327216
  C      1.730739   -0.169908   -0.392372
  C      3.178201   -0.274997   -0.653087
  O      3.766259   -1.321488   -0.809121
  O      3.762522    0.937160   -0.671149
  C      5.198031    0.982980   -0.715511
  C      5.782288    0.842409    0.679874
  C      1.002595    0.956678   -0.127473
  H     -2.413529   -2.074080    0.407722
  H     -1.612764    2.452129    0.641388
  H      5.434816    1.962750   -1.154141
  H      5.563591    0.191385   -1.385015
  H      5.326056    1.574235    1.363398
  H      6.869338    1.020928    0.660582
  H      5.605688   -0.168427    1.077613
  H      1.447477    1.950507   -0.121860

 Multiplicity           Mult            ....    1
 Number of Electrons    NEL             ....  110
 Basis Dimension        Dim             ....  230

ORBITAL ENERGIES
----------------

  NO   OCC          E(Eh)            E(eV)
   0   2.0000     -88.890534     -2418.8344
   1   2.0000     -88.873313     -2418.3658
   2   2.0000     -19.178289      -521.8678
   3   2.0000     -19.123934      -520.3887
   4   2.0000     -10.321673      -280.8670
   5   2.0000     -10.249102      -278.8922
   6   2.0000     -10.228518      -278.3321
   7   2.0000     -10.225581      -278.2522
   8   2.0000     -10.225431      -278.2481
   9   2.0000     -10.223073      -278.1839
  10   2.0000     -10.213629      -277.9270
  11   2.0000     -10.211743      -277.8757
  12   2.0000     -10.190660      -277.3019
  13   2.0000      -7.985161      -217.2873
  14   2.0000      -7.967718      -216.8126
  15   2.0000      -5.953241      -161.9959
  16   2.0000      -5.948924      -161.8784
  17   2.0000      -5.946884      -161.8229
  18   2.0000      -5.936489      -161.5401
  19   2.0000      -5.932532      -161.4324
  20   2.0000      -5.927532      -161.2964
  21   2.0000      -1.097772       -29.8719
  22   2.0000      -1.009788       -27.4777
  23   2.0000      -0.908099       -24.7106
  24   2.0000      -0.851287       -23.1647
  25   2.0000      -0.778320       -21.1792
  26   2.0000      -0.760994       -20.7077
  27   2.0000      -0.732723       -19.9384
  28   2.0000      -0.699510       -19.0346
  29   2.0000      -0.667935       -18.1754
  30   2.0000      -0.615312       -16.7435
  31   2.0000      -0.577228       -15.7072
  32   2.0000      -0.551945       -15.0192
  33   2.0000      -0.543101       -14.7785
  34   2.0000      -0.510507       -13.8916
  35   2.0000      -0.492224       -13.3941
  36   2.0000      -0.484397       -13.1811
  37   2.0000      -0.467185       -12.7127
  38   2.0000      -0.444720       -12.1014
  39   2.0000      -0.434224       -11.8158
  40   2.0000      -0.421801       -11.4778
  41   2.0000      -0.412755       -11.2316
  42   2.0000      -0.407086       -11.0774
  43   2.0000      -0.395628       -10.7656
  44   2.0000      -0.391790       -10.6611
  45   2.0000      -0.381208       -10.3732
  46   2.0000      -0.361490        -9.8366
  47   2.0000      -0.346714        -9.4346
  48   2.0000      -0.345487        -9.4012
  49   2.0000      -0.340702        -9.2710
  50   2.0000      -0.307234        -8.3603
  51   2.0000      -0.291817        -7.9407
  52   2.0000      -0.285120        -7.7585
  53   2.0000      -0.250724        -6.8225
  54   2.0000      -0.217012        -5.9052
  55   0.0000      -0.070628        -1.9219
  56   0.0000      -0.010836        -0.2949
  57   0.0000       0.027059         0.7363
  58   0.0000       0.027319         0.7434
  59   0.0000       0.055591         1.5127

MULLIKEN ATOMIC CHARGES
-----------------------
   0 C :   -0.163611
   1 S :    0.121386
   2 C :   -0.137304
   3 C :    0.105454
   4 C :    0.009580
   5 S :    0.147857
   6 C :   -0.163391
   7 C :    0.236730
   8 O :   -0.218473
   9 O :   -0.317337
  10 C :    0.194626
  11 C :   -0.034202
  12 C :    0.040622
  13 H :    0.027696
  14 H :    0.027461
  15 H :    0.014319
  16 H :    0.028424
  17 H :    0.024074
  18 H :    0.024518
  19 H :    0.035885
  20 H :   -0.004315
Sum of atomic charges:    0.0000000

LOEWDIN ATOMIC CHARGES
----------------------
   0 C :   -0.221225
   1 S :    0.463247
   2 C :   -0.199380
   3 C :   -0.080789
   4 C :   -0.186342
   5 S :    0.401781
   6 C :   -0.195855
   7 C :    0.066723
   8 O :   -0.183613
   9 O :   -0.096968
  10 C :    0.091083
  11 C :   -0.067968
  12 C :   -0.019555
  13 H :    0.028456
  14 H :    0.028526
  15 H :    0.021128
  16 H :    0.020982
  17 H :    0.027347
  18 H :    0.033083
  19 H :    0.031792
  20 H :    0.037546

  Mayer bond orders larger than 0.100000
B(  0-C ,  1-S ) :   1.1686 B(  0-C ,  2-C ) :   0.1048 B(  0-C ,  4-C ) :   1.5198
B(  0-C , 13-H ) :   0.9738 B(  1-S ,  2-C ) :   1.1954 B(  2-C ,  3-C ) :   1.4357
B(  2-C , 14-H ) :   0.9658 B(  3-C ,  4-C ) :   1.2259 B(  3-C , 12-C ) :   1.1177
B(  4-C ,  5-S ) :   1.0327 B(  5-S ,  6-C ) :   1.0660 B(  6-C ,  7-C ) :   0.9827
B(  6-C , 12-C ) :   1.5917 B(  7-C ,  8-O ) :   2.0845 B(  7-C ,  9-O ) :   1.2135
B(  9-O , 10-C ) :   0.8997 B( 10-C , 11-C ) :   1.1262 B( 10-C , 15-H ) :   0.9584
B( 10-C , 16-H ) :   0.9404 B( 11-C , 17-H ) :   0.9647 B( 11-C , 18-H ) :   0.9623
B( 11-C , 19-H ) :   0.9652 B( 12-C , 20-H ) :   0.9991

Dispersion correction           -0.045530872
FINAL SINGLE POINT ENERGY     -1294.062623953786

DIPOLE MOMENT
-------------
                                X             Y             Z
Electronic contribution:    -16.83008      -5.95437      -1.42055
Nuclear contribution   :     16.65074       6.93844       1.72496
                        -----------------------------------------
Total Dipole Moment    :     -0.17934       0.98406       0.30441
                        -----------------------------------------
Magnitude (a.u.)       :      1.04557
Magnitude (Debye)      :      2.65762

Rotational constants in cm-1:     0.060391     0.009911     0.008813
Rotational constants in MHz :  1810.468124   297.136434   264.202565

                             ****ORCA TERMINATED NORMALLY****
TOTAL RUN TIME: 0 days 0 hours 14 minutes 39 seconds 159 msec
