                         Program Version 4.2.0 -  RELEASE  -
|  1> # ORCA input file
|  2> # SCF done        -33.455437969158          0.000833453958
|  3> ! B3LYP/G D3BJ Opt RIJCOSX def2-SVP def2/J
|  4> * xyz 0 1
|  5>    C        1.80853        -1.17559         0.46244
|  6>    O        0.79723        -1.33179        -0.50605
|  7>    C       -0.37952        -0.66920        -0.26505
|  8>    C       -1.58925        -1.24198        -0.51828
|  9>    S       -2.89144        -0.19083        -0.14809
| 10>    C       -1.81115         1.04202         0.35822
| 11>    C       -0.50794         0.66317         0.24075
| 12>    O        0.51452         1.49969         0.59428
| 13>    C        1.73777         1.33515        -0.08981
| 14>    C        2.55890         0.14711         0.39998
| 15>    O        3.71245         0.24404         0.71812
| 16>    H        2.51774        -1.99133         0.29389
| 17>    H        1.40352        -1.27757         1.48223
| 18>    H       -1.76885        -2.22092        -0.91173
| 19>    H       -2.18085         1.97946         0.71799
| 20>    H        2.30341         2.25381         0.08426
| 21>    H        1.57595         1.21002        -1.17129
| 22> *
| 23>
| 24>                          ****END OF INPUT****
 Total Charge           Charge          ....    0
 Multiplicity           Mult            ....    1
 Number of Electrons    NEL             ....   88
Dispersion correction           -0.034408732
FINAL SINGLE POINT ENERGY      -893.717270131283
Dispersion correction            ... done
Dispersion correction           -0.034315421
FINAL SINGLE POINT ENERGY      -893.719128955577
Dispersion correction            ... done
Dispersion correction           -0.034296055
FINAL SINGLE POINT ENERGY      -893.719407470453
Dispersion correction            ... done
FINAL SINGLE POINT ENERGY      -893.719370639397
FINAL SINGLE POINT ENERGY      -893.719477528922
FINAL SINGLE POINT ENERGY      -893.719494845789
FINAL SINGLE POINT ENERGY      -893.719510718776
Dispersion correction            ... done
Dispersion correction           -0.034321970
FINAL SINGLE POINT ENERGY      -893.719517712642
Dispersion correction            ... done
Dispersion correction           -0.034325272
FINAL SINGLE POINT ENERGY      -893.719527185191
Dispersion correction            ... done
                    ***********************HURRAY********************

CARTESIAN COORDINATES (ANGSTROEM)
---------------------------------
  C      1.807026   -1.181118    0.468889
  O      0.801274   -1.300663   -0.521360
  C     -0.388923   -0.682636   -0.269286
  C     -1.605138   -1.271887   -0.508715
  S     -2.912541   -0.202605   -0.139028
  C     -1.827259    1.057327    0.343720
  C     -0.516402    0.666860    0.227869
  O      0.520717    1.463997    0.606948
  C      1.752811    1.351766   -0.088119
  C      2.564906    0.143652    0.383346
  O      3.731869    0.224820    0.679479
  H      2.530997   -1.991847    0.308028
  H      1.383033   -1.288069    1.486326
  H     -1.776546   -2.278304   -0.883425
  H     -2.191863    2.021046    0.690418
  H      2.333780    2.255662    0.138246
  H      1.593278    1.287259   -1.181475

 Multiplicity           Mult            ....    1
 Number of Electrons    NEL             ....   88
 Basis Dimension        Dim             ....  188

ORBITAL ENERGIES
----------------

  NO   OCC          E(Eh)            E(eV)
   0   2.0000     -88.881378     -2418.5852
   1   2.0000     -19.179991      -521.9141
   2   2.0000     -19.178437      -521.8718
   3   2.0000     -19.149940      -521.0964
   4   2.0000     -10.292034      -280.0605
   5   2.0000     -10.264118      -279.3008
   6   2.0000     -10.263959      -279.2965
   7   2.0000     -10.258148      -279.1384
   8   2.0000     -10.257189      -279.1123
   9   2.0000     -10.215349      -277.9738
  10   2.0000     -10.213703      -277.9290
  11   2.0000      -7.976251      -217.0448
  12   2.0000      -5.944449      -161.7567
  13   2.0000      -5.940569      -161.6511
  14   2.0000      -5.937204      -161.5595
  15   2.0000      -1.087429       -29.5904
  16   2.0000      -1.063049       -28.9270
  17   2.0000      -1.055138       -28.7118
  18   2.0000      -0.884828       -24.0774
  19   2.0000      -0.780487       -21.2381
  20   2.0000      -0.757846       -20.6220
  21   2.0000      -0.713697       -19.4207
  22   2.0000      -0.695407       -18.9230
  23   2.0000      -0.600672       -16.3451
  24   2.0000      -0.584712       -15.9108
  25   2.0000      -0.581688       -15.8285
  26   2.0000      -0.529934       -14.4202
  27   2.0000      -0.521869       -14.2008
  28   2.0000      -0.499152       -13.5826
  29   2.0000      -0.485856       -13.2208
  30   2.0000      -0.455786       -12.4026
  31   2.0000      -0.448323       -12.1995
  32   2.0000      -0.444747       -12.1022
  33   2.0000      -0.423304       -11.5187
  34   2.0000      -0.410118       -11.1599
  35   2.0000      -0.402520       -10.9531
  36   2.0000      -0.378390       -10.2965
  37   2.0000      -0.362206        -9.8561
  38   2.0000      -0.358031        -9.7425
  39   2.0000      -0.346288        -9.4230
  40   2.0000      -0.320053        -8.7091
  41   2.0000      -0.271022        -7.3749
  42   2.0000      -0.237931        -6.4744
  43   2.0000      -0.230450        -6.2709
  44   0.0000      -0.047245        -1.2856
  45   0.0000      -0.021010        -0.5717
  46   0.0000       0.041766         1.1365
  47   0.0000       0.047803         1.3008
  48   0.0000       0.058846         1.6013

MULLIKEN ATOMIC CHARGES
-----------------------
   0 C :    0.274178
   1 O :   -0.331091
   2 C :    0.154393
   3 C :   -0.135818
   4 S :    0.106126
   5 C :   -0.146415
   6 C :    0.178178
   7 O :   -0.327747
   8 C :    0.282380
   9 C :   -0.073749
  10 O :   -0.172670
  11 H :    0.039831
  12 H :    0.039956
  13 H :    0.020213
  14 H :    0.020040
  15 H :    0.031404
  16 H :    0.040792
Sum of atomic charges:   -0.0000000

LOEWDIN ATOMIC CHARGES
----------------------
   0 C :    0.063939
   1 O :   -0.114287
   2 C :   -0.028153
   3 C :   -0.215532
   4 S :    0.433940
   5 C :   -0.219484
   6 C :   -0.022080
   7 O :   -0.107405
   8 C :    0.067099
   9 C :    0.055703
  10 O :   -0.120774
  11 H :    0.040791
  12 H :    0.035961
  13 H :    0.029829
  14 H :    0.029343
  15 H :    0.037436
  16 H :    0.033675

  Mayer bond orders larger than 0.100000
B(  0-C ,  1-O ) :   0.9595 B(  0-C ,  9-C ) :   0.9516 B(  0-C , 11-H ) :   0.9361
B(  0-C , 12-H ) :   0.9105 B(  1-O ,  2-C ) :   1.0857 B(  2-C ,  3-C ) :   1.5467
B(  2-C ,  6-C ) :   1.1679 B(  3-C ,  4-S ) :   1.1494 B(  3-C , 13-H ) :   0.9629
B(  4-S ,  5-C ) :   1.1455 B(  5-C ,  6-C ) :   1.5399 B(  5-C , 14-H ) :   0.9641
B(  6-C ,  7-O ) :   1.0972 B(  7-O ,  8-C ) :   0.9493 B(  8-C ,  9-C ) :   0.9692
B(  8-C , 15-H ) :   0.9350 B(  8-C , 16-H ) :   0.9123 B(  9-C , 10-O ) :   2.1858

Dispersion correction           -0.034326787
FINAL SINGLE POINT ENERGY      -893.719531755665

DIPOLE MOMENT
-------------
                                X             Y             Z
Electronic contribution:     -3.81460      -0.09827      -0.17807
Nuclear contribution   :      3.36617      -0.00718       0.03998
                        -----------------------------------------
Total Dipole Moment    :     -0.44842      -0.10545      -0.13809
                        -----------------------------------------
Magnitude (a.u.)       :      0.48091
Magnitude (Debye)      :      1.22237

Rotational constants in cm-1:     0.088493     0.021293     0.017802
Rotational constants in MHz :  2652.952567   638.337153   533.685927

                             ****ORCA TERMINATED NORMALLY****
TOTAL RUN TIME: 0 days 0 hours 8 minutes 56 seconds 409 msec
