                         Program Version 4.2.0 -  RELEASE  -
|  1> # ORCA input file
|  2> # SCF done        -31.764890212071          0.000361945906
|  3> ! B3LYP/G D3BJ Opt RIJCOSX def2-SVP def2/J
|  4> * xyz 0 1
|  5>    C        0.21863         1.17111         0.11597
|  6>    S       -0.81703        -0.20005         0.09444
|  7>    C        0.53688        -1.26295         0.25212
|  8>    C        0.33197        -2.74011         0.25673
|  9>    C        0.74069        -3.36408        -1.07957
| 10>    C        1.72347        -0.57511         0.28442
| 11>    C        1.53277         0.84261         0.21288
| 12>    C        2.61530         1.87689         0.26876
| 13>    C        2.90707         2.45628        -1.11658
| 14>    C        2.99902        -1.26738         0.42197
| 15>    C        4.13044        -0.95501        -0.19441
| 16>    H       -0.21124         2.15203         0.06366
| 17>    H       -0.72023        -2.95552         0.45228
| 18>    H        0.92483        -3.18917         1.05901
| 19>    H        0.14267        -2.94880        -1.88724
| 20>    H        0.59171        -4.44075        -1.05496
| 21>    H        1.78862        -3.15938        -1.28565
| 22>    H        3.52024         1.43312         0.68577
| 23>    H        2.29912         2.68821         0.92931
| 24>    H        3.18054         1.66913        -1.81575
| 25>    H        3.72348         3.17308        -1.06365
| 26>    H        2.02664         2.96095        -1.50757
| 27>    H        2.97670        -2.12949         1.07882
| 28>    H        4.20345        -0.14303        -0.89576
| 29>    H        5.03013        -1.52532        -0.03396
| 30> *
| 31>
| 32>                          ****END OF INPUT****
 Total Charge           Charge          ....    0
 Multiplicity           Mult            ....    1
 Number of Electrons    NEL             ....   90
Dispersion correction           -0.049408207
FINAL SINGLE POINT ENERGY      -787.319232749529
Dispersion correction            ... done
Dispersion correction           -0.048796403
FINAL SINGLE POINT ENERGY      -787.323026339205
Dispersion correction            ... done
Dispersion correction           -0.048651718
FINAL SINGLE POINT ENERGY      -787.323332097478
Dispersion correction            ... done
FINAL SINGLE POINT ENERGY      -787.323504351287
FINAL SINGLE POINT ENERGY      -787.323605193008
FINAL SINGLE POINT ENERGY      -787.323713876763
FINAL SINGLE POINT ENERGY      -787.323744486872
FINAL SINGLE POINT ENERGY      -787.323771973025
FINAL SINGLE POINT ENERGY      -787.323690739506
FINAL SINGLE POINT ENERGY      -787.323788432437
FINAL SINGLE POINT ENERGY      -787.323795595815
FINAL SINGLE POINT ENERGY      -787.323812276720
FINAL SINGLE POINT ENERGY      -787.323795251182
FINAL SINGLE POINT ENERGY      -787.323787898576
Dispersion correction            ... done
Dispersion correction           -0.048632983
FINAL SINGLE POINT ENERGY      -787.323779960071
Dispersion correction            ... done
Dispersion correction           -0.048631701
FINAL SINGLE POINT ENERGY      -787.323774243436
Dispersion correction            ... done
                    ***********************HURRAY********************

CARTESIAN COORDINATES (ANGSTROEM)
---------------------------------
  C      0.165487    1.103345    0.238207
  S     -0.770657   -0.349022    0.259053
  C      0.656842   -1.332787    0.269534
  C      0.489271   -2.826062    0.213011
  C      0.294730   -3.355055   -1.217238
  C      1.815570   -0.559918    0.255049
  C      1.515384    0.864880    0.236879
  C      2.506540    1.999692    0.175363
  C      3.047776    2.259605   -1.239745
  C      3.130213   -1.203782    0.299710
  C      4.367554   -0.678473    0.264990
  H     -0.326786    2.074857    0.238315
  H     -0.376936   -3.115419    0.831289
  H      1.359511   -3.314715    0.677526
  H     -0.568496   -2.869513   -1.696916
  H      0.120503   -4.443200   -1.220170
  H      1.180293   -3.143428   -1.836381
  H      3.337906    1.808800    0.871117
  H      2.009748    2.911897    0.544031
  H      3.523443    1.360719   -1.661277
  H      3.795131    3.069513   -1.240670
  H      2.230374    2.551037   -1.916753
  H      3.077532   -2.293686    0.391845
  H      4.578723    0.385547    0.169057
  H      5.236216   -1.337573    0.335212

 Multiplicity           Mult            ....    1
 Number of Electrons    NEL             ....   90
 Basis Dimension        Dim             ....  228

ORBITAL ENERGIES
----------------

  NO   OCC          E(Eh)            E(eV)
   0   2.0000     -88.866365     -2418.1767
   1   2.0000     -10.212390      -277.8933
   2   2.0000     -10.201821      -277.6056
   3   2.0000     -10.201594      -277.5995
   4   2.0000     -10.195115      -277.4232
   5   2.0000     -10.193577      -277.3813
   6   2.0000     -10.192833      -277.3611
   7   2.0000     -10.191019      -277.3117
   8   2.0000     -10.185795      -277.1696
   9   2.0000     -10.182336      -277.0755
  10   2.0000     -10.180188      -277.0170
  11   2.0000      -7.961727      -216.6496
  12   2.0000      -5.929769      -161.3572
  13   2.0000      -5.925707      -161.2467
  14   2.0000      -5.923170      -161.1777
  15   2.0000      -0.878641       -23.9090
  16   2.0000      -0.790800       -21.5188
  17   2.0000      -0.780490       -21.2382
  18   2.0000      -0.757581       -20.6148
  19   2.0000      -0.704848       -19.1799
  20   2.0000      -0.694552       -18.8997
  21   2.0000      -0.630709       -17.1625
  22   2.0000      -0.608718       -16.5641
  23   2.0000      -0.585825       -15.9411
  24   2.0000      -0.541461       -14.7339
  25   2.0000      -0.512164       -13.9367
  26   2.0000      -0.488072       -13.2811
  27   2.0000      -0.456153       -12.4126
  28   2.0000      -0.442807       -12.0494
  29   2.0000      -0.433047       -11.7838
  30   2.0000      -0.424791       -11.5592
  31   2.0000      -0.420250       -11.4356
  32   2.0000      -0.411105       -11.1867
  33   2.0000      -0.392141       -10.6707
  34   2.0000      -0.382502       -10.4084
  35   2.0000      -0.366901        -9.9839
  36   2.0000      -0.361821        -9.8456
  37   2.0000      -0.358266        -9.7489
  38   2.0000      -0.352761        -9.5991
  39   2.0000      -0.339116        -9.2278
  40   2.0000      -0.330938        -9.0053
  41   2.0000      -0.329359        -8.9623
  42   2.0000      -0.299962        -8.1624
  43   2.0000      -0.232575        -6.3287
  44   2.0000      -0.216468        -5.8904
  45   0.0000      -0.028422        -0.7734
  46   0.0000       0.005029         0.1369
  47   0.0000       0.039438         1.0732
  48   0.0000       0.061880         1.6839
  49   0.0000       0.065406         1.7798

MULLIKEN ATOMIC CHARGES
-----------------------
   0 C :   -0.126229
   1 S :    0.094786
   2 C :   -0.273369
   3 C :    0.082445
   4 C :    0.013936
   5 C :    0.140462
   6 C :   -0.054707
   7 C :    0.065335
   8 C :    0.014895
   9 C :   -0.030128
  10 C :   -0.046550
  11 H :    0.010779
  12 H :    0.006131
  13 H :    0.013559
  14 H :    0.010857
  15 H :    0.017936
  16 H :    0.019665
  17 H :    0.010973
  18 H :   -0.012029
  19 H :    0.018063
  20 H :    0.013789
  21 H :    0.006294
  22 H :   -0.023235
  23 H :    0.011616
  24 H :    0.014727
Sum of atomic charges:   -0.0000000

LOEWDIN ATOMIC CHARGES
----------------------
   0 C :   -0.204048
   1 S :    0.419520
   2 C :   -0.167215
   3 C :   -0.044740
   4 C :   -0.051314
   5 C :   -0.072797
   6 C :   -0.048048
   7 C :   -0.028228
   8 C :   -0.053354
   9 C :   -0.023623
  10 C :   -0.065057
  11 H :    0.020886
  12 H :    0.028171
  13 H :    0.029484
  14 H :    0.021460
  15 H :    0.023821
  16 H :    0.025553
  17 H :    0.025595
  18 H :    0.026371
  19 H :    0.023085
  20 H :    0.022851
  21 H :    0.023331
  22 H :    0.026598
  23 H :    0.018078
  24 H :    0.023619

  Mayer bond orders larger than 0.100000
B(  0-C ,  1-S ) :   1.1225 B(  0-C ,  6-C ) :   1.5942 B(  0-C , 11-H ) :   0.9631
B(  1-S ,  2-C ) :   1.1651 B(  2-C ,  3-C ) :   1.0727 B(  2-C ,  5-C ) :   1.4793
B(  3-C ,  4-C ) :   1.0977 B(  3-C , 12-H ) :   0.9186 B(  3-C , 13-H ) :   0.9188
B(  4-C , 14-H ) :   0.9668 B(  4-C , 15-H ) :   0.9646 B(  4-C , 16-H ) :   0.9705
B(  5-C ,  6-C ) :   1.2007 B(  5-C ,  9-C ) :   1.1230 B(  6-C ,  7-C ) :   1.0731
B(  7-C ,  8-C ) :   1.1049 B(  7-C , 17-H ) :   0.9172 B(  7-C , 18-H ) :   0.9196
B(  8-C , 19-H ) :   0.9671 B(  8-C , 20-H ) :   0.9651 B(  8-C , 21-H ) :   0.9612
B(  9-C , 10-C ) :   1.9120 B(  9-C , 22-H ) :   0.9452 B( 10-C , 23-H ) :   0.9509
B( 10-C , 24-H ) :   0.9381

Dispersion correction           -0.048631441
FINAL SINGLE POINT ENERGY      -787.323769630158

DIPOLE MOMENT
-------------
                                X             Y             Z
Electronic contribution:     -9.96629       0.96896       4.87173
Nuclear contribution   :      9.99536      -1.03573      -4.91959
                        -----------------------------------------
Total Dipole Moment    :      0.02907      -0.06677      -0.04786
                        -----------------------------------------
Magnitude (a.u.)       :      0.08714
Magnitude (Debye)      :      0.22150

Rotational constants in cm-1:     0.042735     0.025207     0.017938
Rotational constants in MHz :  1281.174433   755.679707   537.779743

                             ****ORCA TERMINATED NORMALLY****
TOTAL RUN TIME: 0 days 0 hours 26 minutes 26 seconds 949 msec
