                         Program Version 4.2.0 -  RELEASE  -
|  1> # ORCA input file
|  2> # SCF done        -18.237183071078          0.000840752662
|  3> ! B3LYP/G D3BJ Opt RIJCOSX def2-SVP def2/J
|  4> * xyz 0 1
|  5>    C       -1.10762         0.03637        -0.00083
|  6>    N       -0.26973         1.10208         0.00019
|  7>    C        1.02502         0.66154         0.00097
|  8>    C        0.99844        -0.71830         0.00050
|  9>    C       -0.35085        -1.10681        -0.00110
| 10>    C        2.11730         1.54157         0.00271
| 11>    C        3.05936         2.28805         0.00610
| 12>    H       -2.17288         0.16061        -0.00137
| 13>    H       -0.54382         2.07058         0.00049
| 14>    H        1.85583        -1.36200         0.00118
| 15>    H       -0.72127        -2.11304        -0.00184
| 16>    H        3.88407         2.93594         0.00376
| 17> *
| 18>
| 19>                          ****END OF INPUT****
 Total Charge           Charge          ....    0
 Multiplicity           Mult            ....    1
 Number of Electrons    NEL             ....   48
Dispersion correction           -0.018357526
FINAL SINGLE POINT ENERGY      -286.132958162415
Dispersion correction            ... done
Dispersion correction           -0.018314409
FINAL SINGLE POINT ENERGY      -286.135558959194
Dispersion correction            ... done
Dispersion correction           -0.018311853
FINAL SINGLE POINT ENERGY      -286.135604224486
Dispersion correction            ... done
FINAL SINGLE POINT ENERGY      -286.135614687461
FINAL SINGLE POINT ENERGY      -286.135617023032
Dispersion correction            ... done
Dispersion correction           -0.018315674
FINAL SINGLE POINT ENERGY      -286.135617487330
Dispersion correction            ... done
Dispersion correction           -0.018315895
FINAL SINGLE POINT ENERGY      -286.135618708472
Dispersion correction            ... done
                    ***********************HURRAY********************

CARTESIAN COORDINATES (ANGSTROEM)
---------------------------------
  C     -1.124705    0.034132   -0.000786
  N     -0.267200    1.096278    0.000194
  C      1.042511    0.651203    0.000985
  C      0.997448   -0.743029    0.000455
  C     -0.368200   -1.127737   -0.000872
  C      2.140603    1.545203    0.002387
  C      3.077213    2.320425    0.005428
  H     -2.202732    0.182204   -0.001481
  H     -0.535033    2.071343    0.000530
  H      1.869050   -1.392671    0.000898
  H     -0.762033   -2.142011   -0.001648
  H      3.906930    3.001250    0.004672

 Multiplicity           Mult            ....    1
 Number of Electrons    NEL             ....   48
 Basis Dimension        Dim             ....  123

ORBITAL ENERGIES
----------------

  NO   OCC          E(Eh)            E(eV)
   0   2.0000     -14.382166      -391.3586
   1   2.0000     -10.228780      -278.3393
   2   2.0000     -10.217287      -278.0265
   3   2.0000     -10.194447      -277.4050
   4   2.0000     -10.188117      -277.2328
   5   2.0000     -10.181006      -277.0392
   6   2.0000     -10.178125      -276.9609
   7   2.0000      -0.978699       -26.6317
   8   2.0000      -0.774869       -21.0852
   9   2.0000      -0.768295       -20.9064
  10   2.0000      -0.707635       -19.2557
  11   2.0000      -0.599344       -16.3090
  12   2.0000      -0.588240       -16.0068
  13   2.0000      -0.572018       -15.5654
  14   2.0000      -0.513502       -13.9731
  15   2.0000      -0.454111       -12.3570
  16   2.0000      -0.440378       -11.9833
  17   2.0000      -0.424150       -11.5417
  18   2.0000      -0.402974       -10.9655
  19   2.0000      -0.391514       -10.6536
  20   2.0000      -0.308007        -8.3813
  21   2.0000      -0.283839        -7.7237
  22   2.0000      -0.256094        -6.9687
  23   2.0000      -0.210274        -5.7219
  24   0.0000      -0.010691        -0.2909
  25   0.0000       0.028824         0.7843
  26   0.0000       0.053590         1.4582
  27   0.0000       0.057510         1.5649
  28   0.0000       0.094881         2.5818

MULLIKEN ATOMIC CHARGES
-----------------------
   0 C :    0.045259
   1 N :   -0.059880
   2 C :    0.018904
   3 C :   -0.016903
   4 C :   -0.009368
   5 C :    0.428463
   6 C :   -0.499176
   7 H :    0.002526
   8 H :    0.118612
   9 H :   -0.021855
  10 H :   -0.017964
  11 H :    0.011381
Sum of atomic charges:   -0.0000000

LOEWDIN ATOMIC CHARGES
----------------------
   0 C :   -0.014856
   1 N :    0.094661
   2 C :   -0.044122
   3 C :   -0.050828
   4 C :   -0.078787
   5 C :   -0.031216
   6 C :   -0.078784
   7 H :    0.021645
   8 H :    0.090587
   9 H :    0.028346
  10 H :    0.025073
  11 H :    0.038281

  Mayer bond orders larger than 0.100000
B(  0-C ,  1-N ) :   1.2274 B(  0-C ,  2-C ) :   0.1091 B(  0-C ,  4-C ) :   1.4559
B(  0-C ,  7-H ) :   0.9877 B(  1-N ,  2-C ) :   1.2197 B(  1-N ,  8-H ) :   0.9409
B(  2-C ,  3-C ) :   1.4627 B(  2-C ,  5-C ) :   0.8935 B(  3-C ,  4-C ) :   1.3099
B(  3-C ,  9-H ) :   1.0110 B(  4-C , 10-H ) :   1.0004 B(  5-C ,  6-C ) :   2.2491
B(  6-C , 11-H ) :   1.0898

Dispersion correction           -0.018315895
FINAL SINGLE POINT ENERGY      -286.135619952649

DIPOLE MOMENT
-------------
                                X             Y             Z
Electronic contribution:      0.84128       1.39870       0.00120
Nuclear contribution   :     -1.36041      -0.92038      -0.00221
                        -----------------------------------------
Total Dipole Moment    :     -0.51913       0.47832      -0.00101
                        -----------------------------------------
Magnitude (a.u.)       :      0.70589
Magnitude (Debye)      :      1.79423

Rotational constants in cm-1:     0.298120     0.064877     0.053282
Rotational constants in MHz :  8937.421702  1944.955439  1597.343047

                             ****ORCA TERMINATED NORMALLY****
TOTAL RUN TIME: 0 days 0 hours 2 minutes 50 seconds 283 msec
