                         Program Version 4.2.0 -  RELEASE  -
|  1> # ORCA input file
|  2> # SCF done        -50.725876833344          0.000689955698
|  3> ! B3LYP/G D3BJ Opt RIJCOSX def2-SVP def2/J
|  4> * xyz 0 1
|  5>    C       -1.75652         0.86730         0.06316
|  6>    S       -2.70837        -0.54833         0.09609
|  7>    C       -1.33381        -1.58630         0.01372
|  8>    C       -0.15908        -0.82923        -0.03653
|  9>    C       -0.41409         0.58936        -0.01028
| 10>    C        0.69044         1.50597        -0.06826
| 11>    C        0.42195         2.93090        -0.05760
| 12>    O       -0.66263         3.45840         0.04775
| 13>    C        1.65414         3.87558        -0.20797
| 14>    F        2.34485         3.64761        -1.34043
| 15>    F        1.27509         5.15024        -0.23775
| 16>    F        2.52835         3.75158         0.80761
| 17>    C        1.96937         0.98185        -0.13527
| 18>    C        2.19973        -0.39938        -0.14935
| 19>    C        1.16453        -1.29613        -0.10460
| 20>    C       -1.45402        -3.01388        -0.00014
| 21>    C       -2.60675        -3.68236         0.03012
| 22>    H       -2.23078         1.82607         0.09912
| 23>    H        2.83125         1.62726        -0.17403
| 24>    H        3.21767        -0.75365        -0.19875
| 25>    H        1.36163        -2.35709        -0.12026
| 26>    H       -0.51959        -3.55658        -0.04149
| 27>    H       -3.55410        -3.17090         0.06650
| 28>    H       -2.63405        -4.75694         0.01461
| 29> *
| 30>
| 31>                          ****END OF INPUT****
 Total Charge           Charge          ....    0
 Multiplicity           Mult            ....    1
 Number of Electrons    NEL             ....  130
Dispersion correction           -0.056061298
FINAL SINGLE POINT ENERGY     -1233.733062417497
Dispersion correction            ... done
Dispersion correction           -0.055663693
FINAL SINGLE POINT ENERGY     -1233.736826982512
Dispersion correction            ... done
Dispersion correction           -0.055616535
FINAL SINGLE POINT ENERGY     -1233.737017911500
Dispersion correction            ... done
FINAL SINGLE POINT ENERGY     -1233.736989675000
FINAL SINGLE POINT ENERGY     -1233.736985639611
FINAL SINGLE POINT ENERGY     -1233.737040376940
Dispersion correction            ... done
Dispersion correction           -0.055616686
FINAL SINGLE POINT ENERGY     -1233.737036629336
Dispersion correction            ... done
Dispersion correction           -0.055610466
FINAL SINGLE POINT ENERGY     -1233.737023951310
Dispersion correction            ... done
                    ***********************HURRAY********************

CARTESIAN COORDINATES (ANGSTROEM)
---------------------------------
  C     -1.765018    0.892864    0.083205
  S     -2.718004   -0.531909    0.097588
  C     -1.352115   -1.588216    0.016719
  C     -0.166510   -0.830718   -0.019133
  C     -0.409160    0.602495    0.015271
  C      0.714825    1.511530   -0.035401
  C      0.463603    2.964323   -0.022464
  O     -0.630142    3.466175    0.132646
  C      1.660202    3.934769   -0.259359
  F      2.259564    3.678259   -1.436777
  F      1.244248    5.192940   -0.274241
  F      2.591731    3.817076    0.707129
  C      1.992795    0.976047   -0.097124
  C      2.219602   -0.426104   -0.115241
  C      1.169301   -1.314676   -0.083056
  C     -1.484298   -3.030890   -0.011966
  C     -2.631910   -3.731678   -0.011561
  H     -2.227446    1.872762    0.131067
  H      2.860593    1.632898   -0.128802
  H      3.245616   -0.796713   -0.161081
  H      1.362024   -2.389514   -0.106860
  H     -0.536605   -3.577522   -0.039467
  H     -3.608858   -3.239721    0.009934
  H     -2.628827   -4.823126   -0.035056

 Multiplicity           Mult            ....    1
 Number of Electrons    NEL             ....  130
 Basis Dimension        Dim             ....  277

ORBITAL ENERGIES
----------------

  NO   OCC          E(Eh)            E(eV)
   0   2.0000     -88.896208     -2418.9888
   1   2.0000     -24.728852      -672.9063
   2   2.0000     -24.728104      -672.8859
   3   2.0000     -24.725531      -672.8159
   4   2.0000     -19.152197      -521.1578
   5   2.0000     -10.436928      -284.0032
   6   2.0000     -10.300845      -280.3002
   7   2.0000     -10.235292      -278.5165
   8   2.0000     -10.224829      -278.2317
   9   2.0000     -10.224678      -278.2276
  10   2.0000     -10.223507      -278.1958
  11   2.0000     -10.222600      -278.1711
  12   2.0000     -10.219536      -278.0877
  13   2.0000     -10.218710      -278.0652
  14   2.0000     -10.217822      -278.0411
  15   2.0000     -10.214223      -277.9431
  16   2.0000     -10.203028      -277.6385
  17   2.0000      -7.991104      -217.4490
  18   2.0000      -5.958731      -162.1453
  19   2.0000      -5.954643      -162.0341
  20   2.0000      -5.953427      -162.0010
  21   2.0000      -1.308181       -35.5974
  22   2.0000      -1.216357       -33.0988
  23   2.0000      -1.214541       -33.0494
  24   2.0000      -1.059863       -28.8403
  25   2.0000      -0.909976       -24.7617
  26   2.0000      -0.854564       -23.2539
  27   2.0000      -0.804936       -21.9034
  28   2.0000      -0.784897       -21.3581
  29   2.0000      -0.751776       -20.4569
  30   2.0000      -0.737360       -20.0646
  31   2.0000      -0.705861       -19.2075
  32   2.0000      -0.661075       -17.9888
  33   2.0000      -0.629550       -17.1309
  34   2.0000      -0.625489       -17.0204
  35   2.0000      -0.604225       -16.4418
  36   2.0000      -0.601915       -16.3789
  37   2.0000      -0.595021       -16.1913
  38   2.0000      -0.570103       -15.5133
  39   2.0000      -0.526167       -14.3177
  40   2.0000      -0.515273       -14.0213
  41   2.0000      -0.496811       -13.5189
  42   2.0000      -0.488425       -13.2907
  43   2.0000      -0.478090       -13.0095
  44   2.0000      -0.477540       -12.9945
  45   2.0000      -0.470614       -12.8061
  46   2.0000      -0.453143       -12.3306
  47   2.0000      -0.451233       -12.2787
  48   2.0000      -0.440438       -11.9849
  49   2.0000      -0.435152       -11.8411
  50   2.0000      -0.430032       -11.7018
  51   2.0000      -0.422855       -11.5065
  52   2.0000      -0.418293       -11.3823
  53   2.0000      -0.416747       -11.3403
  54   2.0000      -0.408472       -11.1151
  55   2.0000      -0.390245       -10.6191
  56   2.0000      -0.381866       -10.3911
  57   2.0000      -0.378172       -10.2906
  58   2.0000      -0.361247        -9.8300
  59   2.0000      -0.355332        -9.6691
  60   2.0000      -0.324889        -8.8407
  61   2.0000      -0.287811        -7.8317
  62   2.0000      -0.282064        -7.6754
  63   2.0000      -0.270127        -7.3505
  64   2.0000      -0.215575        -5.8661
  65   0.0000      -0.106213        -2.8902
  66   0.0000      -0.057600        -1.5674
  67   0.0000      -0.007401        -0.2014
  68   0.0000       0.005254         0.1430
  69   0.0000       0.029655         0.8069

MULLIKEN ATOMIC CHARGES
-----------------------
   0 C :   -0.121809
   1 S :    0.152891
   2 C :   -0.140838
   3 C :    0.110001
   4 C :    0.044501
   5 C :    0.024120
   6 C :    0.008825
   7 O :   -0.175608
   8 C :    0.514667
   9 F :   -0.176177
  10 F :   -0.136217
  11 F :   -0.179827
  12 C :    0.009872
  13 C :    0.018966
  14 C :    0.001779
  15 C :    0.011233
  16 C :   -0.040214
  17 H :    0.045881
  18 H :    0.005392
  19 H :   -0.011314
  20 H :   -0.015252
  21 H :   -0.007968
  22 H :    0.023596
  23 H :    0.033499
Sum of atomic charges:    0.0000000

LOEWDIN ATOMIC CHARGES
----------------------
   0 C :   -0.184954
   1 S :    0.498227
   2 C :   -0.183916
   3 C :   -0.045908
   4 C :   -0.039212
   5 C :   -0.068120
   6 C :    0.037193
   7 O :   -0.115803
   8 C :    0.144372
   9 F :   -0.063706
  10 F :   -0.030665
  11 F :   -0.065055
  12 C :    0.015970
  13 C :   -0.034945
  14 C :    0.017925
  15 C :   -0.040674
  16 C :   -0.049593
  17 H :    0.031106
  18 H :    0.029806
  19 H :    0.032248
  20 H :    0.032022
  21 H :    0.033442
  22 H :    0.020118
  23 H :    0.030121

  Mayer bond orders larger than 0.100000
B(  0-C ,  1-S ) :   1.1739 B(  0-C ,  4-C ) :   1.4695 B(  0-C , 17-H ) :   0.9432
B(  1-S ,  2-C ) :   1.1720 B(  2-C ,  3-C ) :   1.3200 B(  2-C , 15-C ) :   1.1580
B(  3-C ,  4-C ) :   1.1842 B(  3-C , 14-C ) :   1.2193 B(  4-C ,  5-C ) :   1.1598
B(  5-C ,  6-C ) :   0.9863 B(  5-C , 12-C ) :   1.4717 B(  6-C ,  7-O ) :   2.0974
B(  6-C ,  8-C ) :   0.8769 B(  8-C ,  9-F ) :   1.1192 B(  8-C , 10-F ) :   1.1832
B(  8-C , 11-F ) :   1.0933 B( 12-C , 13-C ) :   1.2291 B( 12-C , 18-H ) :   0.9586
B( 13-C , 14-C ) :   1.4942 B( 13-C , 19-H ) :   0.9794 B( 14-C , 20-H ) :   0.9858
B( 15-C , 16-C ) :   1.8846 B( 15-C , 21-H ) :   0.9511 B( 16-C , 22-H ) :   0.9541
B( 16-C , 23-H ) :   0.9466

Dispersion correction           -0.055614009
FINAL SINGLE POINT ENERGY     -1233.737029889971

DIPOLE MOMENT
-------------
                                X             Y             Z
Electronic contribution:      7.52806      24.69843      -0.94006
Nuclear contribution   :     -7.34069     -26.25064       0.92340
                        -----------------------------------------
Total Dipole Moment    :      0.18737      -1.55221      -0.01666
                        -----------------------------------------
Magnitude (a.u.)       :      1.56357
Magnitude (Debye)      :      3.97427

Rotational constants in cm-1:     0.035290     0.007634     0.006501
Rotational constants in MHz :  1057.967912   228.855758   194.909802

                             ****ORCA TERMINATED NORMALLY****
TOTAL RUN TIME: 0 days 0 hours 18 minutes 19 seconds 454 msec
