                         Program Version 4.2.0 -  RELEASE  -
|  1> # ORCA input file
|  2> # SCF done        -29.772297667152          0.000521832042
|  3> ! B3LYP/G D3BJ Opt RIJCOSX def2-SVP def2/J
|  4> * xyz 0 1
|  5>    C       -0.24241         1.28839         0.17654
|  6>    S       -1.26770        -0.09745         0.10898
|  7>    C        0.08012        -1.13864        -0.15913
|  8>    C        1.24728        -0.44877        -0.19308
|  9>    O        2.51315        -0.92375        -0.38218
| 10>    C        2.63723        -2.31211        -0.56982
| 11>    C        1.07013         0.96632         0.00124
| 12>    N        2.16374         1.79603        -0.00761
| 13>    C        2.16456         3.15725         0.14888
| 14>    C        3.26187         3.90688         0.12819
| 15>    H       -0.68478         2.24794         0.34203
| 16>    H       -0.09140        -2.18900        -0.27259
| 17>    H        3.70037        -2.50452        -0.70271
| 18>    H        2.09022        -2.64152        -1.45897
| 19>    H        2.27022        -2.86352         0.30166
| 20>    H        3.05098         1.33564        -0.15143
| 21>    H        1.18756         3.59359         0.29314
| 22>    H        4.23866         3.47838        -0.01666
| 23>    H        3.20916         4.97072         0.25427
| 24> *
| 25>
| 26>                          ****END OF INPUT****
 Total Charge           Charge          ....    0
 Multiplicity           Mult            ....    1
 Number of Electrons    NEL             ....   82
Dispersion correction           -0.033863739
FINAL SINGLE POINT ENERGY      -799.910450745501
Dispersion correction            ... done
Dispersion correction           -0.033722100
FINAL SINGLE POINT ENERGY      -799.912985679133
Dispersion correction            ... done
Dispersion correction           -0.033712124
FINAL SINGLE POINT ENERGY      -799.913110547433
Dispersion correction            ... done
FINAL SINGLE POINT ENERGY      -799.913110042667
FINAL SINGLE POINT ENERGY      -799.913107557902
FINAL SINGLE POINT ENERGY      -799.913114198389
Dispersion correction            ... done
Dispersion correction           -0.033730653
FINAL SINGLE POINT ENERGY      -799.913102210976
Dispersion correction            ... done
Dispersion correction           -0.033729396
FINAL SINGLE POINT ENERGY      -799.913096288994
Dispersion correction            ... done
                    ***********************HURRAY********************

CARTESIAN COORDINATES (ANGSTROEM)
---------------------------------
  C     -0.271732    1.291933    0.184596
  S     -1.305734   -0.106545    0.097063
  C      0.049804   -1.165107   -0.128767
  C      1.229452   -0.464285   -0.136604
  O      2.496210   -0.922889   -0.298703
  C      2.648590   -2.292696   -0.598830
  C      1.055823    0.958242    0.046825
  N      2.173438    1.774153    0.057031
  C      2.188329    3.150662    0.117141
  C      3.288413    3.922578    0.111669
  H     -0.703969    2.276214    0.343580
  H     -0.099566   -2.233583   -0.257942
  H      3.719705   -2.470734   -0.761662
  H      2.090173   -2.563851   -1.513084
  H      2.296029   -2.928345    0.233165
  H      3.057050    1.287066   -0.044143
  H      1.196249    3.607621    0.169672
  H      4.293573    3.493327    0.062198
  H      3.197123    5.008100    0.157546

 Multiplicity           Mult            ....    1
 Number of Electrons    NEL             ....   82
 Basis Dimension        Dim             ....  189

ORBITAL ENERGIES
----------------

  NO   OCC          E(Eh)            E(eV)
   0   2.0000     -88.863772     -2418.1062
   1   2.0000     -19.177209      -521.8384
   2   2.0000     -14.354556      -390.6073
   3   2.0000     -10.254530      -279.0399
   4   2.0000     -10.248740      -278.8824
   5   2.0000     -10.229564      -278.3606
   6   2.0000     -10.222534      -278.1693
   7   2.0000     -10.204311      -277.6734
   8   2.0000     -10.198316      -277.5103
   9   2.0000     -10.166062      -276.6326
  10   2.0000      -7.958350      -216.5577
  11   2.0000      -5.926865      -161.2782
  12   2.0000      -5.922892      -161.1701
  13   2.0000      -5.918896      -161.0614
  14   2.0000      -1.070882       -29.1402
  15   2.0000      -0.942791       -25.6547
  16   2.0000      -0.862912       -23.4810
  17   2.0000      -0.762188       -20.7402
  18   2.0000      -0.735257       -20.0074
  19   2.0000      -0.700151       -19.0521
  20   2.0000      -0.681724       -18.5506
  21   2.0000      -0.613803       -16.7024
  22   2.0000      -0.567714       -15.4483
  23   2.0000      -0.556243       -15.1361
  24   2.0000      -0.549003       -14.9391
  25   2.0000      -0.488581       -13.2950
  26   2.0000      -0.482972       -13.1423
  27   2.0000      -0.481516       -13.1027
  28   2.0000      -0.456669       -12.4266
  29   2.0000      -0.421568       -11.4715
  30   2.0000      -0.412386       -11.2216
  31   2.0000      -0.400623       -10.9015
  32   2.0000      -0.395855       -10.7718
  33   2.0000      -0.369107       -10.0439
  34   2.0000      -0.365645        -9.9497
  35   2.0000      -0.359207        -9.7745
  36   2.0000      -0.340282        -9.2595
  37   2.0000      -0.328066        -8.9271
  38   2.0000      -0.257681        -7.0119
  39   2.0000      -0.222157        -6.0452
  40   2.0000      -0.184640        -5.0243
  41   0.0000      -0.009400        -0.2558
  42   0.0000       0.037390         1.0174
  43   0.0000       0.046420         1.2632
  44   0.0000       0.058417         1.5896
  45   0.0000       0.067901         1.8477

MULLIKEN ATOMIC CHARGES
-----------------------
   0 C :   -0.219221
   1 S :    0.082128
   2 C :   -0.212453
   3 C :    0.214357
   4 O :   -0.334079
   5 C :    0.185743
   6 C :    0.126817
   7 N :   -0.056081
   8 C :    0.058214
   9 C :   -0.088990
  10 H :    0.009349
  11 H :    0.016585
  12 H :    0.033201
  13 H :    0.020267
  14 H :    0.023995
  15 H :    0.115471
  16 H :    0.003458
  17 H :    0.001216
  18 H :    0.020023
Sum of atomic charges:   -0.0000000

LOEWDIN ATOMIC CHARGES
----------------------
   0 C :   -0.247418
   1 S :    0.404312
   2 C :   -0.254090
   3 C :   -0.004749
   4 O :   -0.109480
   5 C :    0.083904
   6 C :   -0.024480
   7 N :    0.019260
   8 C :    0.026514
   9 C :   -0.142578
  10 H :    0.019275
  11 H :    0.022108
  12 H :    0.026433
  13 H :    0.014789
  14 H :    0.014989
  15 H :    0.082215
  16 H :    0.026578
  17 H :    0.016213
  18 H :    0.026204

  Mayer bond orders larger than 0.100000
B(  0-C ,  1-S ) :   1.1049 B(  0-C ,  6-C ) :   1.5054 B(  0-C , 10-H ) :   0.9760
B(  1-S ,  2-C ) :   1.1213 B(  2-C ,  3-C ) :   1.4969 B(  2-C , 11-H ) :   0.9725
B(  3-C ,  4-O ) :   1.1183 B(  3-C ,  6-C ) :   1.2270 B(  4-O ,  5-C ) :   0.9598
B(  5-C , 12-H ) :   0.9790 B(  5-C , 13-H ) :   0.9647 B(  5-C , 14-H ) :   0.9665
B(  6-C ,  7-N ) :   1.1645 B(  7-N ,  8-C ) :   1.1418 B(  7-N , 15-H ) :   0.9106
B(  8-C ,  9-C ) :   1.8798 B(  8-C , 16-H ) :   0.9614 B(  9-C , 17-H ) :   0.9576
B(  9-C , 18-H ) :   0.9497

Dispersion correction           -0.033728330
FINAL SINGLE POINT ENERGY      -799.913090700684

DIPOLE MOMENT
-------------
                                X             Y             Z
Electronic contribution:     -8.34939      -1.71980       0.93583
Nuclear contribution   :      8.71206       0.94853      -1.11891
                        -----------------------------------------
Total Dipole Moment    :      0.36267      -0.77126      -0.18308
                        -----------------------------------------
Magnitude (a.u.)       :      0.87172
Magnitude (Debye)      :      2.21573

Rotational constants in cm-1:     0.050002     0.028188     0.018100
Rotational constants in MHz :  1499.015625   845.047846   542.630818

                             ****ORCA TERMINATED NORMALLY****
TOTAL RUN TIME: 0 days 0 hours 8 minutes 16 seconds 254 msec
