                         Program Version 4.2.0 -  RELEASE  -
|  1> # ORCA input file
|  2> # SCF done        -28.540416770054          0.000953418860
|  3> ! B3LYP/G D3BJ Opt RIJCOSX def2-SVP def2/J
|  4> * xyz 0 1
|  5>    C       -1.13136        -0.03756        -0.02414
|  6>    O       -0.32648         1.04977        -0.11581
|  7>    C        0.92556         0.64231        -0.14039
|  8>    C        0.97638        -0.73565        -0.06351
|  9>    N        2.12996        -1.53107        -0.02130
| 10>    O        3.20733        -0.97500        -0.09601
| 11>    O        1.98164        -2.73760         0.10360
| 12>    C       -0.38633        -1.19138         0.01034
| 13>    N       -0.78301        -2.48785         0.02182
| 14>    H       -2.18748         0.12963         0.00645
| 15>    H        1.71447         1.36465        -0.20940
| 16>    H       -0.05832        -3.16573         0.21097
| 17>    H       -1.71964        -2.69998         0.31704
| 18> *
| 19>
| 20>                          ****END OF INPUT****
 Total Charge           Charge          ....    0
 Multiplicity           Mult            ....    1
 Number of Electrons    NEL             ....   66
Dispersion correction           -0.020850695
FINAL SINGLE POINT ENERGY      -489.534847350460
Dispersion correction            ... done
Dispersion correction           -0.020822791
FINAL SINGLE POINT ENERGY      -489.536658102890
Dispersion correction            ... done
Dispersion correction           -0.020812451
FINAL SINGLE POINT ENERGY      -489.535249563669
Dispersion correction            ... done
FINAL SINGLE POINT ENERGY      -489.536949257923
FINAL SINGLE POINT ENERGY      -489.536984799251
FINAL SINGLE POINT ENERGY      -489.536975822726
FINAL SINGLE POINT ENERGY      -489.536969890501
Dispersion correction            ... done
Dispersion correction           -0.020830948
FINAL SINGLE POINT ENERGY      -489.536962896025
Dispersion correction            ... done
Dispersion correction           -0.020831106
FINAL SINGLE POINT ENERGY      -489.536962867854
Dispersion correction            ... done
                    ***********************HURRAY********************

CARTESIAN COORDINATES (ANGSTROEM)
---------------------------------
  C     -1.149680   -0.041775   -0.037067
  O     -0.321105    1.057043   -0.100258
  C      0.940734    0.641724   -0.122107
  C      0.964083   -0.732627   -0.070466
  N      2.148495   -1.531414   -0.028134
  O      3.225641   -0.969550   -0.152282
  O      2.006366   -2.742705    0.138893
  C     -0.404893   -1.199843   -0.016534
  N     -0.801885   -2.513442   -0.016708
  H     -2.215681    0.161216   -0.022590
  H      1.734823    1.380486   -0.168610
  H     -0.065987   -3.166125    0.234122
  H     -1.718191   -2.718447    0.361401

 Multiplicity           Mult            ....    1
 Number of Electrons    NEL             ....   66
 Basis Dimension        Dim             ....  146

ORBITAL ENERGIES
----------------

  NO   OCC          E(Eh)            E(eV)
   0   2.0000     -19.231161      -523.3065
   1   2.0000     -19.165722      -521.5258
   2   2.0000     -19.164230      -521.4852
   3   2.0000     -14.567717      -396.4077
   4   2.0000     -14.349820      -390.4785
   5   2.0000     -10.276378      -279.6345
   6   2.0000     -10.255699      -279.0718
   7   2.0000     -10.247305      -278.8433
   8   2.0000     -10.246406      -278.8189
   9   2.0000      -1.225514       -33.3479
  10   2.0000      -1.135213       -30.8907
  11   2.0000      -1.050534       -28.5865
  12   2.0000      -0.926843       -25.2207
  13   2.0000      -0.839707       -22.8496
  14   2.0000      -0.768046       -20.8996
  15   2.0000      -0.722957       -19.6727
  16   2.0000      -0.611549       -16.6411
  17   2.0000      -0.600063       -16.3285
  18   2.0000      -0.568668       -15.4742
  19   2.0000      -0.547464       -14.8973
  20   2.0000      -0.530775       -14.4431
  21   2.0000      -0.511896       -13.9294
  22   2.0000      -0.504696       -13.7335
  23   2.0000      -0.482374       -13.1261
  24   2.0000      -0.464436       -12.6379
  25   2.0000      -0.457743       -12.4558
  26   2.0000      -0.393977       -10.7207
  27   2.0000      -0.369226       -10.0471
  28   2.0000      -0.316066        -8.6006
  29   2.0000      -0.315862        -8.5950
  30   2.0000      -0.300926        -8.1886
  31   2.0000      -0.284850        -7.7512
  32   2.0000      -0.225451        -6.1348
  33   0.0000      -0.087362        -2.3772
  34   0.0000      -0.001985        -0.0540
  35   0.0000       0.047996         1.3060
  36   0.0000       0.076989         2.0950
  37   0.0000       0.081224         2.2102

MULLIKEN ATOMIC CHARGES
-----------------------
   0 C :   -0.035511
   1 O :   -0.178141
   2 C :    0.089019
   3 C :    0.094408
   4 N :    0.263640
   5 O :   -0.250699
   6 O :   -0.274580
   7 C :    0.062453
   8 N :   -0.045757
   9 H :    0.000513
  10 H :    0.028782
  11 H :    0.127959
  12 H :    0.117915
Sum of atomic charges:   -0.0000000

LOEWDIN ATOMIC CHARGES
----------------------
   0 C :   -0.030266
   1 O :    0.031443
   2 C :    0.071699
   3 C :   -0.097571
   4 N :    0.284697
   5 O :   -0.210139
   6 O :   -0.224995
   7 C :   -0.009150
   8 N :   -0.022315
   9 H :    0.022583
  10 H :    0.037864
  11 H :    0.068585
  12 H :    0.077565

  Mayer bond orders larger than 0.100000
B(  0-C ,  1-O ) :   1.0569 B(  0-C ,  2-C ) :   0.1017 B(  0-C ,  7-C ) :   1.4333
B(  0-C ,  9-H ) :   1.0261 B(  1-O ,  2-C ) :   1.2341 B(  2-C ,  3-C ) :   1.4149
B(  2-C , 10-H ) :   1.0049 B(  3-C ,  4-N ) :   0.9418 B(  3-C ,  7-C ) :   1.2433
B(  4-N ,  5-O ) :   1.5292 B(  4-N ,  6-O ) :   1.4624 B(  5-O ,  6-O ) :   0.2679
B(  7-C ,  8-N ) :   1.2755 B(  8-N , 11-H ) :   0.9176 B(  8-N , 12-H ) :   0.9413

Dispersion correction           -0.020831342
FINAL SINGLE POINT ENERGY      -489.536963743481

DIPOLE MOMENT
-------------
                                X             Y             Z
Electronic contribution:      3.59290       0.85441      -0.20831
Nuclear contribution   :     -4.99883      -0.58255       0.52592
                        -----------------------------------------
Total Dipole Moment    :     -1.40594       0.27186       0.31761
                        -----------------------------------------
Magnitude (a.u.)       :      1.46678
Magnitude (Debye)      :      3.72826

Rotational constants in cm-1:     0.093372     0.054020     0.034287
Rotational constants in MHz :  2799.208102  1619.486217  1027.891697

                             ****ORCA TERMINATED NORMALLY****
TOTAL RUN TIME: 0 days 0 hours 6 minutes 3 seconds 929 msec
