                         Program Version 4.2.0 -  RELEASE  -
|  1> # ORCA input file
|  2> # SCF done        -30.431105380134          0.000633723060
|  3> ! B3LYP/G D3BJ Opt RIJCOSX def2-SVP def2/J
|  4> * xyz 0 1
|  5>    C       -1.76499         1.17251        -0.14208
|  6>    S       -2.88905        -0.08549        -0.43961
|  7>    C       -1.68327        -1.27185        -0.16702
|  8>    C       -0.48036        -0.72990         0.17858
|  9>    C       -0.52821         0.70477         0.19314
| 10>    O        0.45372         1.58401         0.55860
| 11>    C        1.76588         1.33123         0.10616
| 12>    C        2.39995         0.07825         0.70933
| 13>    C        1.85140        -1.20510         0.08720
| 14>    O        0.55640        -1.54999         0.52969
| 15>    H       -2.06981         2.19792        -0.18271
| 16>    H       -1.91919        -2.31412        -0.22884
| 17>    H        2.32651         2.21820         0.41127
| 18>    H        1.78213         1.26441        -0.99236
| 19>    H        2.21328         0.06441         1.78514
| 20>    H        3.47699         0.11538         0.54110
| 21>    H        2.46754        -2.05750         0.38422
| 22>    H        1.86784        -1.12342        -1.01066
| 23> *
| 24>
| 25>                          ****END OF INPUT****
 Total Charge           Charge          ....    0
 Multiplicity           Mult            ....    1
 Number of Electrons    NEL             ....   82
Dispersion correction           -0.034339023
FINAL SINGLE POINT ENERGY      -819.770636726052
Dispersion correction            ... done
Dispersion correction           -0.034255711
FINAL SINGLE POINT ENERGY      -819.772881720113
Dispersion correction            ... done
Dispersion correction           -0.034243566
FINAL SINGLE POINT ENERGY      -819.773431632204
Dispersion correction            ... done
FINAL SINGLE POINT ENERGY      -819.773607871976
FINAL SINGLE POINT ENERGY      -819.773760820486
FINAL SINGLE POINT ENERGY      -819.773771857158
Dispersion correction            ... done
Dispersion correction           -0.034277193
FINAL SINGLE POINT ENERGY      -819.773763345487
Dispersion correction            ... done
Dispersion correction           -0.034275776
FINAL SINGLE POINT ENERGY      -819.773755239191
Dispersion correction            ... done
                    ***********************HURRAY********************

CARTESIAN COORDINATES (ANGSTROEM)
---------------------------------
  C     -1.751975    1.191268   -0.203206
  S     -2.841577   -0.087187   -0.616776
  C     -1.671334   -1.294723   -0.213795
  C     -0.506323   -0.737174    0.252491
  C     -0.552626    0.708102    0.258636
  O      0.435142    1.514200    0.732869
  C      1.733167    1.352427    0.173771
  C      2.442953    0.079479    0.622957
  C      1.813256   -1.224995    0.147783
  O      0.534178   -1.479592    0.716057
  H     -2.045096    2.235434   -0.289496
  H     -1.895285   -2.354540   -0.314167
  H      2.302073    2.230030    0.515166
  H      1.671062    1.393851   -0.931414
  H      2.498259    0.067997    1.724263
  H      3.478834    0.116323    0.240889
  H      2.440646   -2.072191    0.462616
  H      1.741405   -1.244990   -0.957493

 Multiplicity           Mult            ....    1
 Number of Electrons    NEL             ....   82
 Basis Dimension        Dim             ....  184

ORBITAL ENERGIES
----------------

  NO   OCC          E(Eh)            E(eV)
   0   2.0000     -88.870349     -2418.2852
   1   2.0000     -19.156800      -521.2830
   2   2.0000     -19.156718      -521.2808
   3   2.0000     -10.249213      -278.8953
   4   2.0000     -10.249187      -278.8945
   5   2.0000     -10.242118      -278.7022
   6   2.0000     -10.241913      -278.6966
   7   2.0000     -10.203820      -277.6601
   8   2.0000     -10.203725      -277.6575
   9   2.0000     -10.199100      -277.5316
  10   2.0000      -7.965374      -216.7488
  11   2.0000      -5.933587      -161.4611
  12   2.0000      -5.929641      -161.3537
  13   2.0000      -5.926356      -161.2643
  14   2.0000      -1.063083       -28.9280
  15   2.0000      -1.042703       -28.3734
  16   2.0000      -0.872451       -23.7406
  17   2.0000      -0.792697       -21.5704
  18   2.0000      -0.737532       -20.0693
  19   2.0000      -0.715241       -19.4627
  20   2.0000      -0.675194       -18.3730
  21   2.0000      -0.612431       -16.6651
  22   2.0000      -0.578967       -15.7545
  23   2.0000      -0.548646       -14.9294
  24   2.0000      -0.540935       -14.7196
  25   2.0000      -0.496092       -13.4994
  26   2.0000      -0.468352       -12.7445
  27   2.0000      -0.464663       -12.6441
  28   2.0000      -0.455086       -12.3835
  29   2.0000      -0.430935       -11.7263
  30   2.0000      -0.426087       -11.5944
  31   2.0000      -0.407227       -11.0812
  32   2.0000      -0.399852       -10.8805
  33   2.0000      -0.365272        -9.9396
  34   2.0000      -0.357046        -9.7157
  35   2.0000      -0.345316        -9.3965
  36   2.0000      -0.335371        -9.1259
  37   2.0000      -0.304861        -8.2957
  38   2.0000      -0.285173        -7.7599
  39   2.0000      -0.227763        -6.1978
  40   2.0000      -0.226257        -6.1568
  41   0.0000      -0.011686        -0.3180
  42   0.0000       0.050542         1.3753
  43   0.0000       0.051608         1.4043
  44   0.0000       0.065364         1.7786
  45   0.0000       0.083175         2.2633

MULLIKEN ATOMIC CHARGES
-----------------------
   0 C :   -0.156349
   1 S :    0.094996
   2 C :   -0.157127
   3 C :    0.176194
   4 C :    0.178857
   5 O :   -0.327873
   6 C :    0.231566
   7 C :   -0.030026
   8 C :    0.226886
   9 O :   -0.326419
  10 H :    0.017212
  11 H :    0.018457
  12 H :    0.014334
  13 H :   -0.005413
  14 H :    0.025389
  15 H :    0.008193
  16 H :    0.015789
  17 H :   -0.004667
Sum of atomic charges:   -0.0000000

LOEWDIN ATOMIC CHARGES
----------------------
   0 C :   -0.220439
   1 S :    0.424298
   2 C :   -0.221022
   3 C :   -0.021268
   4 C :   -0.020883
   5 O :   -0.117619
   6 C :    0.087670
   7 C :   -0.066886
   8 C :    0.087030
   9 O :   -0.117243
  10 H :    0.026766
  11 H :    0.026987
  12 H :    0.024814
  13 H :    0.008378
  14 H :    0.031620
  15 H :    0.034303
  16 H :    0.024979
  17 H :    0.008515

  Mayer bond orders larger than 0.100000
B(  0-C ,  1-S ) :   1.1470 B(  0-C ,  4-C ) :   1.5390 B(  0-C , 10-H ) :   0.9648
B(  1-S ,  2-C ) :   1.1470 B(  2-C ,  3-C ) :   1.5398 B(  2-C , 11-H ) :   0.9648
B(  3-C ,  4-C ) :   1.1690 B(  3-C ,  9-O ) :   1.1001 B(  4-C ,  5-O ) :   1.0989
B(  5-O ,  6-C ) :   0.9575 B(  6-C ,  7-C ) :   1.0814 B(  6-C , 12-H ) :   0.9489
B(  6-C , 13-H ) :   0.9318 B(  7-C ,  8-C ) :   1.0820 B(  7-C , 14-H ) :   0.9254
B(  7-C , 15-H ) :   0.9209 B(  8-C ,  9-O ) :   0.9578 B(  8-C , 16-H ) :   0.9486
B(  8-C , 17-H ) :   0.9316

Dispersion correction           -0.034275788
FINAL SINGLE POINT ENERGY      -819.773751937989

DIPOLE MOMENT
-------------
                                X             Y             Z
Electronic contribution:    -11.08159      -0.36977      -0.15678
Nuclear contribution   :     11.92740       0.39872      -0.32324
                        -----------------------------------------
Total Dipole Moment    :      0.84581       0.02895      -0.48002
                        -----------------------------------------
Magnitude (a.u.)       :      0.97295
Magnitude (Debye)      :      2.47305

Rotational constants in cm-1:     0.083339     0.030039     0.023133
Rotational constants in MHz :  2498.434305   900.536526   693.499936

                             ****ORCA TERMINATED NORMALLY****
TOTAL RUN TIME: 0 days 0 hours 8 minutes 18 seconds 505 msec
