                         Program Version 4.2.0 -  RELEASE  -
|  1> # ORCA input file
|  2> # SCF done        -26.279422482551          0.000445199448
|  3> ! B3LYP/G D3BJ Opt RIJCOSX def2-SVP def2/J
|  4> * xyz 0 1
|  5>    C       -1.20388         1.38204        -0.03987
|  6>    C       -2.33284         0.60615        -0.05697
|  7>    N       -2.32334        -0.73653        -0.05152
|  8>    C       -1.18106        -1.36148        -0.02949
|  9>    C        0.06248        -0.68868        -0.01057
| 10>    C        0.04581         0.73278        -0.01563
| 11>    N        1.20102         1.43587         0.00216
| 12>    C        2.30787         0.74824         0.02340
| 13>    C        2.32201        -0.66668         0.02766
| 14>    N        1.22593        -1.37251         0.01118
| 15>    H       -1.24076         2.45946        -0.04399
| 16>    H       -3.31950         1.04924        -0.07481
| 17>    H       -1.20343        -2.44270        -0.02611
| 18>    H        3.23020         1.31395         0.03888
| 19>    H        3.25428        -1.21505         0.04603
| 20> *
| 21>
| 22>                          ****END OF INPUT****
 Total Charge           Charge          ....    0
 Multiplicity           Mult            ....    1
 Number of Electrons    NEL             ....   68
Dispersion correction           -0.030514227
FINAL SINGLE POINT ENERGY      -433.708413718320
Dispersion correction            ... done
Dispersion correction           -0.030418683
FINAL SINGLE POINT ENERGY      -433.710463574124
Dispersion correction            ... done
Dispersion correction           -0.030410033
FINAL SINGLE POINT ENERGY      -433.710573284684
Dispersion correction            ... done
Dispersion correction           -0.030409708
FINAL SINGLE POINT ENERGY      -433.710622477385
Dispersion correction            ... done
Dispersion correction           -0.030411947
FINAL SINGLE POINT ENERGY      -433.710626769650
Dispersion correction            ... done
                    ***********************HURRAY********************

CARTESIAN COORDINATES (ANGSTROEM)
---------------------------------
  C     -1.215670    1.385716   -0.038911
  C     -2.354686    0.608024   -0.056692
  N     -2.347032   -0.751625   -0.054011
  C     -1.190347   -1.370900   -0.030686
  C      0.059120   -0.686943   -0.009577
  C      0.044533    0.739632   -0.015033
  N      1.206067    1.450718    0.001808
  C      2.316148    0.751862    0.022514
  C      2.328116   -0.675714    0.029057
  N      1.224017   -1.384544    0.013941
  H     -1.253464    2.476900   -0.042994
  H     -3.342853    1.079823   -0.075276
  H     -1.176763   -2.467739   -0.027511
  H      3.264495    1.302276    0.035714
  H      3.283109   -1.213385    0.048006

 Multiplicity           Mult            ....    1
 Number of Electrons    NEL             ....   68
 Basis Dimension        Dim             ....  165

ORBITAL ENERGIES
----------------

  NO   OCC          E(Eh)            E(eV)
   0   2.0000     -14.357252      -390.6807
   1   2.0000     -14.355279      -390.6270
   2   2.0000     -14.336616      -390.1192
   3   2.0000     -10.253514      -279.0123
   4   2.0000     -10.251151      -278.9480
   5   2.0000     -10.250833      -278.9394
   6   2.0000     -10.244814      -278.7756
   7   2.0000     -10.239474      -278.6303
   8   2.0000     -10.236894      -278.5600
   9   2.0000     -10.211202      -277.8609
  10   2.0000      -0.995758       -27.0960
  11   2.0000      -0.945228       -25.7210
  12   2.0000      -0.922137       -25.0926
  13   2.0000      -0.807442       -21.9716
  14   2.0000      -0.771449       -20.9922
  15   2.0000      -0.692631       -18.8475
  16   2.0000      -0.672432       -18.2978
  17   2.0000      -0.631641       -17.1878
  18   2.0000      -0.561756       -15.2861
  19   2.0000      -0.551932       -15.0188
  20   2.0000      -0.537132       -14.6161
  21   2.0000      -0.476799       -12.9744
  22   2.0000      -0.466813       -12.7026
  23   2.0000      -0.457984       -12.4624
  24   2.0000      -0.457107       -12.4385
  25   2.0000      -0.432000       -11.7553
  26   2.0000      -0.393720       -10.7137
  27   2.0000      -0.393555       -10.7092
  28   2.0000      -0.362904        -9.8751
  29   2.0000      -0.325100        -8.8464
  30   2.0000      -0.296378        -8.0649
  31   2.0000      -0.274712        -7.4753
  32   2.0000      -0.269629        -7.3370
  33   2.0000      -0.258956        -7.0465
  34   0.0000      -0.093810        -2.5527
  35   0.0000      -0.051027        -1.3885
  36   0.0000      -0.012270        -0.3339
  37   0.0000       0.054554         1.4845
  38   0.0000       0.069425         1.8892

MULLIKEN ATOMIC CHARGES
-----------------------
   0 C :   -0.007287
   1 C :    0.056262
   2 N :   -0.075343
   3 C :    0.036626
   4 C :   -0.058606
   5 C :    0.040834
   6 N :   -0.049479
   7 C :    0.041053
   8 C :    0.034297
   9 N :   -0.046635
  10 H :   -0.008272
  11 H :    0.009401
  12 H :    0.001370
  13 H :    0.013511
  14 H :    0.012269
Sum of atomic charges:   -0.0000000

LOEWDIN ATOMIC CHARGES
----------------------
   0 C :   -0.033473
   1 C :    0.025281
   2 N :   -0.072040
   3 C :    0.035155
   4 C :   -0.034311
   5 C :    0.001008
   6 N :   -0.049242
   7 C :    0.016067
   8 C :    0.004700
   9 N :   -0.038551
  10 H :    0.038566
  11 H :    0.025299
  12 H :    0.027826
  13 H :    0.027165
  14 H :    0.026551

  Mayer bond orders larger than 0.100000
B(  0-C ,  1-C ) :   1.4767 B(  0-C ,  3-C ) :   0.1051 B(  0-C ,  5-C ) :   1.2692
B(  0-C , 10-H ) :   0.9726 B(  1-C ,  2-N ) :   1.3911 B(  1-C , 11-H ) :   0.9719
B(  2-N ,  3-C ) :   1.6758 B(  3-C ,  4-C ) :   1.2120 B(  3-C , 12-H ) :   0.9691
B(  4-C ,  5-C ) :   1.2358 B(  4-C ,  9-N ) :   1.4050 B(  5-C ,  6-N ) :   1.4016
B(  6-N ,  7-C ) :   1.6592 B(  7-C ,  8-C ) :   1.2200 B(  7-C , 13-H ) :   0.9654
B(  8-C ,  9-N ) :   1.6568 B(  8-C , 14-H ) :   0.9661

Dispersion correction           -0.030412983
FINAL SINGLE POINT ENERGY      -433.710627206915

DIPOLE MOMENT
-------------
                                X             Y             Z
Electronic contribution:      0.02899      -0.70454       0.00514
Nuclear contribution   :      0.66283       1.07922       0.00587
                        -----------------------------------------
Total Dipole Moment    :      0.69182       0.37468       0.01101
                        -----------------------------------------
Magnitude (a.u.)       :      0.78684
Magnitude (Debye)      :      1.99998

Rotational constants in cm-1:     0.108502     0.043720     0.031163
Rotational constants in MHz :  3252.811021  1310.687623   934.244084

                             ****ORCA TERMINATED NORMALLY****
TOTAL RUN TIME: 0 days 0 hours 4 minutes 25 seconds 803 msec
