                         Program Version 4.2.0 -  RELEASE  -
|  1> # ORCA input file
|  2> # SCF done        -45.099235764074          0.000722636779
|  3> ! B3LYP/G D3BJ Opt RIJCOSX def2-SVP def2/J
|  4> * xyz 0 1
|  5>    C        1.49890        -1.26653        -0.01433
|  6>    S        2.68861        -0.03869         0.04032
|  7>    C        1.46894         1.21044         0.04794
|  8>    C        0.20675         0.65968        -0.00203
|  9>    C        0.23062        -0.76207        -0.02789
| 10>    C       -1.00553        -1.60238        -0.09884
| 11>    C       -1.27450        -2.13627        -1.51179
| 12>    O       -2.02833        -3.03998        -1.72277
| 13>    O       -0.63876        -1.51134        -2.51276
| 14>    C       -2.23044        -0.78805         0.34485
| 15>    C       -2.27055         0.55054        -0.38269
| 16>    C       -1.08776         1.42820         0.03457
| 17>    O       -1.36093         1.89764         1.34431
| 18>    C        1.95553         2.56845         0.08362
| 19>    C        1.26780         3.70079         0.21330
| 20>    H        1.79347        -2.29740        -0.02327
| 21>    H       -0.90614        -2.48200         0.54479
| 22>    H       -0.04821        -0.81587        -2.18133
| 23>    H       -2.17306        -0.60023         1.41790
| 24>    H       -3.13405        -1.36192         0.13814
| 25>    H       -3.18223         1.08536        -0.11615
| 26>    H       -2.26123         0.40453        -1.46428
| 27>    H       -1.01839         2.28397        -0.65975
| 28>    H       -0.56561         2.30219         1.70912
| 29>    H        3.03387         2.63087        -0.00167
| 30>    H        0.19926         3.75409         0.31557
| 31>    H        1.78228         4.64633         0.21147
| 32> *
| 33>
| 34>                          ****END OF INPUT****
 Total Charge           Charge          ....    0
 Multiplicity           Mult            ....    1
 Number of Electrons    NEL             ....  118
Dispersion correction           -0.062596405
FINAL SINGLE POINT ENERGY     -1049.716689021844
Dispersion correction            ... done
Dispersion correction           -0.062160516
FINAL SINGLE POINT ENERGY     -1049.719575320192
Dispersion correction            ... done
Dispersion correction           -0.062080778
FINAL SINGLE POINT ENERGY     -1049.719793358481
Dispersion correction            ... done
FINAL SINGLE POINT ENERGY     -1049.720111659148
FINAL SINGLE POINT ENERGY     -1049.720102246366
FINAL SINGLE POINT ENERGY     -1049.720234489180
FINAL SINGLE POINT ENERGY     -1049.720399399674
FINAL SINGLE POINT ENERGY     -1049.720480140846
FINAL SINGLE POINT ENERGY     -1049.720450968422
FINAL SINGLE POINT ENERGY     -1049.720538087628
FINAL SINGLE POINT ENERGY     -1049.721932061703
FINAL SINGLE POINT ENERGY     -1049.722228602938
FINAL SINGLE POINT ENERGY     -1049.722215216194
FINAL SINGLE POINT ENERGY     -1049.721784249092
FINAL SINGLE POINT ENERGY     -1049.722169683375
FINAL SINGLE POINT ENERGY     -1049.722173656216
FINAL SINGLE POINT ENERGY     -1049.722159227544
Dispersion correction            ... done
Dispersion correction           -0.061762495
FINAL SINGLE POINT ENERGY     -1049.722166712785
Dispersion correction            ... done
Dispersion correction           -0.061776626
FINAL SINGLE POINT ENERGY     -1049.722186778821
Dispersion correction            ... done
                    ***********************HURRAY********************

CARTESIAN COORDINATES (ANGSTROEM)
---------------------------------
  C      1.513753   -1.199878   -0.069186
  S      2.700839    0.053383   -0.091032
  C      1.480962    1.301746   -0.068245
  C      0.206236    0.744132   -0.059022
  C      0.229489   -0.691226   -0.063257
  C     -1.031410   -1.516917   -0.143052
  C     -1.297377   -2.094289   -1.559376
  O     -2.395903   -2.416684   -1.922989
  O     -0.225081   -2.271691   -2.343702
  C     -2.255181   -0.720420    0.333794
  C     -2.301001    0.655286   -0.332397
  C     -1.084140    1.524946    0.016126
  O     -1.237053    2.131700    1.304204
  C      1.926194    2.691378   -0.096428
  C      1.245134    3.763716    0.341818
  H      1.819554   -2.244400   -0.007838
  H     -0.910137   -2.416629    0.485714
  H      0.555637   -1.865634   -1.923557
  H     -2.215287   -0.606652    1.429622
  H     -3.158228   -1.296282    0.092420
  H     -3.199011    1.208985   -0.019223
  H     -2.362739    0.528366   -1.426981
  H     -1.032932    2.375307   -0.683532
  H     -0.919214    1.508745    1.971179
  H      2.928917    2.842668   -0.512138
  H      0.270821    3.671554    0.824994
  H      1.687468    4.759140    0.248432

 Multiplicity           Mult            ....    1
 Number of Electrons    NEL             ....  118
 Basis Dimension        Dim             ....  274

ORBITAL ENERGIES
----------------

  NO   OCC          E(Eh)            E(eV)
   0   2.0000     -88.893708     -2418.9208
   1   2.0000     -19.179031      -521.8880
   2   2.0000     -19.144197      -520.9401
   3   2.0000     -19.118854      -520.2505
   4   2.0000     -10.317613      -280.7565
   5   2.0000     -10.251795      -278.9655
   6   2.0000     -10.239121      -278.6206
   7   2.0000     -10.233442      -278.4661
   8   2.0000     -10.224942      -278.2348
   9   2.0000     -10.224445      -278.2213
  10   2.0000     -10.214088      -277.9395
  11   2.0000     -10.212198      -277.8880
  12   2.0000     -10.198800      -277.5235
  13   2.0000     -10.197638      -277.4918
  14   2.0000     -10.192176      -277.3432
  15   2.0000      -7.988759      -217.3852
  16   2.0000      -5.956702      -162.0901
  17   2.0000      -5.952713      -161.9816
  18   2.0000      -5.950342      -161.9170
  19   2.0000      -1.093403       -29.7530
  20   2.0000      -1.021688       -27.8015
  21   2.0000      -1.010022       -27.4841
  22   2.0000      -0.905879       -24.6502
  23   2.0000      -0.833371       -22.6772
  24   2.0000      -0.797500       -21.7011
  25   2.0000      -0.760972       -20.7071
  26   2.0000      -0.749216       -20.3872
  27   2.0000      -0.709191       -19.2981
  28   2.0000      -0.659362       -17.9421
  29   2.0000      -0.622567       -16.9409
  30   2.0000      -0.616863       -16.7857
  31   2.0000      -0.595434       -16.2026
  32   2.0000      -0.577691       -15.7198
  33   2.0000      -0.555591       -15.1184
  34   2.0000      -0.525526       -14.3003
  35   2.0000      -0.501776       -13.6540
  36   2.0000      -0.480810       -13.0835
  37   2.0000      -0.478259       -13.0141
  38   2.0000      -0.468669       -12.7531
  39   2.0000      -0.458134       -12.4665
  40   2.0000      -0.448558       -12.2059
  41   2.0000      -0.441396       -12.0110
  42   2.0000      -0.434109       -11.8127
  43   2.0000      -0.421143       -11.4599
  44   2.0000      -0.415835       -11.3155
  45   2.0000      -0.399761       -10.8781
  46   2.0000      -0.390039       -10.6135
  47   2.0000      -0.380457       -10.3528
  48   2.0000      -0.371485       -10.1086
  49   2.0000      -0.361053        -9.8247
  50   2.0000      -0.352560        -9.5937
  51   2.0000      -0.347736        -9.4624
  52   2.0000      -0.332263        -9.0413
  53   2.0000      -0.321889        -8.7590
  54   2.0000      -0.315948        -8.5974
  55   2.0000      -0.290829        -7.9139
  56   2.0000      -0.283885        -7.7249
  57   2.0000      -0.261487        -7.1154
  58   2.0000      -0.237862        -6.4726
  59   0.0000      -0.065630        -1.7859
  60   0.0000      -0.005809        -0.1581
  61   0.0000       0.008253         0.2246
  62   0.0000       0.017140         0.4664
  63   0.0000       0.039779         1.0824

MULLIKEN ATOMIC CHARGES
-----------------------
   0 C :   -0.176772
   1 S :    0.131412
   2 C :   -0.140275
   3 C :   -0.044150
   4 C :   -0.085861
   5 C :   -0.015346
   6 C :    0.144874
   7 O :   -0.196087
   8 O :   -0.152287
   9 C :    0.061403
  10 C :    0.072010
  11 C :    0.212931
  12 O :   -0.302280
  13 C :    0.007330
  14 C :   -0.034067
  15 H :    0.032123
  16 H :    0.032723
  17 H :    0.179416
  18 H :   -0.009939
  19 H :    0.024652
  20 H :    0.005286
  21 H :    0.015794
  22 H :   -0.002104
  23 H :    0.166714
  24 H :   -0.003557
  25 H :    0.051003
  26 H :    0.025056
Sum of atomic charges:   -0.0000000

LOEWDIN ATOMIC CHARGES
----------------------
   0 C :   -0.226177
   1 S :    0.448385
   2 C :   -0.159484
   3 C :   -0.084413
   4 C :   -0.070281
   5 C :   -0.062678
   6 C :    0.081162
   7 O :   -0.161673
   8 O :   -0.027218
   9 C :   -0.018674
  10 C :   -0.036399
  11 C :    0.073160
  12 O :   -0.123102
  13 C :   -0.053048
  14 C :   -0.029155
  15 H :    0.026941
  16 H :    0.051528
  17 H :    0.078266
  18 H :    0.017105
  19 H :    0.034368
  20 H :    0.031285
  21 H :    0.029115
  22 H :    0.026167
  23 H :    0.072048
  24 H :    0.028903
  25 H :    0.026339
  26 H :    0.027531

  Mayer bond orders larger than 0.100000
B(  0-C ,  1-S ) :   1.1457 B(  0-C ,  4-C ) :   1.4902 B(  0-C , 15-H ) :   0.9651
B(  1-S ,  2-C ) :   1.1520 B(  2-C ,  3-C ) :   1.4909 B(  2-C , 13-C ) :   1.0934
B(  3-C ,  4-C ) :   1.3036 B(  3-C , 11-C ) :   1.0190 B(  4-C ,  5-C ) :   0.9542
B(  5-C ,  6-C ) :   0.8932 B(  5-C ,  9-C ) :   1.0744 B(  5-C , 16-H ) :   0.8685
B(  6-C ,  7-O ) :   2.1261 B(  6-C ,  8-O ) :   1.2423 B(  8-O , 17-H ) :   0.9340
B(  9-C , 10-C ) :   1.0654 B(  9-C , 18-H ) :   0.9339 B(  9-C , 19-H ) :   0.9159
B( 10-C , 11-C ) :   1.0408 B( 10-C , 20-H ) :   0.9174 B( 10-C , 21-H ) :   0.9333
B( 11-C , 12-O ) :   0.9925 B( 11-C , 22-H ) :   0.8920 B( 12-O , 23-H ) :   0.9705
B( 13-C , 14-C ) :   1.9280 B( 13-C , 24-H ) :   0.9454 B( 14-C , 25-H ) :   0.9298
B( 14-C , 26-H ) :   0.9411

Dispersion correction           -0.061780911
FINAL SINGLE POINT ENERGY     -1049.722193727486

DIPOLE MOMENT
-------------
                                X             Y             Z
Electronic contribution:      7.52445      -6.38340      -2.95137
Nuclear contribution   :     -6.35954       6.75181       3.93912
                        -----------------------------------------
Total Dipole Moment    :      1.16490       0.36841       0.98776
                        -----------------------------------------
Magnitude (a.u.)       :      1.57111
Magnitude (Debye)      :      3.99344

Rotational constants in cm-1:     0.027525     0.015145     0.010931
Rotational constants in MHz :   825.190712   454.034204   327.691666

                             ****ORCA TERMINATED NORMALLY****
TOTAL RUN TIME: 0 days 1 hours 1 minutes 8 seconds 425 msec
