                         Program Version 4.2.0 -  RELEASE  -
|  1> # ORCA input file
|  2> # SCF done        -25.581092287631          0.000973568676
|  3> ! B3LYP/G D3BJ Opt RIJCOSX def2-SVP def2/J
|  4> * xyz 0 1
|  5>    S        1.12617         0.45710        -0.57655
|  6>    C        2.84298         0.39189        -0.18980
|  7>    C        3.65922         1.47191        -0.06762
|  8>    S        5.26676         1.02852         0.36259
|  9>    C        4.84267        -0.63403         0.35925
| 10>    C        3.53431        -0.83365         0.04956
| 11>    S        2.79398        -2.43793         0.02736
| 12>    C        2.15001        -2.45668        -1.61486
| 13>    C        1.37154        -3.42232        -2.06928
| 14>    H        1.05825         1.78731        -0.58545
| 15>    H        3.40988         2.50676        -0.19166
| 16>    H        5.57438        -1.37970         0.59456
| 17>    H        2.46893        -1.62199        -2.21962
| 18>    H        1.07200        -4.24788        -1.44731
| 19>    H        1.01617        -3.41601        -3.08460
| 20> *
| 21>
| 22>                          ****END OF INPUT****
 Total Charge           Charge          ....    0
 Multiplicity           Mult            ....    1
 Number of Electrons    NEL             ....   90
Dispersion correction           -0.037959317
FINAL SINGLE POINT ENERGY     -1426.313474113822
Dispersion correction            ... done
Dispersion correction           -0.037224817
FINAL SINGLE POINT ENERGY     -1426.316703691684
Dispersion correction            ... done
Dispersion correction           -0.037207013
FINAL SINGLE POINT ENERGY     -1426.317011043229
Dispersion correction            ... done
FINAL SINGLE POINT ENERGY     -1426.316931315803
FINAL SINGLE POINT ENERGY     -1426.317058694169
FINAL SINGLE POINT ENERGY     -1426.317101013803
FINAL SINGLE POINT ENERGY     -1426.317111306639
Dispersion correction            ... done
Dispersion correction           -0.037072749
FINAL SINGLE POINT ENERGY     -1426.317100274276
Dispersion correction            ... done
Dispersion correction           -0.037067067
FINAL SINGLE POINT ENERGY     -1426.317097728155
Dispersion correction            ... done
                    ***********************HURRAY********************

CARTESIAN COORDINATES (ANGSTROEM)
---------------------------------
  S      1.033467    0.622397   -0.311478
  C      2.786085    0.517102   -0.093433
  C      3.687293    1.551207   -0.027790
  S      5.308663    0.981659    0.228902
  C      4.784181   -0.660589    0.238198
  C      3.426411   -0.768883    0.054766
  S      2.562741   -2.316800    0.091542
  C      2.233762   -2.565349   -1.636728
  C      1.430416   -3.526722   -2.102590
  H      1.000060    1.967946   -0.447753
  H      3.490319    2.618999   -0.106509
  H      5.489191   -1.477155    0.380140
  H      2.769379   -1.881671   -2.302586
  H      0.889161   -4.206760   -1.439434
  H      1.296121   -3.662080   -3.178676

 Multiplicity           Mult            ....    1
 Number of Electrons    NEL             ....   90
 Basis Dimension        Dim             ....  168

ORBITAL ENERGIES
----------------

  NO   OCC          E(Eh)            E(eV)
   0   2.0000     -88.886204     -2418.7166
   1   2.0000     -88.859090     -2417.9788
   2   2.0000     -88.856475     -2417.9076
   3   2.0000     -10.232246      -278.4336
   4   2.0000     -10.227504      -278.3045
   5   2.0000     -10.226162      -278.2680
   6   2.0000     -10.220640      -278.1178
   7   2.0000     -10.216234      -277.9979
   8   2.0000     -10.186473      -277.1880
   9   2.0000      -7.981267      -217.1813
  10   2.0000      -7.953288      -216.4200
  11   2.0000      -7.950937      -216.3560
  12   2.0000      -5.949411      -161.8917
  13   2.0000      -5.945360      -161.7815
  14   2.0000      -5.942492      -161.7034
  15   2.0000      -5.922513      -161.1598
  16   2.0000      -5.920075      -161.0934
  17   2.0000      -5.918736      -161.0570
  18   2.0000      -5.916298      -160.9907
  19   2.0000      -5.912125      -160.8771
  20   2.0000      -5.909890      -160.8163
  21   2.0000      -0.898104       -24.4387
  22   2.0000      -0.814937       -22.1756
  23   2.0000      -0.790345       -21.5064
  24   2.0000      -0.748662       -20.3721
  25   2.0000      -0.697524       -18.9806
  26   2.0000      -0.682799       -18.5799
  27   2.0000      -0.583639       -15.8816
  28   2.0000      -0.563900       -15.3445
  29   2.0000      -0.531321       -14.4580
  30   2.0000      -0.506736       -13.7890
  31   2.0000      -0.463086       -12.6012
  32   2.0000      -0.433859       -11.8059
  33   2.0000      -0.419151       -11.4057
  34   2.0000      -0.410518       -11.1708
  35   2.0000      -0.406466       -11.0605
  36   2.0000      -0.396636       -10.7930
  37   2.0000      -0.369487       -10.0543
  38   2.0000      -0.344591        -9.3768
  39   2.0000      -0.333510        -9.0753
  40   2.0000      -0.317895        -8.6504
  41   2.0000      -0.306962        -8.3529
  42   2.0000      -0.258747        -7.0409
  43   2.0000      -0.222333        -6.0500
  44   2.0000      -0.221531        -6.0282
  45   0.0000      -0.033464        -0.9106
  46   0.0000       0.004835         0.1316
  47   0.0000       0.016108         0.4383
  48   0.0000       0.021373         0.5816
  49   0.0000       0.029929         0.8144

MULLIKEN ATOMIC CHARGES
-----------------------
   0 S :    0.054299
   1 C :    0.006637
   2 C :   -0.147836
   3 S :    0.110022
   4 C :   -0.073950
   5 C :   -0.092954
   6 S :    0.042139
   7 C :   -0.086696
   8 C :   -0.024215
   9 H :    0.051487
  10 H :    0.023238
  11 H :    0.032119
  12 H :    0.050355
  13 H :    0.023348
  14 H :    0.032007
Sum of atomic charges:    0.0000000

LOEWDIN ATOMIC CHARGES
----------------------
   0 S :    0.234095
   1 C :   -0.203993
   2 C :   -0.231495
   3 S :    0.437138
   4 C :   -0.188090
   5 C :   -0.230151
   6 S :    0.318274
   7 C :   -0.155440
   8 C :   -0.092068
   9 H :   -0.024099
  10 H :    0.023189
  11 H :    0.030160
  12 H :    0.027902
  13 H :    0.023868
  14 H :    0.030708

  Mayer bond orders larger than 0.100000
B(  0-S ,  1-C ) :   1.0615 B(  0-S ,  9-H ) :   0.9476 B(  1-C ,  2-C ) :   1.5627
B(  1-C ,  5-C ) :   1.2479 B(  2-C ,  3-S ) :   1.1425 B(  2-C , 10-H ) :   0.9675
B(  3-S ,  4-C ) :   1.1915 B(  4-C ,  5-C ) :   1.5753 B(  4-C , 11-H ) :   0.9633
B(  5-C ,  6-S ) :   1.0356 B(  6-S ,  7-C ) :   1.0106 B(  7-C ,  8-C ) :   1.9697
B(  7-C , 12-H ) :   0.9429 B(  8-C , 13-H ) :   0.9542 B(  8-C , 14-H ) :   0.9534

Dispersion correction           -0.037062256
FINAL SINGLE POINT ENERGY     -1426.317096117258

DIPOLE MOMENT
-------------
                                X             Y             Z
Electronic contribution:      3.11002       3.78646       4.79386
Nuclear contribution   :     -2.81120      -3.18735      -5.07563
                        -----------------------------------------
Total Dipole Moment    :      0.29882       0.59912      -0.28178
                        -----------------------------------------
Magnitude (a.u.)       :      0.72638
Magnitude (Debye)      :      1.84631

Rotational constants in cm-1:     0.051367     0.024051     0.018046
Rotational constants in MHz :  1539.950823   721.030974   541.017170

                             ****ORCA TERMINATED NORMALLY****
TOTAL RUN TIME: 0 days 0 hours 7 minutes 11 seconds 861 msec
