                         Program Version 4.2.0 -  RELEASE  -
|  1> # ORCA input file
|  2> # SCF done        -24.767928746268          0.000373210543
|  3> ! B3LYP/G D3BJ Opt RIJCOSX def2-SVP def2/J
|  4> * xyz 0 1
|  5>    N       -1.16663        -0.09623         0.23041
|  6>    C       -0.39973        -1.16728        -0.14749
|  7>    S       -0.99144        -2.67311        -0.43174
|  8>    C        0.94542        -0.68613        -0.22683
|  9>    C        0.96919         0.64168         0.09646
| 10>    C       -0.41084         1.02728         0.39514
| 11>    S       -1.06548         2.46244         0.84522
| 12>    C        2.15163         1.46454         0.12194
| 13>    C        2.20882         2.75512         0.44397
| 14>    H       -2.16602        -0.12918         0.36933
| 15>    H        1.77915        -1.30317        -0.50106
| 16>    H        3.05555         0.93549        -0.15529
| 17>    H        1.33568         3.31645         0.72617
| 18>    H        3.14512         3.28612         0.43237
| 19> *
| 20>
| 21>                          ****END OF INPUT****
 Total Charge           Charge          ....    0
 Multiplicity           Mult            ....    1
 Number of Electrons    NEL             ....   80
Dispersion correction           -0.031783127
FINAL SINGLE POINT ENERGY     -1082.359682855050
Dispersion correction            ... done
Dispersion correction           -0.031502446
FINAL SINGLE POINT ENERGY     -1082.362506474329
Dispersion correction            ... done
Dispersion correction           -0.031508160
FINAL SINGLE POINT ENERGY     -1082.362715380458
Dispersion correction            ... done
FINAL SINGLE POINT ENERGY     -1082.362758481589
Dispersion correction            ... done
Dispersion correction           -0.031524697
FINAL SINGLE POINT ENERGY     -1082.362760884082
Dispersion correction            ... done
Dispersion correction           -0.031529560
FINAL SINGLE POINT ENERGY     -1082.362759158142
Dispersion correction            ... done
                    ***********************HURRAY********************

CARTESIAN COORDINATES (ANGSTROEM)
---------------------------------
  N     -1.192514   -0.109123    0.216678
  C     -0.422634   -1.189936   -0.169379
  S     -0.981358   -2.702380   -0.483612
  C      0.943454   -0.680330   -0.223840
  C      0.961061    0.642967    0.116447
  C     -0.450888    1.032370    0.427640
  S     -1.092240    2.456248    0.937719
  C      2.156754    1.469775    0.153160
  C      2.238101    2.785703    0.409895
  H     -2.195217   -0.156142    0.362434
  H      1.790996   -1.301050   -0.507364
  H      3.075137    0.918510   -0.075910
  H      1.351584    3.378854    0.637564
  H      3.208183    3.288555    0.397167

 Multiplicity           Mult            ....    1
 Number of Electrons    NEL             ....   80
 Basis Dimension        Dim             ....  159

ORBITAL ENERGIES
----------------

  NO   OCC          E(Eh)            E(eV)
   0   2.0000     -88.832689     -2417.2604
   1   2.0000     -88.830237     -2417.1936
   2   2.0000     -14.399136      -391.8204
   3   2.0000     -10.296406      -280.1795
   4   2.0000     -10.290188      -280.0103
   5   2.0000     -10.239020      -278.6179
   6   2.0000     -10.225297      -278.2445
   7   2.0000     -10.216912      -278.0163
   8   2.0000     -10.207170      -277.7512
   9   2.0000      -7.928506      -215.7456
  10   2.0000      -7.926011      -215.6777
  11   2.0000      -5.896543      -160.4531
  12   2.0000      -5.895111      -160.4141
  13   2.0000      -5.894049      -160.3852
  14   2.0000      -5.892889      -160.3537
  15   2.0000      -5.887252      -160.2003
  16   2.0000      -5.884518      -160.1259
  17   2.0000      -1.012001       -27.5379
  18   2.0000      -0.837159       -22.7803
  19   2.0000      -0.818439       -22.2709
  20   2.0000      -0.766112       -20.8470
  21   2.0000      -0.747808       -20.3489
  22   2.0000      -0.652874       -17.7656
  23   2.0000      -0.638069       -17.3628
  24   2.0000      -0.603796       -16.4301
  25   2.0000      -0.557639       -15.1741
  26   2.0000      -0.506673       -13.7873
  27   2.0000      -0.475904       -12.9500
  28   2.0000      -0.463175       -12.6036
  29   2.0000      -0.453940       -12.3523
  30   2.0000      -0.440230       -11.9793
  31   2.0000      -0.397814       -10.8251
  32   2.0000      -0.392475       -10.6798
  33   2.0000      -0.380870       -10.3640
  34   2.0000      -0.348765        -9.4904
  35   2.0000      -0.329947        -8.9783
  36   2.0000      -0.264435        -7.1957
  37   2.0000      -0.251123        -6.8334
  38   2.0000      -0.246655        -6.7118
  39   2.0000      -0.234211        -6.3732
  40   0.0000      -0.135173        -3.6782
  41   0.0000      -0.035792        -0.9740
  42   0.0000       0.007008         0.1907
  43   0.0000       0.053418         1.4536
  44   0.0000       0.065112         1.7718

MULLIKEN ATOMIC CHARGES
-----------------------
   0 N :   -0.042133
   1 C :    0.040598
   2 S :   -0.125221
   3 C :   -0.027394
   4 C :    0.088961
   5 C :    0.016945
   6 S :   -0.123936
   7 C :   -0.031445
   8 C :    0.016252
   9 H :    0.127413
  10 H :   -0.000509
  11 H :   -0.008119
  12 H :    0.037723
  13 H :    0.030865
Sum of atomic charges:   -0.0000000

LOEWDIN ATOMIC CHARGES
----------------------
   0 N :    0.038275
   1 C :   -0.126482
   2 S :    0.033175
   3 C :   -0.023979
   4 C :   -0.025040
   5 C :   -0.109701
   6 S :    0.042982
   7 C :   -0.034385
   8 C :   -0.003438
   9 H :    0.090327
  10 H :    0.037069
  11 H :    0.033301
  12 H :    0.018018
  13 H :    0.029878

  Mayer bond orders larger than 0.100000
B(  0-N ,  1-C ) :   1.1297 B(  0-N ,  5-C ) :   1.1664 B(  0-N ,  9-H ) :   0.9217
B(  1-C ,  2-S ) :   1.6353 B(  1-C ,  3-C ) :   1.0532 B(  2-S ,  6-S ) :   0.1472
B(  3-C ,  4-C ) :   1.5925 B(  3-C , 10-H ) :   1.0122 B(  4-C ,  5-C ) :   0.9856
B(  4-C ,  7-C ) :   1.1326 B(  5-C ,  6-S ) :   1.6866 B(  7-C ,  8-C ) :   1.8958
B(  7-C , 11-H ) :   0.9619 B(  8-C , 12-H ) :   0.9306 B(  8-C , 13-H ) :   0.9413

Dispersion correction           -0.031530028
FINAL SINGLE POINT ENERGY     -1082.362757256713

DIPOLE MOMENT
-------------
                                X             Y             Z
Electronic contribution:     -6.59598      -4.13248       0.02340
Nuclear contribution   :      7.15758       4.39589      -0.05483
                        -----------------------------------------
Total Dipole Moment    :      0.56160       0.26341      -0.03143
                        -----------------------------------------
Magnitude (a.u.)       :      0.62110
Magnitude (Debye)      :      1.57871

Rotational constants in cm-1:     0.074494     0.025107     0.018783
Rotational constants in MHz :  2233.265922   752.695523   563.090963

                             ****ORCA TERMINATED NORMALLY****
TOTAL RUN TIME: 0 days 0 hours 5 minutes 8 seconds 834 msec
