                         Program Version 4.2.0 -  RELEASE  -
|  1> # ORCA input file
|  2> # SCF done        -36.807600963303          0.000724861639
|  3> ! B3LYP/G D3BJ Opt RIJCOSX def2-SVP def2/J
|  4> * xyz 0 1
|  5>    C        1.51139        -1.30022        -0.12599
|  6>    S        2.74143        -0.10897        -0.13649
|  7>    C        1.57101         1.17293         0.01237
|  8>    C        0.29480         0.66192         0.05153
|  9>    C        0.26718        -0.75551        -0.03004
| 10>    C       -1.00334        -1.55673        -0.01507
| 11>    C       -2.16432        -0.69311         0.41693
| 12>    O       -2.96272        -0.98525         1.26445
| 13>    C       -2.14159         0.63398        -0.32953
| 14>    O       -2.91742         0.94608        -1.19041
| 15>    C       -0.96678         1.47261         0.12030
| 16>    C        2.06993         2.52496         0.06523
| 17>    C        1.43054         3.60196         0.51266
| 18>    H        1.77288        -2.33733        -0.19310
| 19>    H       -0.91818        -2.42613         0.64142
| 20>    H       -1.22016        -1.91534        -1.02801
| 21>    H       -1.15802         1.77611         1.15605
| 22>    H       -0.89251         2.36844        -0.50093
| 23>    H        3.09014         2.62639        -0.28307
| 24>    H        0.43650         3.57273         0.91827
| 25>    H        1.91164         4.56451         0.50522
| 26> *
| 27>
| 28>                          ****END OF INPUT****
 Total Charge           Charge          ....    0
 Multiplicity           Mult            ....    1
 Number of Electrons    NEL             ....  100
Dispersion correction           -0.047794308
FINAL SINGLE POINT ENERGY      -934.011100046758
Dispersion correction            ... done
Dispersion correction           -0.047397206
FINAL SINGLE POINT ENERGY      -934.014611452889
Dispersion correction            ... done
Dispersion correction           -0.047224448
FINAL SINGLE POINT ENERGY      -934.015301345174
Dispersion correction            ... done
FINAL SINGLE POINT ENERGY      -934.015929412141
FINAL SINGLE POINT ENERGY      -934.016307306816
FINAL SINGLE POINT ENERGY      -934.016493731420
FINAL SINGLE POINT ENERGY      -934.016689237499
FINAL SINGLE POINT ENERGY      -934.016837396045
FINAL SINGLE POINT ENERGY      -934.016928099392
FINAL SINGLE POINT ENERGY      -934.016959334517
FINAL SINGLE POINT ENERGY      -934.017047243958
FINAL SINGLE POINT ENERGY      -934.017044702286
FINAL SINGLE POINT ENERGY      -934.017040819485
FINAL SINGLE POINT ENERGY      -934.017036289164
FINAL SINGLE POINT ENERGY      -934.017032324849
FINAL SINGLE POINT ENERGY      -934.017028972549
FINAL SINGLE POINT ENERGY      -934.017025318226
Dispersion correction            ... done
Dispersion correction           -0.046906189
FINAL SINGLE POINT ENERGY      -934.017022106061
Dispersion correction            ... done
Dispersion correction           -0.046905187
FINAL SINGLE POINT ENERGY      -934.017018465173
Dispersion correction            ... done
                    ***********************HURRAY********************

CARTESIAN COORDINATES (ANGSTROEM)
---------------------------------
  C      1.560963   -1.325693   -0.095858
  S      2.785014   -0.122483   -0.016413
  C      1.611031    1.166191    0.082687
  C      0.319479    0.649794    0.047438
  C      0.297706   -0.779664   -0.058188
  C     -0.974103   -1.589296   -0.113699
  C     -2.205846   -0.820293    0.324714
  O     -3.151327   -1.333156    0.868984
  C     -2.229368    0.691950   -0.008390
  O     -3.263024    1.210677   -0.349665
  C     -0.935234    1.473632    0.142280
  C      2.123800    2.521643    0.212205
  C      1.450548    3.685346    0.257580
  H      1.825697   -2.378337   -0.180501
  H     -0.915572   -2.502801    0.495931
  H     -1.174024   -1.924629   -1.150575
  H     -0.989598    1.970532    1.130798
  H     -0.965062    2.290554   -0.596913
  H      3.216682    2.576374    0.279911
  H      0.365059    3.759712    0.201078
  H      1.999578    4.623976    0.358386

 Multiplicity           Mult            ....    1
 Number of Electrons    NEL             ....  100
 Basis Dimension        Dim             ....  226

ORBITAL ENERGIES
----------------

  NO   OCC          E(Eh)            E(eV)
   0   2.0000     -88.887640     -2418.7556
   1   2.0000     -19.151027      -521.1259
   2   2.0000     -19.150897      -521.1224
   3   2.0000     -10.292602      -280.0759
   4   2.0000     -10.292518      -280.0737
   5   2.0000     -10.231990      -278.4266
   6   2.0000     -10.225479      -278.2494
   7   2.0000     -10.221463      -278.1401
   8   2.0000     -10.221059      -278.1292
   9   2.0000     -10.219195      -278.0784
  10   2.0000     -10.218463      -278.0585
  11   2.0000     -10.217854      -278.0419
  12   2.0000     -10.202261      -277.6176
  13   2.0000      -7.982785      -217.2226
  14   2.0000      -5.950709      -161.9270
  15   2.0000      -5.946802      -161.8207
  16   2.0000      -5.944322      -161.7532
  17   2.0000      -1.069345       -29.0984
  18   2.0000      -1.043458       -28.3939
  19   2.0000      -0.903579       -24.5876
  20   2.0000      -0.820489       -22.3266
  21   2.0000      -0.801860       -21.8197
  22   2.0000      -0.767112       -20.8742
  23   2.0000      -0.719200       -19.5704
  24   2.0000      -0.704633       -19.1740
  25   2.0000      -0.641383       -17.4529
  26   2.0000      -0.615417       -16.7464
  27   2.0000      -0.577056       -15.7025
  28   2.0000      -0.542414       -14.7598
  29   2.0000      -0.516133       -14.0447
  30   2.0000      -0.498242       -13.5579
  31   2.0000      -0.487516       -13.2660
  32   2.0000      -0.484686       -13.1890
  33   2.0000      -0.470809       -12.8114
  34   2.0000      -0.460221       -12.5233
  35   2.0000      -0.446446       -12.1484
  36   2.0000      -0.440559       -11.9882
  37   2.0000      -0.433430       -11.7942
  38   2.0000      -0.415736       -11.3128
  39   2.0000      -0.402254       -10.9459
  40   2.0000      -0.398498       -10.8437
  41   2.0000      -0.379975       -10.3397
  42   2.0000      -0.374781       -10.1983
  43   2.0000      -0.368931       -10.0391
  44   2.0000      -0.357617        -9.7313
  45   2.0000      -0.316974        -8.6253
  46   2.0000      -0.308872        -8.4048
  47   2.0000      -0.262249        -7.1361
  48   2.0000      -0.249286        -6.7834
  49   2.0000      -0.231283        -6.2935
  50   0.0000      -0.088789        -2.4161
  51   0.0000      -0.058869        -1.6019
  52   0.0000       0.007270         0.1978
  53   0.0000       0.008350         0.2272
  54   0.0000       0.018574         0.5054

MULLIKEN ATOMIC CHARGES
-----------------------
   0 C :   -0.120106
   1 S :    0.123781
   2 C :   -0.162837
   3 C :   -0.044483
   4 C :   -0.082492
   5 C :    0.190656
   6 C :   -0.004852
   7 O :   -0.144716
   8 C :   -0.001214
   9 O :   -0.146593
  10 C :    0.147845
  11 C :    0.038229
  12 C :   -0.042530
  13 H :    0.019354
  14 H :    0.026281
  15 H :    0.053839
  16 H :    0.060144
  17 H :    0.050334
  18 H :   -0.004574
  19 H :    0.017866
  20 H :    0.026072
Sum of atomic charges:   -0.0000000

LOEWDIN ATOMIC CHARGES
----------------------
   0 C :   -0.196002
   1 S :    0.451114
   2 C :   -0.178832
   3 C :   -0.066237
   4 C :   -0.071662
   5 C :   -0.047036
   6 C :    0.059025
   7 O :   -0.095338
   8 C :    0.060998
   9 O :   -0.096002
  10 C :   -0.053024
  11 C :   -0.042326
  12 C :   -0.051365
  13 H :    0.026259
  14 H :    0.047496
  15 H :    0.060134
  16 H :    0.061896
  17 H :    0.050603
  18 H :    0.030477
  19 H :    0.020438
  20 H :    0.029382

  Mayer bond orders larger than 0.100000
B(  0-C ,  1-S ) :   1.1670 B(  0-C ,  4-C ) :   1.5441 B(  0-C , 13-H ) :   0.9672
B(  1-S ,  2-C ) :   1.1435 B(  2-C ,  3-C ) :   1.5105 B(  2-C , 11-C ) :   1.1241
B(  3-C ,  4-C ) :   1.2983 B(  3-C , 10-C ) :   1.0290 B(  4-C ,  5-C ) :   1.0014
B(  5-C ,  6-C ) :   0.9656 B(  5-C , 14-H ) :   0.8995 B(  5-C , 15-H ) :   0.8921
B(  6-C ,  7-O ) :   2.2231 B(  6-C ,  8-C ) :   0.8416 B(  8-C ,  9-O ) :   2.2170
B(  8-C , 10-C ) :   0.9362 B( 10-C , 16-H ) :   0.8851 B( 10-C , 17-H ) :   0.8891
B( 11-C , 12-C ) :   1.9027 B( 11-C , 18-H ) :   0.9425 B( 12-C , 19-H ) :   0.9562
B( 12-C , 20-H ) :   0.9398

Dispersion correction           -0.046904423
FINAL SINGLE POINT ENERGY      -934.017015561951

DIPOLE MOMENT
-------------
                                X             Y             Z
Electronic contribution:     -1.35527      -5.18170       0.00656
Nuclear contribution   :      2.88984       5.13460      -0.18292
                        -----------------------------------------
Total Dipole Moment    :      1.53457      -0.04710      -0.17636
                        -----------------------------------------
Magnitude (a.u.)       :      1.54539
Magnitude (Debye)      :      3.92807

Rotational constants in cm-1:     0.039111     0.017892     0.012616
Rotational constants in MHz :  1172.521267   536.392660   378.207317

                             ****ORCA TERMINATED NORMALLY****
TOTAL RUN TIME: 0 days 0 hours 44 minutes 19 seconds 564 msec
