                         Program Version 4.2.0 -  RELEASE  -
|  1> # ORCA input file
|  2> # SCF done        -41.962349006776          0.000392600040
|  3> ! B3LYP/G D3BJ Opt RIJCOSX def2-SVP def2/J
|  4> * xyz 0 1
|  5>    C       -0.39177         0.84338         0.34365
|  6>    O       -1.07225        -0.28641         0.27315
|  7>    C       -0.20860        -1.28818        -0.05026
|  8>    C        1.05275        -0.77651        -0.18646
|  9>    C        0.94506         0.62301         0.06967
| 10>    C        2.03779         1.56815         0.03773
| 11>    O        3.19209         1.32178        -0.19361
| 12>    C        1.60378         3.03517         0.33989
| 13>    F        0.68463         3.46711        -0.54269
| 14>    F        1.03991         3.14219         1.55699
| 15>    F        2.62411         3.88471         0.29876
| 16>    C       -0.68716        -2.64176        -0.19576
| 17>    C       -1.95609        -3.00322        -0.03859
| 18>    H       -0.93355         1.73562         0.59263
| 19>    H        1.95239        -1.29869        -0.43528
| 20>    H        0.07804        -3.36125        -0.44839
| 21>    H       -2.71744        -2.28464         0.21366
| 22>    H       -2.26858        -4.02523        -0.15649
| 23> *
| 24>
| 25>                          ****END OF INPUT****
 Total Charge           Charge          ....    0
 Multiplicity           Mult            ....    1
 Number of Electrons    NEL             ....   96
Dispersion correction           -0.030527047
FINAL SINGLE POINT ENERGY      -757.259165347527
Dispersion correction            ... done
Dispersion correction           -0.030402626
FINAL SINGLE POINT ENERGY      -757.261919612493
Dispersion correction            ... done
Dispersion correction           -0.030359438
FINAL SINGLE POINT ENERGY      -757.262055688831
Dispersion correction            ... done
FINAL SINGLE POINT ENERGY      -757.262003254126
FINAL SINGLE POINT ENERGY      -757.261981983254
FINAL SINGLE POINT ENERGY      -757.262064157749
FINAL SINGLE POINT ENERGY      -757.261177466464
FINAL SINGLE POINT ENERGY      -757.261929379209
FINAL SINGLE POINT ENERGY      -757.262048015825
FINAL SINGLE POINT ENERGY      -757.262001843133
FINAL SINGLE POINT ENERGY      -757.261906907295
Dispersion correction            ... done
Dispersion correction           -0.030382204
FINAL SINGLE POINT ENERGY      -757.261927975960
Dispersion correction            ... done
Dispersion correction           -0.030378489
FINAL SINGLE POINT ENERGY      -757.261917473316
Dispersion correction            ... done
                    ***********************HURRAY********************

CARTESIAN COORDINATES (ANGSTROEM)
---------------------------------
  C     -0.459420    0.876864    0.134557
  O     -1.122496   -0.287543    0.089843
  C     -0.206702   -1.299410   -0.103091
  C      1.046612   -0.755696   -0.199450
  C      0.892002    0.662928   -0.036154
  C      1.994420    1.626035   -0.038842
  O      3.132008    1.351897   -0.341901
  C      1.661518    3.059433    0.454069
  F      0.639355    3.586771   -0.249469
  F      1.278932    3.018637    1.742333
  F      2.707318    3.863826    0.346394
  C     -0.681337   -2.664883   -0.139624
  C     -1.957270   -3.048304    0.019448
  H     -1.051204    1.775227    0.283545
  H      1.984721   -1.281159   -0.354709
  H      0.104769   -3.407061   -0.306360
  H     -2.751960   -2.319043    0.191734
  H     -2.236157   -4.103290   -0.013724

 Multiplicity           Mult            ....    1
 Number of Electrons    NEL             ....   96
 Basis Dimension        Dim             ....  207

ORBITAL ENERGIES
----------------

  NO   OCC          E(Eh)            E(eV)
   0   2.0000     -24.735036      -673.0745
   1   2.0000     -24.732424      -673.0035
   2   2.0000     -24.732399      -673.0028
   3   2.0000     -19.233048      -523.3578
   4   2.0000     -19.157253      -521.2954
   5   2.0000     -10.441770      -284.1350
   6   2.0000     -10.308153      -280.4991
   7   2.0000     -10.281140      -279.7640
   8   2.0000     -10.268006      -279.4066
   9   2.0000     -10.222121      -278.1581
  10   2.0000     -10.218502      -278.0596
  11   2.0000     -10.214462      -277.9496
  12   2.0000     -10.206692      -277.7382
  13   2.0000      -1.313847       -35.7516
  14   2.0000      -1.223537       -33.2941
  15   2.0000      -1.219706       -33.1899
  16   2.0000      -1.137664       -30.9574
  17   2.0000      -1.064887       -28.9770
  18   2.0000      -0.835631       -22.7387
  19   2.0000      -0.820532       -22.3278
  20   2.0000      -0.758281       -20.6339
  21   2.0000      -0.735176       -20.0052
  22   2.0000      -0.671379       -18.2692
  23   2.0000      -0.637431       -17.3454
  24   2.0000      -0.617532       -16.8039
  25   2.0000      -0.607342       -16.5266
  26   2.0000      -0.605944       -16.4886
  27   2.0000      -0.597396       -16.2560
  28   2.0000      -0.544689       -14.8217
  29   2.0000      -0.505051       -13.7431
  30   2.0000      -0.493723       -13.4349
  31   2.0000      -0.485950       -13.2234
  32   2.0000      -0.481795       -13.1103
  33   2.0000      -0.479123       -13.0376
  34   2.0000      -0.467354       -12.7173
  35   2.0000      -0.452933       -12.3249
  36   2.0000      -0.450736       -12.2652
  37   2.0000      -0.440714       -11.9924
  38   2.0000      -0.436933       -11.8895
  39   2.0000      -0.423868       -11.5340
  40   2.0000      -0.422664       -11.5013
  41   2.0000      -0.418071       -11.3763
  42   2.0000      -0.393973       -10.7205
  43   2.0000      -0.385287       -10.4842
  44   2.0000      -0.332103        -9.0370
  45   2.0000      -0.309885        -8.4324
  46   2.0000      -0.289573        -7.8797
  47   2.0000      -0.241982        -6.5847
  48   0.0000      -0.080637        -2.1942
  49   0.0000      -0.054892        -1.4937
  50   0.0000       0.044475         1.2102
  51   0.0000       0.061331         1.6689
  52   0.0000       0.078710         2.1418

MULLIKEN ATOMIC CHARGES
-----------------------
   0 C :    0.150605
   1 O :   -0.198905
   2 C :    0.150824
   3 C :   -0.047100
   4 C :   -0.039013
   5 C :    0.038008
   6 O :   -0.155130
   7 C :    0.507301
   8 F :   -0.181716
   9 F :   -0.172644
  10 F :   -0.134221
  11 C :   -0.013972
  12 C :   -0.003764
  13 H :    0.030759
  14 H :    0.003642
  15 H :    0.002828
  16 H :    0.032580
  17 H :    0.029917
Sum of atomic charges:    0.0000000

LOEWDIN ATOMIC CHARGES
----------------------
   0 C :    0.083192
   1 O :    0.018810
   2 C :    0.036195
   3 C :   -0.032061
   4 C :   -0.118175
   5 C :    0.033059
   6 O :   -0.108934
   7 C :    0.142259
   8 F :   -0.066383
   9 F :   -0.062075
  10 F :   -0.027854
  11 C :   -0.041550
  12 C :   -0.029003
  13 H :    0.031299
  14 H :    0.041623
  15 H :    0.040454
  16 H :    0.028762
  17 H :    0.030381

  Mayer bond orders larger than 0.100000
B(  0-C ,  1-O ) :   1.1943 B(  0-C ,  4-C ) :   1.4649 B(  0-C , 13-H ) :   0.9854
B(  1-O ,  2-C ) :   1.0892 B(  2-C ,  3-C ) :   1.4919 B(  2-C , 11-C ) :   1.1291
B(  3-C ,  4-C ) :   1.1963 B(  3-C , 14-H ) :   1.0159 B(  4-C ,  5-C ) :   0.9592
B(  5-C ,  6-O ) :   2.1894 B(  5-C ,  7-C ) :   0.8741 B(  7-C ,  8-F ) :   1.0922
B(  7-C ,  9-F ) :   1.1349 B(  7-C , 10-F ) :   1.1845 B( 11-C , 12-C ) :   1.9019
B( 11-C , 15-H ) :   0.9524 B( 12-C , 16-H ) :   0.9541 B( 12-C , 17-H ) :   0.9428

Dispersion correction           -0.030375393
FINAL SINGLE POINT ENERGY      -757.261918750280

DIPOLE MOMENT
-------------
                                X             Y             Z
Electronic contribution:      8.47917      19.53883       2.23306
Nuclear contribution   :     -9.42713     -20.36155      -2.21968
                        -----------------------------------------
Total Dipole Moment    :     -0.94796      -0.82272       0.01338
                        -----------------------------------------
Magnitude (a.u.)       :      1.25526
Magnitude (Debye)      :      3.19062

Rotational constants in cm-1:     0.074496     0.013244     0.011998
Rotational constants in MHz :  2233.347269   397.045847   359.688508

                             ****ORCA TERMINATED NORMALLY****
TOTAL RUN TIME: 0 days 0 hours 15 minutes 35 seconds 748 msec
