                         Program Version 4.2.0 -  RELEASE  -
|  1> # ORCA input file
|  2> # SCF done        -24.446296870630          0.000448854282
|  3> ! B3LYP/G D3BJ Opt RIJCOSX def2-SVP def2/J
|  4> * xyz 0 1
|  5>    C        0.61726        -0.99811        -0.14933
|  6>    O        1.85188        -0.49955        -0.15035
|  7>    C        1.76353         0.84174         0.04268
|  8>    C        0.44624         1.20341         0.16694
|  9>    C       -0.30486         0.00242         0.04224
| 10>    C       -1.70143        -0.12783         0.10294
| 11>    N       -2.84302        -0.21482         0.15424
| 12>    C        2.99025         1.59912         0.08102
| 13>    C        3.06711         2.91029         0.28102
| 14>    H        0.49564        -2.05439        -0.28889
| 15>    H        0.04874         2.18420         0.32444
| 16>    H        3.88234         1.00641        -0.06831
| 17>    H        2.19146         3.51683         0.43348
| 18>    H        4.01511         3.41733         0.30001
| 19> *
| 20>
| 21>                          ****END OF INPUT****
 Total Charge           Charge          ....    0
 Multiplicity           Mult            ....    1
 Number of Electrons    NEL             ....   62
Dispersion correction           -0.022977089
FINAL SINGLE POINT ENERGY      -399.398127709551
Dispersion correction            ... done
Dispersion correction           -0.022900490
FINAL SINGLE POINT ENERGY      -399.400699729632
Dispersion correction            ... done
Dispersion correction           -0.022879938
FINAL SINGLE POINT ENERGY      -399.400812351063
Dispersion correction            ... done
FINAL SINGLE POINT ENERGY      -399.400850438100
FINAL SINGLE POINT ENERGY      -399.400853895311
Dispersion correction            ... done
Dispersion correction           -0.022865710
FINAL SINGLE POINT ENERGY      -399.400852368460
Dispersion correction            ... done
Dispersion correction           -0.022867046
FINAL SINGLE POINT ENERGY      -399.400850296882
Dispersion correction            ... done
                    ***********************HURRAY********************

CARTESIAN COORDINATES (ANGSTROEM)
---------------------------------
  C      0.602425   -0.999471   -0.164429
  O      1.838134   -0.479687   -0.155716
  C      1.745497    0.872718    0.061084
  C      0.421533    1.213934    0.189304
  C     -0.326862   -0.004810    0.044009
  C     -1.738981   -0.169797    0.102200
  N     -2.891748   -0.298680    0.150158
  C      2.996142    1.606337    0.103134
  C      3.116437    2.932711    0.260719
  H      0.510539   -2.068390   -0.336076
  H      0.014587    2.204121    0.372881
  H      3.888386    0.983733   -0.012860
  H      2.245715    3.584748    0.374112
  H      4.098445    3.409583    0.283609

 Multiplicity           Mult            ....    1
 Number of Electrons    NEL             ....   62
 Basis Dimension        Dim             ....  151

ORBITAL ENERGIES
----------------

  NO   OCC          E(Eh)            E(eV)
   0   2.0000     -19.233465      -523.3692
   1   2.0000     -14.331857      -389.9896
   2   2.0000     -10.277414      -279.6626
   3   2.0000     -10.270106      -279.4638
   4   2.0000     -10.242282      -278.7067
   5   2.0000     -10.234827      -278.5038
   6   2.0000     -10.221300      -278.1357
   7   2.0000     -10.219527      -278.0875
   8   2.0000     -10.210959      -277.8543
   9   2.0000      -1.139089       -30.9962
  10   2.0000      -0.902035       -24.5456
  11   2.0000      -0.834839       -22.7171
  12   2.0000      -0.820384       -22.3238
  13   2.0000      -0.749745       -20.4016
  14   2.0000      -0.672651       -18.3038
  15   2.0000      -0.627439       -17.0735
  16   2.0000      -0.599729       -16.3194
  17   2.0000      -0.549393       -14.9497
  18   2.0000      -0.510270       -13.8851
  19   2.0000      -0.492475       -13.4009
  20   2.0000      -0.474644       -12.9157
  21   2.0000      -0.446538       -12.1509
  22   2.0000      -0.443505       -12.0684
  23   2.0000      -0.414804       -11.2874
  24   2.0000      -0.386165       -10.5081
  25   2.0000      -0.380745       -10.3606
  26   2.0000      -0.363903        -9.9023
  27   2.0000      -0.339871        -9.2484
  28   2.0000      -0.334575        -9.1043
  29   2.0000      -0.295684        -8.0460
  30   2.0000      -0.241072        -6.5599
  31   0.0000      -0.059341        -1.6148
  32   0.0000      -0.033563        -0.9133
  33   0.0000       0.021046         0.5727
  34   0.0000       0.061414         1.6712
  35   0.0000       0.066700         1.8150

MULLIKEN ATOMIC CHARGES
-----------------------
   0 C :    0.131657
   1 O :   -0.196190
   2 C :    0.163921
   3 C :   -0.033716
   4 C :   -0.122853
   5 C :   -0.109673
   6 N :    0.090933
   7 C :    0.002925
   8 C :   -0.019829
   9 H :    0.027105
  10 H :   -0.004415
  11 H :    0.008320
  12 H :    0.026752
  13 H :    0.035063
Sum of atomic charges:    0.0000000

LOEWDIN ATOMIC CHARGES
----------------------
   0 C :    0.074178
   1 O :    0.021444
   2 C :    0.033696
   3 C :   -0.036566
   4 C :   -0.109523
   5 C :   -0.028659
   6 N :   -0.061841
   7 C :   -0.037160
   8 C :   -0.028943
   9 H :    0.035439
  10 H :    0.039323
  11 H :    0.040009
  12 H :    0.026441
  13 H :    0.032161

  Mayer bond orders larger than 0.100000
B(  0-C ,  1-O ) :   1.1815 B(  0-C ,  4-C ) :   1.4876 B(  0-C ,  9-H ) :   1.0076
B(  1-O ,  2-C ) :   1.0952 B(  2-C ,  3-C ) :   1.5126 B(  2-C ,  7-C ) :   1.0955
B(  3-C ,  4-C ) :   1.2321 B(  3-C , 10-H ) :   1.0071 B(  4-C ,  5-C ) :   1.0951
B(  5-C ,  6-N ) :   3.0146 B(  7-C ,  8-C ) :   1.9242 B(  7-C , 11-H ) :   0.9473
B(  8-C , 12-H ) :   0.9525 B(  8-C , 13-H ) :   0.9457

Dispersion correction           -0.022867690
FINAL SINGLE POINT ENERGY      -399.400847585240

DIPOLE MOMENT
-------------
                                X             Y             Z
Electronic contribution:     -5.33362      -4.82918      -0.38669
Nuclear contribution   :      6.87601       5.15931       0.34310
                        -----------------------------------------
Total Dipole Moment    :      1.54240       0.33014      -0.04359
                        -----------------------------------------
Magnitude (a.u.)       :      1.57793
Magnitude (Debye)      :      4.01079

Rotational constants in cm-1:     0.162583     0.031328     0.026268
Rotational constants in MHz :  4874.116228   939.190564   787.489964

                             ****ORCA TERMINATED NORMALLY****
TOTAL RUN TIME: 0 days 0 hours 4 minutes 48 seconds 711 msec
