                         Program Version 4.2.0 -  RELEASE  -
|  1> # ORCA input file
|  2> # SCF done        -25.438358983059          0.000484287999
|  3> ! B3LYP/G D3BJ Opt RIJCOSX def2-SVP def2/J
|  4> * xyz 0 1
|  5>    C        0.49591        -1.18526         0.03571
|  6>    S        1.65903         0.07589         0.02274
|  7>    C        0.40117         1.28561         0.02563
|  8>    C       -0.84271         0.70359         0.01175
|  9>    C       -0.78141        -0.72014         0.02388
| 10>    C       -1.98481        -1.60509         0.02274
| 11>    C       -2.13595         1.44688        -0.05920
| 12>    C        0.81427         2.66779         0.03108
| 13>    C        0.11372         3.70837         0.47237
| 14>    H        0.82750        -2.20475         0.05440
| 15>    H       -2.64431        -1.35339         0.85198
| 16>    H       -1.68689        -2.64622         0.11505
| 17>    H       -2.54485        -1.48745        -0.90490
| 18>    H       -2.00704         2.38587        -0.59268
| 19>    H       -2.51100         1.66561         0.94133
| 20>    H       -2.88416         0.84986        -0.57549
| 21>    H        1.81889         2.82900        -0.34108
| 22>    H       -0.86397         3.61193         0.90779
| 23>    H        0.52136         4.70379         0.43137
| 24> *
| 25>
| 26>                          ****END OF INPUT****
 Total Charge           Charge          ....    0
 Multiplicity           Mult            ....    1
 Number of Electrons    NEL             ....   74
Dispersion correction           -0.036792948
FINAL SINGLE POINT ENERGY      -708.741818469267
Dispersion correction            ... done
Dispersion correction           -0.036507416
FINAL SINGLE POINT ENERGY      -708.744675765212
Dispersion correction            ... done
Dispersion correction           -0.036468046
FINAL SINGLE POINT ENERGY      -708.744797428489
Dispersion correction            ... done
FINAL SINGLE POINT ENERGY      -708.744843571517
FINAL SINGLE POINT ENERGY      -708.744847120649
FINAL SINGLE POINT ENERGY      -708.744859377075
FINAL SINGLE POINT ENERGY      -708.744866070640
FINAL SINGLE POINT ENERGY      -708.744887315154
FINAL SINGLE POINT ENERGY      -708.744905390641
FINAL SINGLE POINT ENERGY      -708.744926527450
FINAL SINGLE POINT ENERGY      -708.744939331924
Dispersion correction            ... done
Dispersion correction           -0.036459239
FINAL SINGLE POINT ENERGY      -708.744949307530
Dispersion correction            ... done
Dispersion correction           -0.036458175
FINAL SINGLE POINT ENERGY      -708.744955523832
Dispersion correction            ... done
                    ***********************HURRAY********************

CARTESIAN COORDINATES (ANGSTROEM)
---------------------------------
  C      0.516952   -1.209675    0.022011
  S      1.674302    0.066066    0.037055
  C      0.417226    1.282240    0.052683
  C     -0.841645    0.694737    0.030180
  C     -0.777436   -0.743422    0.018466
  C     -1.987681   -1.633463   -0.001748
  C     -2.137799    1.451501   -0.020875
  C      0.833418    2.677300    0.076719
  C      0.107297    3.754369    0.424415
  H      0.844919   -2.248337    0.016044
  H     -2.653593   -1.429867    0.853416
  H     -1.695985   -2.693147    0.039717
  H     -2.585963   -1.484594   -0.916815
  H     -2.045013    2.360279   -0.632783
  H     -2.472522    1.770458    0.981897
  H     -2.939655    0.833668   -0.448862
  H      1.875266    2.846241   -0.220473
  H     -0.922601    3.687008    0.776703
  H      0.555262    4.750526    0.386719

 Multiplicity           Mult            ....    1
 Number of Electrons    NEL             ....   74
 Basis Dimension        Dim             ....  180

ORBITAL ENERGIES
----------------

  NO   OCC          E(Eh)            E(eV)
   0   2.0000     -88.864612     -2418.1290
   1   2.0000     -10.209208      -277.8067
   2   2.0000     -10.203735      -277.6578
   3   2.0000     -10.200833      -277.5788
   4   2.0000     -10.193494      -277.3791
   5   2.0000     -10.193309      -277.3740
   6   2.0000     -10.192515      -277.3524
   7   2.0000     -10.189332      -277.2658
   8   2.0000     -10.186107      -277.1780
   9   2.0000      -7.959813      -216.5975
  10   2.0000      -5.927843      -161.3048
  11   2.0000      -5.923913      -161.1979
  12   2.0000      -5.921221      -161.1246
  13   2.0000      -0.877135       -23.8680
  14   2.0000      -0.783194       -21.3118
  15   2.0000      -0.767256       -20.8781
  16   2.0000      -0.731816       -19.9137
  17   2.0000      -0.672075       -18.2881
  18   2.0000      -0.660170       -17.9641
  19   2.0000      -0.592305       -16.1174
  20   2.0000      -0.548746       -14.9321
  21   2.0000      -0.506891       -13.7932
  22   2.0000      -0.473976       -12.8975
  23   2.0000      -0.453801       -12.3485
  24   2.0000      -0.434845       -11.8327
  25   2.0000      -0.433388       -11.7931
  26   2.0000      -0.408027       -11.1030
  27   2.0000      -0.406438       -11.0597
  28   2.0000      -0.395165       -10.7530
  29   2.0000      -0.377947       -10.2844
  30   2.0000      -0.367131        -9.9901
  31   2.0000      -0.361924        -9.8485
  32   2.0000      -0.342671        -9.3246
  33   2.0000      -0.336811        -9.1651
  34   2.0000      -0.295205        -8.0329
  35   2.0000      -0.238134        -6.4799
  36   2.0000      -0.213036        -5.7970
  37   0.0000      -0.037457        -1.0193
  38   0.0000       0.028232         0.7682
  39   0.0000       0.040108         1.0914
  40   0.0000       0.055563         1.5119
  41   0.0000       0.073052         1.9878

MULLIKEN ATOMIC CHARGES
-----------------------
   0 C :   -0.123645
   1 S :    0.093140
   2 C :   -0.158849
   3 C :   -0.061483
   4 C :   -0.070321
   5 C :    0.087313
   6 C :    0.102431
   7 C :    0.033974
   8 C :   -0.043851
   9 H :    0.012266
  10 H :    0.023921
  11 H :    0.006091
  12 H :    0.028716
  13 H :    0.024626
  14 H :    0.025371
  15 H :   -0.002476
  16 H :   -0.009206
  17 H :    0.011608
  18 H :    0.020373
Sum of atomic charges:   -0.0000000

LOEWDIN ATOMIC CHARGES
----------------------
   0 C :   -0.202850
   1 S :    0.419682
   2 C :   -0.185575
   3 C :   -0.057441
   4 C :   -0.066851
   5 C :   -0.046354
   6 C :   -0.046137
   7 C :   -0.040822
   8 C :   -0.059723
   9 H :    0.021035
  10 H :    0.032731
  11 H :    0.030659
  12 H :    0.032856
  13 H :    0.034376
  14 H :    0.033517
  15 H :    0.027692
  16 H :    0.027626
  17 H :    0.020371
  18 H :    0.025206

  Mayer bond orders larger than 0.100000
B(  0-C ,  1-S ) :   1.1485 B(  0-C ,  4-C ) :   1.5466 B(  0-C ,  9-H ) :   0.9629
B(  1-S ,  2-C ) :   1.1222 B(  2-C ,  3-C ) :   1.5103 B(  2-C ,  7-C ) :   1.1085
B(  3-C ,  4-C ) :   1.2744 B(  3-C ,  6-C ) :   1.1402 B(  4-C ,  5-C ) :   1.0959
B(  5-C , 10-H ) :   0.9472 B(  5-C , 11-H ) :   0.9508 B(  5-C , 12-H ) :   0.9449
B(  6-C , 13-H ) :   0.9355 B(  6-C , 14-H ) :   0.9357 B(  6-C , 15-H ) :   0.9338
B(  7-C ,  8-C ) :   1.9184 B(  7-C , 16-H ) :   0.9419 B(  8-C , 17-H ) :   0.9529
B(  8-C , 18-H ) :   0.9422

Dispersion correction           -0.036458593
FINAL SINGLE POINT ENERGY      -708.744956024432

DIPOLE MOMENT
-------------
                                X             Y             Z
Electronic contribution:     10.59633      -2.21338      -0.17157
Nuclear contribution   :    -11.00998       2.05730       0.15635
                        -----------------------------------------
Total Dipole Moment    :     -0.41365      -0.15608      -0.01522
                        -----------------------------------------
Magnitude (a.u.)       :      0.44238
Magnitude (Debye)      :      1.12444

Rotational constants in cm-1:     0.066382     0.042229     0.026179
Rotational constants in MHz :  1990.073063  1265.988963   784.814420

                             ****ORCA TERMINATED NORMALLY****
TOTAL RUN TIME: 0 days 0 hours 12 minutes 17 seconds 147 msec
