                         Program Version 4.2.0 -  RELEASE  -
|  1> # ORCA input file
|  2> # SCF done        -27.496378167386          0.000662222845
|  3> ! B3LYP/G D3BJ Opt RIJCOSX def2-SVP def2/J
|  4> * xyz 0 1
|  5>    C       -0.62818         1.35743         0.00970
|  6>    C        0.74827         1.23837        -0.02270
|  7>    C        1.34329        -0.01528         0.00046
|  8>    C        2.83369        -0.17686        -0.01457
|  9>    C        0.51880        -1.12804         0.04466
| 10>    C       -0.87131        -1.02531         0.04162
| 11>    C       -1.45984         0.24524         0.04048
| 12>    C       -2.94334         0.45393         0.11110
| 13>    C       -1.63084        -2.27960         0.05336
| 14>    C       -2.70049        -2.55358        -0.67846
| 15>    H       -1.07396         2.34268         0.01262
| 16>    H        1.36377         2.12628        -0.05362
| 17>    H        3.32965         0.79051        -0.02562
| 18>    H        3.14575        -0.73713        -0.89541
| 19>    H        3.16553        -0.72801         0.86460
| 20>    H        0.96569        -2.11323         0.06408
| 21>    H       -3.43548        -0.38436         0.59747
| 22>    H       -3.36284         0.56307        -0.88932
| 23>    H       -3.16608         1.36470         0.66369
| 24>    H       -1.21417        -3.05141         0.69138
| 25>    H       -3.12199        -1.84509        -1.36990
| 26>    H       -3.18139        -3.51659        -0.63362
| 27> *
| 28>
| 29>                          ****END OF INPUT****
 Total Charge           Charge          ....    0
 Multiplicity           Mult            ....    1
 Number of Electrons    NEL             ....   72
Dispersion correction           -0.040062326
FINAL SINGLE POINT ENERGY      -388.036683152451
Dispersion correction            ... done
Dispersion correction           -0.039641335
FINAL SINGLE POINT ENERGY      -388.039994274813
Dispersion correction            ... done
Dispersion correction           -0.039625038
FINAL SINGLE POINT ENERGY      -388.040292999991
Dispersion correction            ... done
FINAL SINGLE POINT ENERGY      -388.040634582125
FINAL SINGLE POINT ENERGY      -388.040908386076
FINAL SINGLE POINT ENERGY      -388.041166172359
FINAL SINGLE POINT ENERGY      -388.041334530910
FINAL SINGLE POINT ENERGY      -388.041434165359
FINAL SINGLE POINT ENERGY      -388.041448200494
FINAL SINGLE POINT ENERGY      -388.041473189630
FINAL SINGLE POINT ENERGY      -388.041494420583
Dispersion correction            ... done
Dispersion correction           -0.039537925
FINAL SINGLE POINT ENERGY      -388.041510042743
Dispersion correction            ... done
Dispersion correction           -0.039541031
FINAL SINGLE POINT ENERGY      -388.041510231673
Dispersion correction            ... done
                    ***********************HURRAY********************

CARTESIAN COORDINATES (ANGSTROEM)
---------------------------------
  C     -0.610140    1.377206    0.048355
  C      0.779951    1.258595    0.082944
  C      1.383251   -0.001999    0.032764
  C      2.879808   -0.169888    0.099070
  C      0.542463   -1.114115   -0.069376
  C     -0.862518   -1.023991   -0.117462
  C     -1.456690    0.266097   -0.043493
  C     -2.944469    0.491708   -0.054395
  C     -1.577203   -2.305387   -0.243354
  C     -2.883175   -2.599062   -0.362672
  H     -1.060606    2.372090    0.099905
  H      1.398977    2.156678    0.158752
  H      3.392281    0.802731    0.111042
  H      3.262269   -0.744162   -0.760305
  H      3.180401   -0.718273    1.007898
  H      0.993587   -2.110244   -0.116155
  H     -3.448702   -0.063219    0.752678
  H     -3.402075    0.161493   -1.002202
  H     -3.175164    1.558889    0.075464
  H     -0.894213   -3.163455   -0.248666
  H     -3.680744   -1.860692   -0.382066
  H     -3.192758   -3.643281   -0.456725

 Multiplicity           Mult            ....    1
 Number of Electrons    NEL             ....   72
 Basis Dimension        Dim             ....  200

ORBITAL ENERGIES
----------------

  NO   OCC          E(Eh)            E(eV)
   0   2.0000     -10.195078      -277.4222
   1   2.0000     -10.194779      -277.4141
   2   2.0000     -10.193160      -277.3700
   3   2.0000     -10.191753      -277.3317
   4   2.0000     -10.187347      -277.2118
   5   2.0000     -10.186351      -277.1847
   6   2.0000     -10.185368      -277.1580
   7   2.0000     -10.184671      -277.1390
   8   2.0000     -10.184284      -277.1285
   9   2.0000     -10.183532      -277.1080
  10   2.0000      -0.854330       -23.2475
  11   2.0000      -0.788070       -21.4445
  12   2.0000      -0.767373       -20.8813
  13   2.0000      -0.718310       -19.5462
  14   2.0000      -0.713494       -19.4152
  15   2.0000      -0.649082       -17.6624
  16   2.0000      -0.609244       -16.5784
  17   2.0000      -0.590005       -16.0548
  18   2.0000      -0.536358       -14.5950
  19   2.0000      -0.488067       -13.2810
  20   2.0000      -0.479626       -13.0513
  21   2.0000      -0.457272       -12.4430
  22   2.0000      -0.425736       -11.5849
  23   2.0000      -0.424111       -11.5407
  24   2.0000      -0.420743       -11.4490
  25   2.0000      -0.414519       -11.2796
  26   2.0000      -0.400372       -10.8947
  27   2.0000      -0.396757       -10.7963
  28   2.0000      -0.378314       -10.2944
  29   2.0000      -0.358896        -9.7661
  30   2.0000      -0.352250        -9.5852
  31   2.0000      -0.339872        -9.2484
  32   2.0000      -0.329881        -8.9765
  33   2.0000      -0.298915        -8.1339
  34   2.0000      -0.240583        -6.5466
  35   2.0000      -0.225475        -6.1355
  36   0.0000      -0.035624        -0.9694
  37   0.0000      -0.005359        -0.1458
  38   0.0000       0.050851         1.3837
  39   0.0000       0.065889         1.7929
  40   0.0000       0.074490         2.0270

MULLIKEN ATOMIC CHARGES
-----------------------
   0 C :   -0.013050
   1 C :   -0.005343
   2 C :   -0.023963
   3 C :    0.086222
   4 C :   -0.074546
   5 C :    0.086480
   6 C :   -0.082109
   7 C :    0.081296
   8 C :   -0.011920
   9 C :   -0.036278
  10 H :   -0.038802
  11 H :   -0.035301
  12 H :    0.002282
  13 H :    0.022413
  14 H :    0.024511
  15 H :   -0.043042
  16 H :    0.031914
  17 H :    0.031411
  18 H :   -0.003001
  19 H :   -0.017623
  20 H :    0.004136
  21 H :    0.014314
Sum of atomic charges:   -0.0000000

LOEWDIN ATOMIC CHARGES
----------------------
   0 C :   -0.029240
   1 C :   -0.028631
   2 C :   -0.032054
   3 C :   -0.044689
   4 C :   -0.019018
   5 C :   -0.027905
   6 C :   -0.017876
   7 C :   -0.044596
   8 C :   -0.020384
   9 C :   -0.057019
  10 H :    0.022645
  11 H :    0.022958
  12 H :    0.026566
  13 H :    0.032800
  14 H :    0.034119
  15 H :    0.020865
  16 H :    0.033169
  17 H :    0.032798
  18 H :    0.026512
  19 H :    0.027567
  20 H :    0.017331
  21 H :    0.024083

  Mayer bond orders larger than 0.100000
B(  0-C ,  1-C ) :   1.3512 B(  0-C ,  6-C ) :   1.4067 B(  0-C , 10-H ) :   0.9793
B(  1-C ,  2-C ) :   1.3800 B(  1-C , 11-H ) :   0.9848 B(  2-C ,  3-C ) :   1.0609
B(  2-C ,  4-C ) :   1.3628 B(  3-C , 12-H ) :   0.9571 B(  3-C , 13-H ) :   0.9566
B(  3-C , 14-H ) :   0.9552 B(  4-C ,  5-C ) :   1.3296 B(  4-C , 15-H ) :   0.9920
B(  5-C ,  6-C ) :   1.3325 B(  5-C ,  8-C ) :   1.1015 B(  6-C ,  7-C ) :   1.1029
B(  7-C , 16-H ) :   0.9410 B(  7-C , 17-H ) :   0.9404 B(  7-C , 18-H ) :   0.9435
B(  8-C ,  9-C ) :   1.9057 B(  8-C , 19-H ) :   0.9528 B(  9-C , 20-H ) :   0.9502
B(  9-C , 21-H ) :   0.9388

Dispersion correction           -0.039544989
FINAL SINGLE POINT ENERGY      -388.041511838483

DIPOLE MOMENT
-------------
                                X             Y             Z
Electronic contribution:      0.89108       0.64199       0.02348
Nuclear contribution   :     -0.79121      -0.56804      -0.00617
                        -----------------------------------------
Total Dipole Moment    :      0.09987       0.07396       0.01731
                        -----------------------------------------
Magnitude (a.u.)       :      0.12548
Magnitude (Debye)      :      0.31894

Rotational constants in cm-1:     0.079698     0.032866     0.023479
Rotational constants in MHz :  2389.298445   985.302333   703.897338

                             ****ORCA TERMINATED NORMALLY****
TOTAL RUN TIME: 0 days 0 hours 16 minutes 38 seconds 966 msec
