                         Program Version 4.2.0 -  RELEASE  -
|  1> # ORCA input file
|  2> # SCF done        -28.682375856545          0.000516740229
|  3> ! B3LYP/G D3BJ Opt RIJCOSX def2-SVP def2/J
|  4> * xyz 0 1
|  5>    C        1.31609         1.27581        -0.03956
|  6>    S        2.52935         0.04811        -0.02227
|  7>    C        1.35730        -1.21844         0.01669
|  8>    C        0.10219        -0.70496         0.01300
|  9>    C        0.07862         0.72152        -0.01896
| 10>    C       -1.32945         1.16212        -0.01855
| 11>    O       -1.80880         2.26275        -0.03946
| 12>    N       -2.05250        -0.02676         0.01352
| 13>    C       -1.29056        -1.19138         0.03295
| 14>    O       -1.73327        -2.30714         0.05981
| 15>    H        1.59681         2.30961        -0.06495
| 16>    H        1.67200        -2.24250         0.03803
| 17>    H       -3.06289        -0.04330         0.02066
| 18> *
| 19>
| 20>                          ****END OF INPUT****
 Total Charge           Charge          ....    0
 Multiplicity           Mult            ....    1
 Number of Electrons    NEL             ....   78
Dispersion correction           -0.028204648
FINAL SINGLE POINT ENERGY      -833.445459678673
Dispersion correction            ... done
Dispersion correction           -0.028170764
FINAL SINGLE POINT ENERGY      -833.447136893298
Dispersion correction            ... done
Dispersion correction           -0.028168540
FINAL SINGLE POINT ENERGY      -833.447227954987
Dispersion correction            ... done
Dispersion correction           -0.028167492
FINAL SINGLE POINT ENERGY      -833.447240484180
Dispersion correction            ... done
Dispersion correction           -0.028168118
FINAL SINGLE POINT ENERGY      -833.447260503223
Dispersion correction            ... done
                    ***********************HURRAY********************

CARTESIAN COORDINATES (ANGSTROEM)
---------------------------------
  C      1.326664    1.289854   -0.034538
  S      2.543450    0.048634   -0.021549
  C      1.368126   -1.231782    0.010403
  C      0.106826   -0.704679    0.011477
  C      0.083500    0.721474   -0.016594
  C     -1.338645    1.172492   -0.021858
  O     -1.810030    2.281099   -0.053976
  N     -2.072147   -0.027173    0.013795
  C     -1.299742   -1.202492    0.037210
  O     -1.733337   -2.326608    0.073732
  H      1.606015    2.342137   -0.054298
  H      1.681138   -2.274511    0.026509
  H     -3.086926   -0.043005    0.020598

 Multiplicity           Mult            ....    1
 Number of Electrons    NEL             ....   78
 Basis Dimension        Dim             ....  159

ORBITAL ENERGIES
----------------

  NO   OCC          E(Eh)            E(eV)
   0   2.0000     -88.909371     -2419.3470
   1   2.0000     -19.136093      -520.7196
   2   2.0000     -19.136010      -520.7173
   3   2.0000     -14.381966      -391.3532
   4   2.0000     -10.321314      -280.8572
   5   2.0000     -10.321179      -280.8536
   6   2.0000     -10.250781      -278.9379
   7   2.0000     -10.250656      -278.9345
   8   2.0000     -10.222739      -278.1749
   9   2.0000     -10.222502      -278.1684
  10   2.0000      -8.004068      -217.8018
  11   2.0000      -5.972179      -162.5112
  12   2.0000      -5.967751      -162.3908
  13   2.0000      -5.965780      -162.3371
  14   2.0000      -1.067271       -29.0419
  15   2.0000      -1.050113       -28.5750
  16   2.0000      -0.955757       -26.0075
  17   2.0000      -0.906988       -24.6804
  18   2.0000      -0.784905       -21.3584
  19   2.0000      -0.757042       -20.6002
  20   2.0000      -0.666400       -18.1337
  21   2.0000      -0.657657       -17.8958
  22   2.0000      -0.584959       -15.9175
  23   2.0000      -0.580735       -15.8026
  24   2.0000      -0.513249       -13.9662
  25   2.0000      -0.488719       -13.2987
  26   2.0000      -0.481040       -13.0898
  27   2.0000      -0.475055       -12.9269
  28   2.0000      -0.444221       -12.0879
  29   2.0000      -0.435338       -11.8462
  30   2.0000      -0.423368       -11.5204
  31   2.0000      -0.409722       -11.1491
  32   2.0000      -0.404182       -10.9984
  33   2.0000      -0.384305       -10.4575
  34   2.0000      -0.302462        -8.2304
  35   2.0000      -0.298769        -8.1299
  36   2.0000      -0.285108        -7.7582
  37   2.0000      -0.277686        -7.5562
  38   2.0000      -0.276596        -7.5266
  39   0.0000      -0.072999        -1.9864
  40   0.0000      -0.064132        -1.7451
  41   0.0000       0.011783         0.3206
  42   0.0000       0.063772         1.7353
  43   0.0000       0.067565         1.8385

MULLIKEN ATOMIC CHARGES
-----------------------
   0 C :   -0.125313
   1 S :    0.131434
   2 C :   -0.124242
   3 C :   -0.012162
   4 C :   -0.011745
   5 C :    0.199294
   6 O :   -0.154415
   7 N :   -0.176725
   8 C :    0.198937
   9 O :   -0.154277
  10 H :    0.047706
  11 H :    0.047038
  12 H :    0.134469
Sum of atomic charges:   -0.0000000

LOEWDIN ATOMIC CHARGES
----------------------
   0 C :   -0.147220
   1 S :    0.467689
   2 C :   -0.146882
   3 C :   -0.098949
   4 C :   -0.098996
   5 C :    0.086365
   6 O :   -0.154982
   7 N :   -0.009159
   8 C :    0.086468
   9 O :   -0.155149
  10 H :    0.039214
  11 H :    0.039061
  12 H :    0.092541

  Mayer bond orders larger than 0.100000
B(  0-C ,  1-S ) :   1.1803 B(  0-C ,  4-C ) :   1.5485 B(  0-C , 10-H ) :   0.9647
B(  1-S ,  2-C ) :   1.1802 B(  2-C ,  3-C ) :   1.5490 B(  2-C , 11-H ) :   0.9649
B(  3-C ,  4-C ) :   1.2686 B(  3-C ,  8-C ) :   0.8876 B(  4-C ,  5-C ) :   0.8886
B(  5-C ,  6-O ) :   2.2350 B(  5-C ,  7-N ) :   1.0602 B(  7-N ,  8-C ) :   1.0606
B(  7-N , 12-H ) :   0.9145 B(  8-C ,  9-O ) :   2.2353

Dispersion correction           -0.028168070
FINAL SINGLE POINT ENERGY      -833.447262595336

DIPOLE MOMENT
-------------
                                X             Y             Z
Electronic contribution:      0.90190       0.01457      -0.00678
Nuclear contribution   :      0.06894       0.00219       0.00080
                        -----------------------------------------
Total Dipole Moment    :      0.97084       0.01676      -0.00598
                        -----------------------------------------
Magnitude (a.u.)       :      0.97100
Magnitude (Debye)      :      2.46810

Rotational constants in cm-1:     0.063590     0.035958     0.022970
Rotational constants in MHz :  1906.379787  1077.989303   688.614761

                             ****ORCA TERMINATED NORMALLY****
TOTAL RUN TIME: 0 days 0 hours 4 minutes 15 seconds 835 msec
