                         Program Version 4.2.0 -  RELEASE  -
|  1> # ORCA input file
|  2> # SCF done        -25.569688357133          0.000366197771
|  3> ! B3LYP/G D3BJ Opt RIJCOSX def2-SVP def2/J
|  4> * xyz 0 1
|  5>    C        0.24369        -1.48159        -0.10053
|  6>    C       -0.45157        -0.31015         0.03882
|  7>    C       -1.82820        -0.15700         0.19712
|  8>    N       -2.96381        -0.04470         0.32668
|  9>    S        0.61429         1.07727        -0.00289
| 10>    C        1.97833         0.03047        -0.20870
| 11>    O        3.17694         0.62922        -0.30871
| 12>    C        4.29736        -0.21227        -0.48574
| 13>    C        1.62911        -1.29201        -0.24175
| 14>    H       -0.23143        -2.44632        -0.10097
| 15>    H        5.15563         0.45185        -0.56045
| 16>    H        4.20610        -0.80178        -1.40245
| 17>    H        4.42363        -0.88351         0.36866
| 18>    H        2.32500        -2.10161        -0.36105
| 19> *
| 20>
| 21>                          ****END OF INPUT****
 Total Charge           Charge          ....    0
 Multiplicity           Mult            ....    1
 Number of Electrons    NEL             ....   72
Dispersion correction           -0.026718841
FINAL SINGLE POINT ENERGY      -759.416720467796
Dispersion correction            ... done
Dispersion correction           -0.026617851
FINAL SINGLE POINT ENERGY      -759.418749216615
Dispersion correction            ... done
Dispersion correction           -0.026610048
FINAL SINGLE POINT ENERGY      -759.418820004399
Dispersion correction            ... done
FINAL SINGLE POINT ENERGY      -759.418811463893
FINAL SINGLE POINT ENERGY      -759.418827588757
Dispersion correction            ... done
Dispersion correction           -0.026613857
FINAL SINGLE POINT ENERGY      -759.418824639167
Dispersion correction            ... done
Dispersion correction           -0.026615001
FINAL SINGLE POINT ENERGY      -759.418816602451
Dispersion correction            ... done
                    ***********************HURRAY********************

CARTESIAN COORDINATES (ANGSTROEM)
---------------------------------
  C      0.242872   -1.497332   -0.098666
  C     -0.463254   -0.320025    0.041717
  C     -1.856908   -0.150191    0.212861
  N     -3.002062   -0.001943    0.354033
  S      0.602745    1.076419   -0.011670
  C      1.982912    0.034915   -0.229493
  O      3.170417    0.632128   -0.346338
  C      4.308342   -0.203914   -0.481835
  C      1.641413   -1.304170   -0.252289
  H     -0.244561   -2.472352   -0.094253
  H      5.177920    0.462763   -0.525505
  H      4.252428   -0.801016   -1.408402
  H      4.406216   -0.883798    0.381846
  H      2.356589   -2.113612   -0.383966

 Multiplicity           Mult            ....    1
 Number of Electrons    NEL             ....   72
 Basis Dimension        Dim             ....  155

ORBITAL ENERGIES
----------------

  NO   OCC          E(Eh)            E(eV)
   0   2.0000     -88.895922     -2418.9810
   1   2.0000     -19.203806      -522.5621
   2   2.0000     -14.324384      -389.7863
   3   2.0000     -10.297057      -280.1972
   4   2.0000     -10.272802      -279.5371
   5   2.0000     -10.248564      -278.8776
   6   2.0000     -10.228987      -278.3449
   7   2.0000     -10.225191      -278.2416
   8   2.0000     -10.211087      -277.8578
   9   2.0000      -7.991315      -217.4547
  10   2.0000      -5.959690      -162.1714
  11   2.0000      -5.955686      -162.0625
  12   2.0000      -5.951813      -161.9571
  13   2.0000      -1.101565       -29.9751
  14   2.0000      -0.906812       -24.6756
  15   2.0000      -0.884737       -24.0749
  16   2.0000      -0.775354       -21.0985
  17   2.0000      -0.761787       -20.7293
  18   2.0000      -0.718369       -19.5478
  19   2.0000      -0.632447       -17.2097
  20   2.0000      -0.584562       -15.9067
  21   2.0000      -0.553327       -15.0568
  22   2.0000      -0.511498       -13.9186
  23   2.0000      -0.503292       -13.6953
  24   2.0000      -0.483463       -13.1557
  25   2.0000      -0.442815       -12.0496
  26   2.0000      -0.427013       -11.6196
  27   2.0000      -0.422101       -11.4860
  28   2.0000      -0.382678       -10.4132
  29   2.0000      -0.378048       -10.2872
  30   2.0000      -0.364559        -9.9202
  31   2.0000      -0.356964        -9.7135
  32   2.0000      -0.333261        -9.0685
  33   2.0000      -0.330133        -8.9834
  34   2.0000      -0.279068        -7.5938
  35   2.0000      -0.234412        -6.3787
  36   0.0000      -0.053410        -1.4534
  37   0.0000      -0.001679        -0.0457
  38   0.0000       0.022776         0.6198
  39   0.0000       0.031015         0.8440
  40   0.0000       0.045754         1.2450

MULLIKEN ATOMIC CHARGES
-----------------------
   0 C :    0.121446
   1 C :   -0.270221
   2 C :   -0.121355
   3 N :    0.065603
   4 S :    0.168620
   5 C :    0.108951
   6 O :   -0.287668
   7 C :    0.177322
   8 C :   -0.065725
   9 H :   -0.000703
  10 H :    0.045644
  11 H :    0.032231
  12 H :    0.033457
  13 H :   -0.007601
Sum of atomic charges:    0.0000000

LOEWDIN ATOMIC CHARGES
----------------------
   0 C :   -0.008339
   1 C :   -0.236198
   2 C :   -0.054205
   3 N :   -0.071178
   4 S :    0.444144
   5 C :   -0.089681
   6 O :   -0.091530
   7 C :    0.091744
   8 C :   -0.129900
   9 H :    0.040269
  10 H :    0.032829
  11 H :    0.019992
  12 H :    0.020089
  13 H :    0.031964

  Mayer bond orders larger than 0.100000
B(  0-C ,  1-C ) :   1.5241 B(  0-C ,  8-C ) :   1.2289 B(  0-C ,  9-H ) :   0.9941
B(  1-C ,  2-C ) :   1.2200 B(  1-C ,  4-S ) :   1.0777 B(  2-C ,  3-N ) :   2.9648
B(  4-S ,  5-C ) :   1.1414 B(  5-C ,  6-O ) :   1.1756 B(  5-C ,  8-C ) :   1.4321
B(  6-O ,  7-C ) :   0.9381 B(  7-C , 10-H ) :   0.9785 B(  7-C , 11-H ) :   0.9682
B(  7-C , 12-H ) :   0.9671 B(  8-C , 13-H ) :   0.9902

Dispersion correction           -0.026615174
FINAL SINGLE POINT ENERGY      -759.418812862289

DIPOLE MOMENT
-------------
                                X             Y             Z
Electronic contribution:     -8.69290       4.69088       1.17432
Nuclear contribution   :     11.12660      -5.38381      -1.48019
                        -----------------------------------------
Total Dipole Moment    :      2.43370      -0.69293      -0.30586
                        -----------------------------------------
Magnitude (a.u.)       :      2.54884
Magnitude (Debye)      :      6.47863

Rotational constants in cm-1:     0.157774     0.026660     0.022908
Rotational constants in MHz :  4729.935736   799.250578   686.769994

                             ****ORCA TERMINATED NORMALLY****
TOTAL RUN TIME: 0 days 0 hours 5 minutes 12 seconds 215 msec
