                         Program Version 4.2.0 -  RELEASE  -
|  1> # ORCA input file
|  2> # SCF done        -28.275854358896          0.000528774529
|  3> ! B3LYP/G D3BJ Opt RIJCOSX def2-SVP def2/J
|  4> * xyz 0 1
|  5>    C        1.52359         0.76345        -0.00021
|  6>    C        0.27293         1.28202        -0.03221
|  7>    O       -0.16841         2.56309        -0.04873
|  8>    C        0.82708         3.55910        -0.00379
|  9>    S       -0.95618         0.04268        -0.05161
| 10>    C        0.28113        -1.18818        -0.01658
| 11>    O       -0.15153        -2.47229        -0.01676
| 12>    C        0.85048        -3.46084         0.04469
| 13>    C        1.52830        -0.66093         0.00885
| 14>    H        2.42796         1.34286         0.01585
| 15>    H        0.29748         4.50968        -0.01011
| 16>    H        1.48641         3.49935        -0.87561
| 17>    H        1.42695         3.47762         0.90827
| 18>    H        0.32725        -4.41495         0.05073
| 19>    H        1.44760        -3.36228         0.95689
| 20>    H        1.51151        -3.40919        -0.82635
| 21>    H        2.43650        -1.23406         0.03222
| 22> *
| 23>
| 24>                          ****END OF INPUT****
 Total Charge           Charge          ....    0
 Multiplicity           Mult            ....    1
 Number of Electrons    NEL             ....   76
Dispersion correction           -0.028799700
FINAL SINGLE POINT ENERGY      -781.675489481579
Dispersion correction            ... done
Dispersion correction           -0.028742278
FINAL SINGLE POINT ENERGY      -781.677073092359
Dispersion correction            ... done
Dispersion correction           -0.028736701
FINAL SINGLE POINT ENERGY      -781.677135548684
Dispersion correction            ... done
FINAL SINGLE POINT ENERGY      -781.677134162708
Dispersion correction            ... done
Dispersion correction           -0.028734266
FINAL SINGLE POINT ENERGY      -781.677123739629
Dispersion correction            ... done
Dispersion correction           -0.028733757
FINAL SINGLE POINT ENERGY      -781.677129181768
Dispersion correction            ... done
                    ***********************HURRAY********************

CARTESIAN COORDINATES (ANGSTROEM)
---------------------------------
  C      1.551478    0.772966    0.011591
  C      0.285073    1.290207   -0.023156
  O     -0.167168    2.557376   -0.039934
  C      0.806260    3.577316   -0.013791
  S     -0.950970    0.042693   -0.046361
  C      0.293254   -1.196131   -0.003031
  O     -0.150712   -2.466380    0.002464
  C      0.829821   -3.479339    0.034194
  C      1.556192   -0.670060    0.022890
  H      2.456758    1.377772    0.031761
  H      0.262337    4.530602   -0.035286
  H      1.476553    3.515315   -0.890393
  H      1.419729    3.523844    0.904146
  H      0.292214   -4.436433    0.029136
  H      1.449809   -3.410037    0.946684
  H      1.493023   -3.424038   -0.848223
  H      2.465400   -1.268542    0.052849

 Multiplicity           Mult            ....    1
 Number of Electrons    NEL             ....   76
 Basis Dimension        Dim             ....  170

ORBITAL ENERGIES
----------------

  NO   OCC          E(Eh)            E(eV)
   0   2.0000     -88.861769     -2418.0517
   1   2.0000     -19.170965      -521.6685
   2   2.0000     -19.170907      -521.6669
   3   2.0000     -10.257220      -279.1131
   4   2.0000     -10.257145      -279.1111
   5   2.0000     -10.249018      -278.8899
   6   2.0000     -10.249007      -278.8897
   7   2.0000     -10.180920      -277.0369
   8   2.0000     -10.180744      -277.0321
   9   2.0000      -7.957820      -216.5433
  10   2.0000      -5.926150      -161.2588
  11   2.0000      -5.922485      -161.1590
  12   2.0000      -5.918060      -161.0386
  13   2.0000      -1.069099       -29.0917
  14   2.0000      -1.067242       -29.0411
  15   2.0000      -0.859806       -23.3965
  16   2.0000      -0.741997       -20.1908
  17   2.0000      -0.739618       -20.1260
  18   2.0000      -0.697337       -18.9755
  19   2.0000      -0.667384       -18.1604
  20   2.0000      -0.561996       -15.2927
  21   2.0000      -0.558984       -15.2107
  22   2.0000      -0.525968       -14.3123
  23   2.0000      -0.491865       -13.3843
  24   2.0000      -0.477643       -12.9973
  25   2.0000      -0.472949       -12.8696
  26   2.0000      -0.472173       -12.8485
  27   2.0000      -0.444341       -12.0911
  28   2.0000      -0.411605       -11.2003
  29   2.0000      -0.393396       -10.7049
  30   2.0000      -0.389775       -10.6063
  31   2.0000      -0.356625        -9.7043
  32   2.0000      -0.350691        -9.5428
  33   2.0000      -0.337424        -9.1818
  34   2.0000      -0.335929        -9.1411
  35   2.0000      -0.294851        -8.0233
  36   2.0000      -0.247291        -6.7291
  37   2.0000      -0.189929        -5.1682
  38   0.0000       0.014177         0.3858
  39   0.0000       0.036256         0.9866
  40   0.0000       0.063135         1.7180
  41   0.0000       0.065185         1.7738
  42   0.0000       0.078891         2.1467

MULLIKEN ATOMIC CHARGES
-----------------------
   0 C :   -0.041975
   1 C :    0.069270
   2 O :   -0.304815
   3 C :    0.186204
   4 S :    0.087043
   5 C :    0.069233
   6 O :   -0.304893
   7 C :    0.186052
   8 C :   -0.041900
   9 H :   -0.025291
  10 H :    0.032063
  11 H :    0.021286
  12 H :    0.019802
  13 H :    0.032106
  14 H :    0.020036
  15 H :    0.021173
  16 H :   -0.025394
Sum of atomic charges:   -0.0000000

LOEWDIN ATOMIC CHARGES
----------------------
   0 C :   -0.132292
   1 C :   -0.113290
   2 O :   -0.109154
   3 C :    0.085570
   4 S :    0.382149
   5 C :   -0.113274
   6 O :   -0.109184
   7 C :    0.085540
   8 C :   -0.132291
   9 H :    0.023984
  10 H :    0.026688
  11 H :    0.013788
  12 H :    0.013648
  13 H :    0.026690
  14 H :    0.013662
  15 H :    0.013800
  16 H :    0.023967

  Mayer bond orders larger than 0.100000
B(  0-C ,  1-C ) :   1.5216 B(  0-C ,  8-C ) :   1.1331 B(  0-C ,  9-H ) :   0.9966
B(  1-C ,  2-O ) :   1.1377 B(  1-C ,  4-S ) :   1.0945 B(  2-O ,  3-C ) :   0.9604
B(  3-C , 10-H ) :   0.9787 B(  3-C , 11-H ) :   0.9654 B(  3-C , 12-H ) :   0.9652
B(  4-S ,  5-C ) :   1.0945 B(  5-C ,  6-O ) :   1.1377 B(  5-C ,  8-C ) :   1.5216
B(  6-O ,  7-C ) :   0.9603 B(  7-C , 13-H ) :   0.9787 B(  7-C , 14-H ) :   0.9653
B(  7-C , 15-H ) :   0.9654 B(  8-C , 16-H ) :   0.9966

Dispersion correction           -0.028733795
FINAL SINGLE POINT ENERGY      -781.677131094895

DIPOLE MOMENT
-------------
                                X             Y             Z
Electronic contribution:     -7.64134      -0.02699      -0.23074
Nuclear contribution   :      8.56948       0.03044       0.26031
                        -----------------------------------------
Total Dipole Moment    :      0.92813       0.00345       0.02957
                        -----------------------------------------
Magnitude (a.u.)       :      0.92861
Magnitude (Debye)      :      2.36034

Rotational constants in cm-1:     0.141404     0.026078     0.022206
Rotational constants in MHz :  4239.199174   781.804496   665.729210

                             ****ORCA TERMINATED NORMALLY****
TOTAL RUN TIME: 0 days 0 hours 4 minutes 37 seconds 89 msec
