                         Program Version 4.2.0 -  RELEASE  -
|  1> # ORCA input file
|  2> # SCF done        -29.080583800026          0.000477031084
|  3> ! B3LYP/G D3BJ Opt RIJCOSX def2-SVP def2/J
|  4> * xyz 0 1
|  5>    C       -3.13665        -0.07797         0.00724
|  6>    C       -2.50993        -1.28407         0.00948
|  7>    C       -1.11000        -1.12183         0.00108
|  8>    C       -0.70508         0.22135        -0.00800
|  9>    S       -2.06297         1.28507        -0.00578
| 10>    C        0.69738         0.22120        -0.01658
| 11>    C        1.10210        -1.12206        -0.01247
| 12>    N       -0.00401        -1.93067        -0.00197
| 13>    C        2.50198        -1.28459        -0.02134
| 14>    C        3.12889        -0.07862        -0.03091
| 15>    S        2.05541         1.28464        -0.03115
| 16>    H       -4.19190         0.10914         0.01225
| 17>    H       -3.02261        -2.22855         0.01689
| 18>    H       -0.00408        -2.93553         0.00426
| 19>    H        3.01452        -2.22918        -0.02026
| 20>    H        4.18417         0.10827        -0.03849
| 21> *
| 22>
| 23>                          ****END OF INPUT****
 Total Charge           Charge          ....    0
 Multiplicity           Mult            ....    1
 Number of Electrons    NEL             ....   92
Dispersion correction           -0.039393310
FINAL SINGLE POINT ENERGY     -1158.524955062272
Dispersion correction            ... done
Dispersion correction           -0.039414853
FINAL SINGLE POINT ENERGY     -1158.527755605983
Dispersion correction            ... done
Dispersion correction           -0.039419110
FINAL SINGLE POINT ENERGY     -1158.527860211318
Dispersion correction            ... done
Dispersion correction           -0.039415728
FINAL SINGLE POINT ENERGY     -1158.527876643539
Dispersion correction            ... done
Dispersion correction           -0.039411404
FINAL SINGLE POINT ENERGY     -1158.527883098643
Dispersion correction            ... done
                    ***********************HURRAY********************

CARTESIAN COORDINATES (ANGSTROEM)
---------------------------------
  C     -3.175295   -0.073562    0.007465
  C     -2.537722   -1.291087    0.009739
  C     -1.124093   -1.118499    0.000112
  C     -0.713747    0.228795   -0.009096
  S     -2.084529    1.293347   -0.005697
  C      0.706034    0.228645   -0.017736
  C      1.116182   -1.118733   -0.013539
  N     -0.004016   -1.930135   -0.002965
  C      2.529786   -1.291616   -0.021035
  C      3.167537   -0.074221   -0.030666
  S      2.076969    1.292916   -0.030886
  H     -4.247966    0.113642    0.013913
  H     -3.060765   -2.247480    0.018238
  H     -0.004082   -2.940047    0.004200
  H      3.052685   -2.248125   -0.019619
  H      4.240240    0.112760   -0.038179

 Multiplicity           Mult            ....    1
 Number of Electrons    NEL             ....   92
 Basis Dimension        Dim             ....  187

ORBITAL ENERGIES
----------------

  NO   OCC          E(Eh)            E(eV)
   0   2.0000     -88.869251     -2418.2553
   1   2.0000     -88.869188     -2418.2536
   2   2.0000     -14.378619      -391.2621
   3   2.0000     -10.222493      -278.1682
   4   2.0000     -10.222416      -278.1661
   5   2.0000     -10.211068      -277.8573
   6   2.0000     -10.211067      -277.8572
   7   2.0000     -10.206033      -277.7203
   8   2.0000     -10.205805      -277.7141
   9   2.0000     -10.198797      -277.5234
  10   2.0000     -10.198769      -277.5226
  11   2.0000      -7.963263      -216.6914
  12   2.0000      -7.963214      -216.6901
  13   2.0000      -5.931819      -161.4130
  14   2.0000      -5.931806      -161.4126
  15   2.0000      -5.927728      -161.3017
  16   2.0000      -5.927718      -161.3014
  17   2.0000      -5.923877      -161.1969
  18   2.0000      -5.923875      -161.1968
  19   2.0000      -0.978750       -26.6331
  20   2.0000      -0.863810       -23.5055
  21   2.0000      -0.860081       -23.4040
  22   2.0000      -0.761819       -20.7301
  23   2.0000      -0.735403       -20.0113
  24   2.0000      -0.715923       -19.4813
  25   2.0000      -0.684490       -18.6259
  26   2.0000      -0.605788       -16.4843
  27   2.0000      -0.575872       -15.6703
  28   2.0000      -0.565154       -15.3786
  29   2.0000      -0.534748       -14.5512
  30   2.0000      -0.518329       -14.1045
  31   2.0000      -0.470707       -12.8086
  32   2.0000      -0.452476       -12.3125
  33   2.0000      -0.439794       -11.9674
  34   2.0000      -0.421502       -11.4696
  35   2.0000      -0.408442       -11.1143
  36   2.0000      -0.393176       -10.6989
  37   2.0000      -0.371906       -10.1201
  38   2.0000      -0.366398        -9.9702
  39   2.0000      -0.350584        -9.5399
  40   2.0000      -0.340043        -9.2531
  41   2.0000      -0.339226        -9.2308
  42   2.0000      -0.275374        -7.4933
  43   2.0000      -0.255121        -6.9422
  44   2.0000      -0.212498        -5.7824
  45   2.0000      -0.195489        -5.3195
  46   0.0000      -0.028038        -0.7630
  47   0.0000       0.020634         0.5615
  48   0.0000       0.029627         0.8062
  49   0.0000       0.059133         1.6091
  50   0.0000       0.065990         1.7957

MULLIKEN ATOMIC CHARGES
-----------------------
   0 C :   -0.110852
   1 C :    0.012858
   2 C :    0.073715
   3 C :   -0.129372
   4 S :    0.117946
   5 C :   -0.129385
   6 C :    0.073706
   7 N :   -0.053965
   8 C :    0.012911
   9 C :   -0.110867
  10 S :    0.117933
  11 H :    0.029192
  12 H :   -0.024835
  13 H :    0.116663
  14 H :   -0.024836
  15 H :    0.029187
Sum of atomic charges:   -0.0000000

LOEWDIN ATOMIC CHARGES
----------------------
   0 C :   -0.186603
   1 C :   -0.084339
   2 C :   -0.026285
   3 C :   -0.228039
   4 S :    0.402061
   5 C :   -0.228040
   6 C :   -0.026286
   7 N :    0.051522
   8 C :   -0.084337
   9 C :   -0.186601
  10 S :    0.402061
  11 H :    0.023870
  12 H :    0.029585
  13 H :    0.087978
  14 H :    0.029585
  15 H :    0.023869

  Mayer bond orders larger than 0.100000
B(  0-C ,  1-C ) :   1.5401 B(  0-C ,  4-S ) :   1.1442 B(  0-C , 11-H ) :   0.9620
B(  1-C ,  2-C ) :   1.2224 B(  1-C , 12-H ) :   1.0055 B(  2-C ,  3-C ) :   1.4045
B(  2-C ,  7-N ) :   1.1549 B(  3-C ,  4-S ) :   1.0484 B(  3-C ,  5-C ) :   1.3910
B(  5-C ,  6-C ) :   1.4045 B(  5-C , 10-S ) :   1.0484 B(  6-C ,  7-N ) :   1.1549
B(  6-C ,  8-C ) :   1.2224 B(  7-N , 13-H ) :   0.9378 B(  8-C ,  9-C ) :   1.5401
B(  8-C , 14-H ) :   1.0055 B(  9-C , 10-S ) :   1.1442 B(  9-C , 15-H ) :   0.9620

Dispersion correction           -0.039410226
FINAL SINGLE POINT ENERGY     -1158.527884098118

DIPOLE MOMENT
-------------
                                X             Y             Z
Electronic contribution:      0.00041       5.59068      -0.02871
Nuclear contribution   :     -0.00048      -6.70518       0.03614
                        -----------------------------------------
Total Dipole Moment    :     -0.00008      -1.11450       0.00743
                        -----------------------------------------
Magnitude (a.u.)       :      1.11453
Magnitude (Debye)      :      2.83290

Rotational constants in cm-1:     0.067521     0.021869     0.016519
Rotational constants in MHz :  2024.217163   655.602763   495.213271

                             ****ORCA TERMINATED NORMALLY****
TOTAL RUN TIME: 0 days 0 hours 5 minutes 32 seconds 297 msec
