                         Program Version 4.2.0 -  RELEASE  -
|  1> # ORCA input file
|  2> # SCF done        -18.036559820577          0.000754674466
|  3> ! B3LYP/G D3BJ Opt RIJCOSX def2-SVP def2/J
|  4> * xyz 0 1
|  5>    C       -1.26504        -0.09979        -0.00166
|  6>    S       -0.51854         1.44769        -0.00060
|  7>    C        1.06151         0.71181         0.00169
|  8>    C        0.97176        -0.65381         0.00161
|  9>    C       -0.35991        -1.11318        -0.00053
| 10>    C        2.21835         1.49744         0.00264
| 11>    C        3.20886         2.17859         0.00634
| 12>    H       -2.33529        -0.16286        -0.00332
| 13>    H        1.83451        -1.29589         0.00265
| 14>    H       -0.63115        -2.15401        -0.00118
| 15>    H        4.07762         2.76602         0.00600
| 16> *
| 17>
| 18>                          ****END OF INPUT****
 Total Charge           Charge          ....    0
 Multiplicity           Mult            ....    1
 Number of Electrons    NEL             ....   56
Dispersion correction           -0.021059831
FINAL SINGLE POINT ENERGY      -628.897197545942
Dispersion correction            ... done
Dispersion correction           -0.020948669
FINAL SINGLE POINT ENERGY      -628.899550541112
Dispersion correction            ... done
Dispersion correction           -0.020934759
FINAL SINGLE POINT ENERGY      -628.899587497361
Dispersion correction            ... done
FINAL SINGLE POINT ENERGY      -628.899584911589
Dispersion correction            ... done
Dispersion correction           -0.020932935
FINAL SINGLE POINT ENERGY      -628.899573551261
Dispersion correction            ... done
Dispersion correction           -0.020934501
FINAL SINGLE POINT ENERGY      -628.899565752927
Dispersion correction            ... done
                    ***********************HURRAY********************

CARTESIAN COORDINATES (ANGSTROEM)
---------------------------------
  C     -1.290804   -0.104648   -0.001984
  S     -0.538194    1.447952    0.000192
  C      1.058404    0.726101    0.001537
  C      0.970180   -0.655594    0.001566
  C     -0.371484   -1.125871   -0.000371
  C      2.228922    1.521041    0.002695
  C      3.240586    2.194366    0.005935
  H     -2.376785   -0.189097   -0.003943
  H      1.854191   -1.293149    0.002682
  H     -0.651903   -2.180244   -0.000913
  H      4.139566    2.781154    0.006243

 Multiplicity           Mult            ....    1
 Number of Electrons    NEL             ....   56
 Basis Dimension        Dim             ....  122

ORBITAL ENERGIES
----------------

  NO   OCC          E(Eh)            E(eV)
   0   2.0000     -88.882159     -2418.6065
   1   2.0000     -10.236122      -278.5390
   2   2.0000     -10.221093      -278.1301
   3   2.0000     -10.204285      -277.6727
   4   2.0000     -10.201869      -277.6070
   5   2.0000     -10.201824      -277.6058
   6   2.0000     -10.195070      -277.4220
   7   2.0000      -7.977300      -217.0734
   8   2.0000      -5.945469      -161.7844
   9   2.0000      -5.941299      -161.6710
  10   2.0000      -5.938519      -161.5953
  11   2.0000      -0.887679       -24.1550
  12   2.0000      -0.773119       -21.0376
  13   2.0000      -0.740822       -20.1588
  14   2.0000      -0.712478       -19.3875
  15   2.0000      -0.605759       -16.4835
  16   2.0000      -0.563635       -15.3373
  17   2.0000      -0.531212       -14.4550
  18   2.0000      -0.514863       -14.0101
  19   2.0000      -0.441101       -12.0030
  20   2.0000      -0.413295       -11.2463
  21   2.0000      -0.405901       -11.0451
  22   2.0000      -0.399049       -10.8587
  23   2.0000      -0.356767        -9.7081
  24   2.0000      -0.316296        -8.6069
  25   2.0000      -0.286052        -7.7839
  26   2.0000      -0.263823        -7.1790
  27   2.0000      -0.230141        -6.2625
  28   0.0000      -0.046505        -1.2655
  29   0.0000       0.014782         0.4022
  30   0.0000       0.034370         0.9352
  31   0.0000       0.042123         1.1462
  32   0.0000       0.072330         1.9682

MULLIKEN ATOMIC CHARGES
-----------------------
   0 C :   -0.082693
   1 S :    0.141892
   2 C :   -0.171426
   3 C :    0.067104
   4 C :    0.031296
   5 C :    0.395331
   6 C :   -0.428330
   7 H :    0.037376
   8 H :   -0.004643
   9 H :   -0.002737
  10 H :    0.016830
Sum of atomic charges:    0.0000000

LOEWDIN ATOMIC CHARGES
----------------------
   0 C :   -0.185226
   1 S :    0.446209
   2 C :   -0.195040
   3 C :   -0.038763
   4 C :   -0.065981
   5 C :   -0.036553
   6 C :   -0.061238
   7 H :    0.028069
   8 H :    0.035395
   9 H :    0.032359
  10 H :    0.040768

  Mayer bond orders larger than 0.100000
B(  0-C ,  1-S ) :   1.1720 B(  0-C ,  4-C ) :   1.5413 B(  0-C ,  7-H ) :   0.9685
B(  1-S ,  2-C ) :   1.1234 B(  2-C ,  3-C ) :   1.5125 B(  2-C ,  5-C ) :   1.0223
B(  3-C ,  4-C ) :   1.2612 B(  3-C ,  8-H ) :   0.9935 B(  4-C ,  9-H ) :   0.9881
B(  5-C ,  6-C ) :   2.3172 B(  6-C , 10-H ) :   1.0820

Dispersion correction           -0.020935705
FINAL SINGLE POINT ENERGY      -628.899562678214

DIPOLE MOMENT
-------------
                                X             Y             Z
Electronic contribution:     -1.03390       3.21075      -0.00017
Nuclear contribution   :      0.87524      -3.49313      -0.00042
                        -----------------------------------------
Total Dipole Moment    :     -0.15866      -0.28238      -0.00059
                        -----------------------------------------
Magnitude (a.u.)       :      0.32390
Magnitude (Debye)      :      0.82329

Rotational constants in cm-1:     0.177777     0.059145     0.044380
Rotational constants in MHz :  5329.629203  1773.130384  1330.486924

                             ****ORCA TERMINATED NORMALLY****
TOTAL RUN TIME: 0 days 0 hours 2 minutes 33 seconds 769 msec
