                         Program Version 4.2.0 -  RELEASE  -
|  1> # ORCA input file
|  2> # SCF done        -30.728437411408          0.000550110739
|  3> ! B3LYP/G D3BJ Opt RIJCOSX def2-SVP def2/J
|  4> * xyz 0 1
|  5>    C       -1.56283        -1.23105         0.16628
|  6>    S       -2.72299         0.02058         0.24513
|  7>    C       -1.52736         1.22916         0.15450
|  8>    C       -0.26511         0.69343         0.06851
|  9>    C       -0.27815        -0.74810         0.07460
| 10>    C        0.96425        -1.43824        -0.00993
| 11>    S        1.07663        -3.20593        -0.01008
| 12>    C        2.12339        -0.72152        -0.09303
| 13>    C        2.13044         0.68877        -0.09784
| 14>    C        0.96834         1.40033        -0.01931
| 15>    O        0.91016         2.75976        -0.01961
| 16>    H       -1.90410        -2.24725         0.19484
| 17>    H       -1.79375         2.26601         0.16909
| 18>    H       -0.22687        -3.45213         0.05407
| 19>    H        3.06426        -1.24599        -0.15805
| 20>    H        3.07894         1.20312        -0.16613
| 21>    H        1.80317         3.12026        -0.08222
| 22> *
| 23>
| 24>                          ****END OF INPUT****
 Total Charge           Charge          ....    0
 Multiplicity           Mult            ....    1
 Number of Electrons    NEL             ....   94
Dispersion correction           -0.041771776
FINAL SINGLE POINT ENERGY     -1179.593810168333
Dispersion correction            ... done
Dispersion correction           -0.041619370
FINAL SINGLE POINT ENERGY     -1179.596325521731
Dispersion correction            ... done
Dispersion correction           -0.041565656
FINAL SINGLE POINT ENERGY     -1179.597122851039
Dispersion correction            ... done
FINAL SINGLE POINT ENERGY     -1179.596917388501
FINAL SINGLE POINT ENERGY     -1179.596459704227
FINAL SINGLE POINT ENERGY     -1179.598219240490
FINAL SINGLE POINT ENERGY     -1179.598610100887
FINAL SINGLE POINT ENERGY     -1179.598817251378
FINAL SINGLE POINT ENERGY     -1179.598931137887
FINAL SINGLE POINT ENERGY     -1179.599269275617
FINAL SINGLE POINT ENERGY     -1179.599471946205
FINAL SINGLE POINT ENERGY     -1179.599651836452
FINAL SINGLE POINT ENERGY     -1179.599707976525
Dispersion correction            ... done
Dispersion correction           -0.041516101
FINAL SINGLE POINT ENERGY     -1179.599722316520
Dispersion correction            ... done
Dispersion correction           -0.041516089
FINAL SINGLE POINT ENERGY     -1179.599721567494
Dispersion correction            ... done
                    ***********************HURRAY********************

CARTESIAN COORDINATES (ANGSTROEM)
---------------------------------
  C     -1.606888   -1.207284    0.311585
  S     -2.751534    0.071966    0.348555
  C     -1.554242    1.283854    0.168236
  C     -0.288104    0.722759    0.083740
  C     -0.311056   -0.726999    0.167934
  C      0.924674   -1.460250    0.103211
  S      0.950332   -3.236514    0.268539
  C      2.100095   -0.756107   -0.010378
  C      2.128041    0.671073   -0.076069
  C      0.965940    1.406602   -0.048804
  O      0.909926    2.757065   -0.136940
  H     -1.916461   -2.243152    0.427637
  H     -1.818812    2.337864    0.126759
  H      0.166045   -3.518165   -0.802223
  H      3.043875   -1.302127   -0.064111
  H      3.090995    1.180873   -0.172743
  H      1.805593    3.109752   -0.224108

 Multiplicity           Mult            ....    1
 Number of Electrons    NEL             ....   94
 Basis Dimension        Dim             ....  192

ORBITAL ENERGIES
----------------

  NO   OCC          E(Eh)            E(eV)
   0   2.0000     -88.887199     -2418.7436
   1   2.0000     -88.842368     -2417.5237
   2   2.0000     -19.177626      -521.8497
   3   2.0000     -10.260163      -279.1932
   4   2.0000     -10.216248      -277.9983
   5   2.0000     -10.212657      -277.9005
   6   2.0000     -10.211943      -277.8811
   7   2.0000     -10.203883      -277.6618
   8   2.0000     -10.202370      -277.6206
   9   2.0000     -10.198597      -277.5179
  10   2.0000     -10.191581      -277.3270
  11   2.0000      -7.981843      -217.1970
  12   2.0000      -7.936237      -215.9560
  13   2.0000      -5.949563      -161.8958
  14   2.0000      -5.945425      -161.7832
  15   2.0000      -5.944192      -161.7497
  16   2.0000      -5.905396      -160.6940
  17   2.0000      -5.901888      -160.5985
  18   2.0000      -5.895164      -160.4156
  19   2.0000      -1.064411       -28.9641
  20   2.0000      -0.893611       -24.3164
  21   2.0000      -0.834335       -22.7034
  22   2.0000      -0.781339       -21.2613
  23   2.0000      -0.738837       -20.1048
  24   2.0000      -0.721409       -19.6305
  25   2.0000      -0.685122       -18.6431
  26   2.0000      -0.625023       -17.0077
  27   2.0000      -0.597471       -16.2580
  28   2.0000      -0.572384       -15.5754
  29   2.0000      -0.535872       -14.5818
  30   2.0000      -0.508705       -13.8426
  31   2.0000      -0.472931       -12.8691
  32   2.0000      -0.453873       -12.3505
  33   2.0000      -0.434388       -11.8203
  34   2.0000      -0.429186       -11.6787
  35   2.0000      -0.418089       -11.3768
  36   2.0000      -0.402131       -10.9425
  37   2.0000      -0.393360       -10.7039
  38   2.0000      -0.380498       -10.3539
  39   2.0000      -0.365584        -9.9481
  40   2.0000      -0.354991        -9.6598
  41   2.0000      -0.344028        -9.3615
  42   2.0000      -0.322542        -8.7768
  43   2.0000      -0.271893        -7.3986
  44   2.0000      -0.255891        -6.9631
  45   2.0000      -0.243111        -6.6154
  46   2.0000      -0.198117        -5.3910
  47   0.0000      -0.058675        -1.5966
  48   0.0000       0.015160         0.4125
  49   0.0000       0.022798         0.6204
  50   0.0000       0.036635         0.9969
  51   0.0000       0.045950         1.2504

MULLIKEN ATOMIC CHARGES
-----------------------
   0 C :   -0.166925
   1 S :    0.139901
   2 C :   -0.149159
   3 C :    0.059779
   4 C :    0.111965
   5 C :   -0.096885
   6 S :   -0.009269
   7 C :    0.010979
   8 C :   -0.094338
   9 C :    0.167924
  10 O :   -0.182232
  11 H :    0.014274
  12 H :    0.026900
  13 H :    0.053184
  14 H :   -0.022950
  15 H :   -0.043510
  16 H :    0.180362
Sum of atomic charges:    0.0000000

LOEWDIN ATOMIC CHARGES
----------------------
   0 C :   -0.214942
   1 S :    0.484639
   2 C :   -0.195365
   3 C :   -0.068816
   4 C :   -0.059714
   5 C :   -0.185135
   6 S :    0.189445
   7 C :   -0.029996
   8 C :   -0.105372
   9 C :    0.058777
  10 O :   -0.043128
  11 H :    0.020484
  12 H :    0.029477
  13 H :   -0.027422
  14 H :    0.027981
  15 H :    0.022810
  16 H :    0.096278

  Mayer bond orders larger than 0.100000
B(  0-C ,  1-S ) :   1.1947 B(  0-C ,  2-C ) :   0.1122 B(  0-C ,  4-C ) :   1.4382
B(  0-C , 11-H ) :   0.9508 B(  1-S ,  2-C ) :   1.2084 B(  2-C ,  3-C ) :   1.4109
B(  2-C , 12-H ) :   0.9671 B(  3-C ,  4-C ) :   1.2285 B(  3-C ,  9-C ) :   1.1679
B(  4-C ,  5-C ) :   1.1814 B(  5-C ,  6-S ) :   1.0189 B(  5-C ,  7-C ) :   1.5557
B(  6-S , 13-H ) :   0.9387 B(  7-C ,  8-C ) :   1.1827 B(  7-C , 14-H ) :   0.9790
B(  8-C ,  9-C ) :   1.4539 B(  8-C , 15-H ) :   0.9828 B(  9-C , 10-O ) :   1.2480
B( 10-O , 16-H ) :   0.9588

Dispersion correction           -0.041516798
FINAL SINGLE POINT ENERGY     -1179.599721245477

DIPOLE MOMENT
-------------
                                X             Y             Z
Electronic contribution:     -4.26386      -0.85961       1.13945
Nuclear contribution   :      4.48703       1.51976      -1.45966
                        -----------------------------------------
Total Dipole Moment    :      0.22317       0.66015      -0.32021
                        -----------------------------------------
Magnitude (a.u.)       :      0.76690
Magnitude (Debye)      :      1.94931

Rotational constants in cm-1:     0.035551     0.027008     0.015385
Rotational constants in MHz :  1065.805195   809.668196   461.224259

                             ****ORCA TERMINATED NORMALLY****
TOTAL RUN TIME: 0 days 0 hours 17 minutes 15 seconds 43 msec
