                         Program Version 4.2.0 -  RELEASE  -
|  1> # ORCA input file
|  2> # SCF done        -36.199713511921          0.000452797101
|  3> ! B3LYP/G D3BJ Opt RIJCOSX def2-SVP def2/J
|  4> * xyz 0 1
|  5>    C        3.30255         0.23934        -0.11220
|  6>    C        2.31453         1.15141        -0.00187
|  7>    C        0.94210         0.81888         0.03389
|  8>    C        0.52458        -0.59141        -0.04143
|  9>    C        1.36659        -1.64083        -0.15146
| 10>    S        3.07499        -1.47924        -0.22268
| 11>    C       -0.89306        -0.55741         0.02883
| 12>    C       -1.33313         0.76235         0.14101
| 13>    C       -2.74444         0.83438         0.18833
| 14>    C       -3.31778        -0.39551         0.12147
| 15>    S       -2.18318        -1.69504        -0.00574
| 16>    C       -0.17957         1.63153         0.14949
| 17>    C       -0.15208         3.06470         0.25366
| 18>    C       -1.18075         3.86041         0.54153
| 19>    H        4.34374         0.51232        -0.13974
| 20>    H        2.59735         2.19306         0.06211
| 21>    H        1.01964        -2.66086        -0.20209
| 22>    H       -3.32369         1.73646         0.25762
| 23>    H       -4.36366        -0.63343         0.13766
| 24>    H        0.81863         3.51494         0.08541
| 25>    H       -2.16559         3.48166         0.74175
| 26>    H       -1.06125         4.92871         0.59832
| 27> *
| 28>
| 29>                          ****END OF INPUT****
 Total Charge           Charge          ....    0
 Multiplicity           Mult            ....    1
 Number of Electrons    NEL             ....  112
Dispersion correction           -0.056807059
FINAL SINGLE POINT ENERGY     -1257.924847838970
Dispersion correction            ... done
Dispersion correction           -0.056634912
FINAL SINGLE POINT ENERGY     -1257.928503583414
Dispersion correction            ... done
Dispersion correction           -0.056597766
FINAL SINGLE POINT ENERGY     -1257.928674923202
Dispersion correction            ... done
FINAL SINGLE POINT ENERGY     -1257.928725193934
FINAL SINGLE POINT ENERGY     -1257.928725907895
Dispersion correction            ... done
Dispersion correction           -0.056575471
FINAL SINGLE POINT ENERGY     -1257.928730563137
Dispersion correction            ... done
Dispersion correction           -0.056587496
FINAL SINGLE POINT ENERGY     -1257.928748344357
Dispersion correction            ... done
                    ***********************HURRAY********************

CARTESIAN COORDINATES (ANGSTROEM)
---------------------------------
  C      3.332373    0.237674   -0.130801
  C      2.330385    1.150352    0.010852
  C      0.948611    0.810169    0.059399
  C      0.525943   -0.610546   -0.054242
  C      1.392472   -1.651079   -0.193988
  S      3.107577   -1.480822   -0.274439
  C     -0.907122   -0.583916    0.019126
  C     -1.344936    0.740787    0.170181
  C     -2.771231    0.820790    0.246505
  C     -3.360562   -0.417122    0.151398
  S     -2.213818   -1.716303   -0.033405
  C     -0.179598    1.623500    0.197001
  C     -0.146535    3.063764    0.332596
  C     -1.189931    3.907512    0.434080
  H      4.382397    0.534255   -0.164233
  H      2.620169    2.201089    0.091274
  H      1.047952   -2.685572   -0.268860
  H     -3.348976    1.734989    0.371267
  H     -4.423342   -0.653877    0.187285
  H      0.856065    3.504698    0.353467
  H     -2.225547    3.562997    0.424251
  H     -1.025826    4.983078    0.535157

 Multiplicity           Mult            ....    1
 Number of Electrons    NEL             ....  112
 Basis Dimension        Dim             ....  244

ORBITAL ENERGIES
----------------

  NO   OCC          E(Eh)            E(eV)
   0   2.0000     -88.891648     -2418.8647
   1   2.0000     -88.875440     -2418.4237
   2   2.0000     -10.240356      -278.6543
   3   2.0000     -10.228114      -278.3211
   4   2.0000     -10.216302      -277.9997
   5   2.0000     -10.215930      -277.9896
   6   2.0000     -10.213001      -277.9099
   7   2.0000     -10.204338      -277.6742
   8   2.0000     -10.199225      -277.5350
   9   2.0000     -10.196049      -277.4486
  10   2.0000     -10.193287      -277.3734
  11   2.0000     -10.190482      -277.2971
  12   2.0000     -10.189876      -277.2806
  13   2.0000     -10.178729      -276.9773
  14   2.0000      -7.986506      -217.3239
  15   2.0000      -7.969731      -216.8674
  16   2.0000      -5.954810      -162.0386
  17   2.0000      -5.950495      -161.9212
  18   2.0000      -5.947635      -161.8434
  19   2.0000      -5.938022      -161.5818
  20   2.0000      -5.934023      -161.4730
  21   2.0000      -5.930833      -161.3862
  22   2.0000      -0.900817       -24.5125
  23   2.0000      -0.866765       -23.5859
  24   2.0000      -0.824648       -22.4398
  25   2.0000      -0.784485       -21.3469
  26   2.0000      -0.764159       -20.7938
  27   2.0000      -0.736373       -20.0377
  28   2.0000      -0.711075       -19.3493
  29   2.0000      -0.682485       -18.5714
  30   2.0000      -0.628785       -17.1101
  31   2.0000      -0.607080       -16.5195
  32   2.0000      -0.568727       -15.4759
  33   2.0000      -0.559997       -15.2383
  34   2.0000      -0.533138       -14.5074
  35   2.0000      -0.508228       -13.8296
  36   2.0000      -0.482750       -13.1363
  37   2.0000      -0.475245       -12.9321
  38   2.0000      -0.461067       -12.5463
  39   2.0000      -0.447458       -12.1759
  40   2.0000      -0.427840       -11.6421
  41   2.0000      -0.420536       -11.4434
  42   2.0000      -0.419573       -11.4172
  43   2.0000      -0.392573       -10.6825
  44   2.0000      -0.376572       -10.2471
  45   2.0000      -0.376263       -10.2386
  46   2.0000      -0.363266        -9.8850
  47   2.0000      -0.359142        -9.7728
  48   2.0000      -0.343920        -9.3585
  49   2.0000      -0.337563        -9.1856
  50   2.0000      -0.336138        -9.1468
  51   2.0000      -0.308615        -8.3978
  52   2.0000      -0.284202        -7.7335
  53   2.0000      -0.257135        -6.9970
  54   2.0000      -0.221554        -6.0288
  55   2.0000      -0.186539        -5.0760
  56   0.0000      -0.071350        -1.9415
  57   0.0000      -0.042140        -1.1467
  58   0.0000       0.008024         0.2183
  59   0.0000       0.030682         0.8349
  60   0.0000       0.036347         0.9891

MULLIKEN ATOMIC CHARGES
-----------------------
   0 C :   -0.106958
   1 C :    0.047508
   2 C :   -0.002925
   3 C :    0.083595
   4 C :   -0.150663
   5 S :    0.115955
   6 C :   -0.112257
   7 C :    0.049270
   8 C :    0.002330
   9 C :   -0.085202
  10 S :    0.115832
  11 C :    0.051052
  12 C :   -0.014286
  13 C :   -0.041568
  14 H :    0.038364
  15 H :   -0.017425
  16 H :    0.030558
  17 H :   -0.012352
  18 H :    0.027681
  19 H :   -0.035425
  20 H :   -0.000838
  21 H :    0.017753
Sum of atomic charges:   -0.0000000

LOEWDIN ATOMIC CHARGES
----------------------
   0 C :   -0.196072
   1 C :   -0.027996
   2 C :   -0.028802
   3 C :   -0.042217
   4 C :   -0.157757
   5 S :    0.442423
   6 C :   -0.203797
   7 C :   -0.033666
   8 C :   -0.064170
   9 C :   -0.174194
  10 S :    0.411976
  11 C :   -0.051923
  12 C :   -0.024860
  13 C :   -0.067443
  14 H :    0.030319
  15 H :    0.036434
  16 H :    0.033528
  17 H :    0.029322
  18 H :    0.024926
  19 H :    0.024345
  20 H :    0.016387
  21 H :    0.023236

  Mayer bond orders larger than 0.100000
B(  0-C ,  1-C ) :   1.6300 B(  0-C ,  5-S ) :   1.0907 B(  0-C , 14-H ) :   0.9373
B(  1-C ,  2-C ) :   1.2127 B(  1-C , 15-H ) :   0.9640 B(  2-C ,  3-C ) :   1.0490
B(  2-C , 11-C ) :   1.4296 B(  3-C ,  4-C ) :   1.5804 B(  3-C ,  6-C ) :   1.2019
B(  4-C ,  5-S ) :   1.1338 B(  4-C , 16-H ) :   0.9369 B(  6-C ,  7-C ) :   1.4176
B(  6-C , 10-S ) :   1.0731 B(  7-C ,  8-C ) :   1.2212 B(  7-C , 11-C ) :   1.0847
B(  8-C ,  9-C ) :   1.5548 B(  8-C , 17-H ) :   0.9932 B(  9-C , 10-S ) :   1.1508
B(  9-C , 18-H ) :   0.9616 B( 11-C , 12-C ) :   1.1586 B( 12-C , 13-C ) :   1.8737
B( 12-C , 19-H ) :   0.9454 B( 13-C , 20-H ) :   0.9515 B( 13-C , 21-H ) :   0.9396

Dispersion correction           -0.056586750
FINAL SINGLE POINT ENERGY     -1257.928750870892

DIPOLE MOMENT
-------------
                                X             Y             Z
Electronic contribution:      2.74154     -11.97832      -1.24905
Nuclear contribution   :     -2.35856      11.77105       1.21702
                        -----------------------------------------
Total Dipole Moment    :      0.38298      -0.20727      -0.03203
                        -----------------------------------------
Magnitude (a.u.)       :      0.43665
Magnitude (Debye)      :      1.10987

Rotational constants in cm-1:     0.027106     0.015735     0.009956
Rotational constants in MHz :   812.629412   471.708881   298.467174

                             ****ORCA TERMINATED NORMALLY****
TOTAL RUN TIME: 0 days 0 hours 14 minutes 34 seconds 67 msec
