                         Program Version 4.2.0 -  RELEASE  -
|  1> # ORCA input file
|  2> # SCF done        -30.800237976811          0.000446980035
|  3> ! B3LYP/G D3BJ Opt RIJCOSX def2-SVP def2/J
|  4> * xyz 0 1
|  5>    C        1.03936         1.50042         0.16017
|  6>    S        2.44449         0.51737         0.09571
|  7>    C        1.51142        -0.94490        -0.07907
|  8>    C        0.17125        -0.64129        -0.08257
|  9>    C       -0.08954         0.74938         0.05388
| 10>    S       -1.76119         1.25216         0.06385
| 11>    C       -2.44787        -0.37938        -0.12185
| 12>    O       -3.61768        -0.59152        -0.17319
| 13>    S       -1.22704        -1.67292        -0.22465
| 14>    C        2.19692        -2.20440        -0.18716
| 15>    C        1.61334        -3.39184        -0.32301
| 16>    H        1.12063         2.56165         0.27167
| 17>    H        3.27551        -2.12775        -0.14757
| 18>    H        0.54379        -3.50458        -0.36663
| 19>    H        2.19828        -4.29132        -0.39730
| 20> *
| 21>
| 22>                          ****END OF INPUT****
 Total Charge           Charge          ....    0
 Multiplicity           Mult            ....    1
 Number of Electrons    NEL             ....  102
Dispersion correction           -0.042881908
FINAL SINGLE POINT ENERGY     -1538.386344349454
Dispersion correction            ... done
Dispersion correction           -0.042654702
FINAL SINGLE POINT ENERGY     -1538.388806527925
Dispersion correction            ... done
Dispersion correction           -0.042558726
FINAL SINGLE POINT ENERGY     -1538.386761411908
Dispersion correction            ... done
FINAL SINGLE POINT ENERGY     -1538.389111527365
FINAL SINGLE POINT ENERGY     -1538.388977270804
FINAL SINGLE POINT ENERGY     -1538.389144756984
Dispersion correction            ... done
Dispersion correction           -0.042607642
FINAL SINGLE POINT ENERGY     -1538.389143308170
Dispersion correction            ... done
Dispersion correction           -0.042609612
FINAL SINGLE POINT ENERGY     -1538.389151166092
Dispersion correction            ... done
                    ***********************HURRAY********************

CARTESIAN COORDINATES (ANGSTROEM)
---------------------------------
  C      1.043561    1.523241    0.175126
  S      2.446037    0.520604    0.097894
  C      1.503496   -0.943124   -0.097393
  C      0.154059   -0.627986   -0.102909
  C     -0.102587    0.776266    0.055138
  S     -1.777427    1.295276    0.072792
  C     -2.487773   -0.359200   -0.130832
  O     -3.661055   -0.570263   -0.169621
  S     -1.241052   -1.673559   -0.269456
  C      2.197425   -2.214832   -0.206037
  C      1.640325   -3.433929   -0.304526
  H      1.137420    2.598289    0.314142
  H      3.290591   -2.141302   -0.198494
  H      0.559724   -3.594819   -0.314269
  H      2.268924   -4.323583   -0.379274

 Multiplicity           Mult            ....    1
 Number of Electrons    NEL             ....  102
 Basis Dimension        Dim             ....  186

ORBITAL ENERGIES
----------------

  NO   OCC          E(Eh)            E(eV)
   0   2.0000     -88.895918     -2418.9809
   1   2.0000     -88.891280     -2418.8547
   2   2.0000     -88.889373     -2418.8028
   3   2.0000     -19.158819      -521.3380
   4   2.0000     -10.331077      -281.1229
   5   2.0000     -10.247267      -278.8423
   6   2.0000     -10.245294      -278.7886
   7   2.0000     -10.242747      -278.7193
   8   2.0000     -10.237571      -278.5785
   9   2.0000     -10.220287      -278.1082
  10   2.0000     -10.204702      -277.6840
  11   2.0000      -7.990804      -217.4408
  12   2.0000      -7.986453      -217.3224
  13   2.0000      -7.985244      -217.2895
  14   2.0000      -5.958989      -162.1523
  15   2.0000      -5.954993      -162.0436
  16   2.0000      -5.954969      -162.0429
  17   2.0000      -5.953697      -162.0083
  18   2.0000      -5.951860      -161.9584
  19   2.0000      -5.951318      -161.9436
  20   2.0000      -5.950251      -161.9146
  21   2.0000      -5.946170      -161.8035
  22   2.0000      -5.944771      -161.7654
  23   2.0000      -1.075644       -29.2698
  24   2.0000      -0.921082       -25.0639
  25   2.0000      -0.848486       -23.0885
  26   2.0000      -0.812619       -22.1125
  27   2.0000      -0.777766       -21.1641
  28   2.0000      -0.727790       -19.8042
  29   2.0000      -0.713306       -19.4101
  30   2.0000      -0.621587       -16.9142
  31   2.0000      -0.584818       -15.9137
  32   2.0000      -0.569765       -15.5041
  33   2.0000      -0.542607       -14.7651
  34   2.0000      -0.490189       -13.3387
  35   2.0000      -0.480554       -13.0765
  36   2.0000      -0.475083       -12.9277
  37   2.0000      -0.462176       -12.5764
  38   2.0000      -0.453020       -12.3273
  39   2.0000      -0.420490       -11.4421
  40   2.0000      -0.419546       -11.4164
  41   2.0000      -0.404104       -10.9962
  42   2.0000      -0.378073       -10.2879
  43   2.0000      -0.373628       -10.1669
  44   2.0000      -0.362804        -9.8724
  45   2.0000      -0.342007        -9.3065
  46   2.0000      -0.326919        -8.8959
  47   2.0000      -0.296234        -8.0609
  48   2.0000      -0.290548        -7.9062
  49   2.0000      -0.243148        -6.6164
  50   2.0000      -0.229264        -6.2386
  51   0.0000      -0.066012        -1.7963
  52   0.0000      -0.029291        -0.7971
  53   0.0000      -0.027586        -0.7507
  54   0.0000       0.003485         0.0948
  55   0.0000       0.003664         0.0997

MULLIKEN ATOMIC CHARGES
-----------------------
   0 C :   -0.137517
   1 S :    0.129026
   2 C :   -0.174118
   3 C :    0.000664
   4 C :   -0.002241
   5 S :    0.093998
   6 C :    0.069389
   7 O :   -0.157541
   8 S :    0.090606
   9 C :    0.036066
  10 C :   -0.042803
  11 H :    0.035549
  12 H :   -0.004270
  13 H :    0.030383
  14 H :    0.032809
Sum of atomic charges:    0.0000000

LOEWDIN ATOMIC CHARGES
----------------------
   0 C :   -0.210671
   1 S :    0.452685
   2 C :   -0.193555
   3 C :   -0.213341
   4 C :   -0.214981
   5 S :    0.343048
   6 C :   -0.194115
   7 O :   -0.141909
   8 S :    0.353905
   9 C :   -0.046172
  10 C :   -0.045326
  11 H :    0.031960
  12 H :    0.031842
  13 H :    0.015079
  14 H :    0.031551

  Mayer bond orders larger than 0.100000
B(  0-C ,  1-S ) :   1.1561 B(  0-C ,  4-C ) :   1.5685 B(  0-C , 11-H ) :   0.9692
B(  1-S ,  2-C ) :   1.1339 B(  2-C ,  3-C ) :   1.5551 B(  2-C ,  9-C ) :   1.1268
B(  3-C ,  4-C ) :   1.2344 B(  3-C ,  8-S ) :   1.0121 B(  4-C ,  5-S ) :   0.9944
B(  5-S ,  6-C ) :   0.9739 B(  5-S ,  7-O ) :   0.1186 B(  6-C ,  7-O ) :   2.0946
B(  6-C ,  8-S ) :   0.9586 B(  7-O ,  8-S ) :   0.1136 B(  9-C , 10-C ) :   1.9045
B(  9-C , 12-H ) :   0.9473 B( 10-C , 13-H ) :   0.9509 B( 10-C , 14-H ) :   0.9427

Dispersion correction           -0.042610914
FINAL SINGLE POINT ENERGY     -1538.389150948667

DIPOLE MOMENT
-------------
                                X             Y             Z
Electronic contribution:     -5.94184       5.83045       0.34701
Nuclear contribution   :      7.17815      -5.62533      -0.28809
                        -----------------------------------------
Total Dipole Moment    :      1.23631       0.20513       0.05892
                        -----------------------------------------
Magnitude (a.u.)       :      1.25460
Magnitude (Debye)      :      3.18893

Rotational constants in cm-1:     0.040560     0.021284     0.013961
Rotational constants in MHz :  1215.948339   638.068013   418.526174

                             ****ORCA TERMINATED NORMALLY****
TOTAL RUN TIME: 0 days 0 hours 8 minutes 24 seconds 341 msec
