                         Program Version 4.2.0 -  RELEASE  -
|  1> # ORCA input file
|  2> # SCF done        -40.291649677837          0.000617880222
|  3> ! B3LYP/G D3BJ Opt RIJCOSX def2-SVP def2/J
|  4> * xyz 0 1
|  5>    C       -1.53455        -1.23399         0.16446
|  6>    S       -2.70460         0.00000         0.25242
|  7>    C       -1.53455         1.23399         0.16446
|  8>    C       -0.26099         0.71982         0.07481
|  9>    C       -0.26099        -0.71982         0.07481
| 10>    C        0.97343        -1.41158        -0.01272
| 11>    F        0.96755        -2.75227        -0.01285
| 12>    C        2.14309        -0.71252        -0.09593
| 13>    F        3.32156        -1.34026        -0.18051
| 14>    C        2.14309         0.71252        -0.09593
| 15>    F        3.32156         1.34026        -0.18051
| 16>    C        0.97343         1.41158        -0.01272
| 17>    F        0.96755         2.75227        -0.01285
| 18>    H       -1.82179        -2.26568         0.18403
| 19>    H       -1.82179         2.26568         0.18403
| 20> *
| 21>
| 22>                          ****END OF INPUT****
 Total Charge           Charge          ....    0
 Multiplicity           Mult            ....    1
 Number of Electrons    NEL             ....  102
Dispersion correction           -0.034023563
FINAL SINGLE POINT ENERGY     -1102.954838443278
Dispersion correction            ... done
Dispersion correction           -0.033992629
FINAL SINGLE POINT ENERGY     -1102.956149639066
Dispersion correction            ... done
Dispersion correction           -0.033989901
FINAL SINGLE POINT ENERGY     -1102.956154882356
Dispersion correction            ... done
Dispersion correction           -0.033990298
FINAL SINGLE POINT ENERGY     -1102.956135373501
Dispersion correction            ... done
Dispersion correction           -0.033991424
FINAL SINGLE POINT ENERGY     -1102.956158274431
Dispersion correction            ... done
                    ***********************HURRAY********************

CARTESIAN COORDINATES (ANGSTROEM)
---------------------------------
  C     -1.545812   -1.249921    0.164032
  S     -2.715284   -0.000003    0.227389
  C     -1.545814    1.249921    0.164034
  C     -0.261193    0.725840    0.092352
  C     -0.261191   -0.725837    0.092352
  C      0.980241   -1.420950    0.006036
  F      0.988042   -2.755349    0.011667
  C      2.151102   -0.718125   -0.097536
  F      3.319927   -1.344260   -0.211648
  C      2.151101    0.718124   -0.097537
  F      3.319925    1.344260   -0.211646
  C      0.980241    1.420950    0.006034
  F      0.988050    2.755348    0.011664
  H     -1.838666   -2.297131    0.168902
  H     -1.838668    2.297131    0.168904

 Multiplicity           Mult            ....    1
 Number of Electrons    NEL             ....  102
 Basis Dimension        Dim             ....  196

ORBITAL ENERGIES
----------------

  NO   OCC          E(Eh)            E(eV)
   0   2.0000     -88.908627     -2419.3267
   1   2.0000     -24.722088      -672.7222
   2   2.0000     -24.721932      -672.7180
   3   2.0000     -24.721818      -672.7149
   4   2.0000     -24.721779      -672.7138
   5   2.0000     -10.299260      -280.2571
   6   2.0000     -10.299026      -280.2507
   7   2.0000     -10.295928      -280.1665
   8   2.0000     -10.295843      -280.1641
   9   2.0000     -10.236728      -278.5555
  10   2.0000     -10.236638      -278.5531
  11   2.0000     -10.231874      -278.4234
  12   2.0000     -10.231697      -278.4186
  13   2.0000      -8.003111      -217.7757
  14   2.0000      -5.970827      -162.4745
  15   2.0000      -5.966620      -162.3600
  16   2.0000      -5.965539      -162.3306
  17   2.0000      -1.244555       -33.8661
  18   2.0000      -1.236461       -33.6458
  19   2.0000      -1.228085       -33.4179
  20   2.0000      -1.221618       -33.2419
  21   2.0000      -0.920326       -25.0434
  22   2.0000      -0.861916       -23.4539
  23   2.0000      -0.786209       -21.3938
  24   2.0000      -0.763904       -20.7869
  25   2.0000      -0.730834       -19.8870
  26   2.0000      -0.662658       -18.0318
  27   2.0000      -0.632867       -17.2212
  28   2.0000      -0.609771       -16.5927
  29   2.0000      -0.588495       -16.0138
  30   2.0000      -0.567115       -15.4320
  31   2.0000      -0.566576       -15.4173
  32   2.0000      -0.548511       -14.9257
  33   2.0000      -0.533394       -14.5144
  34   2.0000      -0.521052       -14.1785
  35   2.0000      -0.494516       -13.4565
  36   2.0000      -0.487983       -13.2787
  37   2.0000      -0.477209       -12.9855
  38   2.0000      -0.464698       -12.6451
  39   2.0000      -0.457398       -12.4464
  40   2.0000      -0.440360       -11.9828
  41   2.0000      -0.430160       -11.7052
  42   2.0000      -0.416583       -11.3358
  43   2.0000      -0.412343       -11.2204
  44   2.0000      -0.402197       -10.9443
  45   2.0000      -0.396953       -10.8016
  46   2.0000      -0.370823       -10.0906
  47   2.0000      -0.338150        -9.2015
  48   2.0000      -0.297805        -8.1037
  49   2.0000      -0.268829        -7.3152
  50   2.0000      -0.222528        -6.0553
  51   0.0000      -0.077225        -2.1014
  52   0.0000      -0.000939        -0.0255
  53   0.0000       0.011432         0.3111
  54   0.0000       0.024420         0.6645
  55   0.0000       0.030615         0.8331

MULLIKEN ATOMIC CHARGES
-----------------------
   0 C :   -0.149214
   1 S :    0.165221
   2 C :   -0.149244
   3 C :    0.033586
   4 C :    0.033636
   5 C :    0.195795
   6 F :   -0.174897
   7 C :    0.143588
   8 F :   -0.166089
   9 C :    0.143575
  10 F :   -0.166086
  11 C :    0.195831
  12 F :   -0.174903
  13 H :    0.034600
  14 H :    0.034601
Sum of atomic charges:   -0.0000000

LOEWDIN ATOMIC CHARGES
----------------------
   0 C :   -0.200388
   1 S :    0.507635
   2 C :   -0.200401
   3 C :   -0.072688
   4 C :   -0.072687
   5 C :    0.045893
   6 F :   -0.046051
   7 C :    0.023343
   8 F :   -0.037304
   9 C :    0.023346
  10 F :   -0.037302
  11 C :    0.045888
  12 F :   -0.046052
  13 H :    0.033383
  14 H :    0.033384

  Mayer bond orders larger than 0.100000
B(  0-C ,  1-S ) :   1.2141 B(  0-C ,  2-C ) :   0.1162 B(  0-C ,  4-C ) :   1.4105
B(  0-C , 13-H ) :   0.9720 B(  1-S ,  2-C ) :   1.2141 B(  2-C ,  3-C ) :   1.4105
B(  2-C , 14-H ) :   0.9720 B(  3-C ,  4-C ) :   1.2107 B(  3-C , 11-C ) :   1.1293
B(  4-C ,  5-C ) :   1.1294 B(  5-C ,  6-F ) :   1.1723 B(  5-C ,  7-C ) :   1.4194
B(  7-C ,  8-F ) :   1.1406 B(  7-C ,  9-C ) :   1.1162 B(  9-C , 10-F ) :   1.1406
B(  9-C , 11-C ) :   1.4194 B( 11-C , 12-F ) :   1.1723

Dispersion correction           -0.033991721
FINAL SINGLE POINT ENERGY     -1102.956157263345

DIPOLE MOMENT
-------------
                                X             Y             Z
Electronic contribution:      9.25083      -0.00005      -0.64369
Nuclear contribution   :    -10.40999      -0.00000       0.71692
                        -----------------------------------------
Total Dipole Moment    :     -1.15917      -0.00005       0.07322
                        -----------------------------------------
Magnitude (a.u.)       :      1.16148
Magnitude (Debye)      :      2.95224

Rotational constants in cm-1:     0.035198     0.019984     0.012749
Rotational constants in MHz :  1055.218817   599.105391   382.197337

                             ****ORCA TERMINATED NORMALLY****
TOTAL RUN TIME: 0 days 0 hours 5 minutes 31 seconds 508 msec
