                         Program Version 4.2.0 -  RELEASE  -
|  1> # ORCA input file
|  2> # SCF done        -29.243933558194          0.000960674138
|  3> ! B3LYP/G D3BJ Opt RIJCOSX def2-SVP def2/J
|  4> * xyz 0 1
|  5>    C       -1.35485         1.47465         0.04196
|  6>    C       -0.16049         0.73821         0.08644
|  7>    N        1.08295         1.20955         0.20251
|  8>    S        2.10299        -0.03073         0.20589
|  9>    N        1.03571        -1.22378         0.06294
| 10>    C       -0.18817        -0.69849         0.00429
| 11>    C       -1.41538        -1.39940        -0.12378
| 12>    C       -2.55667        -0.62586        -0.16336
| 13>    C       -2.52582         0.77702        -0.08243
| 14>    C       -1.38266        -2.85056        -0.19781
| 15>    C       -2.42883        -3.65621        -0.35091
| 16>    H       -1.32577         2.55014         0.10631
| 17>    H       -3.51778        -1.10701        -0.25800
| 18>    H       -3.46262         1.31361        -0.11918
| 19>    H       -0.38688        -3.26729        -0.11672
| 20>    H       -3.43915        -3.29294        -0.44229
| 21>    H       -2.30655        -4.72465        -0.39302
| 22> *
| 23>
| 24>                          ****END OF INPUT****
 Total Charge           Charge          ....    0
 Multiplicity           Mult            ....    1
 Number of Electrons    NEL             ....   84
Dispersion correction           -0.037098820
FINAL SINGLE POINT ENERGY      -815.737081026773
Dispersion correction            ... done
Dispersion correction           -0.036869474
FINAL SINGLE POINT ENERGY      -815.740753879007
Dispersion correction            ... done
Dispersion correction           -0.036838516
FINAL SINGLE POINT ENERGY      -815.741115328403
Dispersion correction            ... done
FINAL SINGLE POINT ENERGY      -815.741178166066
FINAL SINGLE POINT ENERGY      -815.741230301224
Dispersion correction            ... done
Dispersion correction           -0.036864495
FINAL SINGLE POINT ENERGY      -815.741259886886
Dispersion correction            ... done
Dispersion correction           -0.036865379
FINAL SINGLE POINT ENERGY      -815.741262432307
Dispersion correction            ... done
                    ***********************HURRAY********************

CARTESIAN COORDINATES (ANGSTROEM)
---------------------------------
  C     -1.353844    1.501264    0.035373
  C     -0.140070    0.759061    0.094312
  N      1.095347    1.254470    0.233713
  S      2.120063   -0.026469    0.255649
  N      1.040398   -1.250771    0.087662
  C     -0.170828   -0.693904    0.008469
  C     -1.415087   -1.403416   -0.138662
  C     -2.558652   -0.625140   -0.177512
  C     -2.528853    0.798274   -0.091211
  C     -1.385834   -2.866859   -0.239024
  C     -2.442534   -3.687795   -0.321061
  H     -1.326021    2.589764    0.098074
  H     -3.529624   -1.111607   -0.289205
  H     -3.477544    1.338611   -0.133418
  H     -0.379953   -3.295757   -0.244664
  H     -3.474333   -3.324730   -0.315175
  H     -2.302599   -4.768736   -0.400477

 Multiplicity           Mult            ....    1
 Number of Electrons    NEL             ....   84
 Basis Dimension        Dim             ....  188

ORBITAL ENERGIES
----------------

  NO   OCC          E(Eh)            E(eV)
   0   2.0000     -88.935909     -2420.0691
   1   2.0000     -14.359322      -390.7370
   2   2.0000     -14.358142      -390.7049
   3   2.0000     -10.242563      -278.7143
   4   2.0000     -10.242268      -278.7063
   5   2.0000     -10.216177      -277.9963
   6   2.0000     -10.212008      -277.8829
   7   2.0000     -10.209181      -277.8059
   8   2.0000     -10.208746      -277.7941
   9   2.0000     -10.200510      -277.5700
  10   2.0000     -10.196180      -277.4522
  11   2.0000      -8.027180      -218.4307
  12   2.0000      -5.997185      -163.1917
  13   2.0000      -5.989960      -162.9951
  14   2.0000      -5.988278      -162.9493
  15   2.0000      -1.017507       -27.6878
  16   2.0000      -0.886801       -24.1311
  17   2.0000      -0.860344       -23.4112
  18   2.0000      -0.789981       -21.4965
  19   2.0000      -0.761146       -20.7118
  20   2.0000      -0.729049       -19.8384
  21   2.0000      -0.653003       -17.7691
  22   2.0000      -0.623375       -16.9629
  23   2.0000      -0.608717       -16.5640
  24   2.0000      -0.553486       -15.0611
  25   2.0000      -0.513645       -13.9770
  26   2.0000      -0.507138       -13.7999
  27   2.0000      -0.486054       -13.2262
  28   2.0000      -0.464910       -12.6508
  29   2.0000      -0.457577       -12.4513
  30   2.0000      -0.431743       -11.7483
  31   2.0000      -0.404258       -11.0004
  32   2.0000      -0.390783       -10.6337
  33   2.0000      -0.386234       -10.5100
  34   2.0000      -0.371890       -10.1196
  35   2.0000      -0.364524        -9.9192
  36   2.0000      -0.344765        -9.3815
  37   2.0000      -0.323080        -8.7914
  38   2.0000      -0.301194        -8.1959
  39   2.0000      -0.295806        -8.0493
  40   2.0000      -0.271560        -7.3895
  41   2.0000      -0.230436        -6.2705
  42   0.0000      -0.095890        -2.6093
  43   0.0000      -0.033623        -0.9149
  44   0.0000       0.000501         0.0136
  45   0.0000       0.018459         0.5023
  46   0.0000       0.050041         1.3617

MULLIKEN ATOMIC CHARGES
-----------------------
   0 C :   -0.021536
   1 C :    0.070354
   2 N :   -0.281870
   3 S :    0.469473
   4 N :   -0.291975
   5 C :   -0.003989
   6 C :    0.084448
   7 C :   -0.048938
   8 C :    0.044211
   9 C :   -0.006000
  10 C :   -0.017433
  11 H :   -0.014553
  12 H :   -0.025524
  13 H :   -0.008304
  14 H :    0.004650
  15 H :    0.015046
  16 H :    0.031940
Sum of atomic charges:   -0.0000000

LOEWDIN ATOMIC CHARGES
----------------------
   0 C :   -0.025464
   1 C :   -0.051155
   2 N :   -0.282173
   3 S :    0.608738
   4 N :   -0.282659
   5 C :   -0.044363
   6 C :   -0.028191
   7 C :   -0.010661
   8 C :   -0.013994
   9 C :   -0.017740
  10 C :   -0.034479
  11 H :    0.037098
  12 H :    0.028561
  13 H :    0.032283
  14 H :    0.034687
  15 H :    0.019903
  16 H :    0.029609

  Mayer bond orders larger than 0.100000
B(  0-C ,  1-C ) :   1.2041 B(  0-C ,  6-C ) :   0.1036 B(  0-C ,  8-C ) :   1.4758
B(  0-C , 11-H ) :   1.0113 B(  1-C ,  2-N ) :   1.4964 B(  1-C ,  5-C ) :   1.1344
B(  2-N ,  3-S ) :   1.2453 B(  2-N ,  4-N ) :   0.1628 B(  3-S ,  4-N ) :   1.2338
B(  4-N ,  5-C ) :   1.5355 B(  5-C ,  6-C ) :   1.1700 B(  6-C ,  7-C ) :   1.4857
B(  6-C ,  9-C ) :   1.1064 B(  7-C ,  8-C ) :   1.2113 B(  7-C , 12-H ) :   0.9852
B(  8-C , 13-H ) :   0.9800 B(  9-C , 10-C ) :   1.9068 B(  9-C , 14-H ) :   0.9602
B( 10-C , 15-H ) :   0.9444 B( 10-C , 16-H ) :   0.9468

Dispersion correction           -0.036865822
FINAL SINGLE POINT ENERGY      -815.741263586470

DIPOLE MOMENT
-------------
                                X             Y             Z
Electronic contribution:     10.94321       5.07019       1.20027
Nuclear contribution   :    -11.54062      -5.13154      -1.26093
                        -----------------------------------------
Total Dipole Moment    :     -0.59741      -0.06136      -0.06065
                        -----------------------------------------
Magnitude (a.u.)       :      0.60361
Magnitude (Debye)      :      1.53426

Rotational constants in cm-1:     0.056805     0.028251     0.018869
Rotational constants in MHz :  1702.965303   846.939163   565.684953

                             ****ORCA TERMINATED NORMALLY****
TOTAL RUN TIME: 0 days 0 hours 8 minutes 18 seconds 929 msec
