                         Program Version 4.2.0 -  RELEASE  -
|  1> # ORCA input file
|  2> # SCF done        -32.647860094575          0.000533754613
|  3> ! B3LYP/G D3BJ Opt RIJCOSX def2-SVP def2/J
|  4> * xyz 0 1
|  5>    C        2.05146         0.50400         0.13775
|  6>    O        1.61930        -0.78267         0.22212
|  7>    C        0.28056        -0.71777         0.10387
|  8>    C       -0.89035        -1.52281         0.08094
|  9>    C       -1.03094        -2.98686         0.20591
| 10>    O       -2.09753        -3.56100         0.16729
| 11>    N        0.15052        -3.62901         0.36868
| 12>    C       -1.90651        -0.61112        -0.08939
| 13>    O       -1.47115         0.66238        -0.17197
| 14>    C       -0.13096         0.59876        -0.05373
| 15>    C        1.03486         1.39882        -0.03088
| 16>    H        3.10945         0.65625         0.21193
| 17>    H        1.02439        -3.13465         0.39749
| 18>    H        0.14836        -4.63040         0.46209
| 19>    H       -2.96190        -0.78225        -0.16177
| 20>    H        1.11939         2.46063        -0.12306
| 21> *
| 22>
| 23>                          ****END OF INPUT****
 Total Charge           Charge          ....    0
 Multiplicity           Mult            ....    1
 Number of Electrons    NEL             ....   78
Dispersion correction           -0.027463316
FINAL SINGLE POINT ENERGY      -549.756682303184
Dispersion correction            ... done
Dispersion correction           -0.027461085
FINAL SINGLE POINT ENERGY      -549.759112596267
Dispersion correction            ... done
Dispersion correction           -0.027442822
FINAL SINGLE POINT ENERGY      -549.759363219894
Dispersion correction            ... done
FINAL SINGLE POINT ENERGY      -549.759366679305
FINAL SINGLE POINT ENERGY      -549.759356723347
FINAL SINGLE POINT ENERGY      -549.759360063288
FINAL SINGLE POINT ENERGY      -549.759343445558
FINAL SINGLE POINT ENERGY      -549.759325954488
Dispersion correction            ... done
Dispersion correction           -0.027397191
FINAL SINGLE POINT ENERGY      -549.759302340222
Dispersion correction            ... done
Dispersion correction           -0.027400292
FINAL SINGLE POINT ENERGY      -549.759292119834
Dispersion correction            ... done
                    ***********************HURRAY********************

CARTESIAN COORDINATES (ANGSTROEM)
---------------------------------
  C      2.073718    0.559887    0.105856
  O      1.643015   -0.749371    0.177752
  C      0.294112   -0.689293    0.086905
  C     -0.861544   -1.533344    0.068205
  C     -1.028659   -3.005735    0.161535
  O     -2.116975   -3.546243    0.065451
  N      0.135619   -3.694314    0.352034
  C     -1.902946   -0.638711   -0.068098
  O     -1.478209    0.658614   -0.132087
  C     -0.124300    0.610687   -0.037070
  C      1.033270    1.446871   -0.027102
  H      3.148226    0.707252    0.168013
  H      1.013902   -3.226214    0.536477
  H      0.069783   -4.691958    0.513756
  H     -2.973127   -0.812908   -0.133639
  H      1.123065    2.527080   -0.110717

 Multiplicity           Mult            ....    1
 Number of Electrons    NEL             ....   78
 Basis Dimension        Dim             ....  179

ORBITAL ENERGIES
----------------

  NO   OCC          E(Eh)            E(eV)
   0   2.0000     -19.223702      -523.1035
   1   2.0000     -19.221302      -523.0382
   2   2.0000     -19.095881      -519.6253
   3   2.0000     -14.351759      -390.5312
   4   2.0000     -10.294427      -280.1256
   5   2.0000     -10.260083      -279.1910
   6   2.0000     -10.259965      -279.1878
   7   2.0000     -10.248833      -278.8849
   8   2.0000     -10.248163      -278.8667
   9   2.0000     -10.216542      -278.0062
  10   2.0000     -10.211966      -277.8817
  11   2.0000      -1.129713       -30.7411
  12   2.0000      -1.112131       -30.2626
  13   2.0000      -1.023037       -27.8382
  14   2.0000      -0.896853       -24.4046
  15   2.0000      -0.819562       -22.3014
  16   2.0000      -0.811713       -22.0878
  17   2.0000      -0.741616       -20.1804
  18   2.0000      -0.663679       -18.0596
  19   2.0000      -0.642398       -17.4805
  20   2.0000      -0.586638       -15.9632
  21   2.0000      -0.585368       -15.9287
  22   2.0000      -0.548276       -14.9193
  23   2.0000      -0.514410       -13.9978
  24   2.0000      -0.497244       -13.5307
  25   2.0000      -0.495680       -13.4881
  26   2.0000      -0.481711       -13.1080
  27   2.0000      -0.455751       -12.4016
  28   2.0000      -0.445021       -12.1096
  29   2.0000      -0.433328       -11.7914
  30   2.0000      -0.416379       -11.3303
  31   2.0000      -0.409620       -11.1463
  32   2.0000      -0.407318       -11.0837
  33   2.0000      -0.367345        -9.9960
  34   2.0000      -0.306419        -8.3381
  35   2.0000      -0.281327        -7.6553
  36   2.0000      -0.273308        -7.4371
  37   2.0000      -0.259502        -7.0614
  38   2.0000      -0.226196        -6.1551
  39   0.0000      -0.036422        -0.9911
  40   0.0000      -0.001945        -0.0529
  41   0.0000       0.052353         1.4246
  42   0.0000       0.062939         1.7127
  43   0.0000       0.074317         2.0223

MULLIKEN ATOMIC CHARGES
-----------------------
   0 C :    0.138211
   1 O :   -0.242273
   2 C :    0.091248
   3 C :   -0.049672
   4 C :    0.074051
   5 O :   -0.221189
   6 N :   -0.093314
   7 C :    0.112786
   8 O :   -0.207663
   9 C :    0.168780
  10 C :   -0.077647
  11 H :    0.017711
  12 H :    0.123064
  13 H :    0.126580
  14 H :    0.030911
  15 H :    0.008415
Sum of atomic charges:    0.0000000

LOEWDIN ATOMIC CHARGES
----------------------
   0 C :    0.048632
   1 O :   -0.016694
   2 C :   -0.014452
   3 C :   -0.122309
   4 C :    0.063525
   5 O :   -0.221038
   6 N :   -0.007879
   7 C :    0.090927
   8 O :    0.005075
   9 C :   -0.008343
  10 C :   -0.076499
  11 H :    0.026365
  12 H :    0.075866
  13 H :    0.080721
  14 H :    0.035489
  15 H :    0.040613

  Mayer bond orders larger than 0.100000
B(  0-C ,  1-O ) :   1.0836 B(  0-C , 10-C ) :   1.5485 B(  0-C , 11-H ) :   1.0035
B(  1-O ,  2-C ) :   1.1163 B(  2-C ,  3-C ) :   1.1631 B(  2-C ,  9-C ) :   1.4351
B(  3-C ,  4-C ) :   0.9043 B(  3-C ,  7-C ) :   1.5193 B(  4-C ,  5-O ) :   2.1741
B(  4-C ,  6-N ) :   1.2682 B(  6-N , 12-H ) :   0.9352 B(  6-N , 13-H ) :   0.9336
B(  7-C ,  8-O ) :   1.1273 B(  7-C , 14-H ) :   1.0020 B(  8-O ,  9-C ) :   1.1185
B(  9-C , 10-C ) :   1.1878 B( 10-C , 15-H ) :   1.0133

Dispersion correction           -0.027401782
FINAL SINGLE POINT ENERGY      -549.759294385789

DIPOLE MOMENT
-------------
                                X             Y             Z
Electronic contribution:     -1.85350       0.93789      -0.32258
Nuclear contribution   :      3.24591      -0.38408       0.56665
                        -----------------------------------------
Total Dipole Moment    :      1.39241       0.55381       0.24407
                        -----------------------------------------
Magnitude (a.u.)       :      1.51825
Magnitude (Debye)      :      3.85909

Rotational constants in cm-1:     0.077768     0.030502     0.021918
Rotational constants in MHz :  2331.435112   914.414488   657.081810

                             ****ORCA TERMINATED NORMALLY****
TOTAL RUN TIME: 0 days 0 hours 8 minutes 48 seconds 217 msec
