                         Program Version 4.2.0 -  RELEASE  -
|  1> # ORCA input file
|  2> # SCF done        -36.859487306415          0.000826916129
|  3> ! B3LYP/G D3BJ Opt RIJCOSX def2-SVP def2/J
|  4> * xyz 0 1
|  5>    C       -1.63288        -1.02829         0.15434
|  6>    S       -2.75598         0.24624         0.31728
|  7>    C       -1.53413         1.43385         0.27345
|  8>    C       -0.28298         0.87526         0.13733
|  9>    C       -0.34220        -0.56528         0.06711
| 10>    C        0.87410        -1.30047        -0.07817
| 11>    C        0.84070        -2.77344        -0.15776
| 12>    O       -0.15312        -3.45764        -0.07755
| 13>    O        2.06414        -3.30514        -0.34192
| 14>    C        2.11024        -4.71941        -0.43413
| 15>    C        2.05811        -0.60867        -0.14156
| 16>    C        2.10372         0.79854        -0.06865
| 17>    C        0.96513         1.53529         0.06641
| 18>    H       -1.96781        -2.04425         0.13191
| 19>    H       -1.78868         2.47191         0.34894
| 20>    H        3.14706        -4.97770        -0.63444
| 21>    H        1.46348        -5.06922        -1.24171
| 22>    H        1.77614        -5.17264         0.50185
| 23>    H        2.98060        -1.15691        -0.24991
| 24>    H        3.06438         1.28829        -0.12352
| 25>    H        0.99399         2.61351         0.12060
| 26> *
| 27>
| 28>                          ****END OF INPUT****
 Total Charge           Charge          ....    0
 Multiplicity           Mult            ....    1
 Number of Electrons    NEL             ....  100
Dispersion correction           -0.045312405
FINAL SINGLE POINT ENERGY      -934.065254331976
Dispersion correction            ... done
Dispersion correction           -0.045114092
FINAL SINGLE POINT ENERGY      -934.067703693099
Dispersion correction            ... done
Dispersion correction           -0.045098082
FINAL SINGLE POINT ENERGY      -934.067770277238
Dispersion correction            ... done
FINAL SINGLE POINT ENERGY      -934.067733995499
FINAL SINGLE POINT ENERGY      -934.067771310465
Dispersion correction            ... done
Dispersion correction           -0.045105332
FINAL SINGLE POINT ENERGY      -934.067781854831
Dispersion correction            ... done
Dispersion correction           -0.045103808
FINAL SINGLE POINT ENERGY      -934.067782188302
Dispersion correction            ... done
                    ***********************HURRAY********************

CARTESIAN COORDINATES (ANGSTROEM)
---------------------------------
  C     -1.656836   -1.033944    0.180546
  S     -2.773644    0.259282    0.319490
  C     -1.558266    1.460747    0.249229
  C     -0.295161    0.888937    0.125204
  C     -0.351386   -0.565733    0.081820
  C      0.880167   -1.304060   -0.051631
  C      0.848317   -2.786288   -0.135695
  O     -0.147997   -3.469837   -0.032982
  O      2.067550   -3.320334   -0.355353
  C      2.116265   -4.738656   -0.465063
  C      2.071831   -0.609088   -0.108397
  C      2.117401    0.814491   -0.053532
  C      0.965100    1.553588    0.050174
  H     -1.985468   -2.068639    0.174211
  H     -1.811747    2.517544    0.302960
  H      3.162922   -4.995333   -0.669877
  H      1.470172   -5.091010   -1.282764
  H      1.779078   -5.217620    0.467144
  H      3.000217   -1.171707   -0.203848
  H      3.086356    1.316032   -0.103203
  H      0.999141    2.645460    0.081467

 Multiplicity           Mult            ....    1
 Number of Electrons    NEL             ....  100
 Basis Dimension        Dim             ....  226

ORBITAL ENERGIES
----------------

  NO   OCC          E(Eh)            E(eV)
   0   2.0000     -88.886692     -2418.7298
   1   2.0000     -19.176238      -521.8120
   2   2.0000     -19.119592      -520.2705
   3   2.0000     -10.312859      -280.6272
   4   2.0000     -10.245242      -278.7872
   5   2.0000     -10.214945      -277.9628
   6   2.0000     -10.207736      -277.7666
   7   2.0000     -10.206510      -277.7332
   8   2.0000     -10.206101      -277.7221
   9   2.0000     -10.204349      -277.6745
  10   2.0000     -10.203591      -277.6538
  11   2.0000     -10.203204      -277.6433
  12   2.0000     -10.198805      -277.5236
  13   2.0000      -7.981387      -217.1846
  14   2.0000      -5.949002      -161.8806
  15   2.0000      -5.944811      -161.7665
  16   2.0000      -5.943994      -161.7443
  17   2.0000      -1.095789       -29.8179
  18   2.0000      -1.003589       -27.3091
  19   2.0000      -0.893537       -24.3144
  20   2.0000      -0.836287       -22.7565
  21   2.0000      -0.779424       -21.2092
  22   2.0000      -0.737438       -20.0667
  23   2.0000      -0.728702       -19.8290
  24   2.0000      -0.694622       -18.9016
  25   2.0000      -0.634323       -17.2608
  26   2.0000      -0.588854       -16.0235
  27   2.0000      -0.582445       -15.8491
  28   2.0000      -0.563728       -15.3398
  29   2.0000      -0.524710       -14.2781
  30   2.0000      -0.496789       -13.5183
  31   2.0000      -0.485372       -13.2077
  32   2.0000      -0.476277       -12.9602
  33   2.0000      -0.470954       -12.8153
  34   2.0000      -0.457899       -12.4601
  35   2.0000      -0.426443       -11.6041
  36   2.0000      -0.419483       -11.4147
  37   2.0000      -0.415644       -11.3103
  38   2.0000      -0.407201       -11.0805
  39   2.0000      -0.392964       -10.6931
  40   2.0000      -0.375228       -10.2105
  41   2.0000      -0.365166        -9.9367
  42   2.0000      -0.354541        -9.6476
  43   2.0000      -0.351695        -9.5701
  44   2.0000      -0.341885        -9.3032
  45   2.0000      -0.306222        -8.3327
  46   2.0000      -0.289698        -7.8831
  47   2.0000      -0.277129        -7.5411
  48   2.0000      -0.255710        -6.9582
  49   2.0000      -0.212327        -5.7777
  50   0.0000      -0.076747        -2.0884
  51   0.0000      -0.010001        -0.2721
  52   0.0000       0.016163         0.4398
  53   0.0000       0.051628         1.4049
  54   0.0000       0.063476         1.7273

MULLIKEN ATOMIC CHARGES
-----------------------
   0 C :   -0.134905
   1 S :    0.144156
   2 C :   -0.143358
   3 C :    0.084059
   4 C :    0.066761
   5 C :   -0.001981
   6 C :    0.196163
   7 O :   -0.231521
   8 O :   -0.311431
   9 C :    0.200716
  10 C :    0.003698
  11 C :    0.024564
  12 C :    0.010630
  13 H :    0.039967
  14 H :    0.018447
  15 H :    0.025899
  16 H :    0.027649
  17 H :    0.027209
  18 H :   -0.009425
  19 H :   -0.016758
  20 H :   -0.020541
Sum of atomic charges:   -0.0000000

LOEWDIN ATOMIC CHARGES
----------------------
   0 C :   -0.199257
   1 S :    0.492198
   2 C :   -0.212270
   3 C :   -0.052920
   4 C :   -0.040656
   5 C :   -0.066995
   6 C :    0.093856
   7 O :   -0.181617
   8 O :   -0.097429
   9 C :    0.084614
  10 C :    0.006548
  11 C :   -0.037946
  12 C :    0.002087
  13 H :    0.029797
  14 H :    0.024866
  15 H :    0.022800
  16 H :    0.020850
  17 H :    0.020919
  18 H :    0.031467
  19 H :    0.028495
  20 H :    0.030595

  Mayer bond orders larger than 0.100000
B(  0-C ,  1-S ) :   1.1919 B(  0-C ,  2-C ) :   0.1136 B(  0-C ,  4-C ) :   1.4576
B(  0-C , 13-H ) :   0.9420 B(  1-S ,  2-C ) :   1.2159 B(  2-C ,  3-C ) :   1.3903
B(  2-C , 14-H ) :   0.9651 B(  3-C ,  4-C ) :   1.1933 B(  3-C , 12-C ) :   1.1917
B(  4-C ,  5-C ) :   1.1863 B(  5-C ,  6-C ) :   0.9519 B(  5-C , 10-C ) :   1.5109
B(  6-C ,  7-O ) :   2.0304 B(  6-C ,  8-O ) :   1.2059 B(  8-O ,  9-C ) :   0.9245
B(  9-C , 15-H ) :   0.9790 B(  9-C , 16-H ) :   0.9731 B(  9-C , 17-H ) :   0.9738
B( 10-C , 11-C ) :   1.1893 B( 10-C , 18-H ) :   0.9783 B( 11-C , 12-C ) :   1.5163
B( 11-C , 19-H ) :   0.9832 B( 12-C , 20-H ) :   0.9935

Dispersion correction           -0.045104125
FINAL SINGLE POINT ENERGY      -934.067784300946

DIPOLE MOMENT
-------------
                                X             Y             Z
Electronic contribution:     -8.14847       4.40857       1.14315
Nuclear contribution   :      8.69140      -4.07107      -1.22168
                        -----------------------------------------
Total Dipole Moment    :      0.54293       0.33750      -0.07853
                        -----------------------------------------
Magnitude (a.u.)       :      0.64408
Magnitude (Debye)      :      1.63713

Rotational constants in cm-1:     0.043168     0.016920     0.012190
Rotational constants in MHz :  1294.130119   507.247287   365.435127

                             ****ORCA TERMINATED NORMALLY****
TOTAL RUN TIME: 0 days 0 hours 10 minutes 43 seconds 852 msec
