                         Program Version 4.2.0 -  RELEASE  -
|  1> # ORCA input file
|  2> # SCF done        -36.994804535216          0.000884595097
|  3> ! B3LYP/G D3BJ Opt RIJCOSX def2-SVP def2/J
|  4> * xyz 0 1
|  5>    C        1.29850        -0.11059         0.03659
|  6>    C        0.62352         1.09504         0.07037
|  7>    C       -0.76402         1.13282         0.04968
|  8>    C       -1.47111         2.46035         0.07109
|  9>    C       -1.62090         3.02685        -1.34158
| 10>    C       -1.48061        -0.06345        -0.01509
| 11>    C       -0.80351        -1.28443        -0.02378
| 12>    C        0.58442        -1.29345        -0.00350
| 13>    C       -1.55401        -2.58701        -0.07872
| 14>    C       -1.71533        -3.06937        -1.52134
| 15>    C       -2.95986        -0.04085        -0.04518
| 16>    C       -3.67975         0.00667        -1.15436
| 17>    C       -5.17124         0.02629        -1.20136
| 18>    H        2.37868        -0.12866         0.05071
| 19>    H        1.17640         2.02284         0.11858
| 20>    H       -0.89775         3.16479         0.67830
| 21>    H       -2.46072         2.34822         0.51772
| 22>    H       -0.64682         3.12253        -1.81618
| 23>    H       -2.09093         4.00752        -1.31026
| 24>    H       -2.23545         2.36653        -1.94791
| 25>    H        1.10660        -2.23993        -0.01492
| 26>    H       -2.54201        -2.46678         0.37003
| 27>    H       -1.00723        -3.34244         0.49113
| 28>    H       -2.30463        -2.35621        -2.09269
| 29>    H       -2.21830        -4.03412        -1.54549
| 30>    H       -0.74240        -3.17119        -1.99768
| 31>    H       -3.45317        -0.07059         0.92141
| 32>    H       -3.18244         0.03410        -2.11666
| 33>    H       -5.59452        -0.03980        -0.20163
| 34>    H       -5.54083        -0.80840        -1.79696
| 35>    H       -5.52237         0.94565        -1.67127
| 36> *
| 37>
| 38>                          ****END OF INPUT****
 Total Charge           Charge          ....    0
 Multiplicity           Mult            ....    1
 Number of Electrons    NEL             ....   96
Dispersion correction           -0.059276276
FINAL SINGLE POINT ENERGY      -505.910634129801
Dispersion correction            ... done
Dispersion correction           -0.058582926
FINAL SINGLE POINT ENERGY      -505.914791434420
Dispersion correction            ... done
Dispersion correction           -0.058504509
FINAL SINGLE POINT ENERGY      -505.914961359253
Dispersion correction            ... done
FINAL SINGLE POINT ENERGY      -505.914990417046
FINAL SINGLE POINT ENERGY      -505.914987064813
FINAL SINGLE POINT ENERGY      -505.914989951972
FINAL SINGLE POINT ENERGY      -505.914986344881
FINAL SINGLE POINT ENERGY      -505.914976302696
FINAL SINGLE POINT ENERGY      -505.914967048367
Dispersion correction            ... done
Dispersion correction           -0.058443284
FINAL SINGLE POINT ENERGY      -505.914957351921
Dispersion correction            ... done
Dispersion correction           -0.058444036
FINAL SINGLE POINT ENERGY      -505.914955845014
Dispersion correction            ... done
                    ***********************HURRAY********************

CARTESIAN COORDINATES (ANGSTROEM)
---------------------------------
  C      1.337119   -0.107995    0.114287
  C      0.648892    1.103436    0.101894
  C     -0.752292    1.139343    0.051190
  C     -1.452281    2.481376    0.015996
  C     -1.632147    3.033760   -1.404461
  C     -1.467950   -0.078309    0.005540
  C     -0.773617   -1.310511    0.019831
  C      0.625738   -1.306817    0.073719
  C     -1.511830   -2.627843   -0.085097
  C     -1.775011   -3.046050   -1.538549
  C     -2.958609   -0.084913   -0.030400
  C     -3.695669    0.064636   -1.137676
  C     -5.191069    0.024640   -1.196240
  H      2.429099   -0.119153    0.165542
  H      1.203024    2.045476    0.143432
  H     -0.864441    3.201989    0.608555
  H     -2.437341    2.405952    0.501379
  H     -0.661197    3.139851   -1.913542
  H     -2.119165    4.022292   -1.386129
  H     -2.254874    2.361341   -2.011891
  H      1.160793   -2.260641    0.088212
  H     -2.471704   -2.568198    0.451349
  H     -0.921274   -3.411113    0.418324
  H     -2.374050   -2.285902   -2.061794
  H     -2.323016   -4.001145   -1.584647
  H     -0.829926   -3.166231   -2.090592
  H     -3.479306   -0.257560    0.923357
  H     -3.175573    0.219630   -2.090866
  H     -5.631556   -0.164146   -0.205146
  H     -5.538954   -0.766635   -1.881884
  H     -5.603600    0.972368   -1.584645

 Multiplicity           Mult            ....    1
 Number of Electrons    NEL             ....   96
 Basis Dimension        Dim             ....  272

ORBITAL ENERGIES
----------------

  NO   OCC          E(Eh)            E(eV)
   0   2.0000     -10.190256      -277.2909
   1   2.0000     -10.189082      -277.2590
   2   2.0000     -10.187562      -277.2177
   3   2.0000     -10.187281      -277.2100
   4   2.0000     -10.186934      -277.2006
   5   2.0000     -10.186278      -277.1827
   6   2.0000     -10.183778      -277.1147
   7   2.0000     -10.183020      -277.0941
   8   2.0000     -10.182666      -277.0844
   9   2.0000     -10.179161      -276.9890
  10   2.0000     -10.179116      -276.9878
  11   2.0000     -10.177119      -276.9335
  12   2.0000     -10.176569      -276.9185
  13   2.0000      -0.852201       -23.1896
  14   2.0000      -0.790232       -21.5033
  15   2.0000      -0.785424       -21.3725
  16   2.0000      -0.757391       -20.6097
  17   2.0000      -0.726516       -19.7695
  18   2.0000      -0.703392       -19.1403
  19   2.0000      -0.672248       -18.2928
  20   2.0000      -0.622568       -16.9409
  21   2.0000      -0.617537       -16.8040
  22   2.0000      -0.583966       -15.8905
  23   2.0000      -0.551740       -15.0136
  24   2.0000      -0.540963       -14.7204
  25   2.0000      -0.496332       -13.5059
  26   2.0000      -0.477974       -13.0063
  27   2.0000      -0.455630       -12.3983
  28   2.0000      -0.437887       -11.9155
  29   2.0000      -0.433602       -11.7989
  30   2.0000      -0.427910       -11.6440
  31   2.0000      -0.425859       -11.5882
  32   2.0000      -0.414213       -11.2713
  33   2.0000      -0.407856       -11.0983
  34   2.0000      -0.396028       -10.7765
  35   2.0000      -0.387264       -10.5380
  36   2.0000      -0.384720       -10.4688
  37   2.0000      -0.365764        -9.9530
  38   2.0000      -0.363433        -9.8895
  39   2.0000      -0.360134        -9.7997
  40   2.0000      -0.342257        -9.3133
  41   2.0000      -0.337126        -9.1737
  42   2.0000      -0.336854        -9.1663
  43   2.0000      -0.324282        -8.8242
  44   2.0000      -0.318693        -8.6721
  45   2.0000      -0.255685        -6.9575
  46   2.0000      -0.238311        -6.4848
  47   2.0000      -0.235681        -6.4132
  48   0.0000      -0.005840        -0.1589
  49   0.0000      -0.002105        -0.0573
  50   0.0000       0.011412         0.3105
  51   0.0000       0.056664         1.5419
  52   0.0000       0.069822         1.8999

MULLIKEN ATOMIC CHARGES
-----------------------
   0 C :    0.029035
   1 C :   -0.025676
   2 C :   -0.053439
   3 C :    0.076211
   4 C :    0.028540
   5 C :    0.024075
   6 C :   -0.053611
   7 C :   -0.030013
   8 C :    0.089553
   9 C :    0.022551
  10 C :   -0.093095
  11 C :   -0.079734
  12 C :    0.077566
  13 H :   -0.020502
  14 H :   -0.038493
  15 H :   -0.002958
  16 H :   -0.000502
  17 H :    0.004301
  18 H :    0.007139
  19 H :    0.002989
  20 H :   -0.039297
  21 H :   -0.005529
  22 H :   -0.005069
  23 H :    0.009450
  24 H :    0.007200
  25 H :    0.004148
  26 H :    0.007900
  27 H :    0.010194
  28 H :    0.007428
  29 H :    0.020285
  30 H :    0.019355
Sum of atomic charges:   -0.0000000

LOEWDIN ATOMIC CHARGES
----------------------
   0 C :   -0.028686
   1 C :   -0.034368
   2 C :   -0.014582
   3 C :   -0.027909
   4 C :   -0.049434
   5 C :   -0.031388
   6 C :   -0.014110
   7 C :   -0.035215
   8 C :   -0.026700
   9 C :   -0.049683
  10 C :   -0.034240
  11 C :   -0.028675
  12 C :   -0.053178
  13 H :    0.025575
  14 H :    0.021370
  15 H :    0.024453
  16 H :    0.024734
  17 H :    0.020959
  18 H :    0.021456
  19 H :    0.020074
  20 H :    0.021370
  21 H :    0.024556
  22 H :    0.023566
  23 H :    0.021967
  24 H :    0.020955
  25 H :    0.020986
  26 H :    0.024897
  27 H :    0.020246
  28 H :    0.026705
  29 H :    0.032205
  30 H :    0.032092

  Mayer bond orders larger than 0.100000
B(  0-C ,  1-C ) :   1.3616 B(  0-C ,  7-C ) :   1.3519 B(  0-C , 13-H ) :   0.9864
B(  1-C ,  2-C ) :   1.3760 B(  1-C , 14-H ) :   0.9865 B(  2-C ,  3-C ) :   1.0668
B(  2-C ,  5-C ) :   1.4128 B(  3-C ,  4-C ) :   1.1130 B(  3-C , 15-H ) :   0.9253
B(  3-C , 16-H ) :   0.9058 B(  4-C , 17-H ) :   0.9646 B(  4-C , 18-H ) :   0.9609
B(  4-C , 19-H ) :   0.9631 B(  5-C ,  6-C ) :   1.3997 B(  5-C , 10-C ) :   0.9684
B(  6-C ,  7-C ) :   1.3864 B(  6-C ,  8-C ) :   1.0705 B(  7-C , 20-H ) :   0.9876
B(  8-C ,  9-C ) :   1.1113 B(  8-C , 21-H ) :   0.9017 B(  8-C , 22-H ) :   0.9249
B(  9-C , 23-H ) :   0.9636 B(  9-C , 24-H ) :   0.9624 B(  9-C , 25-H ) :   0.9641
B( 10-C , 11-C ) :   1.9451 B( 10-C , 26-H ) :   0.9412 B( 11-C , 12-C ) :   1.0795
B( 11-C , 27-H ) :   0.9311 B( 12-C , 28-H ) :   0.9653 B( 12-C , 29-H ) :   0.9518
B( 12-C , 30-H ) :   0.9511

Dispersion correction           -0.058448509
FINAL SINGLE POINT ENERGY      -505.914954504197

DIPOLE MOMENT
-------------
                                X             Y             Z
Electronic contribution:      8.19625      -0.29792       5.42371
Nuclear contribution   :     -8.52358       0.30134      -5.52560
                        -----------------------------------------
Total Dipole Moment    :     -0.32733       0.00342      -0.10188
                        -----------------------------------------
Magnitude (a.u.)       :      0.34284
Magnitude (Debye)      :      0.87143

Rotational constants in cm-1:     0.027305     0.025979     0.014664
Rotational constants in MHz :   818.587701   778.834958   439.613529

                             ****ORCA TERMINATED NORMALLY****
TOTAL RUN TIME: 0 days 0 hours 26 minutes 9 seconds 547 msec
