                         Program Version 4.2.0 -  RELEASE  -
|  1> # ORCA input file
|  2> # SCF done        -25.290412218504          0.000992164537
|  3> ! B3LYP/G D3BJ Opt RIJCOSX def2-SVP def2/J
|  4> * xyz 0 1
|  5>    C        0.09644         1.17616        -0.04434
|  6>    S       -0.95156        -0.19002         0.03231
|  7>    C        0.39148        -1.28395         0.05428
|  8>    C        1.59010        -0.59135         0.02348
|  9>    C        1.39919         0.81737        -0.04556
| 10>    C        2.91164        -1.18145         0.17326
| 11>    O        3.95243        -0.60928        -0.04183
| 12>    C        0.13761        -2.70307         0.05147
| 13>    C        0.91418        -3.61671        -0.52435
| 14>    H       -0.33014         2.15849        -0.08442
| 15>    H        2.22507         1.50442        -0.07473
| 16>    H        2.90068        -2.22267         0.54994
| 17>    H       -0.78996        -3.00393         0.52223
| 18>    H        1.80425        -3.35316        -1.06902
| 19>    H        0.66061        -4.66190        -0.49078
| 20> *
| 21>
| 22>                          ****END OF INPUT****
 Total Charge           Charge          ....    0
 Multiplicity           Mult            ....    1
 Number of Electrons    NEL             ....   72
Dispersion correction           -0.030814791
FINAL SINGLE POINT ENERGY      -743.396736044737
Dispersion correction            ... done
Dispersion correction           -0.030572941
FINAL SINGLE POINT ENERGY      -743.399138122299
Dispersion correction            ... done
Dispersion correction           -0.030556832
FINAL SINGLE POINT ENERGY      -743.398820090606
Dispersion correction            ... done
FINAL SINGLE POINT ENERGY      -743.399342165162
FINAL SINGLE POINT ENERGY      -743.399362728412
Dispersion correction            ... done
Dispersion correction           -0.030533239
FINAL SINGLE POINT ENERGY      -743.399390160722
Dispersion correction            ... done
Dispersion correction           -0.030536127
FINAL SINGLE POINT ENERGY      -743.399393111975
Dispersion correction            ... done
                    ***********************HURRAY********************

CARTESIAN COORDINATES (ANGSTROEM)
---------------------------------
  C      0.083993    1.199955   -0.053816
  S     -0.956844   -0.185820    0.010428
  C      0.393510   -1.283231    0.049598
  C      1.596141   -0.576872    0.029745
  C      1.402942    0.841395   -0.040165
  C      2.936064   -1.173138    0.178259
  O      3.969154   -0.554480    0.033691
  C      0.132365   -2.718258    0.054341
  C      0.893317   -3.655080   -0.534090
  H     -0.346622    2.199331   -0.098276
  H      2.239694    1.539771   -0.054863
  H      2.949833   -2.248601    0.476665
  H     -0.788104   -3.032597    0.559691
  H      1.784208   -3.401597   -1.113260
  H      0.622368   -4.711828   -0.466008

 Multiplicity           Mult            ....    1
 Number of Electrons    NEL             ....   72
 Basis Dimension        Dim             ....  160

ORBITAL ENERGIES
----------------

  NO   OCC          E(Eh)            E(eV)
   0   2.0000     -88.890727     -2418.8397
   1   2.0000     -19.126709      -520.4642
   2   2.0000     -10.273145      -279.5465
   3   2.0000     -10.242354      -278.7086
   4   2.0000     -10.227493      -278.3042
   5   2.0000     -10.222449      -278.1670
   6   2.0000     -10.210704      -277.8474
   7   2.0000     -10.207668      -277.7648
   8   2.0000     -10.206655      -277.7372
   9   2.0000      -7.985977      -217.3095
  10   2.0000      -5.953992      -162.0164
  11   2.0000      -5.949863      -161.9040
  12   2.0000      -5.947511      -161.8400
  13   2.0000      -1.029406       -28.0116
  14   2.0000      -0.898119       -24.4391
  15   2.0000      -0.801720       -21.8159
  16   2.0000      -0.760560       -20.6959
  17   2.0000      -0.724912       -19.7259
  18   2.0000      -0.639450       -17.4003
  19   2.0000      -0.605682       -16.4815
  20   2.0000      -0.573569       -15.6076
  21   2.0000      -0.528148       -14.3716
  22   2.0000      -0.511818       -13.9273
  23   2.0000      -0.476452       -12.9649
  24   2.0000      -0.450880       -12.2691
  25   2.0000      -0.433849       -11.8056
  26   2.0000      -0.424609       -11.5542
  27   2.0000      -0.414989       -11.2924
  28   2.0000      -0.400347       -10.8940
  29   2.0000      -0.385610       -10.4930
  30   2.0000      -0.370945       -10.0939
  31   2.0000      -0.366406        -9.9704
  32   2.0000      -0.316238        -8.6053
  33   2.0000      -0.269977        -7.3464
  34   2.0000      -0.256561        -6.9814
  35   2.0000      -0.241402        -6.5689
  36   0.0000      -0.075579        -2.0566
  37   0.0000      -0.023039        -0.6269
  38   0.0000       0.005551         0.1510
  39   0.0000       0.021091         0.5739
  40   0.0000       0.072126         1.9626

MULLIKEN ATOMIC CHARGES
-----------------------
   0 C :   -0.066917
   1 S :    0.120578
   2 C :   -0.128441
   3 C :    0.010801
   4 C :    0.028490
   5 C :    0.140731
   6 O :   -0.202442
   7 C :    0.009659
   8 C :   -0.029043
   9 H :    0.037762
  10 H :    0.009294
  11 H :   -0.017816
  12 H :    0.009896
  13 H :    0.040538
  14 H :    0.036908
Sum of atomic charges:    0.0000000

LOEWDIN ATOMIC CHARGES
----------------------
   0 C :   -0.179886
   1 S :    0.444542
   2 C :   -0.154859
   3 C :   -0.112900
   4 C :   -0.032552
   5 C :    0.100251
   6 O :   -0.148548
   7 C :   -0.043984
   8 C :   -0.029144
   9 H :    0.028981
  10 H :    0.039484
  11 H :   -0.005033
  12 H :    0.033804
  13 H :    0.028251
  14 H :    0.031593

  Mayer bond orders larger than 0.100000
B(  0-C ,  1-S ) :   1.1361 B(  0-C ,  4-C ) :   1.5657 B(  0-C ,  9-H ) :   0.9698
B(  1-S ,  2-C ) :   1.1629 B(  2-C ,  3-C ) :   1.4358 B(  2-C ,  7-C ) :   1.0866
B(  3-C ,  4-C ) :   1.2362 B(  3-C ,  5-C ) :   1.0059 B(  4-C , 10-H ) :   0.9936
B(  5-C ,  6-O ) :   2.1321 B(  5-C , 11-H ) :   0.9434 B(  7-C ,  8-C ) :   1.9252
B(  7-C , 12-H ) :   0.9469 B(  8-C , 13-H ) :   0.9581 B(  8-C , 14-H ) :   0.9455

Dispersion correction           -0.030532663
FINAL SINGLE POINT ENERGY      -743.399397847844

DIPOLE MOMENT
-------------
                                X             Y             Z
Electronic contribution:     -2.06449       4.16895       0.54811
Nuclear contribution   :      0.91956      -4.46880      -0.50551
                        -----------------------------------------
Total Dipole Moment    :     -1.14493      -0.29985       0.04260
                        -----------------------------------------
Magnitude (a.u.)       :      1.18431
Magnitude (Debye)      :      3.01028

Rotational constants in cm-1:     0.059371     0.046750     0.026551
Rotational constants in MHz :  1779.893837  1401.525809   795.973549

                             ****ORCA TERMINATED NORMALLY****
TOTAL RUN TIME: 0 days 0 hours 5 minutes 36 seconds 838 msec
