                         Program Version 4.2.0 -  RELEASE  -
|  1> # ORCA input file
|  2> # SCF done        -14.297664266301          0.000640641563
|  3> ! B3LYP/G D3BJ Opt RIJCOSX def2-SVP def2/J
|  4> * xyz 0 1
|  5>    C        0.93411        -0.75272         0.00124
|  6>    N        0.97028         0.61364         0.00303
|  7>    C       -0.31767         1.03537         0.00490
|  8>    N       -1.15300         0.03802         0.00545
|  9>    C       -0.38916        -1.08566         0.00249
| 10>    H        1.82257        -1.34986        -0.00091
| 11>    H        1.79834         1.18597         0.00263
| 12>    H       -0.59743         2.07007         0.00624
| 13>    H       -0.84081        -2.05687         0.00179
| 14> *
| 15>
| 16>                          ****END OF INPUT****
 Total Charge           Charge          ....    0
 Multiplicity           Mult            ....    1
 Number of Electrons    NEL             ....   36
Dispersion correction           -0.011253882
FINAL SINGLE POINT ENERGY      -226.064259611421
Dispersion correction            ... done
Dispersion correction           -0.011333253
FINAL SINGLE POINT ENERGY      -226.065949861797
Dispersion correction            ... done
Dispersion correction           -0.011338808
FINAL SINGLE POINT ENERGY      -226.065995039040
Dispersion correction            ... done
Dispersion correction           -0.011339354
FINAL SINGLE POINT ENERGY      -226.066014640125
Dispersion correction            ... done
Dispersion correction           -0.011338255
FINAL SINGLE POINT ENERGY      -226.066021907742
Dispersion correction            ... done
                    ***********************HURRAY********************

CARTESIAN COORDINATES (ANGSTROEM)
---------------------------------
  C      0.941250   -0.763192    0.001175
  N      0.969978    0.615076    0.002837
  C     -0.327554    1.048290    0.005098
  N     -1.170703    0.041781    0.004644
  C     -0.397099   -1.092990    0.002663
  H      1.845845   -1.365266   -0.000836
  H      1.799739    1.195050    0.002467
  H     -0.591670    2.106165    0.006786
  H     -0.842555   -2.086955    0.002026

 Multiplicity           Mult            ....    1
 Number of Electrons    NEL             ....   36
 Basis Dimension        Dim             ....   90

ORBITAL ENERGIES
----------------

  NO   OCC          E(Eh)            E(eV)
   0   2.0000     -14.387116      -391.4933
   1   2.0000     -14.299624      -389.1125
   2   2.0000     -10.237093      -278.5655
   3   2.0000     -10.215320      -277.9730
   4   2.0000     -10.195307      -277.4284
   5   2.0000      -1.006155       -27.3789
   6   2.0000      -0.860577       -23.4175
   7   2.0000      -0.734212       -19.9789
   8   2.0000      -0.612349       -16.6629
   9   2.0000      -0.586112       -15.9489
  10   2.0000      -0.558274       -15.1914
  11   2.0000      -0.442030       -12.0282
  12   2.0000      -0.437845       -11.9144
  13   2.0000      -0.432898       -11.7797
  14   2.0000      -0.406734       -11.0678
  15   2.0000      -0.285251        -7.7621
  16   2.0000      -0.264050        -7.1852
  17   2.0000      -0.232992        -6.3400
  18   0.0000       0.023014         0.6262
  19   0.0000       0.043378         1.1804
  20   0.0000       0.065740         1.7889
  21   0.0000       0.100749         2.7415
  22   0.0000       0.106834         2.9071

MULLIKEN ATOMIC CHARGES
-----------------------
   0 C :    0.024771
   1 N :   -0.083791
   2 C :    0.082415
   3 N :   -0.168087
   4 C :    0.009320
   5 H :    0.001838
   6 H :    0.127242
   7 H :    0.011442
   8 H :   -0.005151
Sum of atomic charges:   -0.0000000

LOEWDIN ATOMIC CHARGES
----------------------
   0 C :   -0.045816
   1 N :    0.070937
   2 C :    0.004050
   3 N :   -0.127837
   4 C :   -0.045699
   5 H :    0.021627
   6 H :    0.088843
   7 H :    0.016250
   8 H :    0.017645

  Mayer bond orders larger than 0.100000
B(  0-C ,  1-N ) :   1.1955 B(  0-C ,  4-C ) :   1.5159 B(  0-C ,  5-H ) :   0.9844
B(  1-N ,  2-C ) :   1.2232 B(  1-N ,  6-H ) :   0.9387 B(  2-C ,  3-N ) :   1.6437
B(  2-C ,  7-H ) :   0.9769 B(  3-N ,  4-C ) :   1.3879 B(  4-C ,  8-H ) :   0.9957

Dispersion correction           -0.011337471
FINAL SINGLE POINT ENERGY      -226.066023208999

DIPOLE MOMENT
-------------
                                X             Y             Z
Electronic contribution:     -0.56702       0.54911       0.00134
Nuclear contribution   :      1.96192      -0.10183      -0.00247
                        -----------------------------------------
Total Dipole Moment    :      1.39489       0.44728      -0.00113
                        -----------------------------------------
Magnitude (a.u.)       :      1.46485
Magnitude (Debye)      :      3.72335

Rotational constants in cm-1:     0.324215     0.312448     0.159111
Rotational constants in MHz :  9719.710336  9366.962360  4770.038456

                             ****ORCA TERMINATED NORMALLY****
TOTAL RUN TIME: 0 days 0 hours 1 minutes 9 seconds 419 msec
