                         Program Version 4.2.0 -  RELEASE  -
|  1> # ORCA input file
|  2> # SCF done        -23.168270287698          0.000353316548
|  3> ! B3LYP/G D3BJ Opt RIJCOSX def2-SVP def2/J
|  4> * xyz 0 1
|  5>    C       -1.30195        -0.05006        -0.02798
|  6>    S       -0.52088         1.48467         0.12582
|  7>    C        1.03770         0.72170         0.05108
|  8>    O        2.18082         1.43398         0.12243
|  9>    C        0.94829        -0.64161        -0.08741
| 10>    C       -0.41453        -1.06098        -0.12997
| 11>    C        2.12013        -1.48853        -0.17305
| 12>    C        2.11214        -2.80492        -0.34645
| 13>    H       -2.37254        -0.08592        -0.03149
| 14>    H        1.99059         2.37402         0.21384
| 15>    H       -0.70931        -2.08888        -0.23198
| 16>    H        3.05769        -0.95628        -0.08463
| 17>    H        1.20108        -3.37029        -0.44272
| 18>    H        3.02827        -3.36674        -0.40019
| 19> *
| 20>
| 21>                          ****END OF INPUT****
 Total Charge           Charge          ....    0
 Multiplicity           Mult            ....    1
 Number of Electrons    NEL             ....   66
Dispersion correction           -0.026275420
FINAL SINGLE POINT ENERGY      -705.312217332082
Dispersion correction            ... done
Dispersion correction           -0.026157473
FINAL SINGLE POINT ENERGY      -705.314223047526
Dispersion correction            ... done
Dispersion correction           -0.026139962
FINAL SINGLE POINT ENERGY      -705.314313407224
Dispersion correction            ... done
FINAL SINGLE POINT ENERGY      -705.314302103004
Dispersion correction            ... done
Dispersion correction           -0.026141619
FINAL SINGLE POINT ENERGY      -705.314323019891
Dispersion correction            ... done
Dispersion correction           -0.026143527
FINAL SINGLE POINT ENERGY      -705.314325696941
Dispersion correction            ... done
                    ***********************HURRAY********************

CARTESIAN COORDINATES (ANGSTROEM)
---------------------------------
  C     -1.331143   -0.036796   -0.036417
  S     -0.537673    1.509263    0.124910
  C      1.030946    0.738802    0.055535
  O      2.189315    1.427700    0.145085
  C      0.946275   -0.633656   -0.092806
  C     -0.430933   -1.054878   -0.136944
  C      2.126270   -1.486358   -0.194001
  C      2.132065   -2.821372   -0.331444
  H     -2.418265   -0.084174   -0.039852
  H      2.025191    2.373034    0.250583
  H     -0.734961   -2.096438   -0.244394
  H      3.081496   -0.953763   -0.155884
  H      1.208848   -3.405782   -0.378274
  H      3.070067   -3.375422   -0.408798

 Multiplicity           Mult            ....    1
 Number of Electrons    NEL             ....   66
 Basis Dimension        Dim             ....  146

ORBITAL ENERGIES
----------------

  NO   OCC          E(Eh)            E(eV)
   0   2.0000     -88.876929     -2418.4642
   1   2.0000     -19.187114      -522.1079
   2   2.0000     -10.272120      -279.5186
   3   2.0000     -10.210368      -277.8382
   4   2.0000     -10.194127      -277.3963
   5   2.0000     -10.188932      -277.2549
   6   2.0000     -10.188692      -277.2484
   7   2.0000     -10.176414      -276.9143
   8   2.0000      -7.972805      -216.9511
   9   2.0000      -5.941124      -161.6662
  10   2.0000      -5.937200      -161.5594
  11   2.0000      -5.933436      -161.4570
  12   2.0000      -1.072687       -29.1893
  13   2.0000      -0.873647       -23.7731
  14   2.0000      -0.779809       -21.2197
  15   2.0000      -0.718791       -19.5593
  16   2.0000      -0.710208       -19.3257
  17   2.0000      -0.609454       -16.5841
  18   2.0000      -0.590843       -16.0777
  19   2.0000      -0.541110       -14.7244
  20   2.0000      -0.505917       -13.7667
  21   2.0000      -0.476970       -12.9790
  22   2.0000      -0.450102       -12.2479
  23   2.0000      -0.431780       -11.7493
  24   2.0000      -0.418940       -11.3999
  25   2.0000      -0.409046       -11.1307
  26   2.0000      -0.367809       -10.0086
  27   2.0000      -0.358952        -9.7676
  28   2.0000      -0.353810        -9.6277
  29   2.0000      -0.340084        -9.2542
  30   2.0000      -0.301651        -8.2083
  31   2.0000      -0.241606        -6.5744
  32   2.0000      -0.205103        -5.5811
  33   0.0000      -0.016640        -0.4528
  34   0.0000       0.002520         0.0686
  35   0.0000       0.003268         0.0889
  36   0.0000       0.064435         1.7534
  37   0.0000       0.081160         2.2085

MULLIKEN ATOMIC CHARGES
-----------------------
   0 C :   -0.097837
   1 S :    0.044952
   2 C :   -0.042909
   3 O :   -0.173677
   4 C :    0.040204
   5 C :    0.040476
   6 C :    0.006843
   7 C :   -0.033257
   8 H :    0.029344
   9 H :    0.188516
  10 H :   -0.014850
  11 H :   -0.010867
  12 H :    0.006542
  13 H :    0.016520
Sum of atomic charges:    0.0000000

LOEWDIN ATOMIC CHARGES
----------------------
   0 C :   -0.199762
   1 S :    0.365275
   2 C :   -0.101713
   3 O :   -0.045687
   4 C :   -0.113521
   5 C :   -0.041964
   6 C :   -0.018082
   7 C :   -0.066635
   8 H :    0.025130
   9 H :    0.096902
  10 H :    0.030158
  11 H :    0.029948
  12 H :    0.016828
  13 H :    0.023123

  Mayer bond orders larger than 0.100000
B(  0-C ,  1-S ) :   1.0957 B(  0-C ,  5-C ) :   1.6126 B(  0-C ,  8-H ) :   0.9670
B(  1-S ,  2-C ) :   1.1131 B(  2-C ,  3-O ) :   1.2000 B(  2-C ,  4-C ) :   1.4567
B(  3-O ,  9-H ) :   0.9541 B(  4-C ,  5-C ) :   1.2172 B(  4-C ,  6-C ) :   1.1095
B(  5-C , 10-H ) :   0.9910 B(  6-C ,  7-C ) :   1.9201 B(  6-C , 11-H ) :   0.9614
B(  7-C , 12-H ) :   0.9456 B(  7-C , 13-H ) :   0.9459

Dispersion correction           -0.026143480
FINAL SINGLE POINT ENERGY      -705.314325349685

DIPOLE MOMENT
-------------
                                X             Y             Z
Electronic contribution:     -2.66590       7.70499       0.82470
Nuclear contribution   :      2.43269      -7.10044      -0.76197
                        -----------------------------------------
Total Dipole Moment    :     -0.23321       0.60455       0.06272
                        -----------------------------------------
Magnitude (a.u.)       :      0.65100
Magnitude (Debye)      :      1.65470

Rotational constants in cm-1:     0.103920     0.047765     0.032725
Rotational constants in MHz :  3115.449600  1431.951919   981.071713

                             ****ORCA TERMINATED NORMALLY****
TOTAL RUN TIME: 0 days 0 hours 3 minutes 43 seconds 64 msec
