                         Program Version 4.2.0 -  RELEASE  -
|  1> # ORCA input file
|  2> # SCF done        -15.879640655616          0.000047188797
|  3> ! B3LYP/G D3BJ Opt RIJCOSX def2-SVP def2/J
|  4> * xyz 0 1
|  5>    C        1.37299        -0.22035         0.00508
|  6>    C        0.87480         1.07147         0.01448
|  7>    C       -0.49307         1.28600         0.00981
|  8>    C       -1.36274         0.20870        -0.00419
|  9>    C       -0.86455        -1.08313        -0.01352
| 10>    C        0.50331        -1.29766        -0.00893
| 11>    H        2.44039        -0.38778         0.00869
| 12>    H        1.55344         1.91213         0.02547
| 13>    H       -0.88184         2.29406         0.01712
| 14>    H       -2.43014         0.37611        -0.00781
| 15>    H       -1.54321        -1.92378        -0.02450
| 16>    H        0.89209        -2.30572        -0.01637
| 17> *
| 18>
| 19>                          ****END OF INPUT****
 Total Charge           Charge          ....    0
 Multiplicity           Mult            ....    1
 Number of Electrons    NEL             ....   42
Dispersion correction           -0.018994050
FINAL SINGLE POINT ENERGY      -232.102256476173
Dispersion correction            ... done
Dispersion correction           -0.018884907
FINAL SINGLE POINT ENERGY      -232.103928679553
Dispersion correction            ... done
Dispersion correction           -0.018872944
FINAL SINGLE POINT ENERGY      -232.103954435086
Dispersion correction            ... done
                    ***********************HURRAY********************

CARTESIAN COORDINATES (ANGSTROEM)
---------------------------------
  C      1.386090   -0.222848    0.004962
  C      0.883008    1.081826    0.014330
  C     -0.498201    1.298952    0.009725
  C     -1.375845    0.211191   -0.004073
  C     -0.872762   -1.093486   -0.013443
  C      0.508445   -1.310611   -0.008839
  H      2.465918   -0.394097    0.008821
  H      1.569032    1.932127    0.025858
  H     -0.893242    2.318185    0.017422
  H     -2.455675    0.382433   -0.007926
  H     -1.558793   -1.943781   -0.024967
  H      0.903495   -2.329841   -0.016541

 Multiplicity           Mult            ....    1
 Number of Electrons    NEL             ....   42
 Basis Dimension        Dim             ....  114

ORBITAL ENERGIES
----------------

  NO   OCC          E(Eh)            E(eV)
   0   2.0000     -10.191762      -277.3320
   1   2.0000     -10.191646      -277.3288
   2   2.0000     -10.191567      -277.3266
   3   2.0000     -10.191250      -277.3180
   4   2.0000     -10.191169      -277.3158
   5   2.0000     -10.191094      -277.3138
   6   2.0000      -0.845641       -23.0111
   7   2.0000      -0.737600       -20.0711
   8   2.0000      -0.737457       -20.0672
   9   2.0000      -0.597170       -16.2498
  10   2.0000      -0.596931       -16.2433
  11   2.0000      -0.521768       -14.1980
  12   2.0000      -0.456794       -12.4300
  13   2.0000      -0.448726       -12.2104
  14   2.0000      -0.422296       -11.4912
  15   2.0000      -0.422144       -11.4871
  16   2.0000      -0.368587       -10.0298
  17   2.0000      -0.346685        -9.4338
  18   2.0000      -0.346372        -9.4253
  19   2.0000      -0.256141        -6.9700
  20   2.0000      -0.256038        -6.9671
  21   0.0000      -0.009333        -0.2540
  22   0.0000      -0.008983        -0.2444
  23   0.0000       0.057378         1.5613
  24   0.0000       0.098009         2.6670
  25   0.0000       0.099620         2.7108

MULLIKEN ATOMIC CHARGES
-----------------------
   0 C :    0.010022
   1 C :    0.018186
   2 C :    0.018998
   3 C :    0.010025
   4 C :    0.018192
   5 C :    0.019008
   6 H :   -0.013035
   7 H :   -0.014817
   8 H :   -0.019364
   9 H :   -0.013034
  10 H :   -0.014816
  11 H :   -0.019365
Sum of atomic charges:    0.0000000

LOEWDIN ATOMIC CHARGES
----------------------
   0 C :   -0.027253
   1 C :   -0.026267
   2 C :   -0.025424
   3 C :   -0.027254
   4 C :   -0.026267
   5 C :   -0.025422
   6 H :    0.026796
   7 H :    0.026557
   8 H :    0.025591
   9 H :    0.026796
  10 H :    0.026557
  11 H :    0.025591

  Mayer bond orders larger than 0.100000
B(  0-C ,  1-C ) :   1.3903 B(  0-C ,  5-C ) :   1.3883 B(  0-C ,  6-H ) :   0.9862
B(  1-C ,  2-C ) :   1.3922 B(  1-C ,  7-H ) :   0.9852 B(  2-C ,  3-C ) :   1.3883
B(  2-C ,  8-H ) :   0.9874 B(  3-C ,  4-C ) :   1.3903 B(  3-C ,  9-H ) :   0.9862
B(  4-C ,  5-C ) :   1.3922 B(  4-C , 10-H ) :   0.9852 B(  5-C , 11-H ) :   0.9874

Dispersion correction           -0.018872224
FINAL SINGLE POINT ENERGY      -232.103954448103

DIPOLE MOMENT
-------------
                                X             Y             Z
Electronic contribution:      0.00000      -0.00000      -0.00000
Nuclear contribution   :      0.00000       0.00000       0.00000
                        -----------------------------------------
Total Dipole Moment    :      0.00000      -0.00000       0.00000
                        -----------------------------------------
Magnitude (a.u.)       :      0.00000
Magnitude (Debye)      :      0.00001

Rotational constants in cm-1:     0.189125     0.188860     0.094496
Rotational constants in MHz :  5669.819126  5661.883361  2832.924273

                             ****ORCA TERMINATED NORMALLY****
TOTAL RUN TIME: 0 days 0 hours 1 minutes 7 seconds 686 msec
