                         Program Version 4.2.0 -  RELEASE  -
|  1> # ORCA input file
|  2> # SCF done        -28.795592886976          0.000865618735
|  3> ! B3LYP/G D3BJ Opt RIJCOSX def2-SVP def2/J
|  4> * xyz 0 1
|  5>    C       -1.35995         0.43398         0.40412
|  6>    C       -0.33557         1.05245        -0.24835
|  7>    C        0.84686         0.29781        -0.18539
|  8>    C        0.68693        -0.88382         0.52018
|  9>    S       -0.91298        -1.07948         1.11259
| 10>    C        1.92440        -1.58583         0.53186
| 11>    C        2.86663        -0.84794        -0.16627
| 12>    C        2.25759         0.42310        -0.68252
| 13>    C        4.12168        -1.47629        -0.20655
| 14>    C        4.10732        -2.66704         0.45640
| 15>    S        2.56867        -3.05462         1.14540
| 16>    H       -2.37008         0.77374         0.51829
| 17>    H       -0.43474         2.00005        -0.74651
| 18>    H        2.30315         0.48519        -1.77171
| 19>    H        2.75493         1.30664        -0.27643
| 20>    H        4.99289        -1.07939        -0.69585
| 21>    H        4.91571        -3.35843         0.58839
| 22> *
| 23>
| 24>                          ****END OF INPUT****
 Total Charge           Charge          ....    0
 Multiplicity           Mult            ....    1
 Number of Electrons    NEL             ....   92
Dispersion correction           -0.041814568
FINAL SINGLE POINT ENERGY     -1142.491807647387
Dispersion correction            ... done
Dispersion correction           -0.041809368
FINAL SINGLE POINT ENERGY     -1142.494967997828
Dispersion correction            ... done
Dispersion correction           -0.041812832
FINAL SINGLE POINT ENERGY     -1142.495061608976
Dispersion correction            ... done
FINAL SINGLE POINT ENERGY     -1142.495043632435
Dispersion correction            ... done
Dispersion correction           -0.041816715
FINAL SINGLE POINT ENERGY     -1142.495065870379
Dispersion correction            ... done
Dispersion correction           -0.041817546
FINAL SINGLE POINT ENERGY     -1142.495065695849
Dispersion correction            ... done
                    ***********************HURRAY********************

CARTESIAN COORDINATES (ANGSTROEM)
---------------------------------
  C     -1.400823    0.446773    0.414673
  C     -0.367822    1.066409   -0.253302
  C      0.830204    0.304270   -0.199816
  C      0.675016   -0.882454    0.509922
  S     -0.926008   -1.076157    1.120267
  C      1.929447   -1.599398    0.517591
  C      2.879378   -0.860193   -0.179705
  C      2.259269    0.425608   -0.691434
  C      4.150416   -1.494441   -0.206778
  C      4.141064   -2.695598    0.468612
  S      2.575663   -3.071667    1.143697
  H     -2.420429    0.803592    0.550374
  H     -0.479520    2.027971   -0.755829
  H      2.322015    0.514118   -1.790302
  H      2.762377    1.314445   -0.272149
  H      5.037838   -1.092420   -0.697177
  H      4.965355   -3.390737    0.619005

 Multiplicity           Mult            ....    1
 Number of Electrons    NEL             ....   92
 Basis Dimension        Dim             ....  192

ORBITAL ENERGIES
----------------

  NO   OCC          E(Eh)            E(eV)
   0   2.0000     -88.876575     -2418.4546
   1   2.0000     -88.876348     -2418.4484
   2   2.0000     -10.215845      -277.9873
   3   2.0000     -10.215676      -277.9827
   4   2.0000     -10.211571      -277.8710
   5   2.0000     -10.211025      -277.8561
   6   2.0000     -10.208931      -277.7991
   7   2.0000     -10.196423      -277.4588
   8   2.0000     -10.196169      -277.4519
   9   2.0000     -10.193079      -277.3678
  10   2.0000     -10.192825      -277.3609
  11   2.0000      -7.970886      -216.8988
  12   2.0000      -7.970740      -216.8949
  13   2.0000      -5.939137      -161.6121
  14   2.0000      -5.938962      -161.6074
  15   2.0000      -5.935068      -161.5014
  16   2.0000      -5.934929      -161.4976
  17   2.0000      -5.932098      -161.4206
  18   2.0000      -5.931982      -161.4174
  19   2.0000      -0.903524       -24.5861
  20   2.0000      -0.866373       -23.5752
  21   2.0000      -0.801930       -21.8216
  22   2.0000      -0.747253       -20.3338
  23   2.0000      -0.728333       -19.8190
  24   2.0000      -0.678687       -18.4680
  25   2.0000      -0.675206       -18.3733
  26   2.0000      -0.593216       -16.1422
  27   2.0000      -0.552705       -15.0399
  28   2.0000      -0.535637       -14.5754
  29   2.0000      -0.515142       -14.0177
  30   2.0000      -0.483076       -13.1452
  31   2.0000      -0.467365       -12.7176
  32   2.0000      -0.453381       -12.3371
  33   2.0000      -0.428914       -11.6714
  34   2.0000      -0.401365       -10.9217
  35   2.0000      -0.381763       -10.3883
  36   2.0000      -0.381586       -10.3835
  37   2.0000      -0.377767       -10.2796
  38   2.0000      -0.369676       -10.0594
  39   2.0000      -0.369309       -10.0494
  40   2.0000      -0.346209        -9.4208
  41   2.0000      -0.343652        -9.3512
  42   2.0000      -0.278028        -7.5655
  43   2.0000      -0.255886        -6.9630
  44   2.0000      -0.249949        -6.8014
  45   2.0000      -0.198841        -5.4107
  46   0.0000      -0.043157        -1.1743
  47   0.0000       0.017317         0.4712
  48   0.0000       0.032965         0.8970
  49   0.0000       0.033858         0.9213
  50   0.0000       0.057403         1.5620

MULLIKEN ATOMIC CHARGES
-----------------------
   0 C :   -0.098392
   1 C :    0.033054
   2 C :   -0.143119
   3 C :   -0.100887
   4 S :    0.125098
   5 C :   -0.097063
   6 C :   -0.148747
   7 C :    0.318200
   8 C :    0.035107
   9 C :   -0.103020
  10 S :    0.125916
  11 H :    0.023165
  12 H :   -0.023083
  13 H :    0.027310
  14 H :    0.023037
  15 H :   -0.023085
  16 H :    0.026509
Sum of atomic charges:    0.0000000

LOEWDIN ATOMIC CHARGES
----------------------
   0 C :   -0.192537
   1 C :   -0.063133
   2 C :   -0.061551
   3 C :   -0.200979
   4 S :    0.421826
   5 C :   -0.200714
   6 C :   -0.061444
   7 C :   -0.007017
   8 C :   -0.063120
   9 C :   -0.193034
  10 S :    0.421340
  11 H :    0.022976
  12 H :    0.029645
  13 H :    0.047235
  14 H :    0.047585
  15 H :    0.029529
  16 H :    0.023391

  Mayer bond orders larger than 0.100000
B(  0-C ,  1-C ) :   1.5303 B(  0-C ,  4-S ) :   1.1468 B(  0-C , 11-H ) :   0.9643
B(  1-C ,  2-C ) :   1.2785 B(  1-C , 12-H ) :   0.9940 B(  2-C ,  3-C ) :   1.5375
B(  2-C ,  7-C ) :   1.0276 B(  3-C ,  4-S ) :   1.0997 B(  3-C ,  5-C ) :   1.1752
B(  5-C ,  6-C ) :   1.5340 B(  5-C , 10-S ) :   1.1006 B(  6-C ,  7-C ) :   1.0283
B(  6-C ,  8-C ) :   1.2822 B(  7-C , 13-H ) :   0.8778 B(  7-C , 14-H ) :   0.8752
B(  8-C ,  9-C ) :   1.5293 B(  8-C , 15-H ) :   0.9941 B(  9-C , 10-S ) :   1.1461
B(  9-C , 16-H ) :   0.9639

Dispersion correction           -0.041818386
FINAL SINGLE POINT ENERGY     -1142.495060925484

DIPOLE MOMENT
-------------
                                X             Y             Z
Electronic contribution:     -3.44601      -6.00478       4.32637
Nuclear contribution   :      3.68306       6.42168      -4.60356
                        -----------------------------------------
Total Dipole Moment    :      0.23705       0.41691      -0.27719
                        -----------------------------------------
Magnitude (a.u.)       :      0.55393
Magnitude (Debye)      :      1.40797

Rotational constants in cm-1:     0.065337     0.021886     0.016445
Rotational constants in MHz :  1958.754761   656.119304   493.010043

                             ****ORCA TERMINATED NORMALLY****
TOTAL RUN TIME: 0 days 0 hours 8 minutes 29 seconds 607 msec
