                         Program Version 4.2.0 -  RELEASE  -
|  1> # ORCA input file
|  2> # SCF done        -27.731875793932          0.000505832103
|  3> ! B3LYP/G D3BJ Opt RIJCOSX def2-SVP def2/J
|  4> * xyz 0 1
|  5>    C        0.88326         1.53246         0.16773
|  6>    S        2.34690         0.61359         0.12636
|  7>    C        1.53868        -0.92156        -0.06311
|  8>    C        0.18236        -0.69449        -0.08990
|  9>    C       -0.16964         0.68566         0.04095
| 10>    O       -1.52557         0.76693         0.00039
| 11>    C       -1.91563        -0.52631        -0.14875
| 12>    N       -0.98996        -1.41132        -0.20654
| 13>    C        2.27773        -2.14638        -0.16644
| 14>    C        1.69388        -3.33180        -0.33039
| 15>    H        0.91265         2.59591         0.27870
| 16>    H       -2.96856        -0.72330        -0.20534
| 17>    H        3.35342        -2.05037        -0.10464
| 18>    H        0.62240        -3.41437        -0.39149
| 19>    H        2.26995        -4.23692        -0.40505
| 20> *
| 21>
| 22>                          ****END OF INPUT****
 Total Charge           Charge          ....    0
 Multiplicity           Mult            ....    1
 Number of Electrons    NEL             ....   78
Dispersion correction           -0.030449120
FINAL SINGLE POINT ENERGY      -797.492009141778
Dispersion correction            ... done
Dispersion correction           -0.030313143
FINAL SINGLE POINT ENERGY      -797.494469545686
Dispersion correction            ... done
Dispersion correction           -0.030269627
FINAL SINGLE POINT ENERGY      -797.494684571865
Dispersion correction            ... done
FINAL SINGLE POINT ENERGY      -797.494702567805
Dispersion correction            ... done
Dispersion correction           -0.030251607
FINAL SINGLE POINT ENERGY      -797.494774734994
Dispersion correction            ... done
Dispersion correction           -0.030255286
FINAL SINGLE POINT ENERGY      -797.494782504377
Dispersion correction            ... done
                    ***********************HURRAY********************

CARTESIAN COORDINATES (ANGSTROEM)
---------------------------------
  C      0.882102    1.558594    0.181483
  S      2.347789    0.620793    0.121779
  C      1.533013   -0.918181   -0.083538
  C      0.168034   -0.676337   -0.103725
  C     -0.169747    0.694637    0.045363
  O     -1.535164    0.785326    0.010379
  C     -1.939016   -0.519655   -0.157082
  N     -1.010207   -1.409696   -0.229564
  C      2.279442   -2.157274   -0.185222
  C      1.718711   -3.372915   -0.313721
  H      0.910937    2.636290    0.319012
  H     -3.016146   -0.674487   -0.216545
  H      3.370432   -2.065462   -0.146237
  H      0.633183   -3.494732   -0.356139
  H      2.338508   -4.269172   -0.383764

 Multiplicity           Mult            ....    1
 Number of Electrons    NEL             ....   78
 Basis Dimension        Dim             ....  169

ORBITAL ENERGIES
----------------

  NO   OCC          E(Eh)            E(eV)
   0   2.0000     -88.887668     -2418.7564
   1   2.0000     -19.217417      -522.9325
   2   2.0000     -14.340110      -390.2142
   3   2.0000     -10.293029      -280.0876
   4   2.0000     -10.256598      -279.0962
   5   2.0000     -10.229269      -278.3526
   6   2.0000     -10.226033      -278.2645
   7   2.0000     -10.224094      -278.2118
   8   2.0000     -10.206643      -277.7369
   9   2.0000     -10.189463      -277.2694
  10   2.0000      -7.981953      -217.2000
  11   2.0000      -5.950183      -161.9127
  12   2.0000      -5.946131      -161.8025
  13   2.0000      -5.943118      -161.7205
  14   2.0000      -1.129015       -30.7221
  15   2.0000      -0.934314       -25.4240
  16   2.0000      -0.886243       -24.1159
  17   2.0000      -0.788713       -21.4620
  18   2.0000      -0.749338       -20.3905
  19   2.0000      -0.712230       -19.3808
  20   2.0000      -0.644898       -17.5486
  21   2.0000      -0.616229       -16.7684
  22   2.0000      -0.587122       -15.9764
  23   2.0000      -0.561596       -15.2818
  24   2.0000      -0.500363       -13.6156
  25   2.0000      -0.488492       -13.2925
  26   2.0000      -0.481859       -13.1120
  27   2.0000      -0.467306       -12.7161
  28   2.0000      -0.463174       -12.6036
  29   2.0000      -0.405782       -11.0419
  30   2.0000      -0.392427       -10.6785
  31   2.0000      -0.388336       -10.5672
  32   2.0000      -0.369267       -10.0483
  33   2.0000      -0.358047        -9.7430
  34   2.0000      -0.346494        -9.4286
  35   2.0000      -0.302452        -8.2301
  36   2.0000      -0.301372        -8.2008
  37   2.0000      -0.255663        -6.9569
  38   2.0000      -0.216006        -5.8778
  39   0.0000      -0.063764        -1.7351
  40   0.0000       0.006413         0.1745
  41   0.0000       0.018144         0.4937
  42   0.0000       0.031661         0.8615
  43   0.0000       0.076065         2.0698

MULLIKEN ATOMIC CHARGES
-----------------------
   0 C :   -0.203073
   1 S :    0.112501
   2 C :   -0.181728
   3 C :    0.037165
   4 C :    0.247879
   5 O :   -0.228239
   6 C :    0.191031
   7 N :   -0.097957
   8 C :    0.022678
   9 C :   -0.018670
  10 H :    0.035163
  11 H :    0.035653
  12 H :   -0.014838
  13 H :    0.040640
  14 H :    0.021795
Sum of atomic charges:   -0.0000000

LOEWDIN ATOMIC CHARGES
----------------------
   0 C :   -0.224230
   1 S :    0.450764
   2 C :   -0.183331
   3 C :   -0.064183
   4 C :   -0.004017
   5 O :   -0.034304
   6 C :    0.096852
   7 N :   -0.101384
   8 C :   -0.047264
   9 C :   -0.033620
  10 H :    0.032139
  11 H :    0.027728
  12 H :    0.027933
  13 H :    0.030733
  14 H :    0.026184

  Mayer bond orders larger than 0.100000
B(  0-C ,  1-S ) :   1.1304 B(  0-C ,  2-C ) :   0.1186 B(  0-C ,  4-C ) :   1.4646
B(  0-C , 10-H ) :   0.9855 B(  1-S ,  2-C ) :   1.1378 B(  2-C ,  3-C ) :   1.4194
B(  2-C ,  8-C ) :   1.1336 B(  3-C ,  4-C ) :   1.2517 B(  3-C ,  7-N ) :   1.2508
B(  4-C ,  5-O ) :   1.0806 B(  5-O ,  6-C ) :   1.1025 B(  6-C ,  7-N ) :   1.7664
B(  6-C , 11-H ) :   0.9788 B(  8-C ,  9-C ) :   1.9078 B(  8-C , 12-H ) :   0.9477
B(  9-C , 13-H ) :   0.9427 B(  9-C , 14-H ) :   0.9422

Dispersion correction           -0.030256494
FINAL SINGLE POINT ENERGY      -797.494784799989

DIPOLE MOMENT
-------------
                                X             Y             Z
Electronic contribution:     -1.00640       5.89717       0.56188
Nuclear contribution   :      0.95048      -5.53822      -0.51256
                        -----------------------------------------
Total Dipole Moment    :     -0.05592       0.35894       0.04932
                        -----------------------------------------
Magnitude (a.u.)       :      0.36661
Magnitude (Debye)      :      0.93184

Rotational constants in cm-1:     0.057844     0.041544     0.024180
Rotational constants in MHz :  1734.105429  1245.468930   724.888199

                             ****ORCA TERMINATED NORMALLY****
TOTAL RUN TIME: 0 days 0 hours 5 minutes 31 seconds 360 msec
