                         Program Version 4.2.0 -  RELEASE  -
|  1> # ORCA input file
|  2> # SCF done        -53.830483154515          0.000692445318
|  3> ! B3LYP/G D3BJ Opt RIJCOSX def2-SVP def2/J
|  4> * xyz 0 1
|  5>    C        1.78136        -1.27473        -1.12604
|  6>    S        2.67631         0.14327        -0.78676
|  7>    C        1.24342         0.97221        -0.23524
|  8>    C        0.14610         0.15063        -0.30245
|  9>    C        0.46205        -1.13551        -0.82154
| 10>    C       -0.57257        -2.19579        -1.08149
| 11>    C       -0.75200        -2.33326        -2.59385
| 12>    F        0.35663        -2.81100        -3.18639
| 13>    F       -1.73716        -3.18736        -2.91696
| 14>    F       -1.03676        -1.17946        -3.21330
| 15>    C       -1.90350        -1.88349        -0.38881
| 16>    C       -2.26578        -0.40430        -0.48185
| 17>    C       -1.22196         0.42674         0.26570
| 18>    O       -1.28557         0.03174         1.63234
| 19>    C       -0.60281         0.87131         2.52312
| 20>    C        1.40511         2.35449         0.16890
| 21>    C        0.53421         3.33778        -0.02336
| 22>    H        2.27814        -2.12806        -1.54304
| 23>    H       -0.20178        -3.17348        -0.75160
| 24>    H       -1.80865        -2.13692         0.66738
| 25>    H       -2.69531        -2.49650        -0.82190
| 26>    H       -3.23723        -0.24547        -0.01360
| 27>    H       -2.31715        -0.07039        -1.51795
| 28>    H       -1.46753         1.49452         0.19497
| 29>    H       -0.80832         0.48497         3.52000
| 30>    H       -0.96069         1.90546         2.44939
| 31>    H        0.47858         0.86277         2.34669
| 32>    H        2.36752         2.57808         0.61322
| 33>    H       -0.40988         3.18889        -0.51748
| 34>    H        0.75380         4.34194         0.29510
| 35> *
| 36>
| 37>                          ****END OF INPUT****
 Total Charge           Charge          ....    0
 Multiplicity           Mult            ....    1
 Number of Electrons    NEL             ....  136
Dispersion correction           -0.066564896
FINAL SINGLE POINT ENERGY     -1237.355625382651
Dispersion correction            ... done
Dispersion correction           -0.065739120
FINAL SINGLE POINT ENERGY     -1237.359057442442
Dispersion correction            ... done
Dispersion correction           -0.065786921
FINAL SINGLE POINT ENERGY     -1237.359278997887
Dispersion correction            ... done
FINAL SINGLE POINT ENERGY     -1237.359234051382
Dispersion correction            ... done
Dispersion correction           -0.065733470
FINAL SINGLE POINT ENERGY     -1237.359239255312
Dispersion correction            ... done
Dispersion correction           -0.065732516
FINAL SINGLE POINT ENERGY     -1237.359242478138
Dispersion correction            ... done
                    ***********************HURRAY********************

CARTESIAN COORDINATES (ANGSTROEM)
---------------------------------
  C      1.802704   -1.248897   -1.147461
  S      2.684964    0.195355   -0.828303
  C      1.251756    1.025487   -0.267104
  C      0.148023    0.186278   -0.318792
  C      0.469527   -1.116309   -0.841148
  C     -0.576874   -2.187107   -1.086595
  C     -0.746521   -2.449530   -2.582552
  F      0.379994   -2.924390   -3.145976
  F     -1.704500   -3.371001   -2.807913
  F     -1.088633   -1.339378   -3.260844
  C     -1.929417   -1.847878   -0.424917
  C     -2.277908   -0.360163   -0.506866
  C     -1.233950    0.463099    0.243192
  O     -1.333405    0.050984    1.603825
  C     -0.591166    0.786617    2.538707
  C      1.417086    2.417375    0.155365
  C      0.539021    3.420503    0.011392
  H      2.301983   -2.112395   -1.582072
  H     -0.215949   -3.147462   -0.684944
  H     -1.869619   -2.121685    0.637380
  H     -2.720036   -2.464777   -0.871735
  H     -3.259335   -0.181669   -0.042614
  H     -2.330787   -0.020581   -1.551920
  H     -1.472951    1.537607    0.174290
  H     -0.846447    0.390369    3.532759
  H     -0.840766    1.865495    2.507932
  H      0.500466    0.684984    2.387592
  H      2.387155    2.650501    0.611190
  H     -0.428055    3.287100   -0.477833
  H      0.782220    4.420546    0.379164

 Multiplicity           Mult            ....    1
 Number of Electrons    NEL             ....  136
 Basis Dimension        Dim             ....  307

ORBITAL ENERGIES
----------------

  NO   OCC          E(Eh)            E(eV)
   0   2.0000     -88.877985     -2418.4929
   1   2.0000     -24.716380      -672.5669
   2   2.0000     -24.716278      -672.5641
   3   2.0000     -24.715897      -672.5538
   4   2.0000     -19.136388      -520.7276
   5   2.0000     -10.426753      -283.7264
   6   2.0000     -10.245270      -278.7880
   7   2.0000     -10.230124      -278.3758
   8   2.0000     -10.224881      -278.2332
   9   2.0000     -10.222390      -278.1654
  10   2.0000     -10.216041      -277.9926
  11   2.0000     -10.212418      -277.8940
  12   2.0000     -10.206532      -277.7339
  13   2.0000     -10.200441      -277.5681
  14   2.0000     -10.198616      -277.5184
  15   2.0000     -10.194067      -277.3947
  16   2.0000     -10.188839      -277.2524
  17   2.0000      -7.973327      -216.9653
  18   2.0000      -5.941280      -161.6704
  19   2.0000      -5.937312      -161.5625
  20   2.0000      -5.934794      -161.4940
  21   2.0000      -1.294544       -35.2263
  22   2.0000      -1.202594       -32.7243
  23   2.0000      -1.201625       -32.6979
  24   2.0000      -1.028236       -27.9797
  25   2.0000      -0.892385       -24.2830
  26   2.0000      -0.833863       -22.6906
  27   2.0000      -0.793069       -21.5805
  28   2.0000      -0.773914       -21.0593
  29   2.0000      -0.738245       -20.0887
  30   2.0000      -0.708917       -19.2906
  31   2.0000      -0.696513       -18.9531
  32   2.0000      -0.663061       -18.0428
  33   2.0000      -0.630591       -17.1593
  34   2.0000      -0.616187       -16.7673
  35   2.0000      -0.592448       -16.1213
  36   2.0000      -0.591224       -16.0880
  37   2.0000      -0.583176       -15.8690
  38   2.0000      -0.576359       -15.6835
  39   2.0000      -0.537170       -14.6171
  40   2.0000      -0.521377       -14.1874
  41   2.0000      -0.497632       -13.5412
  42   2.0000      -0.489240       -13.3129
  43   2.0000      -0.471781       -12.8378
  44   2.0000      -0.470106       -12.7922
  45   2.0000      -0.464806       -12.6480
  46   2.0000      -0.463656       -12.6167
  47   2.0000      -0.453721       -12.3464
  48   2.0000      -0.445552       -12.1241
  49   2.0000      -0.433496       -11.7960
  50   2.0000      -0.422686       -11.5019
  51   2.0000      -0.418679       -11.3928
  52   2.0000      -0.413018       -11.2388
  53   2.0000      -0.407464       -11.0877
  54   2.0000      -0.406056       -11.0494
  55   2.0000      -0.403928       -10.9914
  56   2.0000      -0.392242       -10.6735
  57   2.0000      -0.379911       -10.3379
  58   2.0000      -0.370695       -10.0871
  59   2.0000      -0.359999        -9.7961
  60   2.0000      -0.347181        -9.4473
  61   2.0000      -0.344447        -9.3729
  62   2.0000      -0.332934        -9.0596
  63   2.0000      -0.313477        -8.5302
  64   2.0000      -0.302119        -8.2211
  65   2.0000      -0.266659        -7.2562
  66   2.0000      -0.253159        -6.8888
  67   2.0000      -0.228429        -6.2159
  68   0.0000      -0.050362        -1.3704
  69   0.0000       0.004200         0.1143
  70   0.0000       0.030527         0.8307
  71   0.0000       0.047231         1.2852
  72   0.0000       0.061677         1.6783

MULLIKEN ATOMIC CHARGES
-----------------------
   0 C :   -0.121559
   1 S :    0.110333
   2 C :   -0.171038
   3 C :   -0.005378
   4 C :   -0.020653
   5 C :   -0.052151
   6 C :    0.508846
   7 F :   -0.172669
   8 F :   -0.175644
   9 F :   -0.174441
  10 C :    0.052582
  11 C :    0.082462
  12 C :    0.223047
  13 O :   -0.388238
  14 C :    0.196497
  15 C :   -0.001382
  16 C :   -0.024256
  17 H :    0.021498
  18 H :    0.019756
  19 H :    0.017650
  20 H :    0.010175
  21 H :   -0.000586
  22 H :    0.006131
  23 H :   -0.029274
  24 H :    0.016302
  25 H :   -0.005514
  26 H :    0.015828
  27 H :    0.003730
  28 H :    0.032081
  29 H :    0.025865
Sum of atomic charges:   -0.0000000

LOEWDIN ATOMIC CHARGES
----------------------
   0 C :   -0.188006
   1 S :    0.438341
   2 C :   -0.179673
   3 C :   -0.069596
   4 C :   -0.060728
   5 C :   -0.055175
   6 C :    0.173607
   7 F :   -0.065643
   8 F :   -0.067650
   9 F :   -0.063711
  10 C :   -0.019706
  11 C :   -0.028237
  12 C :    0.078779
  13 O :   -0.166471
  14 C :    0.067043
  15 C :   -0.044899
  16 C :   -0.044784
  17 H :    0.024490
  18 H :    0.045234
  19 H :    0.030784
  20 H :    0.024922
  21 H :    0.027942
  22 H :    0.023053
  23 H :    0.009431
  24 H :    0.019375
  25 H :    0.003677
  26 H :    0.007224
  27 H :    0.030074
  28 H :    0.022531
  29 H :    0.027771

  Mayer bond orders larger than 0.100000
B(  0-C ,  1-S ) :   1.1600 B(  0-C ,  4-C ) :   1.5528 B(  0-C , 17-H ) :   0.9611
B(  1-S ,  2-C ) :   1.1329 B(  2-C ,  3-C ) :   1.5248 B(  2-C , 15-C ) :   1.0617
B(  3-C ,  4-C ) :   1.2922 B(  3-C , 12-C ) :   0.9917 B(  4-C ,  5-C ) :   0.9654
B(  5-C ,  6-C ) :   0.9840 B(  5-C , 10-C ) :   1.0604 B(  5-C , 18-H ) :   0.8809
B(  6-C ,  7-F ) :   1.1255 B(  6-C ,  8-F ) :   1.1229 B(  6-C ,  9-F ) :   1.1281
B( 10-C , 11-C ) :   1.0747 B( 10-C , 19-H ) :   0.9212 B( 10-C , 20-H ) :   0.9287
B( 11-C , 12-C ) :   1.0472 B( 11-C , 21-H ) :   0.9178 B( 11-C , 22-H ) :   0.9357
B( 12-C , 13-O ) :   1.0114 B( 12-C , 23-H ) :   0.9110 B( 13-O , 14-C ) :   0.9918
B( 14-C , 24-H ) :   0.9766 B( 14-C , 25-H ) :   0.9603 B( 14-C , 26-H ) :   0.9624
B( 15-C , 16-C ) :   1.9564 B( 15-C , 27-H ) :   0.9419 B( 16-C , 28-H ) :   0.9513
B( 16-C , 29-H ) :   0.9413

Dispersion correction           -0.065735720
FINAL SINGLE POINT ENERGY     -1237.359243386001

DIPOLE MOMENT
-------------
                                X             Y             Z
Electronic contribution:      5.19760     -16.24511     -20.50283
Nuclear contribution   :     -5.02255      16.72584      21.24062
                        -----------------------------------------
Total Dipole Moment    :      0.17504       0.48073       0.73779
                        -----------------------------------------
Magnitude (a.u.)       :      0.89782
Magnitude (Debye)      :      2.28208

Rotational constants in cm-1:     0.021508     0.011201     0.008759
Rotational constants in MHz :   644.797638   335.785243   262.586502

                             ****ORCA TERMINATED NORMALLY****
TOTAL RUN TIME: 0 days 0 hours 19 minutes 24 seconds 865 msec
