                         Program Version 4.2.0 -  RELEASE  -
|  1> # ORCA input file
|  2> # SCF done        -39.919118178006          0.000401822817
|  3> ! B3LYP/G D3BJ Opt RIJCOSX def2-SVP def2/J
|  4> * xyz 0 1
|  5>    C        1.28955         1.13374         0.38233
|  6>    S        2.47501        -0.04905         0.00291
|  7>    C        1.25700        -1.19787        -0.37666
|  8>    C        0.00660        -0.69119        -0.21721
|  9>    C        0.02564         0.66330         0.21904
| 10>    C       -1.22273         1.46690         0.44645
| 11>    H       -1.38715         2.12360        -0.43020
| 12>    O       -1.01743         2.27460         1.59031
| 13>    C       -1.95346         3.30739         1.75862
| 14>    C       -2.42424         0.52026         0.58107
| 15>    C       -2.44394        -0.48579        -0.56384
| 16>    C       -1.26279        -1.46047        -0.44841
| 17>    H       -1.43733        -2.12624         0.41936
| 18>    O       -1.08260        -2.25560        -1.60556
| 19>    C       -2.04611        -3.26042        -1.78666
| 20>    H        1.58826         2.10703         0.71350
| 21>    H        1.52873        -2.17935        -0.70706
| 22>    H       -1.57741         3.92844         2.56959
| 23>    H       -2.94459         2.92726         2.03025
| 24>    H       -2.04374         3.91364         0.84841
| 25>    H       -3.35118         1.09673         0.57803
| 26>    H       -2.34745        -0.00204         1.53766
| 27>    H       -2.36874         0.03569        -1.52117
| 28>    H       -3.38398        -1.04065        -0.54799
| 29>    H       -1.69427        -3.87246        -2.61508
| 30>    H       -3.02968        -2.84932        -2.03926
| 31>    H       -2.14275        -3.88425        -0.88921
| 32> *
| 33>
| 34>                          ****END OF INPUT****
 Total Charge           Charge          ....    0
 Multiplicity           Mult            ....    1
 Number of Electrons    NEL             ....  106
Dispersion correction           -0.052177252
FINAL SINGLE POINT ENERGY      -937.640910479290
Dispersion correction            ... done
Dispersion correction           -0.051911390
FINAL SINGLE POINT ENERGY      -937.643439813373
Dispersion correction            ... done
Dispersion correction           -0.051869304
FINAL SINGLE POINT ENERGY      -937.643606203760
Dispersion correction            ... done
FINAL SINGLE POINT ENERGY      -937.643569890398
Dispersion correction            ... done
Dispersion correction           -0.051882266
FINAL SINGLE POINT ENERGY      -937.643537302927
Dispersion correction            ... done
Dispersion correction           -0.051884934
FINAL SINGLE POINT ENERGY      -937.643589932800
Dispersion correction            ... done
                    ***********************HURRAY********************

CARTESIAN COORDINATES (ANGSTROEM)
---------------------------------
  C      1.301075    1.106800    0.498927
  S      2.487623   -0.048793    0.002349
  C      1.269581   -1.168429   -0.500214
  C      0.008024   -0.673683   -0.281406
  C      0.026591    0.649046    0.275333
  C     -1.231862    1.445534    0.502232
  H     -1.384278    2.104121   -0.381849
  O     -1.049856    2.263173    1.641254
  C     -1.929167    3.351381    1.741256
  C     -2.447145    0.510766    0.591112
  C     -2.462212   -0.466090   -0.592120
  C     -1.272592   -1.433915   -0.510103
  H     -1.440927   -2.092875    0.370579
  O     -1.117358   -2.250440   -1.654439
  C     -2.023480   -3.317101   -1.750344
  H      1.591093    2.064213    0.925588
  H      1.532925   -2.134118   -0.925661
  H     -1.572519    3.991498    2.561574
  H     -2.968555    3.044931    1.969663
  H     -1.946483    3.951810    0.808793
  H     -3.377079    1.099735    0.616208
  H     -2.389054   -0.041583    1.545474
  H     -2.392553    0.085380   -1.546186
  H     -3.407837   -1.029562   -0.614471
  H     -1.695239   -3.957794   -2.581957
  H     -3.058850   -2.984356   -1.959161
  H     -2.040646   -3.925769   -0.823213

 Multiplicity           Mult            ....    1
 Number of Electrons    NEL             ....  106
 Basis Dimension        Dim             ....  256

ORBITAL ENERGIES
----------------

  NO   OCC          E(Eh)            E(eV)
   0   2.0000     -88.865002     -2418.1397
   1   2.0000     -19.134897      -520.6870
   2   2.0000     -19.134854      -520.6859
   3   2.0000     -10.241479      -278.6848
   4   2.0000     -10.241448      -278.6840
   5   2.0000     -10.233774      -278.4752
   6   2.0000     -10.233726      -278.4739
   7   2.0000     -10.199474      -277.5418
   8   2.0000     -10.199400      -277.5398
   9   2.0000     -10.190363      -277.2939
  10   2.0000     -10.190283      -277.2917
  11   2.0000     -10.185300      -277.1561
  12   2.0000     -10.185085      -277.1503
  13   2.0000      -7.960221      -216.6086
  14   2.0000      -5.928232      -161.3154
  15   2.0000      -5.924158      -161.2045
  16   2.0000      -5.921738      -161.1387
  17   2.0000      -1.029020       -28.0011
  18   2.0000      -1.027983       -27.9728
  19   2.0000      -0.874226       -23.7889
  20   2.0000      -0.811938       -22.0940
  21   2.0000      -0.757107       -20.6019
  22   2.0000      -0.729490       -19.8504
  23   2.0000      -0.692154       -18.8345
  24   2.0000      -0.687602       -18.7106
  25   2.0000      -0.656162       -17.8551
  26   2.0000      -0.604022       -16.4363
  27   2.0000      -0.589375       -16.0377
  28   2.0000      -0.559133       -15.2148
  29   2.0000      -0.526642       -14.3307
  30   2.0000      -0.512860       -13.9556
  31   2.0000      -0.497317       -13.5327
  32   2.0000      -0.491590       -13.3768
  33   2.0000      -0.462929       -12.5969
  34   2.0000      -0.455173       -12.3859
  35   2.0000      -0.450121       -12.2484
  36   2.0000      -0.426317       -11.6007
  37   2.0000      -0.425953       -11.5908
  38   2.0000      -0.415971       -11.3191
  39   2.0000      -0.398788       -10.8516
  40   2.0000      -0.391221       -10.6457
  41   2.0000      -0.389441       -10.5972
  42   2.0000      -0.370548       -10.0831
  43   2.0000      -0.361193        -9.8286
  44   2.0000      -0.354998        -9.6600
  45   2.0000      -0.342073        -9.3083
  46   2.0000      -0.333259        -9.0685
  47   2.0000      -0.315866        -8.5951
  48   2.0000      -0.310148        -8.4396
  49   2.0000      -0.264128        -7.1873
  50   2.0000      -0.263913        -7.1814
  51   2.0000      -0.235413        -6.4059
  52   2.0000      -0.227563        -6.1923
  53   0.0000      -0.014249        -0.3877
  54   0.0000       0.037551         1.0218
  55   0.0000       0.055474         1.5095
  56   0.0000       0.062089         1.6895
  57   0.0000       0.062478         1.7001

MULLIKEN ATOMIC CHARGES
-----------------------
   0 C :   -0.126926
   1 S :    0.094705
   2 C :   -0.126536
   3 C :   -0.013955
   4 C :   -0.013538
   5 C :    0.229434
   6 H :   -0.011761
   7 O :   -0.375681
   8 C :    0.197853
   9 C :    0.025059
  10 C :    0.026228
  11 C :    0.230005
  12 H :   -0.012241
  13 O :   -0.375936
  14 C :    0.198121
  15 H :    0.013785
  16 H :    0.013527
  17 H :    0.023577
  18 H :   -0.001076
  19 H :   -0.004940
  20 H :   -0.007669
  21 H :    0.004496
  22 H :    0.004571
  23 H :   -0.008214
  24 H :    0.023516
  25 H :   -0.001633
  26 H :   -0.004770
Sum of atomic charges:   -0.0000000

LOEWDIN ATOMIC CHARGES
----------------------
   0 C :   -0.186809
   1 S :    0.428277
   2 C :   -0.186672
   3 C :   -0.074918
   4 C :   -0.074764
   5 C :    0.074157
   6 H :    0.010390
   7 O :   -0.162933
   8 C :    0.067772
   9 C :   -0.037507
  10 C :   -0.037290
  11 C :    0.074371
  12 H :    0.010378
  13 O :   -0.163277
  14 C :    0.067804
  15 H :    0.024265
  16 H :    0.024194
  17 H :    0.021519
  18 H :    0.001446
  19 H :    0.003614
  20 H :    0.020646
  21 H :    0.024118
  22 H :    0.024166
  23 H :    0.020538
  24 H :    0.021540
  25 H :    0.001350
  26 H :    0.003624

  Mayer bond orders larger than 0.100000
B(  0-C ,  1-S ) :   1.1630 B(  0-C ,  4-C ) :   1.5565 B(  0-C , 15-H ) :   0.9600
B(  1-S ,  2-C ) :   1.1632 B(  2-C ,  3-C ) :   1.5571 B(  2-C , 16-H ) :   0.9597
B(  3-C ,  4-C ) :   1.3077 B(  3-C , 11-C ) :   0.9655 B(  4-C ,  5-C ) :   0.9661
B(  5-C ,  6-H ) :   0.9017 B(  5-C ,  7-O ) :   1.0442 B(  5-C ,  9-C ) :   1.0635
B(  7-O ,  8-C ) :   0.9979 B(  8-C , 17-H ) :   0.9795 B(  8-C , 18-H ) :   0.9622
B(  8-C , 19-H ) :   0.9580 B(  9-C , 10-C ) :   1.0574 B(  9-C , 20-H ) :   0.9181
B(  9-C , 21-H ) :   0.9289 B( 10-C , 11-C ) :   1.0640 B( 10-C , 22-H ) :   0.9289
B( 10-C , 23-H ) :   0.9180 B( 11-C , 12-H ) :   0.9016 B( 11-C , 13-O ) :   1.0434
B( 13-O , 14-C ) :   0.9981 B( 14-C , 24-H ) :   0.9795 B( 14-C , 25-H ) :   0.9620
B( 14-C , 26-H ) :   0.9582

Dispersion correction           -0.051886944
FINAL SINGLE POINT ENERGY      -937.643583647141

DIPOLE MOMENT
-------------
                                X             Y             Z
Electronic contribution:     16.55663      -0.22986       0.00487
Nuclear contribution   :    -17.51227       0.24135      -0.00129
                        -----------------------------------------
Total Dipole Moment    :     -0.95565       0.01149       0.00358
                        -----------------------------------------
Magnitude (a.u.)       :      0.95572
Magnitude (Debye)      :      2.42925

Rotational constants in cm-1:     0.027645     0.020036     0.011925
Rotational constants in MHz :   828.771019   600.677483   357.500167

                             ****ORCA TERMINATED NORMALLY****
TOTAL RUN TIME: 0 days 0 hours 12 minutes 52 seconds 47 msec
