                         Program Version 4.2.0 -  RELEASE  -
|  1> # ORCA input file
|  2> # SCF done        -37.569031947158          0.000199577827
|  3> ! B3LYP/G D3BJ Opt RIJCOSX def2-SVP def2/J
|  4> * xyz 0 1
|  5>    C       -2.51477        -1.16464         0.03478
|  6>    C       -3.42272        -0.17233        -0.04997
|  7>    S       -2.72900         1.41481        -0.15914
|  8>    C       -1.13400         0.72916        -0.09321
|  9>    C       -1.16971        -0.68590         0.01404
| 10>    C        0.03989        -1.38150         0.08101
| 11>    C        0.08121        -2.87742         0.17071
| 12>    C        0.07048        -3.49722        -1.22865
| 13>    C        1.20674        -0.61644         0.01550
| 14>    C        1.08778         0.79435        -0.09116
| 15>    N       -0.04363         1.46418        -0.14264
| 16>    S        2.63958         1.57314        -0.15365
| 17>    C        3.42567         0.02966        -0.04475
| 18>    C        2.57784        -1.01465         0.03759
| 19>    H       -2.77941        -2.20423         0.10414
| 20>    H       -4.49162        -0.26207        -0.05762
| 21>    H       -0.78215        -3.23511         0.73374
| 22>    H        0.98230        -3.18973         0.70016
| 23>    H       -0.82883        -3.20515        -1.76639
| 24>    H        0.09851        -4.58215        -1.16033
| 25>    H        0.93403        -3.16171        -1.79876
| 26>    H        4.49801         0.00324        -0.05072
| 27>    H        2.90380        -2.03676         0.10573
| 28> *
| 29>
| 30>                          ****END OF INPUT****
 Total Charge           Charge          ....    0
 Multiplicity           Mult            ....    1
 Number of Electrons    NEL             ....  114
Dispersion correction           -0.057721232
FINAL SINGLE POINT ENERGY     -1275.221791439711
Dispersion correction            ... done
Dispersion correction           -0.057473768
FINAL SINGLE POINT ENERGY     -1275.225412178574
Dispersion correction            ... done
Dispersion correction           -0.057411052
FINAL SINGLE POINT ENERGY     -1275.225581539335
Dispersion correction            ... done
FINAL SINGLE POINT ENERGY     -1275.225603292307
FINAL SINGLE POINT ENERGY     -1275.225592380991
FINAL SINGLE POINT ENERGY     -1275.225575787117
FINAL SINGLE POINT ENERGY     -1275.225541146828
Dispersion correction            ... done
Dispersion correction           -0.057409282
FINAL SINGLE POINT ENERGY     -1275.225531026345
Dispersion correction            ... done
Dispersion correction           -0.057405124
FINAL SINGLE POINT ENERGY     -1275.225551365362
Dispersion correction            ... done
                    ***********************HURRAY********************

CARTESIAN COORDINATES (ANGSTROEM)
---------------------------------
  C     -2.571650   -1.130230    0.075395
  C     -3.482440   -0.120112    0.012907
  S     -2.770777    1.470406   -0.117658
  C     -1.154984    0.768067   -0.088823
  C     -1.208986   -0.659347    0.024121
  C      0.001823   -1.374700    0.072225
  C      0.041435   -2.879713    0.145716
  C      0.201718   -3.527338   -1.238339
  C      1.184679   -0.614734   -0.005436
  C      1.077638    0.808155   -0.115196
  N     -0.052339    1.497842   -0.159181
  S      2.667179    1.566455   -0.181701
  C      3.437043    0.002507   -0.072546
  C      2.563228   -1.039023    0.010760
  H     -2.857629   -2.179085    0.158719
  H     -4.567540   -0.219773    0.035734
  H     -0.874326   -3.253758    0.628045
  H      0.875407   -3.189016    0.796005
  H     -0.645100   -3.271251   -1.893638
  H      0.255198   -4.624606   -1.157930
  H      1.119655   -3.173703   -1.732079
  H      4.525148   -0.057510   -0.080621
  H      2.885619   -2.078003    0.083930

 Multiplicity           Mult            ....    1
 Number of Electrons    NEL             ....  114
 Basis Dimension        Dim             ....  249

ORBITAL ENERGIES
----------------

  NO   OCC          E(Eh)            E(eV)
   0   2.0000     -88.870444     -2418.2877
   1   2.0000     -88.870181     -2418.2806
   2   2.0000     -14.333093      -390.0233
   3   2.0000     -10.250032      -278.9175
   4   2.0000     -10.249925      -278.9146
   5   2.0000     -10.222469      -278.1675
   6   2.0000     -10.222106      -278.1576
   7   2.0000     -10.218263      -278.0531
   8   2.0000     -10.205959      -277.7183
   9   2.0000     -10.205394      -277.7029
  10   2.0000     -10.204564      -277.6803
  11   2.0000     -10.202094      -277.6131
  12   2.0000     -10.201905      -277.6080
  13   2.0000     -10.193675      -277.3840
  14   2.0000      -7.966092      -216.7684
  15   2.0000      -7.965849      -216.7618
  16   2.0000      -5.934387      -161.4829
  17   2.0000      -5.934154      -161.4765
  18   2.0000      -5.930531      -161.3780
  19   2.0000      -5.930285      -161.3712
  20   2.0000      -5.926601      -161.2710
  21   2.0000      -5.926347      -161.2641
  22   2.0000      -0.961480       -26.1632
  23   2.0000      -0.876193       -23.8424
  24   2.0000      -0.858330       -23.3564
  25   2.0000      -0.820859       -22.3367
  26   2.0000      -0.754190       -20.5226
  27   2.0000      -0.743744       -20.2383
  28   2.0000      -0.720041       -19.5933
  29   2.0000      -0.706510       -19.2251
  30   2.0000      -0.652084       -17.7441
  31   2.0000      -0.609834       -16.5944
  32   2.0000      -0.600325       -16.3357
  33   2.0000      -0.561021       -15.2662
  34   2.0000      -0.552232       -15.0270
  35   2.0000      -0.537548       -14.6274
  36   2.0000      -0.482303       -13.1241
  37   2.0000      -0.470027       -12.7901
  38   2.0000      -0.448203       -12.1962
  39   2.0000      -0.446285       -12.1440
  40   2.0000      -0.441228       -12.0064
  41   2.0000      -0.437049       -11.8927
  42   2.0000      -0.423768       -11.5313
  43   2.0000      -0.400051       -10.8859
  44   2.0000      -0.395180       -10.7534
  45   2.0000      -0.383389       -10.4326
  46   2.0000      -0.382168       -10.3993
  47   2.0000      -0.366651        -9.9771
  48   2.0000      -0.362944        -9.8762
  49   2.0000      -0.355648        -9.6777
  50   2.0000      -0.342594        -9.3224
  51   2.0000      -0.333078        -9.0635
  52   2.0000      -0.303497        -8.2586
  53   2.0000      -0.269998        -7.3470
  54   2.0000      -0.261024        -7.1028
  55   2.0000      -0.238292        -6.4843
  56   2.0000      -0.216844        -5.9006
  57   0.0000      -0.052611        -1.4316
  58   0.0000      -0.030989        -0.8433
  59   0.0000       0.014495         0.3944
  60   0.0000       0.031902         0.8681
  61   0.0000       0.039613         1.0779

MULLIKEN ATOMIC CHARGES
-----------------------
   0 C :    0.015127
   1 C :   -0.073646
   2 S :    0.104394
   3 C :   -0.141008
   4 C :    0.061134
   5 C :   -0.055797
   6 C :    0.064997
   7 C :    0.006921
   8 C :    0.056479
   9 C :   -0.140541
  10 N :   -0.049001
  11 S :    0.104845
  12 C :   -0.073632
  13 C :    0.016095
  14 H :   -0.015305
  15 H :    0.031448
  16 H :    0.000575
  17 H :    0.008570
  18 H :    0.019751
  19 H :    0.024237
  20 H :    0.016999
  21 H :    0.032018
  22 H :   -0.014658
Sum of atomic charges:    0.0000000

LOEWDIN ATOMIC CHARGES
----------------------
   0 C :   -0.068875
   1 C :   -0.164845
   2 S :    0.393800
   3 C :   -0.128770
   4 C :   -0.070108
   5 C :    0.010494
   6 C :   -0.025249
   7 C :   -0.048467
   8 C :   -0.070391
   9 C :   -0.129086
  10 N :   -0.105564
  11 S :    0.394348
  12 C :   -0.164551
  13 C :   -0.069279
  14 H :    0.028485
  15 H :    0.027278
  16 H :    0.026888
  17 H :    0.029584
  18 H :    0.026857
  19 H :    0.026540
  20 H :    0.024978
  21 H :    0.027370
  22 H :    0.028563

  Mayer bond orders larger than 0.100000
B(  0-C ,  1-C ) :   1.6147 B(  0-C ,  4-C ) :   1.1685 B(  0-C , 14-H ) :   0.9861
B(  1-C ,  2-S ) :   1.1177 B(  1-C , 15-H ) :   0.9631 B(  2-S ,  3-C ) :   1.0836
B(  3-C ,  4-C ) :   1.1802 B(  3-C , 10-N ) :   1.5384 B(  4-C ,  5-C ) :   1.3731
B(  5-C ,  6-C ) :   1.0889 B(  5-C ,  8-C ) :   1.3646 B(  6-C ,  7-C ) :   1.1060
B(  6-C , 16-H ) :   0.9163 B(  6-C , 17-H ) :   0.9129 B(  7-C , 18-H ) :   0.9655
B(  7-C , 19-H ) :   0.9653 B(  7-C , 20-H ) :   0.9680 B(  8-C ,  9-C ) :   1.1862
B(  8-C , 13-C ) :   1.1704 B(  9-C , 10-N ) :   1.5334 B(  9-C , 11-S ) :   1.0831
B( 11-S , 12-C ) :   1.1196 B( 12-C , 13-C ) :   1.6111 B( 12-C , 21-H ) :   0.9631
B( 13-C , 22-H ) :   0.9852

Dispersion correction           -0.057404372
FINAL SINGLE POINT ENERGY     -1275.225549197283

DIPOLE MOMENT
-------------
                                X             Y             Z
Electronic contribution:     -0.72714      18.60661       1.89774
Nuclear contribution   :      0.76121     -19.95278      -1.84223
                        -----------------------------------------
Total Dipole Moment    :      0.03407      -1.34618       0.05551
                        -----------------------------------------
Magnitude (a.u.)       :      1.34775
Magnitude (Debye)      :      3.42571

Rotational constants in cm-1:     0.028058     0.015745     0.010381
Rotational constants in MHz :   841.160063   472.027224   311.221707

                             ****ORCA TERMINATED NORMALLY****
TOTAL RUN TIME: 0 days 0 hours 17 minutes 5 seconds 555 msec
