                         Program Version 4.2.0 -  RELEASE  -
|  1> # ORCA input file
|  2> # SCF done        -27.491272783860          0.000288975399
|  3> ! B3LYP/G D3BJ Opt RIJCOSX def2-SVP def2/J
|  4> * xyz 0 1
|  5>    C        1.32055        -0.16329        -0.06188
|  6>    C        0.75601         1.10440        -0.10131
|  7>    C        1.66660         2.30010        -0.18076
|  8>    C        1.98051         2.64682        -1.63801
|  9>    C       -0.63921         1.22917        -0.07822
| 10>    C       -1.41822         0.07430        -0.01075
| 11>    C       -0.84144        -1.17953         0.02755
| 12>    C        0.53728        -1.30097         0.00055
| 13>    C       -1.29049         2.53996        -0.13507
| 14>    C       -2.42537         2.84393         0.47932
| 15>    H        2.39770        -0.25759        -0.07628
| 16>    H        2.60176         2.07213         0.33588
| 17>    H        1.21441         3.15966         0.31607
| 18>    H        2.46237         1.80427        -2.12922
| 19>    H        2.64570         3.50607        -1.69028
| 20>    H        1.06966         2.87952        -2.18518
| 21>    H       -2.49417         0.16757        -0.01212
| 22>    H       -1.46486        -2.06056         0.07326
| 23>    H        0.99985        -2.27670         0.02837
| 24>    H       -0.79278         3.29710        -0.72572
| 25>    H       -2.94708         2.13696         1.10270
| 26>    H       -2.86985         3.82122         0.39547
| 27> *
| 28>
| 29>                          ****END OF INPUT****
 Total Charge           Charge          ....    0
 Multiplicity           Mult            ....    1
 Number of Electrons    NEL             ....   72
Dispersion correction           -0.040348561
FINAL SINGLE POINT ENERGY      -388.035552486744
Dispersion correction            ... done
Dispersion correction           -0.039889373
FINAL SINGLE POINT ENERGY      -388.038670243447
Dispersion correction            ... done
Dispersion correction           -0.039815889
FINAL SINGLE POINT ENERGY      -388.038776377542
Dispersion correction            ... done
FINAL SINGLE POINT ENERGY      -388.038824256008
FINAL SINGLE POINT ENERGY      -388.038847686609
Dispersion correction            ... done
Dispersion correction           -0.039800170
FINAL SINGLE POINT ENERGY      -388.038859318477
Dispersion correction            ... done
Dispersion correction           -0.039801489
FINAL SINGLE POINT ENERGY      -388.038864642286
Dispersion correction            ... done
                    ***********************HURRAY********************

CARTESIAN COORDINATES (ANGSTROEM)
---------------------------------
  C      1.328976   -0.186826   -0.049011
  C      0.765383    1.095698   -0.105004
  C      1.684772    2.294552   -0.211304
  C      1.997822    2.684029   -1.663854
  C     -0.645467    1.221412   -0.072631
  C     -1.430187    0.054313   -0.001765
  C     -0.851951   -1.211563    0.044678
  C      0.539728   -1.334458    0.023625
  C     -1.294229    2.547150   -0.100088
  C     -2.469220    2.853621    0.468068
  H      2.418854   -0.282332   -0.054850
  H      2.626786    2.058544    0.309406
  H      1.252004    3.155409    0.320558
  H      2.456998    1.840836   -2.203766
  H      2.693742    3.537064   -1.711137
  H      1.082841    2.963846   -2.208966
  H     -2.518295    0.152041   -0.005684
  H     -1.485703   -2.100149    0.091353
  H      1.010785   -2.319605    0.064885
  H     -0.758051    3.341663   -0.627374
  H     -3.045096    2.120823    1.040295
  H     -2.891563    3.858471    0.386935

 Multiplicity           Mult            ....    1
 Number of Electrons    NEL             ....   72
 Basis Dimension        Dim             ....  200

ORBITAL ENERGIES
----------------

  NO   OCC          E(Eh)            E(eV)
   0   2.0000     -10.194845      -277.4158
   1   2.0000     -10.194236      -277.3993
   2   2.0000     -10.194119      -277.3961
   3   2.0000     -10.190073      -277.2860
   4   2.0000     -10.188996      -277.2567
   5   2.0000     -10.188138      -277.2333
   6   2.0000     -10.187696      -277.2213
   7   2.0000     -10.187150      -277.2064
   8   2.0000     -10.186789      -277.1966
   9   2.0000     -10.183953      -277.1195
  10   2.0000      -0.854484       -23.2517
  11   2.0000      -0.783447       -21.3187
  12   2.0000      -0.776960       -21.1422
  13   2.0000      -0.720598       -19.6085
  14   2.0000      -0.710540       -19.3348
  15   2.0000      -0.628130       -17.0923
  16   2.0000      -0.617474       -16.8023
  17   2.0000      -0.574545       -15.6342
  18   2.0000      -0.549700       -14.9581
  19   2.0000      -0.503948       -13.7131
  20   2.0000      -0.480846       -13.0845
  21   2.0000      -0.455743       -12.4014
  22   2.0000      -0.442102       -12.0302
  23   2.0000      -0.429420       -11.6851
  24   2.0000      -0.421178       -11.4608
  25   2.0000      -0.416676       -11.3383
  26   2.0000      -0.400102       -10.8873
  27   2.0000      -0.380082       -10.3426
  28   2.0000      -0.366060        -9.9610
  29   2.0000      -0.356540        -9.7019
  30   2.0000      -0.353486        -9.6188
  31   2.0000      -0.334635        -9.1059
  32   2.0000      -0.328463        -8.9379
  33   2.0000      -0.296120        -8.0578
  34   2.0000      -0.248533        -6.7629
  35   2.0000      -0.229982        -6.2581
  36   0.0000      -0.036283        -0.9873
  37   0.0000      -0.008003        -0.2178
  38   0.0000       0.039354         1.0709
  39   0.0000       0.061059         1.6615
  40   0.0000       0.070398         1.9156

MULLIKEN ATOMIC CHARGES
-----------------------
   0 C :   -0.033395
   1 C :   -0.056753
   2 C :    0.066815
   3 C :    0.009840
   4 C :    0.072062
   5 C :   -0.040173
   6 C :    0.031390
   7 C :    0.032016
   8 C :   -0.033550
   9 C :   -0.027719
  10 H :   -0.028122
  11 H :   -0.004320
  12 H :    0.004335
  13 H :    0.009932
  14 H :    0.017149
  15 H :    0.012781
  16 H :   -0.024561
  17 H :   -0.021171
  18 H :   -0.023513
  19 H :   -0.003468
  20 H :    0.020499
  21 H :    0.019926
Sum of atomic charges:   -0.0000000

LOEWDIN ATOMIC CHARGES
----------------------
   0 C :   -0.029485
   1 C :   -0.013224
   2 C :   -0.028568
   3 C :   -0.051411
   4 C :   -0.030047
   5 C :   -0.016414
   6 C :   -0.029981
   7 C :   -0.024721
   8 C :   -0.021541
   9 C :   -0.047102
  10 H :    0.023689
  11 H :    0.026250
  12 H :    0.024653
  13 H :    0.023645
  14 H :    0.023680
  15 H :    0.021535
  16 H :    0.025479
  17 H :    0.025956
  18 H :    0.025279
  19 H :    0.026397
  20 H :    0.021409
  21 H :    0.024521

  Mayer bond orders larger than 0.100000
B(  0-C ,  1-C ) :   1.3921 B(  0-C ,  7-C ) :   1.3759 B(  0-C , 10-H ) :   0.9837
B(  1-C ,  2-C ) :   1.0641 B(  1-C ,  4-C ) :   1.3722 B(  2-C ,  3-C ) :   1.1036
B(  2-C , 11-H ) :   0.9240 B(  2-C , 12-H ) :   0.9177 B(  3-C , 13-H ) :   0.9643
B(  3-C , 14-H ) :   0.9647 B(  3-C , 15-H ) :   0.9679 B(  4-C ,  5-C ) :   1.3588
B(  4-C ,  8-C ) :   1.0473 B(  5-C ,  6-C ) :   1.3825 B(  5-C , 16-H ) :   0.9851
B(  6-C ,  7-C ) :   1.3596 B(  6-C , 17-H ) :   0.9849 B(  7-C , 18-H ) :   0.9871
B(  8-C ,  9-C ) :   1.9576 B(  8-C , 19-H ) :   0.9457 B(  9-C , 20-H ) :   0.9512
B(  9-C , 21-H ) :   0.9451

Dispersion correction           -0.039800570
FINAL SINGLE POINT ENERGY      -388.038869666758

DIPOLE MOMENT
-------------
                                X             Y             Z
Electronic contribution:     -2.68240      -5.28951       2.17865
Nuclear contribution   :      2.80637       5.37408      -2.21404
                        -----------------------------------------
Total Dipole Moment    :      0.12397       0.08457      -0.03539
                        -----------------------------------------
Magnitude (a.u.)       :      0.15418
Magnitude (Debye)      :      0.39190

Rotational constants in cm-1:     0.049137     0.046800     0.025609
Rotational constants in MHz :  1473.087455  1403.015696   767.727166

                             ****ORCA TERMINATED NORMALLY****
TOTAL RUN TIME: 0 days 0 hours 9 minutes 5 seconds 152 msec
