                         Program Version 4.2.0 -  RELEASE  -
|  1> # ORCA input file
|  2> # SCF done        -51.583711371978          0.000674180824
|  3> ! B3LYP/G D3BJ Opt RIJCOSX def2-SVP def2/J
|  4> * xyz 0 1
|  5>    C        1.20514         0.27035        -0.22162
|  6>    C        0.87332        -1.02825        -0.02588
|  7>    N        1.75360        -2.14065        -0.11376
|  8>    O        1.28240        -3.24244         0.07779
|  9>    O        2.91696        -1.91120        -0.37566
| 10>    C       -0.54327        -1.13082         0.31259
| 11>    C       -1.06789         0.10707         0.28213
| 12>    C       -0.01277         1.05543        -0.06277
| 13>    C       -0.06926         2.41440        -0.17555
| 14>    C        1.08716         3.28709        -0.15127
| 15>    C        0.66875         4.55114         0.05736
| 16>    C       -0.78513         4.56082         0.08107
| 17>    N       -1.52384         5.75786         0.22261
| 18>    O       -2.73963         5.69647         0.19460
| 19>    O       -0.88883         6.78363         0.37479
| 20>    C       -1.26450         3.28810        -0.11016
| 21>    C       -2.63260         2.90165        -0.31810
| 22>    C       -3.01967         1.94455        -1.16353
| 23>    H        2.17004         0.64606        -0.49838
| 24>    H       -1.02874        -2.05807         0.54820
| 25>    H       -2.07416         0.38437         0.52388
| 26>    H        2.10320         2.94971        -0.19617
| 27>    H        1.26183         5.43733         0.18123
| 28>    H       -3.37136         3.51471         0.18251
| 29>    H       -2.31708         1.38459        -1.75879
| 30>    H       -4.06218         1.72161        -1.30970
| 31> *
| 32>
| 33>                          ****END OF INPUT****
 Total Charge           Charge          ....    0
 Multiplicity           Mult            ....    1
 Number of Electrons    NEL             ....  126
Dispersion correction           -0.057564793
FINAL SINGLE POINT ENERGY      -871.602064282128
Dispersion correction            ... done
Dispersion correction           -0.056941715
FINAL SINGLE POINT ENERGY      -871.606353546149
Dispersion correction            ... done
Dispersion correction           -0.057333254
FINAL SINGLE POINT ENERGY      -871.605557935378
Dispersion correction            ... done
FINAL SINGLE POINT ENERGY      -871.606906564122
FINAL SINGLE POINT ENERGY      -871.606213269810
FINAL SINGLE POINT ENERGY      -871.606989084581
Dispersion correction            ... done
Dispersion correction           -0.057110325
FINAL SINGLE POINT ENERGY      -871.606969901551
Dispersion correction            ... done
Dispersion correction           -0.057111093
FINAL SINGLE POINT ENERGY      -871.606993420023
Dispersion correction            ... done
                    ***********************HURRAY********************

CARTESIAN COORDINATES (ANGSTROEM)
---------------------------------
  C      1.215862    0.267051   -0.211404
  C      0.882897   -1.031454   -0.010943
  N      1.801815   -2.147278   -0.119179
  O      1.346187   -3.260370    0.105950
  O      2.956817   -1.898922   -0.428547
  C     -0.539540   -1.166352    0.327911
  C     -1.087697    0.073716    0.292509
  C     -0.027460    1.042450   -0.054961
  C     -0.083628    2.408839   -0.172529
  C      1.097311    3.276061   -0.155821
  C      0.686119    4.552664    0.050449
  C     -0.775968    4.560710    0.094775
  N     -1.518826    5.792571    0.241053
  O     -2.742622    5.745959    0.244968
  O     -0.860893    6.818114    0.363617
  C     -1.288042    3.297383   -0.103530
  C     -2.672863    2.925824   -0.341285
  C     -3.063609    1.961861   -1.196079
  H      2.194911    0.641752   -0.492354
  H     -1.017252   -2.108614    0.584332
  H     -2.108574    0.339729    0.543029
  H      2.125064    2.923412   -0.189852
  H      1.294172    5.445114    0.176194
  H     -3.417888    3.555736    0.146525
  H     -2.350489    1.371518   -1.774919
  H     -4.124311    1.758036   -1.362488

 Multiplicity           Mult            ....    1
 Number of Electrons    NEL             ....  126
 Basis Dimension        Dim             ....  292

ORBITAL ENERGIES
----------------

  NO   OCC          E(Eh)            E(eV)
   0   2.0000     -19.174556      -521.7662
   1   2.0000     -19.172676      -521.7150
   2   2.0000     -19.171671      -521.6877
   3   2.0000     -19.170681      -521.6608
   4   2.0000     -14.573161      -396.5559
   5   2.0000     -14.572106      -396.5272
   6   2.0000     -10.268798      -279.4282
   7   2.0000     -10.267545      -279.3941
   8   2.0000     -10.266579      -279.3678
   9   2.0000     -10.263660      -279.2884
  10   2.0000     -10.256103      -279.0827
  11   2.0000     -10.240091      -278.6470
  12   2.0000     -10.236772      -278.5567
  13   2.0000     -10.233559      -278.4693
  14   2.0000     -10.230594      -278.3886
  15   2.0000     -10.227636      -278.3081
  16   2.0000     -10.226963      -278.2898
  17   2.0000     -10.225903      -278.2610
  18   2.0000      -1.233814       -33.5738
  19   2.0000      -1.231766       -33.5181
  20   2.0000      -1.060250       -28.8509
  21   2.0000      -1.056669       -28.7534
  22   2.0000      -0.931099       -25.3365
  23   2.0000      -0.911098       -24.7922
  24   2.0000      -0.825242       -22.4560
  25   2.0000      -0.816636       -22.2218
  26   2.0000      -0.794521       -21.6200
  27   2.0000      -0.761159       -20.7122
  28   2.0000      -0.733731       -19.9658
  29   2.0000      -0.707813       -19.2606
  30   2.0000      -0.653267       -17.7763
  31   2.0000      -0.627312       -17.0700
  32   2.0000      -0.603775       -16.4296
  33   2.0000      -0.579253       -15.7623
  34   2.0000      -0.574505       -15.6331
  35   2.0000      -0.561578       -15.2813
  36   2.0000      -0.554221       -15.0811
  37   2.0000      -0.552835       -15.0434
  38   2.0000      -0.545649       -14.8479
  39   2.0000      -0.541206       -14.7270
  40   2.0000      -0.517478       -14.0813
  41   2.0000      -0.511153       -13.9092
  42   2.0000      -0.492362       -13.3978
  43   2.0000      -0.473110       -12.8740
  44   2.0000      -0.471237       -12.8230
  45   2.0000      -0.462339       -12.5809
  46   2.0000      -0.441734       -12.0202
  47   2.0000      -0.437740       -11.9115
  48   2.0000      -0.433340       -11.7918
  49   2.0000      -0.422912       -11.5080
  50   2.0000      -0.407041       -11.0762
  51   2.0000      -0.403405       -10.9772
  52   2.0000      -0.383619       -10.4388
  53   2.0000      -0.331949        -9.0328
  54   2.0000      -0.323559        -8.8045
  55   2.0000      -0.322158        -8.7664
  56   2.0000      -0.320899        -8.7321
  57   2.0000      -0.316521        -8.6130
  58   2.0000      -0.305949        -8.3253
  59   2.0000      -0.303239        -8.2515
  60   2.0000      -0.299395        -8.1470
  61   2.0000      -0.274989        -7.4828
  62   2.0000      -0.255725        -6.9586
  63   0.0000      -0.164932        -4.4880
  64   0.0000      -0.097779        -2.6607
  65   0.0000      -0.081180        -2.2090
  66   0.0000      -0.044876        -1.2211
  67   0.0000       0.002334         0.0635

MULLIKEN ATOMIC CHARGES
-----------------------
   0 C :   -0.051669
   1 C :    0.175935
   2 N :    0.244092
   3 O :   -0.239467
   4 O :   -0.241040
   5 C :    0.011833
   6 C :    0.014051
   7 C :    0.028023
   8 C :    0.023838
   9 C :    0.010274
  10 C :    0.037331
  11 C :    0.102538
  12 N :    0.244857
  13 O :   -0.248172
  14 O :   -0.244215
  15 C :    0.010222
  16 C :   -0.027696
  17 C :   -0.009433
  18 H :    0.010633
  19 H :    0.006236
  20 H :    0.004767
  21 H :   -0.002047
  22 H :    0.012606
  23 H :    0.036618
  24 H :    0.046592
  25 H :    0.043292
Sum of atomic charges:   -0.0000000

LOEWDIN ATOMIC CHARGES
----------------------
   0 C :    0.005619
   1 C :   -0.013215
   2 N :    0.272615
   3 O :   -0.202356
   4 O :   -0.204929
   5 C :    0.000800
   6 C :   -0.027833
   7 C :    0.031817
   8 C :    0.046324
   9 C :   -0.033215
  10 C :    0.016200
  11 C :   -0.025461
  12 N :    0.273968
  13 O :   -0.207884
  14 O :   -0.206170
  15 C :    0.007627
  16 C :   -0.022762
  17 C :   -0.003415
  18 H :    0.040246
  19 H :    0.039978
  20 H :    0.032343
  21 H :    0.032784
  22 H :    0.041732
  23 H :    0.042006
  24 H :    0.028233
  25 H :    0.034944

  Mayer bond orders larger than 0.100000
B(  0-C ,  1-C ) :   1.6102 B(  0-C ,  7-C ) :   1.0217 B(  0-C , 18-H ) :   1.0065
B(  1-C ,  2-N ) :   0.8851 B(  1-C ,  5-C ) :   1.0862 B(  2-N ,  3-O ) :   1.5212
B(  2-N ,  4-O ) :   1.5321 B(  3-O ,  4-O ) :   0.2926 B(  5-C ,  6-C ) :   1.6118
B(  5-C , 19-H ) :   1.0079 B(  6-C ,  7-C ) :   1.0828 B(  6-C , 20-H ) :   0.9922
B(  7-C ,  8-C ) :   1.5254 B(  8-C ,  9-C ) :   1.1004 B(  8-C , 15-C ) :   1.0061
B(  9-C , 10-C ) :   1.5745 B(  9-C , 21-H ) :   1.0017 B( 10-C , 11-C ) :   1.1036
B( 10-C , 22-H ) :   1.0053 B( 11-C , 12-N ) :   0.9104 B( 11-C , 15-C ) :   1.5582
B( 12-N , 13-O ) :   1.4913 B( 12-N , 14-O ) :   1.5172 B( 13-O , 14-O ) :   0.2788
B( 15-C , 16-C ) :   1.1411 B( 16-C , 17-C ) :   1.8510 B( 16-C , 23-H ) :   0.9363
B( 17-C , 24-H ) :   0.9534 B( 17-C , 25-H ) :   0.9474

Dispersion correction           -0.057107217
FINAL SINGLE POINT ENERGY      -871.606995455333

DIPOLE MOMENT
-------------
                                X             Y             Z
Electronic contribution:      4.57941       0.62524       1.61609
Nuclear contribution   :     -5.06566      -0.75921      -1.78716
                        -----------------------------------------
Total Dipole Moment    :     -0.48625      -0.13397      -0.17107
                        -----------------------------------------
Magnitude (a.u.)       :      0.53259
Magnitude (Debye)      :      1.35373

Rotational constants in cm-1:     0.038966     0.006418     0.005626
Rotational constants in MHz :  1168.163135   192.403223   168.674662

                             ****ORCA TERMINATED NORMALLY****
TOTAL RUN TIME: 0 days 0 hours 25 minutes 29 seconds 172 msec
