                         Program Version 4.2.0 -  RELEASE  -
|  1> # ORCA input file
|  2> # SCF done        -28.374908806630          0.000175336274
|  3> ! B3LYP/G D3BJ Opt RIJCOSX def2-SVP def2/J
|  4> * xyz 0 1
|  5>    C       -1.28423        -1.24148         0.00563
|  6>    S       -2.46784         0.00975         0.00877
|  7>    C       -1.26919         1.24640         0.00533
|  8>    C       -0.01981         0.70881         0.00130
|  9>    C       -0.02845        -0.71909         0.00148
| 10>    C        1.34404        -1.24222        -0.00252
| 11>    O        1.70062        -2.39157         0.00069
| 12>    C        2.25423        -0.01884        -0.01161
| 13>    C        1.35883         1.21540        -0.00285
| 14>    O        1.72918         2.36040         0.00009
| 15>    H       -1.58754        -2.26942         0.00673
| 16>    H       -1.55962         2.27806         0.00615
| 17>    H        2.89753        -0.02282        -0.89453
| 18>    H        2.91904        -0.02273         0.85501
| 19> *
| 20>
| 21>                          ****END OF INPUT****
 Total Charge           Charge          ....    0
 Multiplicity           Mult            ....    1
 Number of Electrons    NEL             ....   78
Dispersion correction           -0.030181319
FINAL SINGLE POINT ENERGY      -817.382474425358
Dispersion correction            ... done
Dispersion correction           -0.030097248
FINAL SINGLE POINT ENERGY      -817.384278018134
Dispersion correction            ... done
Dispersion correction           -0.030083159
FINAL SINGLE POINT ENERGY      -817.384356894023
Dispersion correction            ... done
Dispersion correction           -0.030079590
FINAL SINGLE POINT ENERGY      -817.384372578591
Dispersion correction            ... done
Dispersion correction           -0.030078874
FINAL SINGLE POINT ENERGY      -817.384379850815
Dispersion correction            ... done
                    ***********************HURRAY********************

CARTESIAN COORDINATES (ANGSTROEM)
---------------------------------
  C     -1.302020   -1.256246    0.006515
  S     -2.483250    0.010050    0.011972
  C     -1.286510    1.261555    0.006238
  C     -0.028951    0.709905    0.000904
  C     -0.037588   -0.720374    0.001084
  C      1.353691   -1.250082   -0.004608
  O      1.702401   -2.406798   -0.005598
  C      2.277122   -0.018968   -0.010145
  C      1.368351    1.222905   -0.004951
  O      1.730297    2.375471   -0.006239
  H     -1.605432   -2.302028    0.007600
  H     -1.576839    2.311076    0.007046
  H      2.931210   -0.022987   -0.898212
  H      2.944308   -0.022829    0.868063

 Multiplicity           Mult            ....    1
 Number of Electrons    NEL             ....   78
 Basis Dimension        Dim             ....  164

ORBITAL ENERGIES
----------------

  NO   OCC          E(Eh)            E(eV)
   0   2.0000     -88.913501     -2419.4594
   1   2.0000     -19.138280      -520.7791
   2   2.0000     -19.138215      -520.7773
   3   2.0000     -10.292640      -280.0770
   4   2.0000     -10.292540      -280.0743
   5   2.0000     -10.249386      -278.9000
   6   2.0000     -10.249337      -278.8986
   7   2.0000     -10.218483      -278.0590
   8   2.0000     -10.218267      -278.0532
   9   2.0000     -10.210085      -277.8305
  10   2.0000      -8.008131      -217.9123
  11   2.0000      -5.976015      -162.6156
  12   2.0000      -5.971611      -162.4958
  13   2.0000      -5.970305      -162.4602
  14   2.0000      -1.046540       -28.4778
  15   2.0000      -1.042709       -28.3736
  16   2.0000      -0.917165       -24.9573
  17   2.0000      -0.829053       -22.5597
  18   2.0000      -0.754102       -20.5202
  19   2.0000      -0.737604       -20.0712
  20   2.0000      -0.633906       -17.2495
  21   2.0000      -0.621140       -16.9021
  22   2.0000      -0.575332       -15.6556
  23   2.0000      -0.538279       -14.6473
  24   2.0000      -0.483499       -13.1567
  25   2.0000      -0.474322       -12.9070
  26   2.0000      -0.471131       -12.8201
  27   2.0000      -0.448116       -12.1939
  28   2.0000      -0.436674       -11.8825
  29   2.0000      -0.432755       -11.7759
  30   2.0000      -0.415630       -11.3099
  31   2.0000      -0.411651       -11.2016
  32   2.0000      -0.405056       -11.0221
  33   2.0000      -0.382886       -10.4189
  34   2.0000      -0.364847        -9.9280
  35   2.0000      -0.289414        -7.8754
  36   2.0000      -0.279388        -7.6025
  37   2.0000      -0.274716        -7.4754
  38   2.0000      -0.255949        -6.9647
  39   0.0000      -0.083422        -2.2700
  40   0.0000      -0.069135        -1.8813
  41   0.0000       0.013458         0.3662
  42   0.0000       0.019970         0.5434
  43   0.0000       0.064830         1.7641

MULLIKEN ATOMIC CHARGES
-----------------------
   0 C :   -0.122554
   1 S :    0.146549
   2 C :   -0.122930
   3 C :    0.021023
   4 C :    0.021274
   5 C :    0.064489
   6 O :   -0.154619
   7 C :    0.012599
   8 C :    0.064704
   9 O :   -0.154596
  10 H :    0.045634
  11 H :    0.045869
  12 H :    0.066185
  13 H :    0.066373
Sum of atomic charges:   -0.0000000

LOEWDIN ATOMIC CHARGES
----------------------
   0 C :   -0.150374
   1 S :    0.487859
   2 C :   -0.150529
   3 C :   -0.098706
   4 C :   -0.098694
   5 C :    0.077217
   6 O :   -0.133946
   7 C :   -0.074517
   8 C :    0.077149
   9 O :   -0.133930
  10 H :    0.038428
  11 H :    0.038506
  12 H :    0.060826
  13 H :    0.060712

  Mayer bond orders larger than 0.100000
B(  0-C ,  1-S ) :   1.1962 B(  0-C ,  4-C ) :   1.4990 B(  0-C , 10-H ) :   0.9690
B(  1-S ,  2-C ) :   1.1962 B(  2-C ,  3-C ) :   1.4990 B(  2-C , 11-H ) :   0.9689
B(  3-C ,  4-C ) :   1.2181 B(  3-C ,  8-C ) :   0.9361 B(  4-C ,  5-C ) :   0.9358
B(  5-C ,  6-O ) :   2.2291 B(  5-C ,  7-C ) :   0.9664 B(  7-C ,  8-C ) :   0.9663
B(  7-C , 12-H ) :   0.9012 B(  7-C , 13-H ) :   0.9015 B(  8-C ,  9-O ) :   2.2290

Dispersion correction           -0.030080081
FINAL SINGLE POINT ENERGY      -817.384380602023

DIPOLE MOMENT
-------------
                                X             Y             Z
Electronic contribution:     -3.58448       0.02113       0.02114
Nuclear contribution   :      2.49705      -0.01472      -0.01801
                        -----------------------------------------
Total Dipole Moment    :     -1.08743       0.00641       0.00313
                        -----------------------------------------
Magnitude (a.u.)       :      1.08745
Magnitude (Debye)      :      2.76409

Rotational constants in cm-1:     0.059707     0.036421     0.022718
Rotational constants in MHz :  1789.961610  1091.872125   681.056740

                             ****ORCA TERMINATED NORMALLY****
TOTAL RUN TIME: 0 days 0 hours 4 minutes 18 seconds 6 msec
