                         Program Version 4.2.0 -  RELEASE  -
|  1> # ORCA input file
|  2> # SCF done        -37.125728592855          0.000507544321
|  3> ! B3LYP/G D3BJ Opt RIJCOSX def2-SVP def2/J
|  4> * xyz 0 1
|  5>    N        2.37070         1.32301         0.20483
|  6>    C        1.23243         0.80144        -0.53982
|  7>    C       -0.07772         1.28477         0.06119
|  8>    C       -1.27702         0.66241        -0.65328
|  9>    N       -2.48404         1.06059         0.05308
| 10>    S       -2.83954        -0.21328         1.15139
| 11>    N       -2.34030        -1.44252         0.05971
| 12>    C       -1.19296        -0.91209        -0.65984
| 13>    C        0.07897        -1.41171         0.02441
| 14>    C        1.31832        -0.75980        -0.58014
| 15>    N        2.48636        -1.10698         0.21734
| 16>    S        3.62693         0.19925         0.00334
| 17>    H        2.14556         1.41109         1.19282
| 18>    H        1.32926         1.18056        -1.56500
| 19>    H       -0.14157         2.37045        -0.01885
| 20>    H       -0.13050         1.02594         1.11984
| 21>    H       -1.31971         1.03957        -1.68023
| 22>    H       -3.26749         1.22654        -0.57166
| 23>    H       -3.10219        -1.70721        -0.55748
| 24>    H       -1.21364        -1.28119        -1.69085
| 25>    H        0.13600        -2.49521        -0.08793
| 26>    H        0.02678        -1.19710         1.09141
| 27>    H        1.41833        -1.07998        -1.62988
| 28>    H        2.90291        -1.99294        -0.03927
| 29> *
| 30>
| 31>                          ****END OF INPUT****
 Total Charge           Charge          ....    0
 Multiplicity           Mult            ....    1
 Number of Electrons    NEL             ....  108
Dispersion correction           -0.055982437
FINAL SINGLE POINT ENERGY     -1250.666948653795
Dispersion correction            ... done
Dispersion correction           -0.055369223
FINAL SINGLE POINT ENERGY     -1250.670097965730
Dispersion correction            ... done
Dispersion correction           -0.055264860
FINAL SINGLE POINT ENERGY     -1250.670602880554
Dispersion correction            ... done
FINAL SINGLE POINT ENERGY     -1250.670744120810
FINAL SINGLE POINT ENERGY     -1250.670767036835
FINAL SINGLE POINT ENERGY     -1250.670759119213
FINAL SINGLE POINT ENERGY     -1250.670736056995
FINAL SINGLE POINT ENERGY     -1250.670707167970
Dispersion correction            ... done
Dispersion correction           -0.055334558
FINAL SINGLE POINT ENERGY     -1250.670682793552
Dispersion correction            ... done
Dispersion correction           -0.055331505
FINAL SINGLE POINT ENERGY     -1250.670665854474
Dispersion correction            ... done
                    ***********************HURRAY********************

CARTESIAN COORDINATES (ANGSTROEM)
---------------------------------
  N      2.409389    1.360172    0.122820
  C      1.233369    0.797092   -0.559445
  C     -0.060131    1.304571    0.062218
  C     -1.287643    0.676959   -0.601008
  N     -2.513561    1.045441    0.125623
  S     -2.875853   -0.299699    1.159699
  N     -2.387495   -1.480514   -0.012713
  C     -1.193167   -0.915819   -0.659664
  C      0.073301   -1.435866    0.019970
  C      1.332131   -0.777931   -0.538113
  N      2.491854   -1.088598    0.305940
  S      3.666861    0.214419   -0.040086
  H      2.204220    1.463977    1.119679
  H      1.277892    1.120716   -1.612067
  H     -0.118521    2.399271   -0.031892
  H     -0.081881    1.064718    1.138438
  H     -1.374211    1.072542   -1.625306
  H     -3.286429    1.188000   -0.526005
  H     -3.139365   -1.602991   -0.693426
  H     -1.197841   -1.242309   -1.712063
  H      0.118060   -2.528129   -0.112717
  H      0.013627   -1.243882    1.101526
  H      1.482977   -1.113543   -1.583801
  H      2.898288   -1.992985    0.057524

 Multiplicity           Mult            ....    1
 Number of Electrons    NEL             ....  108
 Basis Dimension        Dim             ....  236

ORBITAL ENERGIES
----------------

  NO   OCC          E(Eh)            E(eV)
   0   2.0000     -88.876057     -2418.4405
   1   2.0000     -88.867012     -2418.1943
   2   2.0000     -14.342609      -390.2822
   3   2.0000     -14.342188      -390.2708
   4   2.0000     -14.337698      -390.1486
   5   2.0000     -14.330817      -389.9613
   6   2.0000     -10.231515      -278.4137
   7   2.0000     -10.230402      -278.3834
   8   2.0000     -10.223038      -278.1830
   9   2.0000     -10.219598      -278.0894
  10   2.0000     -10.190738      -277.3041
  11   2.0000     -10.184791      -277.1422
  12   2.0000      -7.967424      -216.8046
  13   2.0000      -7.958616      -216.5650
  14   2.0000      -5.939296      -161.6165
  15   2.0000      -5.933169      -161.4497
  16   2.0000      -5.930092      -161.3660
  17   2.0000      -5.924981      -161.2269
  18   2.0000      -5.923544      -161.1878
  19   2.0000      -5.914548      -160.9430
  20   2.0000      -0.961903       -26.1747
  21   2.0000      -0.951123       -25.8814
  22   2.0000      -0.867505       -23.6060
  23   2.0000      -0.856743       -23.3132
  24   2.0000      -0.813235       -22.1292
  25   2.0000      -0.732504       -19.9324
  26   2.0000      -0.726521       -19.7696
  27   2.0000      -0.658988       -17.9320
  28   2.0000      -0.631098       -17.1730
  29   2.0000      -0.609818       -16.5940
  30   2.0000      -0.597317       -16.2538
  31   2.0000      -0.543053       -14.7772
  32   2.0000      -0.536467       -14.5980
  33   2.0000      -0.510423       -13.8893
  34   2.0000      -0.490168       -13.3381
  35   2.0000      -0.487369       -13.2620
  36   2.0000      -0.458238       -12.4693
  37   2.0000      -0.448503       -12.2044
  38   2.0000      -0.445919       -12.1341
  39   2.0000      -0.411256       -11.1909
  40   2.0000      -0.403766       -10.9870
  41   2.0000      -0.390787       -10.6339
  42   2.0000      -0.389904       -10.6098
  43   2.0000      -0.378008       -10.2861
  44   2.0000      -0.354625        -9.6498
  45   2.0000      -0.339471        -9.2375
  46   2.0000      -0.334763        -9.1094
  47   2.0000      -0.325285        -8.8515
  48   2.0000      -0.296707        -8.0738
  49   2.0000      -0.283068        -7.7027
  50   2.0000      -0.261779        -7.1234
  51   2.0000      -0.254209        -6.9174
  52   2.0000      -0.227593        -6.1931
  53   2.0000      -0.198882        -5.4119
  54   0.0000       0.002531         0.0689
  55   0.0000       0.013916         0.3787
  56   0.0000       0.018006         0.4900
  57   0.0000       0.047287         1.2868
  58   0.0000       0.057501         1.5647

MULLIKEN ATOMIC CHARGES
-----------------------
   0 N :   -0.308211
   1 C :    0.035830
   2 C :    0.203641
   3 C :   -0.012152
   4 N :   -0.305769
   5 S :    0.194891
   6 N :   -0.299665
   7 C :   -0.026958
   8 C :    0.246194
   9 C :    0.041788
  10 N :   -0.357978
  11 S :    0.187208
  12 H :    0.132192
  13 H :   -0.014026
  14 H :    0.019733
  15 H :   -0.024182
  16 H :   -0.009196
  17 H :    0.119930
  18 H :    0.118768
  19 H :   -0.011298
  20 H :    0.000153
  21 H :   -0.022475
  22 H :   -0.029482
  23 H :    0.121065
Sum of atomic charges:   -0.0000000

LOEWDIN ATOMIC CHARGES
----------------------
   0 N :   -0.215743
   1 C :    0.001620
   2 C :   -0.033153
   3 C :   -0.005223
   4 N :   -0.228241
   5 S :    0.342197
   6 N :   -0.225674
   7 C :   -0.007992
   8 C :   -0.034608
   9 C :   -0.011843
  10 N :   -0.243040
  11 S :    0.325124
  12 H :    0.048962
  13 H :    0.015901
  14 H :    0.031281
  15 H :    0.022789
  16 H :    0.017205
  17 H :    0.043599
  18 H :    0.043263
  19 H :    0.015895
  20 H :    0.025169
  21 H :    0.024078
  22 H :   -0.002079
  23 H :    0.050511

  Mayer bond orders larger than 0.100000
B(  0-N ,  1-C ) :   1.0261 B(  0-N , 11-S ) :   1.0427 B(  0-N , 12-H ) :   0.9265
B(  1-C ,  2-C ) :   1.1037 B(  1-C ,  9-C ) :   0.9569 B(  1-C , 13-H ) :   0.8983
B(  2-C ,  3-C ) :   1.0874 B(  2-C ,  8-C ) :   0.1094 B(  2-C , 14-H ) :   0.9355
B(  2-C , 15-H ) :   0.8470 B(  3-C ,  4-N ) :   1.0425 B(  3-C ,  7-C ) :   0.9524
B(  3-C , 16-H ) :   0.9067 B(  4-N ,  5-S ) :   0.9795 B(  4-N , 17-H ) :   0.9390
B(  5-S ,  6-N ) :   0.9820 B(  6-N ,  7-C ) :   1.0460 B(  6-N , 18-H ) :   0.9395
B(  7-C ,  8-C ) :   1.0798 B(  7-C , 19-H ) :   0.9047 B(  8-C ,  9-C ) :   1.0902
B(  8-C , 20-H ) :   0.9315 B(  8-C , 21-H ) :   0.8453 B(  9-C , 10-N ) :   0.9782
B(  9-C , 22-H ) :   0.8965 B( 10-N , 11-S ) :   0.9264 B( 10-N , 23-H ) :   0.9323

Dispersion correction           -0.055332397
FINAL SINGLE POINT ENERGY     -1250.670656779290

DIPOLE MOMENT
-------------
                                X             Y             Z
Electronic contribution:      1.86691       0.38260       3.82090
Nuclear contribution   :     -2.54273      -0.73974      -4.87129
                        -----------------------------------------
Total Dipole Moment    :     -0.67582      -0.35714      -1.05039
                        -----------------------------------------
Magnitude (a.u.)       :      1.29907
Magnitude (Debye)      :      3.30199

Rotational constants in cm-1:     0.064550     0.013708     0.012447
Rotational constants in MHz :  1935.165942   410.959086   373.136688

                             ****ORCA TERMINATED NORMALLY****
TOTAL RUN TIME: 0 days 0 hours 17 minutes 6 seconds 775 msec
