                         Program Version 4.2.0 -  RELEASE  -
|  1> # ORCA input file
|  2> # SCF done        -46.013373758713          0.000530977207
|  3> ! B3LYP/G D3BJ Opt RIJCOSX def2-SVP def2/J
|  4> * xyz 0 1
|  5>    C        0.00067         1.41163         0.00147
|  6>    C        1.18061         0.67733         0.00176
|  7>    C        2.52833         1.29336         0.00227
|  8>    O        2.79423         2.45436         0.00197
|  9>    S        3.76042        -0.01563         0.00097
| 10>    C        2.53356        -1.32965         0.00205
| 11>    O        2.80417        -2.48955         0.00128
| 12>    C        1.18343        -0.71903         0.00170
| 13>    C        0.00644        -1.45807         0.00146
| 14>    C       -1.16727        -0.72338         0.00146
| 15>    C       -1.17008         0.67225         0.00140
| 16>    C       -2.59259         1.11126         0.00123
| 17>    O       -3.05122         2.20652         0.00100
| 18>    O       -3.36074        -0.02997         0.00135
| 19>    C       -2.58797        -1.16812         0.00154
| 20>    O       -3.04217        -2.26523         0.00173
| 21>    H        0.00604         2.49026         0.00147
| 22>    H        0.01614        -2.53666         0.00151
| 23> *
| 24>
| 25>                          ****END OF INPUT****
 Total Charge           Charge          ....    0
 Multiplicity           Mult            ....    1
 Number of Electrons    NEL             ....  118
Dispersion correction           -0.046673779
FINAL SINGLE POINT ENERGY     -1155.988421318519
Dispersion correction            ... done
Dispersion correction           -0.046542147
FINAL SINGLE POINT ENERGY     -1155.990331354740
Dispersion correction            ... done
Dispersion correction           -0.046520484
FINAL SINGLE POINT ENERGY     -1155.990454007781
Dispersion correction            ... done
FINAL SINGLE POINT ENERGY     -1155.990351733875
Dispersion correction            ... done
Dispersion correction           -0.046528828
FINAL SINGLE POINT ENERGY     -1155.990557482567
Dispersion correction            ... done
Dispersion correction           -0.046531656
FINAL SINGLE POINT ENERGY     -1155.990561341683
Dispersion correction            ... done
                    ***********************HURRAY********************

CARTESIAN COORDINATES (ANGSTROEM)
---------------------------------
  C     -0.002573    1.419925    0.001549
  C      1.183830    0.681358    0.001691
  C      2.548335    1.298317    0.002229
  O      2.794302    2.470941    0.001394
  S      3.810192   -0.015596    0.001162
  C      2.553635   -1.334541    0.001664
  O      2.804309   -2.506184    0.002070
  C      1.186638   -0.723052    0.001583
  C      0.003164   -1.466288    0.001462
  C     -1.175101   -0.724301    0.001441
  C     -1.177902    0.673259    0.001458
  C     -2.601208    1.119169    0.001390
  O     -3.065732    2.214593    0.001377
  O     -3.382207   -0.030058    0.001335
  C     -2.596540   -1.176069    0.001425
  O     -3.056440   -2.273473    0.001332
  H      0.002626    2.511655    0.001646
  H      0.012673   -2.557975    0.001412

 Multiplicity           Mult            ....    1
 Number of Electrons    NEL             ....  118
 Basis Dimension        Dim             ....  238

ORBITAL ENERGIES
----------------

  NO   OCC          E(Eh)            E(eV)
   0   2.0000     -88.896688     -2419.0019
   1   2.0000     -19.227261      -523.2004
   2   2.0000     -19.185642      -522.0679
   3   2.0000     -19.185600      -522.0667
   4   2.0000     -19.177527      -521.8470
   5   2.0000     -19.177499      -521.8463
   6   2.0000     -10.367196      -282.1058
   7   2.0000     -10.367111      -282.1034
   8   2.0000     -10.344793      -281.4961
   9   2.0000     -10.344683      -281.4931
  10   2.0000     -10.272541      -279.5300
  11   2.0000     -10.272292      -279.5233
  12   2.0000     -10.271820      -279.5104
  13   2.0000     -10.271765      -279.5089
  14   2.0000     -10.269866      -279.4573
  15   2.0000     -10.269521      -279.4479
  16   2.0000      -7.994049      -217.5291
  17   2.0000      -5.961635      -162.2243
  18   2.0000      -5.958753      -162.1459
  19   2.0000      -5.954375      -162.0268
  20   2.0000      -1.160477       -31.5782
  21   2.0000      -1.097876       -29.8747
  22   2.0000      -1.096895       -29.8480
  23   2.0000      -1.094763       -29.7900
  24   2.0000      -1.058987       -28.8165
  25   2.0000      -0.940157       -25.5830
  26   2.0000      -0.875656       -23.8278
  27   2.0000      -0.825695       -22.4683
  28   2.0000      -0.807879       -21.9835
  29   2.0000      -0.729473       -19.8500
  30   2.0000      -0.711967       -19.3736
  31   2.0000      -0.691430       -18.8148
  32   2.0000      -0.630544       -17.1580
  33   2.0000      -0.627154       -17.0657
  34   2.0000      -0.577407       -15.7120
  35   2.0000      -0.561360       -15.2754
  36   2.0000      -0.548778       -14.9330
  37   2.0000      -0.532955       -14.5024
  38   2.0000      -0.508984       -13.8501
  39   2.0000      -0.507810       -13.8182
  40   2.0000      -0.492123       -13.3914
  41   2.0000      -0.491663       -13.3788
  42   2.0000      -0.490844       -13.3566
  43   2.0000      -0.479976       -13.0608
  44   2.0000      -0.469152       -12.7663
  45   2.0000      -0.453433       -12.3385
  46   2.0000      -0.449128       -12.2214
  47   2.0000      -0.441349       -12.0097
  48   2.0000      -0.435845       -11.8600
  49   2.0000      -0.425244       -11.5715
  50   2.0000      -0.419949       -11.4274
  51   2.0000      -0.362290        -9.8584
  52   2.0000      -0.343285        -9.3413
  53   2.0000      -0.335241        -9.1224
  54   2.0000      -0.331365        -9.0169
  55   2.0000      -0.321001        -8.7349
  56   2.0000      -0.319701        -8.6995
  57   2.0000      -0.305947        -8.3252
  58   2.0000      -0.303060        -8.2467
  59   0.0000      -0.148974        -4.0538
  60   0.0000      -0.113567        -3.0903
  61   0.0000      -0.087050        -2.3687
  62   0.0000      -0.012893        -0.3508
  63   0.0000      -0.009505        -0.2586

MULLIKEN ATOMIC CHARGES
-----------------------
   0 C :   -0.053811
   1 C :    0.066734
   2 C :    0.059696
   3 O :   -0.126204
   4 S :    0.022729
   5 C :    0.059675
   6 O :   -0.126150
   7 C :    0.066719
   8 C :   -0.053940
   9 C :   -0.017040
  10 C :   -0.017232
  11 C :    0.256209
  12 O :   -0.103031
  13 O :   -0.250392
  14 C :    0.256206
  15 O :   -0.103088
  16 H :    0.031466
  17 H :    0.031454
Sum of atomic charges:    0.0000000

LOEWDIN ATOMIC CHARGES
----------------------
   0 C :    0.050051
   1 C :   -0.047453
   2 C :   -0.042836
   3 O :   -0.105171
   4 S :    0.298764
   5 C :   -0.042838
   6 O :   -0.105177
   7 C :   -0.047446
   8 C :    0.050044
   9 C :   -0.043807
  10 C :   -0.043822
  11 C :    0.106193
  12 O :   -0.088142
  13 O :   -0.068613
  14 C :    0.106184
  15 O :   -0.088173
  16 H :    0.056123
  17 H :    0.056119

  Mayer bond orders larger than 0.100000
B(  0-C ,  1-C ) :   1.3453 B(  0-C , 10-C ) :   1.3186 B(  0-C , 16-H ) :   1.0203
B(  1-C ,  2-C ) :   0.8516 B(  1-C ,  7-C ) :   1.3369 B(  2-C ,  3-O ) :   2.1850
B(  2-C ,  4-S ) :   1.0108 B(  3-O ,  4-S ) :   0.1237 B(  4-S ,  5-C ) :   1.0109
B(  4-S ,  6-O ) :   0.1237 B(  5-C ,  6-O ) :   2.1851 B(  5-C ,  7-C ) :   0.8516
B(  7-C ,  8-C ) :   1.3453 B(  8-C ,  9-C ) :   1.3187 B(  8-C , 17-H ) :   1.0203
B(  9-C , 10-C ) :   1.3639 B(  9-C , 14-C ) :   0.8983 B( 10-C , 11-C ) :   0.8983
B( 11-C , 12-O ) :   2.2703 B( 11-C , 13-O ) :   1.0290 B( 13-O , 14-C ) :   1.0290
B( 14-C , 15-O ) :   2.2702

Dispersion correction           -0.046534556
FINAL SINGLE POINT ENERGY     -1155.990565818267

DIPOLE MOMENT
-------------
                                X             Y             Z
Electronic contribution:      1.26811       0.00263       0.00020
Nuclear contribution   :     -0.63572      -0.00117       0.00006
                        -----------------------------------------
Total Dipole Moment    :      0.63239       0.00146       0.00027
                        -----------------------------------------
Magnitude (a.u.)       :      0.63239
Magnitude (Debye)      :      1.60742

Rotational constants in cm-1:     0.032474     0.010738     0.008070
Rotational constants in MHz :   973.533806   321.927294   241.927070

                             ****ORCA TERMINATED NORMALLY****
TOTAL RUN TIME: 0 days 0 hours 10 minutes 52 seconds 136 msec
