                         Program Version 4.2.0 -  RELEASE  -
|  1> # ORCA input file
|  2> # SCF done        -22.457173852108          0.000459604225
|  3> ! B3LYP/G D3BJ Opt RIJCOSX def2-SVP def2/J
|  4> * xyz 0 1
|  5>    C       -1.34229        -1.21681        -0.04696
|  6>    S       -2.53093         0.02589        -0.20296
|  7>    C       -1.33343         1.26072        -0.05216
|  8>    C       -0.09893         0.73130         0.11985
|  9>    C       -0.10404        -0.69550         0.12285
| 10>    S        1.43672        -1.49053         0.37608
| 11>    C        2.40170         0.00863        -0.01794
| 12>    S        1.44748         1.51632         0.36977
| 13>    H       -1.63144        -2.24660        -0.08065
| 14>    H       -1.61526         2.29239        -0.09018
| 15>    H        2.63930         0.00555        -1.08235
| 16>    H        3.31421         0.00661         0.57336
| 17> *
| 18>
| 19>                          ****END OF INPUT****
 Total Charge           Charge          ....    0
 Multiplicity           Mult            ....    1
 Number of Electrons    NEL             ....   82
Dispersion correction           -0.032533606
FINAL SINGLE POINT ENERGY     -1387.049889043904
Dispersion correction            ... done
Dispersion correction           -0.032494559
FINAL SINGLE POINT ENERGY     -1387.051774023970
Dispersion correction            ... done
Dispersion correction           -0.032494700
FINAL SINGLE POINT ENERGY     -1387.051888523758
Dispersion correction            ... done
Dispersion correction           -0.032497419
FINAL SINGLE POINT ENERGY     -1387.051902105956
Dispersion correction            ... done
Dispersion correction           -0.032496810
FINAL SINGLE POINT ENERGY     -1387.051909249044
Dispersion correction            ... done
                    ***********************HURRAY********************

CARTESIAN COORDINATES (ANGSTROEM)
---------------------------------
  C     -1.350858   -1.228818   -0.053498
  S     -2.540409    0.025881   -0.226982
  C     -1.342095    1.272875   -0.058520
  C     -0.095965    0.739334    0.136729
  C     -0.101069   -0.703290    0.139761
  S      1.453220   -1.489814    0.441760
  C      2.409000    0.008468   -0.025046
  S      1.464057    1.515860    0.435038
  H     -1.645682   -2.275192   -0.103046
  H     -1.629775    2.321009   -0.112418
  H      2.602853    0.005376   -1.107885
  H      3.359815    0.006281    0.522816

 Multiplicity           Mult            ....    1
 Number of Electrons    NEL             ....   82
 Basis Dimension        Dim             ....  144

ORBITAL ENERGIES
----------------

  NO   OCC          E(Eh)            E(eV)
   0   2.0000     -88.878846     -2418.5164
   1   2.0000     -88.860575     -2418.0192
   2   2.0000     -88.860524     -2418.0178
   3   2.0000     -10.253048      -278.9996
   4   2.0000     -10.226185      -278.2686
   5   2.0000     -10.225976      -278.2630
   6   2.0000     -10.219352      -278.0827
   7   2.0000     -10.219303      -278.0814
   8   2.0000      -7.973670      -216.9746
   9   2.0000      -7.955476      -216.4795
  10   2.0000      -7.955449      -216.4788
  11   2.0000      -5.942095      -161.6926
  12   2.0000      -5.937826      -161.5765
  13   2.0000      -5.934610      -161.4889
  14   2.0000      -5.924855      -161.2235
  15   2.0000      -5.924846      -161.2232
  16   2.0000      -5.921184      -161.1236
  17   2.0000      -5.921175      -161.1234
  18   2.0000      -5.913705      -160.9201
  19   2.0000      -5.913699      -160.9199
  20   2.0000      -0.899415       -24.4743
  21   2.0000      -0.836410       -22.7599
  22   2.0000      -0.768157       -20.9026
  23   2.0000      -0.730359       -19.8741
  24   2.0000      -0.696697       -18.9581
  25   2.0000      -0.623392       -16.9634
  26   2.0000      -0.575326       -15.6554
  27   2.0000      -0.533378       -14.5140
  28   2.0000      -0.486242       -13.2313
  29   2.0000      -0.459434       -12.5018
  30   2.0000      -0.428373       -11.6566
  31   2.0000      -0.428369       -11.6565
  32   2.0000      -0.402903       -10.9636
  33   2.0000      -0.398653       -10.8479
  34   2.0000      -0.369057       -10.0425
  35   2.0000      -0.343052        -9.3349
  36   2.0000      -0.340933        -9.2773
  37   2.0000      -0.299030        -8.1370
  38   2.0000      -0.286433        -7.7942
  39   2.0000      -0.225508        -6.1364
  40   2.0000      -0.210850        -5.7375
  41   0.0000      -0.023783        -0.6472
  42   0.0000      -0.007893        -0.2148
  43   0.0000       0.014181         0.3859
  44   0.0000       0.035879         0.9763
  45   0.0000       0.070591         1.9209

MULLIKEN ATOMIC CHARGES
-----------------------
   0 C :   -0.152177
   1 S :    0.096255
   2 C :   -0.152531
   3 C :    0.016718
   4 C :    0.016421
   5 S :    0.028584
   6 C :   -0.118261
   7 S :    0.028486
   8 H :    0.027467
   9 H :    0.027569
  10 H :    0.099291
  11 H :    0.082178
Sum of atomic charges:    0.0000000

LOEWDIN ATOMIC CHARGES
----------------------
   0 C :   -0.214988
   1 S :    0.424550
   2 C :   -0.215054
   3 C :   -0.210529
   4 C :   -0.210556
   5 S :    0.273399
   6 C :   -0.222398
   7 S :    0.273346
   8 H :    0.027734
   9 H :    0.027747
  10 H :    0.019542
  11 H :    0.027208

  Mayer bond orders larger than 0.100000
B(  0-C ,  1-S ) :   1.1473 B(  0-C ,  4-C ) :   1.5910 B(  0-C ,  8-H ) :   0.9722
B(  1-S ,  2-C ) :   1.1473 B(  2-C ,  3-C ) :   1.5910 B(  2-C ,  9-H ) :   0.9722
B(  3-C ,  4-C ) :   1.2350 B(  3-C ,  7-S ) :   0.9960 B(  4-C ,  5-S ) :   0.9960
B(  5-S ,  6-C ) :   0.9831 B(  6-C ,  7-S ) :   0.9831 B(  6-C , 10-H ) :   0.9418
B(  6-C , 11-H ) :   0.9561

Dispersion correction           -0.032496286
FINAL SINGLE POINT ENERGY     -1387.051909736361

DIPOLE MOMENT
-------------
                                X             Y             Z
Electronic contribution:     -2.11155       0.00989       1.02342
Nuclear contribution   :      2.30399      -0.01132      -1.26623
                        -----------------------------------------
Total Dipole Moment    :      0.19244      -0.00143      -0.24280
                        -----------------------------------------
Magnitude (a.u.)       :      0.30982
Magnitude (Debye)      :      0.78750

Rotational constants in cm-1:     0.079702     0.034191     0.024338
Rotational constants in MHz :  2389.419325  1025.017279   729.643681

                             ****ORCA TERMINATED NORMALLY****
TOTAL RUN TIME: 0 days 0 hours 3 minutes 4 seconds 668 msec
