                         Program Version 4.2.0 -  RELEASE  -
|  1> # ORCA input file
|  2> # SCF done        -35.935084520816          0.000948768241
|  3> ! B3LYP/G D3BJ Opt RIJCOSX def2-SVP def2/J
|  4> * xyz 0 1
|  5>    C        1.44850         1.22393        -0.26010
|  6>    S        2.67919         0.02631        -0.20946
|  7>    C        1.50733        -1.20660         0.02603
|  8>    C        0.24082        -0.71539         0.06401
|  9>    C        0.20571         0.69687        -0.10237
| 10>    C       -1.07537         1.47152        -0.13733
| 11>    C       -2.21978         0.66772         0.48009
| 12>    C       -2.24938        -0.75814        -0.07946
| 13>    N       -2.41842        -0.66737        -1.55623
| 14>    O       -1.57533        -1.15236        -2.26670
| 15>    O       -3.41673        -0.10426        -1.94068
| 16>    C       -0.99318        -1.53717         0.28405
| 17>    H        1.71573         2.25098        -0.40922
| 18>    H        1.82291        -2.22622         0.12089
| 19>    H       -1.31599         1.71632        -1.17741
| 20>    H       -0.95736         2.41806         0.39349
| 21>    H       -3.17082         1.15978         0.27115
| 22>    H       -2.09180         0.60623         1.56201
| 23>    H       -3.14426        -1.27435         0.28568
| 24>    H       -0.93471        -2.45475        -0.30510
| 25>    H       -1.05806        -1.82281         1.33773
| 26> *
| 27>
| 28>                          ****END OF INPUT****
 Total Charge           Charge          ....    0
 Multiplicity           Mult            ....    1
 Number of Electrons    NEL             ....   96
Dispersion correction           -0.045957061
FINAL SINGLE POINT ENERGY      -913.119482609788
Dispersion correction            ... done
Dispersion correction           -0.045371203
FINAL SINGLE POINT ENERGY      -913.122843564832
Dispersion correction            ... done
Dispersion correction           -0.045076019
FINAL SINGLE POINT ENERGY      -913.122212925412
Dispersion correction            ... done
FINAL SINGLE POINT ENERGY      -913.123110368515
FINAL SINGLE POINT ENERGY      -913.123112792816
Dispersion correction            ... done
Dispersion correction           -0.045152767
FINAL SINGLE POINT ENERGY      -913.123148620692
Dispersion correction            ... done
Dispersion correction           -0.045136354
FINAL SINGLE POINT ENERGY      -913.123145094738
Dispersion correction            ... done
                    ***********************HURRAY********************

CARTESIAN COORDINATES (ANGSTROEM)
---------------------------------
  C      1.508570    1.256020   -0.172149
  S      2.735919    0.040330   -0.139221
  C      1.557007   -1.213078    0.015631
  C      0.277137   -0.715145    0.044213
  C      0.247307    0.717858   -0.077944
  C     -1.049638    1.481996   -0.152879
  C     -2.216072    0.688709    0.446597
  C     -2.248397   -0.755556   -0.063419
  N     -2.533587   -0.720483   -1.568307
  O     -1.738439   -1.239905   -2.326912
  O     -3.562787   -0.157931   -1.898013
  C     -0.973921   -1.532525    0.248493
  H      1.779597    2.305000   -0.283080
  H      1.871032   -2.252760    0.095520
  H     -1.280146    1.713137   -1.208443
  H     -0.958800    2.454093    0.355195
  H     -3.173922    1.173964    0.214655
  H     -2.122986    0.641759    1.544141
  H     -3.129434   -1.272515    0.342404
  H     -0.943334   -2.456971   -0.342937
  H     -1.046104   -1.837696    1.307524

 Multiplicity           Mult            ....    1
 Number of Electrons    NEL             ....   96
 Basis Dimension        Dim             ....  217

ORBITAL ENERGIES
----------------

  NO   OCC          E(Eh)            E(eV)
   0   2.0000     -88.873691     -2418.3761
   1   2.0000     -19.169701      -521.6341
   2   2.0000     -19.165612      -521.5228
   3   2.0000     -14.554836      -396.0572
   4   2.0000     -10.256057      -279.0815
   5   2.0000     -10.212396      -277.8934
   6   2.0000     -10.212256      -277.8896
   7   2.0000     -10.209473      -277.8139
   8   2.0000     -10.209423      -277.8125
   9   2.0000     -10.205646      -277.7097
  10   2.0000     -10.199713      -277.5483
  11   2.0000     -10.198411      -277.5129
  12   2.0000      -7.968718      -216.8398
  13   2.0000      -5.936785      -161.5481
  14   2.0000      -5.932646      -161.4355
  15   2.0000      -5.930286      -161.3713
  16   2.0000      -1.225422       -33.3454
  17   2.0000      -1.053597       -28.6698
  18   2.0000      -0.888698       -24.1827
  19   2.0000      -0.851249       -23.1637
  20   2.0000      -0.778163       -21.1749
  21   2.0000      -0.755926       -20.5698
  22   2.0000      -0.710649       -19.3377
  23   2.0000      -0.678927       -18.4745
  24   2.0000      -0.637851       -17.3568
  25   2.0000      -0.580021       -15.7832
  26   2.0000      -0.573872       -15.6158
  27   2.0000      -0.555730       -15.1222
  28   2.0000      -0.539173       -14.6716
  29   2.0000      -0.512034       -13.9332
  30   2.0000      -0.505347       -13.7512
  31   2.0000      -0.495564       -13.4850
  32   2.0000      -0.458843       -12.4858
  33   2.0000      -0.451610       -12.2889
  34   2.0000      -0.435351       -11.8465
  35   2.0000      -0.416596       -11.3362
  36   2.0000      -0.412548       -11.2260
  37   2.0000      -0.405937       -11.0461
  38   2.0000      -0.391876       -10.6635
  39   2.0000      -0.362075        -9.8526
  40   2.0000      -0.354470        -9.6456
  41   2.0000      -0.350100        -9.5267
  42   2.0000      -0.340330        -9.2608
  43   2.0000      -0.317264        -8.6332
  44   2.0000      -0.304250        -8.2791
  45   2.0000      -0.296850        -8.0777
  46   2.0000      -0.245762        -6.6875
  47   2.0000      -0.236913        -6.4467
  48   0.0000      -0.068390        -1.8610
  49   0.0000      -0.022726        -0.6184
  50   0.0000       0.035489         0.9657
  51   0.0000       0.047741         1.2991
  52   0.0000       0.051572         1.4033

MULLIKEN ATOMIC CHARGES
-----------------------
   0 C :   -0.143184
   1 S :    0.101400
   2 C :   -0.137742
   3 C :   -0.044775
   4 C :   -0.043931
   5 C :    0.132742
   6 C :    0.017786
   7 C :   -0.003531
   8 N :    0.200145
   9 O :   -0.222608
  10 O :   -0.242607
  11 C :    0.206113
  12 H :    0.012248
  13 H :    0.011789
  14 H :    0.030434
  15 H :    0.004777
  16 H :    0.027779
  17 H :    0.023772
  18 H :    0.031648
  19 H :    0.018957
  20 H :    0.018788
Sum of atomic charges:    0.0000000

LOEWDIN ATOMIC CHARGES
----------------------
   0 C :   -0.200932
   1 S :    0.432954
   2 C :   -0.198219
   3 C :   -0.068594
   4 C :   -0.070754
   5 C :   -0.024263
   6 C :   -0.024954
   7 C :    0.017465
   8 N :    0.263136
   9 O :   -0.190066
  10 O :   -0.209261
  11 C :   -0.024841
  12 H :    0.022561
  13 H :    0.022624
  14 H :    0.035615
  15 H :    0.034076
  16 H :    0.032254
  17 H :    0.033325
  18 H :    0.039737
  19 H :    0.037710
  20 H :    0.040427

  Mayer bond orders larger than 0.100000
B(  0-C ,  1-S ) :   1.1670 B(  0-C ,  4-C ) :   1.5539 B(  0-C , 12-H ) :   0.9654
B(  1-S ,  2-C ) :   1.1661 B(  2-C ,  3-C ) :   1.5557 B(  2-C , 13-H ) :   0.9657
B(  3-C ,  4-C ) :   1.2986 B(  3-C , 11-C ) :   1.0212 B(  4-C ,  5-C ) :   1.0341
B(  5-C ,  6-C ) :   1.0817 B(  5-C , 14-H ) :   0.9174 B(  5-C , 15-H ) :   0.9162
B(  6-C ,  7-C ) :   1.0590 B(  6-C , 16-H ) :   0.9234 B(  6-C , 17-H ) :   0.9398
B(  7-C ,  8-N ) :   0.7994 B(  7-C , 11-C ) :   1.0553 B(  7-C , 18-H ) :   0.9136
B(  8-N ,  9-O ) :   1.5780 B(  8-N , 10-O ) :   1.5298 B(  9-O , 10-O ) :   0.2875
B( 11-C , 19-H ) :   0.8987 B( 11-C , 20-H ) :   0.8987

Dispersion correction           -0.045135527
FINAL SINGLE POINT ENERGY      -913.123144223852

DIPOLE MOMENT
-------------
                                X             Y             Z
Electronic contribution:      5.19592      -1.83151      -4.61011
Nuclear contribution   :     -5.09232       1.86837       5.91487
                        -----------------------------------------
Total Dipole Moment    :      0.10360       0.03686       1.30476
                        -----------------------------------------
Magnitude (a.u.)       :      1.30939
Magnitude (Debye)      :      3.32820

Rotational constants in cm-1:     0.060771     0.018110     0.016672
Rotational constants in MHz :  1821.862921   542.909909   499.800378

                             ****ORCA TERMINATED NORMALLY****
TOTAL RUN TIME: 0 days 0 hours 12 minutes 4 seconds 671 msec
