                         Program Version 4.2.0 -  RELEASE  -
|  1> # ORCA input file
|  2> # SCF done        -38.601939223543          0.000413550305
|  3> ! B3LYP/G D3BJ Opt RIJCOSX def2-SVP def2/J
|  4> * xyz 0 1
|  5>    C        3.38542         0.13781        -0.00787
|  6>    C        2.47006         1.12921        -0.05695
|  7>    C        1.13314         0.64302         0.00369
|  8>    C        1.10167        -0.76264         0.09916
|  9>    S        2.69633        -1.44796         0.11485
| 10>    N        0.00519        -1.49849         0.17162
| 11>    C       -1.12519        -0.83434         0.14884
| 12>    C       -1.24204         0.56840         0.06941
| 13>    C       -0.09649         1.33353        -0.00377
| 14>    C       -0.12134         2.83351        -0.03029
| 15>    C        0.07592         3.39478         1.37958
| 16>    C       -2.66113         1.05133         0.13501
| 17>    C       -3.56198        -0.13142        -0.20989
| 18>    S       -2.65930        -1.66579         0.23673
| 19>    H        4.45352         0.23055        -0.03468
| 20>    H        2.72946         2.16980        -0.13217
| 21>    H       -1.07206         3.18809        -0.43045
| 22>    H        0.67629         3.19815        -0.67988
| 23>    H       -0.72253         3.05954         2.03779
| 24>    H        0.07295         4.48190         1.35687
| 25>    H        1.02341         3.05708         1.79351
| 26>    H       -2.84555         1.87684        -0.55418
| 27>    H       -2.87110         1.40491         1.14941
| 28>    H       -3.76365        -0.18196        -1.28063
| 29>    H       -4.50517        -0.12152         0.33081
| 30> *
| 31>
| 32>                          ****END OF INPUT****
 Total Charge           Charge          ....    0
 Multiplicity           Mult            ....    1
 Number of Electrons    NEL             ....  116
Dispersion correction           -0.060541360
FINAL SINGLE POINT ENERGY     -1276.433111029465
Dispersion correction            ... done
Dispersion correction           -0.060235555
FINAL SINGLE POINT ENERGY     -1276.436505412830
Dispersion correction            ... done
Dispersion correction           -0.060176894
FINAL SINGLE POINT ENERGY     -1276.436673396239
Dispersion correction            ... done
FINAL SINGLE POINT ENERGY     -1276.436682264785
FINAL SINGLE POINT ENERGY     -1276.436642419952
FINAL SINGLE POINT ENERGY     -1276.436602435658
FINAL SINGLE POINT ENERGY     -1276.436546392949
FINAL SINGLE POINT ENERGY     -1276.436541733168
Dispersion correction            ... done
Dispersion correction           -0.060171006
FINAL SINGLE POINT ENERGY     -1276.436586052095
Dispersion correction            ... done
Dispersion correction           -0.060173360
FINAL SINGLE POINT ENERGY     -1276.436581029236
Dispersion correction            ... done
                    ***********************HURRAY********************

CARTESIAN COORDINATES (ANGSTROEM)
---------------------------------
  C      3.465795    0.063399   -0.088963
  C      2.554513    1.078304   -0.118969
  C      1.196680    0.609095   -0.030694
  C      1.136971   -0.807307    0.073085
  S      2.744883   -1.519602    0.052656
  N      0.023974   -1.532957    0.169213
  C     -1.102460   -0.844392    0.161173
  C     -1.195967    0.571567    0.074707
  C     -0.029737    1.324088   -0.022471
  C     -0.060646    2.831684   -0.031790
  C     -0.164395    3.409169    1.387793
  C     -2.610426    1.083842    0.182046
  C     -3.556118   -0.082779   -0.152265
  S     -2.684337   -1.644181    0.299671
  H      4.550090    0.156294   -0.144119
  H      2.841678    2.126822   -0.204283
  H     -0.914555    3.179653   -0.634806
  H      0.840566    3.222289   -0.528158
  H     -1.064275    3.036133    1.900593
  H     -0.215060    4.509179    1.369654
  H      0.705119    3.114563    1.995560
  H     -2.800904    1.937701   -0.486996
  H     -2.798762    1.441791    1.210426
  H     -3.784675   -0.118010   -1.228176
  H     -4.502121   -0.032014    0.401635

 Multiplicity           Mult            ....    1
 Number of Electrons    NEL             ....  116
 Basis Dimension        Dim             ....  259

ORBITAL ENERGIES
----------------

  NO   OCC          E(Eh)            E(eV)
   0   2.0000     -88.867944     -2418.2197
   1   2.0000     -88.843851     -2417.5641
   2   2.0000     -14.325598      -389.8193
   3   2.0000     -10.247321      -278.8438
   4   2.0000     -10.245096      -278.7832
   5   2.0000     -10.224699      -278.2282
   6   2.0000     -10.217470      -278.0315
   7   2.0000     -10.214879      -277.9610
   8   2.0000     -10.212197      -277.8880
   9   2.0000     -10.204316      -277.6736
  10   2.0000     -10.202374      -277.6207
  11   2.0000     -10.200761      -277.5768
  12   2.0000     -10.198963      -277.5279
  13   2.0000     -10.194866      -277.4164
  14   2.0000      -7.963558      -216.6994
  15   2.0000      -7.939669      -216.0494
  16   2.0000      -5.931790      -161.4122
  17   2.0000      -5.927924      -161.3070
  18   2.0000      -5.924227      -161.2064
  19   2.0000      -5.908705      -160.7840
  20   2.0000      -5.905026      -160.6839
  21   2.0000      -5.898433      -160.5045
  22   2.0000      -0.955286       -25.9946
  23   2.0000      -0.867337       -23.6014
  24   2.0000      -0.848267       -23.0825
  25   2.0000      -0.813634       -22.1401
  26   2.0000      -0.752339       -20.4722
  27   2.0000      -0.739796       -20.1309
  28   2.0000      -0.719768       -19.5859
  29   2.0000      -0.703532       -19.1441
  30   2.0000      -0.652315       -17.7504
  31   2.0000      -0.617697       -16.8084
  32   2.0000      -0.593104       -16.1392
  33   2.0000      -0.571750       -15.5581
  34   2.0000      -0.554143       -15.0790
  35   2.0000      -0.532606       -14.4929
  36   2.0000      -0.482419       -13.1273
  37   2.0000      -0.475445       -12.9375
  38   2.0000      -0.458360       -12.4726
  39   2.0000      -0.445824       -12.1315
  40   2.0000      -0.438075       -11.9206
  41   2.0000      -0.428668       -11.6646
  42   2.0000      -0.420893       -11.4531
  43   2.0000      -0.415802       -11.3146
  44   2.0000      -0.396806       -10.7976
  45   2.0000      -0.393552       -10.7091
  46   2.0000      -0.379735       -10.3331
  47   2.0000      -0.373054       -10.1513
  48   2.0000      -0.364781        -9.9262
  49   2.0000      -0.360371        -9.8062
  50   2.0000      -0.356666        -9.7054
  51   2.0000      -0.344921        -9.3858
  52   2.0000      -0.327520        -8.9123
  53   2.0000      -0.296377        -8.0648
  54   2.0000      -0.271963        -7.4005
  55   2.0000      -0.263216        -7.1625
  56   2.0000      -0.234136        -6.3712
  57   2.0000      -0.208421        -5.6714
  58   0.0000      -0.041023        -1.1163
  59   0.0000      -0.019751        -0.5375
  60   0.0000       0.028296         0.7700
  61   0.0000       0.032325         0.8796
  62   0.0000       0.040333         1.0975

MULLIKEN ATOMIC CHARGES
-----------------------
   0 C :   -0.079661
   1 C :    0.014847
   2 C :    0.057223
   3 C :   -0.139798
   4 S :    0.106321
   5 N :   -0.060705
   6 C :   -0.097027
   7 C :   -0.099498
   8 C :   -0.052684
   9 C :    0.076838
  10 C :    0.003457
  11 C :    0.121140
  12 C :   -0.060188
  13 S :   -0.003804
  14 H :    0.029188
  15 H :   -0.018187
  16 H :    0.000324
  17 H :    0.000352
  18 H :    0.010125
  19 H :    0.024748
  20 H :    0.022114
  21 H :    0.016524
  22 H :    0.028307
  23 H :    0.057794
  24 H :    0.042250
Sum of atomic charges:   -0.0000000

LOEWDIN ATOMIC CHARGES
----------------------
   0 C :   -0.172892
   1 C :   -0.069963
   2 C :   -0.075002
   3 C :   -0.128733
   4 S :    0.399915
   5 N :   -0.114050
   6 C :   -0.117883
   7 C :   -0.076111
   8 C :    0.004708
   9 C :   -0.024958
  10 C :   -0.047954
  11 C :   -0.033284
  12 C :   -0.111674
  13 S :    0.271844
  14 H :    0.026066
  15 H :    0.027229
  16 H :    0.027470
  17 H :    0.026384
  18 H :    0.022673
  19 H :    0.026650
  20 H :    0.027574
  21 H :    0.031345
  22 H :    0.033526
  23 H :    0.022646
  24 H :    0.024473

  Mayer bond orders larger than 0.100000
B(  0-C ,  1-C ) :   1.5964 B(  0-C ,  4-S ) :   1.1264 B(  0-C , 14-H ) :   0.9636
B(  1-C ,  2-C ) :   1.1877 B(  1-C , 15-H ) :   0.9859 B(  2-C ,  3-C ) :   1.2293
B(  2-C ,  8-C ) :   1.2982 B(  3-C ,  4-S ) :   1.0941 B(  3-C ,  5-N ) :   1.4896
B(  5-N ,  6-C ) :   1.5709 B(  6-C ,  7-C ) :   1.2329 B(  6-C , 13-S ) :   1.0337
B(  7-C ,  8-C ) :   1.5172 B(  7-C , 11-C ) :   1.0551 B(  8-C ,  9-C ) :   1.0874
B(  9-C , 10-C ) :   1.1032 B(  9-C , 16-H ) :   0.9139 B(  9-C , 17-H ) :   0.9146
B( 10-C , 18-H ) :   0.9668 B( 10-C , 19-H ) :   0.9646 B( 10-C , 20-H ) :   0.9669
B( 11-C , 12-C ) :   1.0435 B( 11-C , 21-H ) :   0.9207 B( 11-C , 22-H ) :   0.9069
B( 12-C , 13-S ) :   1.0019 B( 12-C , 23-H ) :   0.9486 B( 12-C , 24-H ) :   0.9495

Dispersion correction           -0.060173790
FINAL SINGLE POINT ENERGY     -1276.436586485739

DIPOLE MOMENT
-------------
                                X             Y             Z
Electronic contribution:      6.02494     -19.09652      -1.93055
Nuclear contribution   :     -6.27073      20.76121       1.81285
                        -----------------------------------------
Total Dipole Moment    :     -0.24579       1.66470      -0.11771
                        -----------------------------------------
Magnitude (a.u.)       :      1.68685
Magnitude (Debye)      :      4.28764

Rotational constants in cm-1:     0.027685     0.015204     0.010186
Rotational constants in MHz :   829.969095   455.802621   305.369273

                             ****ORCA TERMINATED NORMALLY****
TOTAL RUN TIME: 0 days 0 hours 21 minutes 37 seconds 460 msec
