                         Program Version 4.2.0 -  RELEASE  -
|  1> # ORCA input file
|  2> # SCF done        -20.208523075947          0.000172699486
|  3> ! B3LYP/G D3BJ Opt RIJCOSX def2-SVP def2/J
|  4> * xyz 0 1
|  5>    C        0.63065        -0.95376        -0.13529
|  6>    O        1.02384         0.33442        -0.15694
|  7>    C       -0.09835         1.04886         0.08266
|  8>    N       -1.15081         0.29662         0.24985
|  9>    C       -0.70708        -0.97992         0.11509
| 10>    C       -0.02920         2.48769         0.12791
| 11>    C       -1.08844         3.25387         0.36221
| 12>    H        1.36736        -1.71119        -0.30417
| 13>    H       -1.37013        -1.81490         0.20588
| 14>    H        0.95513         2.90005        -0.04386
| 15>    H       -2.05502         2.81209         0.52938
| 16>    H       -1.01450         4.32654         0.39152
| 17> *
| 18>
| 19>                          ****END OF INPUT****
 Total Charge           Charge          ....    0
 Multiplicity           Mult            ....    1
 Number of Electrons    NEL             ....   50
Dispersion correction           -0.016632871
FINAL SINGLE POINT ENERGY      -323.256175439059
Dispersion correction            ... done
Dispersion correction           -0.016640163
FINAL SINGLE POINT ENERGY      -323.258126086352
Dispersion correction            ... done
Dispersion correction           -0.016631829
FINAL SINGLE POINT ENERGY      -323.258260330363
Dispersion correction            ... done
FINAL SINGLE POINT ENERGY      -323.258303013407
Dispersion correction            ... done
Dispersion correction           -0.016623761
FINAL SINGLE POINT ENERGY      -323.258304994472
Dispersion correction            ... done
Dispersion correction           -0.016623427
FINAL SINGLE POINT ENERGY      -323.258304033111
Dispersion correction            ... done
                    ***********************HURRAY********************

CARTESIAN COORDINATES (ANGSTROEM)
---------------------------------
  C      0.636542   -0.969568   -0.141444
  O      1.006575    0.340040   -0.154035
  C     -0.137020    1.038964    0.098192
  N     -1.176641    0.269582    0.267180
  C     -0.702804   -1.016241    0.115938
  C     -0.041052    2.488076    0.137849
  C     -1.088748    3.293856    0.357112
  H      1.410142   -1.707319   -0.330119
  H     -1.349067   -1.887586    0.203811
  H      0.959865    2.893375   -0.032849
  H     -2.085454    2.877692    0.524521
  H     -0.968890    4.379498    0.378084

 Multiplicity           Mult            ....    1
 Number of Electrons    NEL             ....   50
 Basis Dimension        Dim             ....  123

ORBITAL ENERGIES
----------------

  NO   OCC          E(Eh)            E(eV)
   0   2.0000     -19.214920      -522.8646
   1   2.0000     -14.322836      -389.7442
   2   2.0000     -10.275603      -279.6134
   3   2.0000     -10.249126      -278.8929
   4   2.0000     -10.219277      -278.0807
   5   2.0000     -10.208825      -277.7963
   6   2.0000     -10.200727      -277.5759
   7   2.0000      -1.128920       -30.7195
   8   2.0000      -0.915133       -24.9020
   9   2.0000      -0.805770       -21.9261
  10   2.0000      -0.739142       -20.1131
  11   2.0000      -0.640369       -17.4253
  12   2.0000      -0.613993       -16.7076
  13   2.0000      -0.563591       -15.3361
  14   2.0000      -0.525417       -14.2973
  15   2.0000      -0.483761       -13.1638
  16   2.0000      -0.481916       -13.1136
  17   2.0000      -0.440890       -11.9972
  18   2.0000      -0.432112       -11.7584
  19   2.0000      -0.401125       -10.9152
  20   2.0000      -0.375839       -10.2271
  21   2.0000      -0.335521        -9.1300
  22   2.0000      -0.309098        -8.4110
  23   2.0000      -0.290438        -7.9032
  24   2.0000      -0.235068        -6.3965
  25   0.0000      -0.048432        -1.3179
  26   0.0000       0.025483         0.6934
  27   0.0000       0.077744         2.1155
  28   0.0000       0.090244         2.4557
  29   0.0000       0.092026         2.5042

MULLIKEN ATOMIC CHARGES
-----------------------
   0 C :    0.121313
   1 O :   -0.208766
   2 C :    0.086169
   3 N :   -0.123386
   4 C :    0.022184
   5 C :   -0.010344
   6 C :    0.006698
   7 H :    0.021789
   8 H :    0.008687
   9 H :    0.002356
  10 H :    0.041762
  11 H :    0.031539
Sum of atomic charges:    0.0000000

LOEWDIN ATOMIC CHARGES
----------------------
   0 C :    0.015733
   1 O :   -0.002203
   2 C :    0.036000
   3 N :   -0.113202
   4 C :   -0.034449
   5 C :   -0.048311
   6 C :   -0.008182
   7 H :    0.026991
   8 H :    0.026296
   9 H :    0.036854
  10 H :    0.034531
  11 H :    0.029941

  Mayer bond orders larger than 0.100000
B(  0-C ,  1-O ) :   1.1147 B(  0-C ,  4-C ) :   1.5711 B(  0-C ,  7-H ) :   0.9880
B(  1-O ,  2-C ) :   1.1516 B(  2-C ,  3-N ) :   1.7037 B(  2-C ,  5-C ) :   1.0988
B(  3-N ,  4-C ) :   1.3168 B(  4-C ,  8-H ) :   0.9871 B(  5-C ,  6-C ) :   1.9311
B(  5-C ,  9-H ) :   0.9442 B(  6-C , 10-H ) :   0.9479 B(  6-C , 11-H ) :   0.9422

Dispersion correction           -0.016623381
FINAL SINGLE POINT ENERGY      -323.258304281767

DIPOLE MOMENT
-------------
                                X             Y             Z
Electronic contribution:      1.42222      -2.61577      -0.35396
Nuclear contribution   :     -0.98587       2.49604       0.25849
                        -----------------------------------------
Total Dipole Moment    :      0.43635      -0.11973      -0.09547
                        -----------------------------------------
Magnitude (a.u.)       :      0.46244
Magnitude (Debye)      :      1.17542

Rotational constants in cm-1:     0.275044     0.070549     0.056148
Rotational constants in MHz :  8245.618681  2114.992915  1683.277425

                             ****ORCA TERMINATED NORMALLY****
TOTAL RUN TIME: 0 days 0 hours 2 minutes 38 seconds 796 msec
