                         Program Version 4.2.0 -  RELEASE  -
|  1> # ORCA input file
|  2> # SCF done        -22.255118265651          0.000266418480
|  3> ! B3LYP/G D3BJ Opt RIJCOSX def2-SVP def2/J
|  4> * xyz 0 1
|  5>    C        0.95312        -0.23459        -0.01114
|  6>    C        2.15333        -0.16176        -0.00873
|  7>    C        3.54674        -0.05610        -0.00479
|  8>    S        4.31794         1.50508         0.00459
|  9>    C        5.88756         0.75115         0.00412
| 10>    C        5.79115        -0.61710        -0.00232
| 11>    C        4.46607        -1.07406        -0.00739
| 12>    C        7.04990         1.52684         0.01012
| 13>    C        8.03964         2.20965         0.01596
| 14>    H       -0.09239        -0.31466        -0.01381
| 15>    H        6.65236        -1.26143        -0.00342
| 16>    H        4.18511        -2.11227        -0.01287
| 17>    H        8.91224         2.79104         0.02038
| 18> *
| 19>
| 20>                          ****END OF INPUT****
 Total Charge           Charge          ....    0
 Multiplicity           Mult            ....    1
 Number of Electrons    NEL             ....   68
Dispersion correction           -0.026822900
FINAL SINGLE POINT ENERGY      -704.994260129124
Dispersion correction            ... done
Dispersion correction           -0.026634403
FINAL SINGLE POINT ENERGY      -704.997375468065
Dispersion correction            ... done
Dispersion correction           -0.026609675
FINAL SINGLE POINT ENERGY      -704.997426292497
Dispersion correction            ... done
FINAL SINGLE POINT ENERGY      -704.997424063059
FINAL SINGLE POINT ENERGY      -704.997428091224
Dispersion correction            ... done
Dispersion correction           -0.026608568
FINAL SINGLE POINT ENERGY      -704.997424066039
Dispersion correction            ... done
Dispersion correction           -0.026610351
FINAL SINGLE POINT ENERGY      -704.997418234732
Dispersion correction            ... done
                    ***********************HURRAY********************

CARTESIAN COORDINATES (ANGSTROEM)
---------------------------------
  C      0.909405   -0.244581   -0.010740
  C      2.121767   -0.165711   -0.009012
  C      3.530515   -0.060451   -0.005963
  S      4.310784    1.502347    0.002628
  C      5.894681    0.765339    0.003882
  C      5.800201   -0.618622   -0.002319
  C      4.465777   -1.084699   -0.007805
  C      7.068999    1.552235    0.010386
  C      8.081548    2.224281    0.016460
  H     -0.160743   -0.329937   -0.012642
  H      6.681344   -1.259731   -0.002817
  H      4.175113   -2.135461   -0.012978
  H      8.983378    2.806782    0.021620

 Multiplicity           Mult            ....    1
 Number of Electrons    NEL             ....   68
 Basis Dimension        Dim             ....  150

ORBITAL ENERGIES
----------------

  NO   OCC          E(Eh)            E(eV)
   0   2.0000     -88.889127     -2418.7961
   1   2.0000     -10.244673      -278.7717
   2   2.0000     -10.244472      -278.7662
   3   2.0000     -10.211559      -277.8706
   4   2.0000     -10.211279      -277.8630
   5   2.0000     -10.207713      -277.7660
   6   2.0000     -10.207498      -277.7601
   7   2.0000     -10.202040      -277.6116
   8   2.0000     -10.201894      -277.6077
   9   2.0000      -7.984238      -217.2622
  10   2.0000      -5.952433      -161.9739
  11   2.0000      -5.948349      -161.8628
  12   2.0000      -5.945204      -161.7772
  13   2.0000      -0.898693       -24.4547
  14   2.0000      -0.796008       -21.6605
  15   2.0000      -0.759847       -20.6765
  16   2.0000      -0.745734       -20.2924
  17   2.0000      -0.714826       -19.4514
  18   2.0000      -0.631509       -17.1842
  19   2.0000      -0.591994       -16.1090
  20   2.0000      -0.541576       -14.7370
  21   2.0000      -0.529934       -14.4202
  22   2.0000      -0.519056       -14.1242
  23   2.0000      -0.464166       -12.6306
  24   2.0000      -0.435966       -11.8632
  25   2.0000      -0.417902       -11.3717
  26   2.0000      -0.412851       -11.2342
  27   2.0000      -0.366131        -9.9629
  28   2.0000      -0.344838        -9.3835
  29   2.0000      -0.296673        -8.0729
  30   2.0000      -0.295238        -8.0338
  31   2.0000      -0.288441        -7.8489
  32   2.0000      -0.271080        -7.3765
  33   2.0000      -0.225833        -6.1452
  34   0.0000      -0.067573        -1.8387
  35   0.0000       0.001660         0.0452
  36   0.0000       0.008755         0.2382
  37   0.0000       0.013702         0.3729
  38   0.0000       0.046690         1.2705

MULLIKEN ATOMIC CHARGES
-----------------------
   0 C :   -0.433303
   1 C :    0.403868
   2 C :   -0.134735
   3 S :    0.183313
   4 C :   -0.135593
   5 C :    0.055941
   6 C :    0.053474
   7 C :    0.405701
   8 C :   -0.435670
   9 H :    0.020703
  10 H :   -0.002329
  11 H :   -0.001777
  12 H :    0.020406
Sum of atomic charges:   -0.0000000

LOEWDIN ATOMIC CHARGES
----------------------
   0 C :   -0.051357
   1 C :   -0.038341
   2 C :   -0.186940
   3 S :    0.468236
   4 C :   -0.187746
   5 C :   -0.036352
   6 C :   -0.037487
   7 C :   -0.038049
   8 C :   -0.051937
   9 H :    0.042191
  10 H :    0.037673
  11 H :    0.037692
  12 H :    0.042417

  Mayer bond orders larger than 0.100000
B(  0-C ,  1-C ) :   2.3031 B(  0-C ,  9-H ) :   1.0840 B(  1-C ,  2-C ) :   1.0027
B(  2-C ,  3-S ) :   1.1167 B(  2-C ,  4-C ) :   0.1068 B(  2-C ,  6-C ) :   1.4814
B(  3-S ,  4-C ) :   1.1163 B(  4-C ,  5-C ) :   1.4885 B(  4-C ,  7-C ) :   0.9987
B(  5-C ,  6-C ) :   1.2644 B(  5-C , 10-H ) :   0.9920 B(  6-C , 11-H ) :   0.9938
B(  7-C ,  8-C ) :   2.3022 B(  8-C , 12-H ) :   1.0822

Dispersion correction           -0.026610411
FINAL SINGLE POINT ENERGY      -704.997416391397

DIPOLE MOMENT
-------------
                                X             Y             Z
Electronic contribution:     -0.99276       2.81569       0.00652
Nuclear contribution   :      1.07024      -3.03708      -0.00692
                        -----------------------------------------
Total Dipole Moment    :      0.07749      -0.22139      -0.00041
                        -----------------------------------------
Magnitude (a.u.)       :      0.23456
Magnitude (Debye)      :      0.59620

Rotational constants in cm-1:     0.160901     0.027610     0.023566
Rotational constants in MHz :  4823.699032   827.735605   706.501717

                             ****ORCA TERMINATED NORMALLY****
TOTAL RUN TIME: 0 days 0 hours 4 minutes 5 seconds 757 msec
