                         Program Version 4.2.0 -  RELEASE  -
|  1> # ORCA input file
|  2> # SCF done        -14.645030953587          0.000348833044
|  3> ! B3LYP/G D3BJ Opt RIJCOSX def2-SVP def2/J
|  4> * xyz 0 1
|  5>    C       -1.12909        -0.01945         0.00003
|  6>    O       -0.35396         1.07682        -0.00107
|  7>    C        0.92113         0.65638        -0.00102
|  8>    C        0.97855        -0.70221         0.00063
|  9>    C       -0.36735        -1.14587         0.00030
| 10>    H       -2.19088         0.12851         0.00014
| 11>    H        1.68680         1.40674        -0.00201
| 12>    H        1.85861        -1.31191         0.00123
| 13>    H       -0.71233        -2.15939         0.00073
| 14> *
| 15>
| 16>                          ****END OF INPUT****
 Total Charge           Charge          ....    0
 Multiplicity           Mult            ....    1
 Number of Electrons    NEL             ....   36
Dispersion correction           -0.011002599
FINAL SINGLE POINT ENERGY      -229.865810126942
Dispersion correction            ... done
Dispersion correction           -0.011046274
FINAL SINGLE POINT ENERGY      -229.867325235557
Dispersion correction            ... done
Dispersion correction           -0.011053810
FINAL SINGLE POINT ENERGY      -229.867392316246
Dispersion correction            ... done
FINAL SINGLE POINT ENERGY      -229.867420005969
Dispersion correction            ... done
Dispersion correction           -0.011056655
FINAL SINGLE POINT ENERGY      -229.867422275317
Dispersion correction            ... done
Dispersion correction           -0.011055960
FINAL SINGLE POINT ENERGY      -229.867423682961
Dispersion correction            ... done
                    ***********************HURRAY********************

CARTESIAN COORDINATES (ANGSTROEM)
---------------------------------
  C     -1.141333   -0.026807   -0.000227
  O     -0.354308    1.078744   -0.001115
  C      0.936037    0.658175   -0.000821
  C      0.990880   -0.706227    0.000161
  C     -0.374026   -1.156329    0.000650
  H     -2.214546    0.148364   -0.000297
  H      1.693042    1.437483   -0.001469
  H      1.888820   -1.320119    0.000564
  H     -0.733087   -2.183663    0.001515

 Multiplicity           Mult            ....    1
 Number of Electrons    NEL             ....   36
 Basis Dimension        Dim             ....   90

ORBITAL ENERGIES
----------------

  NO   OCC          E(Eh)            E(eV)
   0   2.0000     -19.200075      -522.4606
   1   2.0000     -10.235912      -278.5333
   2   2.0000     -10.235899      -278.5330
   3   2.0000     -10.188176      -277.2344
   4   2.0000     -10.187959      -277.2285
   5   2.0000      -1.103094       -30.0167
   6   2.0000      -0.790449       -21.5092
   7   2.0000      -0.739640       -20.1266
   8   2.0000      -0.596986       -16.2448
   9   2.0000      -0.562819       -15.3151
  10   2.0000      -0.539891       -14.6912
  11   2.0000      -0.453729       -12.3466
  12   2.0000      -0.446831       -12.1589
  13   2.0000      -0.411588       -11.1999
  14   2.0000      -0.400406       -10.8956
  15   2.0000      -0.372593       -10.1388
  16   2.0000      -0.282577        -7.6893
  17   2.0000      -0.234130        -6.3710
  18   0.0000       0.008171         0.2223
  19   0.0000       0.063478         1.7273
  20   0.0000       0.079575         2.1653
  21   0.0000       0.109813         2.9882
  22   0.0000       0.111676         3.0389

MULLIKEN ATOMIC CHARGES
-----------------------
   0 C :    0.118403
   1 O :   -0.210897
   2 C :    0.120522
   3 C :   -0.023354
   4 C :   -0.025638
   5 H :    0.014539
   6 H :    0.012514
   7 H :   -0.002669
   8 H :   -0.003421
Sum of atomic charges:    0.0000000

LOEWDIN ATOMIC CHARGES
----------------------
   0 C :    0.025440
   1 O :    0.001613
   2 C :    0.026350
   3 C :   -0.079149
   4 C :   -0.078721
   5 H :    0.022478
   6 H :    0.022140
   7 H :    0.029956
   8 H :    0.029892

  Mayer bond orders larger than 0.100000
B(  0-C ,  1-O ) :   1.1392 B(  0-C ,  4-C ) :   1.5623 B(  0-C ,  5-H ) :   0.9989
B(  1-O ,  2-C ) :   1.1404 B(  2-C ,  3-C ) :   1.5654 B(  2-C ,  6-H ) :   0.9993
B(  3-C ,  4-C ) :   1.2207 B(  3-C ,  7-H ) :   1.0011 B(  4-C ,  8-H ) :   1.0031

Dispersion correction           -0.011055864
FINAL SINGLE POINT ENERGY      -229.867424059601

DIPOLE MOMENT
-------------
                                X             Y             Z
Electronic contribution:     -0.52719       1.60700      -0.00122
Nuclear contribution   :      0.59454      -1.81317       0.00140
                        -----------------------------------------
Total Dipole Moment    :      0.06735      -0.20617       0.00018
                        -----------------------------------------
Magnitude (a.u.)       :      0.21689
Magnitude (Debye)      :      0.55129

Rotational constants in cm-1:     0.315021     0.308448     0.155850
Rotational constants in MHz :  9444.081772  9247.044405  4672.262269

                             ****ORCA TERMINATED NORMALLY****
TOTAL RUN TIME: 0 days 0 hours 1 minutes 21 seconds 450 msec
