                         Program Version 4.2.0 -  RELEASE  -
|  1> # ORCA input file
|  2> # SCF done        -24.477833488997          0.000686348975
|  3> ! B3LYP/G D3BJ Opt RIJCOSX def2-SVP def2/J
|  4> * xyz 0 1
|  5>    C       -1.40507        -0.01698        -0.21133
|  6>    S       -0.41428         1.38692        -0.37329
|  7>    C        1.00579         0.46998        -0.08380
|  8>    C        0.72826        -0.84328         0.12799
|  9>    O        1.67338        -1.80010         0.42025
| 10>    C        2.01596        -2.61590        -0.68529
| 11>    C       -0.67546        -1.13483         0.05295
| 12>    N       -1.15977        -2.42855         0.17810
| 13>    H       -2.46651         0.06946        -0.32395
| 14>    H        1.96444         0.94761        -0.06907
| 15>    H        2.70015        -3.37200        -0.30339
| 16>    H        2.51717        -2.02907        -1.46244
| 17>    H        1.13290        -3.09687        -1.11596
| 18>    H       -0.58321        -3.00720         0.77368
| 19>    H       -2.14082        -2.48652         0.40691
| 20> *
| 21>
| 22>                          ****END OF INPUT****
 Total Charge           Charge          ....    0
 Multiplicity           Mult            ....    1
 Number of Electrons    NEL             ....   68
Dispersion correction           -0.026479366
FINAL SINGLE POINT ENERGY      -722.555782134363
Dispersion correction            ... done
Dispersion correction           -0.026381491
FINAL SINGLE POINT ENERGY      -722.557460652553
Dispersion correction            ... done
Dispersion correction           -0.026380698
FINAL SINGLE POINT ENERGY      -722.557601753019
Dispersion correction            ... done
FINAL SINGLE POINT ENERGY      -722.557616561508
Dispersion correction            ... done
Dispersion correction           -0.026377950
FINAL SINGLE POINT ENERGY      -722.557631547565
Dispersion correction            ... done
Dispersion correction           -0.026380611
FINAL SINGLE POINT ENERGY      -722.557633015116
Dispersion correction            ... done
                    ***********************HURRAY********************

CARTESIAN COORDINATES (ANGSTROEM)
---------------------------------
  C     -1.433203    0.009175   -0.208885
  S     -0.411961    1.408092   -0.376095
  C      1.013369    0.468843   -0.095272
  C      0.708147   -0.850080    0.119125
  O      1.612157   -1.832360    0.418807
  C      2.035459   -2.617982   -0.688881
  C     -0.707195   -1.130812    0.046279
  N     -1.170096   -2.438293    0.183691
  H     -2.510991    0.108252   -0.321974
  H      2.002115    0.922279   -0.082248
  H      2.716674   -3.385421   -0.294767
  H      2.572471   -2.000778   -1.430835
  H      1.181016   -3.108916   -1.186998
  H     -0.571304   -2.992075    0.791000
  H     -2.143727   -2.517257    0.458413

 Multiplicity           Mult            ....    1
 Number of Electrons    NEL             ....   68
 Basis Dimension        Dim             ....  151

ORBITAL ENERGIES
----------------

  NO   OCC          E(Eh)            E(eV)
   0   2.0000     -88.861738     -2418.0508
   1   2.0000     -19.152240      -521.1589
   2   2.0000     -14.333882      -390.0448
   3   2.0000     -10.238808      -278.6121
   4   2.0000     -10.233435      -278.4659
   5   2.0000     -10.220570      -278.1158
   6   2.0000     -10.200962      -277.5823
   7   2.0000     -10.193235      -277.3720
   8   2.0000      -7.956455      -216.5062
   9   2.0000      -5.924813      -161.2224
  10   2.0000      -5.920829      -161.1139
  11   2.0000      -5.917315      -161.0183
  12   2.0000      -1.045032       -28.4368
  13   2.0000      -0.907723       -24.7004
  14   2.0000      -0.850209       -23.1354
  15   2.0000      -0.730197       -19.8697
  16   2.0000      -0.700286       -19.0558
  17   2.0000      -0.667841       -18.1729
  18   2.0000      -0.581261       -15.8169
  19   2.0000      -0.546483       -14.8706
  20   2.0000      -0.524747       -14.2791
  21   2.0000      -0.498367       -13.5613
  22   2.0000      -0.464191       -12.6313
  23   2.0000      -0.459628       -12.5071
  24   2.0000      -0.442328       -12.0364
  25   2.0000      -0.405082       -11.0228
  26   2.0000      -0.394846       -10.7443
  27   2.0000      -0.382062       -10.3964
  28   2.0000      -0.355986        -9.6869
  29   2.0000      -0.340090        -9.2543
  30   2.0000      -0.313014        -8.5175
  31   2.0000      -0.278477        -7.5777
  32   2.0000      -0.228190        -6.2094
  33   2.0000      -0.201024        -5.4702
  34   0.0000      -0.002723        -0.0741
  35   0.0000       0.048053         1.3076
  36   0.0000       0.056382         1.5342
  37   0.0000       0.072808         1.9812
  38   0.0000       0.088670         2.4128

MULLIKEN ATOMIC CHARGES
-----------------------
   0 C :   -0.199820
   1 S :    0.077634
   2 C :   -0.142225
   3 C :    0.158771
   4 O :   -0.353880
   5 C :    0.206586
   6 C :    0.055559
   7 N :   -0.082137
   8 H :   -0.001057
   9 H :    0.011337
  10 H :    0.027024
  11 H :    0.008751
  12 H :    0.014143
  13 H :    0.113030
  14 H :    0.106285
Sum of atomic charges:   -0.0000000

LOEWDIN ATOMIC CHARGES
----------------------
   0 C :   -0.255059
   1 S :    0.406318
   2 C :   -0.214801
   3 C :   -0.021114
   4 O :   -0.139626
   5 C :    0.083280
   6 C :   -0.037787
   7 N :   -0.046780
   8 H :    0.017282
   9 H :    0.025617
  10 H :    0.020906
  11 H :    0.010309
  12 H :    0.010382
  13 H :    0.069609
  14 H :    0.071465

  Mayer bond orders larger than 0.100000
B(  0-C ,  1-S ) :   1.1096 B(  0-C ,  6-C ) :   1.5022 B(  0-C ,  8-H ) :   0.9725
B(  1-S ,  2-C ) :   1.1545 B(  2-C ,  3-C ) :   1.5510 B(  2-C ,  9-H ) :   0.9686
B(  3-C ,  4-O ) :   1.0930 B(  3-C ,  6-C ) :   1.2243 B(  4-O ,  5-C ) :   0.9436
B(  5-C , 10-H ) :   0.9805 B(  5-C , 11-H ) :   0.9670 B(  5-C , 12-H ) :   0.9638
B(  6-C ,  7-N ) :   1.2020 B(  7-N , 13-H ) :   0.9373 B(  7-N , 14-H ) :   0.9497

Dispersion correction           -0.026379731
FINAL SINGLE POINT ENERGY      -722.557631641412

DIPOLE MOMENT
-------------
                                X             Y             Z
Electronic contribution:     -2.28752       7.50041       1.16879
Nuclear contribution   :      2.11606      -8.14570      -1.16963
                        -----------------------------------------
Total Dipole Moment    :     -0.17145      -0.64529      -0.00083
                        -----------------------------------------
Magnitude (a.u.)       :      0.66768
Magnitude (Debye)      :      1.69711

Rotational constants in cm-1:     0.100846     0.047048     0.033980
Rotational constants in MHz :  3023.288794  1410.475126  1018.682221

                             ****ORCA TERMINATED NORMALLY****
TOTAL RUN TIME: 0 days 0 hours 4 minutes 15 seconds 937 msec
