                         Program Version 4.2.0 -  RELEASE  -
|  1> # ORCA input file
|  2> # SCF done        -37.217029584743          0.000670068664
|  3> ! B3LYP/G D3BJ Opt RIJCOSX def2-SVP def2/J
|  4> * xyz 0 1
|  5>    C        1.59567         1.03148        -0.16881
|  6>    S        2.77503        -0.21737        -0.14964
|  7>    C        1.54771        -1.41156         0.01000
|  8>    C        0.29953        -0.87288         0.04512
|  9>    C        0.33068         0.54618        -0.06180
| 10>    C       -0.91267         1.38946         0.02802
| 11>    C       -0.93021         1.99142         1.34499
| 12>    N       -0.93373         2.44738         2.39335
| 13>    C       -2.17398         0.53813        -0.17651
| 14>    C       -2.09937        -0.73766         0.65731
| 15>    C       -0.99067        -1.64357         0.11697
| 16>    O       -1.41449        -2.08272        -1.16766
| 17>    C       -0.63834        -3.10464        -1.73156
| 18>    H        1.90835         2.05378        -0.25033
| 19>    H        1.82900        -2.44332         0.08612
| 20>    H       -0.87589         2.20298        -0.70677
| 21>    H       -2.25340         0.26018        -1.22845
| 22>    H       -3.05553         1.11962         0.10017
| 23>    H       -3.04592        -1.27449         0.59486
| 24>    H       -1.89641        -0.49800         1.70298
| 25>    H       -0.85863        -2.52306         0.77051
| 26>    H       -1.14684        -3.40095        -2.64732
| 27>    H       -0.56807        -3.96770        -1.05749
| 28>    H        0.37394        -2.76157        -1.97520
| 29> *
| 30>
| 31>                          ****END OF INPUT****
 Total Charge           Charge          ....    0
 Multiplicity           Mult            ....    1
 Number of Electrons    NEL             ....  102
Dispersion correction           -0.052390209
FINAL SINGLE POINT ENERGY      -915.375794550096
Dispersion correction            ... done
Dispersion correction           -0.051768167
FINAL SINGLE POINT ENERGY      -915.379311412450
Dispersion correction            ... done
Dispersion correction           -0.051643846
FINAL SINGLE POINT ENERGY      -915.379437918040
Dispersion correction            ... done
FINAL SINGLE POINT ENERGY      -915.379318582413
FINAL SINGLE POINT ENERGY      -915.379312067831
FINAL SINGLE POINT ENERGY      -915.379314488597
FINAL SINGLE POINT ENERGY      -915.379283555058
Dispersion correction            ... done
Dispersion correction           -0.051515513
FINAL SINGLE POINT ENERGY      -915.379253304924
Dispersion correction            ... done
Dispersion correction           -0.051513865
FINAL SINGLE POINT ENERGY      -915.379241976158
Dispersion correction            ... done
                    ***********************HURRAY********************

CARTESIAN COORDINATES (ANGSTROEM)
---------------------------------
  C      1.632017    1.079334   -0.176119
  S      2.812236   -0.180609   -0.211888
  C      1.593043   -1.394178   -0.051003
  C      0.329023   -0.854681    0.017964
  C      0.358031    0.581679   -0.050876
  C     -0.902231    1.420937    0.089720
  C     -0.956663    2.044852    1.423253
  N     -1.019190    2.533196    2.472038
  C     -2.169639    0.568718   -0.158686
  C     -2.106275   -0.754965    0.603299
  C     -0.968020   -1.634590    0.085513
  O     -1.375450   -2.091294   -1.200981
  C     -0.674807   -3.198334   -1.701468
  H      1.940374    2.123004   -0.221633
  H      1.876884   -2.443843   -0.000767
  H     -0.872723    2.249463   -0.637437
  H     -2.240675    0.356867   -1.236109
  H     -3.058208    1.147819    0.133693
  H     -3.045326   -1.313122    0.473802
  H     -1.969414   -0.565917    1.681101
  H     -0.833974   -2.509276    0.751205
  H     -1.157648   -3.497965   -2.642349
  H     -0.712629   -4.056475   -0.999114
  H      0.387025   -2.969499   -1.914295

 Multiplicity           Mult            ....    1
 Number of Electrons    NEL             ....  102
 Basis Dimension        Dim             ....  241

ORBITAL ENERGIES
----------------

  NO   OCC          E(Eh)            E(eV)
   0   2.0000     -88.885423     -2418.6953
   1   2.0000     -19.142280      -520.8879
   2   2.0000     -14.321813      -389.7163
   3   2.0000     -10.252153      -278.9753
   4   2.0000     -10.246435      -278.8197
   5   2.0000     -10.238241      -278.5967
   6   2.0000     -10.222612      -278.1714
   7   2.0000     -10.222392      -278.1654
   8   2.0000     -10.221998      -278.1547
   9   2.0000     -10.213859      -277.9332
  10   2.0000     -10.206386      -277.7299
  11   2.0000     -10.204704      -277.6841
  12   2.0000     -10.196240      -277.4538
  13   2.0000      -7.980475      -217.1598
  14   2.0000      -5.948485      -161.8665
  15   2.0000      -5.944362      -161.7543
  16   2.0000      -5.942101      -161.6928
  17   2.0000      -1.034360       -28.1464
  18   2.0000      -0.901865       -24.5410
  19   2.0000      -0.888597       -24.1800
  20   2.0000      -0.834129       -22.6978
  21   2.0000      -0.782092       -21.2818
  22   2.0000      -0.744012       -20.2456
  23   2.0000      -0.718233       -19.5441
  24   2.0000      -0.685558       -18.6550
  25   2.0000      -0.642636       -17.4870
  26   2.0000      -0.600463       -16.3394
  27   2.0000      -0.585490       -15.9320
  28   2.0000      -0.552596       -15.0369
  29   2.0000      -0.526474       -14.3261
  30   2.0000      -0.505176       -13.7465
  31   2.0000      -0.497555       -13.5392
  32   2.0000      -0.467815       -12.7299
  33   2.0000      -0.461544       -12.5593
  34   2.0000      -0.450594       -12.2613
  35   2.0000      -0.427792       -11.6408
  36   2.0000      -0.418135       -11.3780
  37   2.0000      -0.416445       -11.3320
  38   2.0000      -0.410680       -11.1752
  39   2.0000      -0.390693       -10.6313
  40   2.0000      -0.371123       -10.0988
  41   2.0000      -0.363694        -9.8966
  42   2.0000      -0.358699        -9.7607
  43   2.0000      -0.356081        -9.6895
  44   2.0000      -0.347636        -9.4597
  45   2.0000      -0.328325        -8.9342
  46   2.0000      -0.322857        -8.7854
  47   2.0000      -0.319874        -8.7042
  48   2.0000      -0.272297        -7.4096
  49   2.0000      -0.258967        -7.0469
  50   2.0000      -0.250546        -6.8177
  51   0.0000      -0.035158        -0.9567
  52   0.0000       0.018395         0.5006
  53   0.0000       0.028297         0.7700
  54   0.0000       0.038319         1.0427
  55   0.0000       0.049391         1.3440

MULLIKEN ATOMIC CHARGES
-----------------------
   0 C :   -0.129997
   1 S :    0.114616
   2 C :   -0.134204
   3 C :   -0.016170
   4 C :    0.000844
   5 C :    0.033801
   6 C :   -0.236720
   7 N :    0.056778
   8 C :    0.058489
   9 C :    0.069826
  10 C :    0.223923
  11 O :   -0.384975
  12 C :    0.193346
  13 H :    0.023171
  14 H :    0.020762
  15 H :    0.035139
  16 H :    0.026074
  17 H :    0.015024
  18 H :    0.007440
  19 H :    0.021908
  20 H :   -0.017871
  21 H :    0.021249
  22 H :   -0.005888
  23 H :    0.003434
Sum of atomic charges:    0.0000000

LOEWDIN ATOMIC CHARGES
----------------------
   0 C :   -0.187569
   1 S :    0.446432
   2 C :   -0.191747
   3 C :   -0.076114
   4 C :   -0.055658
   5 C :   -0.038718
   6 C :   -0.030365
   7 N :   -0.080796
   8 C :   -0.007565
   9 C :   -0.028871
  10 C :    0.078692
  11 O :   -0.167912
  12 C :    0.066044
  13 H :    0.027706
  14 H :    0.023475
  15 H :    0.057583
  16 H :    0.031774
  17 H :    0.030674
  18 H :    0.031211
  19 H :    0.031228
  20 H :    0.012006
  21 H :    0.022283
  22 H :    0.002713
  23 H :    0.003491

  Mayer bond orders larger than 0.100000
B(  0-C ,  1-S ) :   1.1719 B(  0-C ,  4-C ) :   1.5449 B(  0-C , 13-H ) :   0.9654
B(  1-S ,  2-C ) :   1.1714 B(  2-C ,  3-C ) :   1.5428 B(  2-C , 14-H ) :   0.9603
B(  3-C ,  4-C ) :   1.3208 B(  3-C , 10-C ) :   0.9711 B(  4-C ,  5-C ) :   0.9858
B(  5-C ,  6-C ) :   1.0398 B(  5-C ,  8-C ) :   1.0825 B(  5-C , 15-H ) :   0.8630
B(  6-C ,  7-N ) :   3.0792 B(  8-C ,  9-C ) :   1.0625 B(  8-C , 16-H ) :   0.9285
B(  8-C , 17-H ) :   0.9346 B(  9-C , 10-C ) :   1.0568 B(  9-C , 18-H ) :   0.9192
B(  9-C , 19-H ) :   0.9368 B( 10-C , 11-O ) :   1.0015 B( 10-C , 20-H ) :   0.9074
B( 11-O , 12-C ) :   0.9984 B( 12-C , 21-H ) :   0.9760 B( 12-C , 22-H ) :   0.9591
B( 12-C , 23-H ) :   0.9575

Dispersion correction           -0.051515691
FINAL SINGLE POINT ENERGY      -915.379244668217

DIPOLE MOMENT
-------------
                                X             Y             Z
Electronic contribution:      9.32525       7.59791       3.48273
Nuclear contribution   :     -9.07138      -8.59058      -4.58886
                        -----------------------------------------
Total Dipole Moment    :      0.25387      -0.99267      -1.10613
                        -----------------------------------------
Magnitude (a.u.)       :      1.50777
Magnitude (Debye)      :      3.83244

Rotational constants in cm-1:     0.027597     0.024139     0.014224
Rotational constants in MHz :   827.341632   723.681386   426.415711

                             ****ORCA TERMINATED NORMALLY****
TOTAL RUN TIME: 0 days 0 hours 17 minutes 29 seconds 4 msec
