                         Program Version 4.2.0 -  RELEASE  -
|  1> # ORCA input file
|  2> # SCF done        -34.820928828190          0.000399766861
|  3> ! B3LYP/G D3BJ Opt RIJCOSX def2-SVP def2/J
|  4> * xyz 0 1
|  5>    C        1.52242        -1.29634        -0.11588
|  6>    S        2.75988        -0.10900        -0.08752
|  7>    C        1.58667         1.17573         0.01325
|  8>    C        0.30807         0.66870         0.00601
|  9>    C        0.27739        -0.75045        -0.06725
| 10>    C       -0.99332        -1.54032        -0.13565
| 11>    C       -2.17784        -0.70395         0.33887
| 12>    C       -2.16469         0.65145        -0.36157
| 13>    C       -0.95235         1.48932         0.06814
| 14>    O       -1.15183         2.05097         1.35535
| 15>    C        2.08851         2.52762         0.05407
| 16>    C        1.43608         3.60425         0.48196
| 17>    H        1.78581        -2.33411        -0.17065
| 18>    H       -0.89925        -2.45288         0.45729
| 19>    H       -1.16069        -1.84197        -1.17497
| 20>    H       -2.12474        -0.56517         1.42216
| 21>    H       -3.11034        -1.22765         0.12097
| 22>    H       -3.06790         1.21482        -0.12058
| 23>    H       -2.12988         0.50272        -1.44235
| 24>    H       -0.85624         2.35887        -0.59373
| 25>    H       -1.16363         1.33530         2.00093
| 26>    H        3.11276         2.62383        -0.28661
| 27>    H        0.44174         3.55738         0.88590
| 28>    H        1.90481         4.57344         0.46037
| 29> *
| 30>
| 31>                          ****END OF INPUT****
 Total Charge           Charge          ....    0
 Multiplicity           Mult            ....    1
 Number of Electrons    NEL             ....   96
Dispersion correction           -0.051362348
FINAL SINGLE POINT ENERGY      -861.282749587039
Dispersion correction            ... done
Dispersion correction           -0.050922722
FINAL SINGLE POINT ENERGY      -861.285808287346
Dispersion correction            ... done
Dispersion correction           -0.050891370
FINAL SINGLE POINT ENERGY      -861.286098732337
Dispersion correction            ... done
FINAL SINGLE POINT ENERGY      -861.286134251178
FINAL SINGLE POINT ENERGY      -861.286175225540
FINAL SINGLE POINT ENERGY      -861.286296154793
FINAL SINGLE POINT ENERGY      -861.286297660261
FINAL SINGLE POINT ENERGY      -861.286323386873
FINAL SINGLE POINT ENERGY      -861.286361569018
FINAL SINGLE POINT ENERGY      -861.286388602642
FINAL SINGLE POINT ENERGY      -861.286418343542
Dispersion correction            ... done
Dispersion correction           -0.051064317
FINAL SINGLE POINT ENERGY      -861.286436169103
Dispersion correction            ... done
Dispersion correction           -0.051064617
FINAL SINGLE POINT ENERGY      -861.286449230642
Dispersion correction            ... done
                    ***********************HURRAY********************

CARTESIAN COORDINATES (ANGSTROEM)
---------------------------------
  C      1.540951   -1.323475   -0.051232
  S      2.768380   -0.110949   -0.036059
  C      1.591513    1.176329    0.021033
  C      0.301855    0.654739    0.014228
  C      0.276769   -0.780994   -0.034194
  C     -1.011486   -1.560449   -0.139366
  C     -2.229369   -0.723472    0.273330
  C     -2.186876    0.665289   -0.365896
  C     -0.961608    1.473908    0.081725
  O     -1.165574    2.005457    1.399499
  C      2.070096    2.553579    0.032989
  C      1.410032    3.633256    0.486988
  H      1.813779   -2.377342   -0.086985
  H     -0.948599   -2.485309    0.455212
  H     -1.139632   -1.884161   -1.188703
  H     -2.258057   -0.610728    1.371171
  H     -3.153087   -1.250449   -0.014423
  H     -3.082965    1.247206   -0.100879
  H     -2.169376    0.568135   -1.466192
  H     -0.852809    2.356521   -0.570657
  H     -0.723587    1.416286    2.024508
  H      3.078985    2.691848   -0.372939
  H      0.429188    3.556249    0.959937
  H      1.872919    4.621086    0.415416

 Multiplicity           Mult            ....    1
 Number of Electrons    NEL             ....   96
 Basis Dimension        Dim             ....  232

ORBITAL ENERGIES
----------------

  NO   OCC          E(Eh)            E(eV)
   0   2.0000     -88.872769     -2418.3510
   1   2.0000     -19.131280      -520.5886
   2   2.0000     -10.238196      -278.5955
   3   2.0000     -10.218370      -278.0560
   4   2.0000     -10.208688      -277.7925
   5   2.0000     -10.200645      -277.5737
   6   2.0000     -10.198139      -277.5055
   7   2.0000     -10.196015      -277.4477
   8   2.0000     -10.192969      -277.3648
   9   2.0000     -10.189732      -277.2767
  10   2.0000     -10.183801      -277.1153
  11   2.0000     -10.183567      -277.1090
  12   2.0000      -7.967888      -216.8173
  13   2.0000      -5.935832      -161.5222
  14   2.0000      -5.931898      -161.4151
  15   2.0000      -5.929461      -161.3488
  16   2.0000      -1.007968       -27.4282
  17   2.0000      -0.883915       -24.0525
  18   2.0000      -0.812192       -22.1009
  19   2.0000      -0.780765       -21.2457
  20   2.0000      -0.738626       -20.0990
  21   2.0000      -0.731367       -19.9015
  22   2.0000      -0.687523       -18.7085
  23   2.0000      -0.629114       -17.1191
  24   2.0000      -0.605150       -16.4670
  25   2.0000      -0.579601       -15.7717
  26   2.0000      -0.549610       -14.9556
  27   2.0000      -0.536952       -14.6112
  28   2.0000      -0.487959       -13.2781
  29   2.0000      -0.468838       -12.7577
  30   2.0000      -0.463269       -12.6062
  31   2.0000      -0.453526       -12.3411
  32   2.0000      -0.434741       -11.8299
  33   2.0000      -0.430020       -11.7014
  34   2.0000      -0.414521       -11.2797
  35   2.0000      -0.410749       -11.1770
  36   2.0000      -0.395693       -10.7674
  37   2.0000      -0.372919       -10.1476
  38   2.0000      -0.370692       -10.0871
  39   2.0000      -0.358928        -9.7669
  40   2.0000      -0.343817        -9.3557
  41   2.0000      -0.341461        -9.2916
  42   2.0000      -0.334071        -9.0905
  43   2.0000      -0.317417        -8.6374
  44   2.0000      -0.295782        -8.0486
  45   2.0000      -0.273782        -7.4500
  46   2.0000      -0.248588        -6.7644
  47   2.0000      -0.217892        -5.9291
  48   0.0000      -0.045300        -1.2327
  49   0.0000       0.019306         0.5253
  50   0.0000       0.036430         0.9913
  51   0.0000       0.049389         1.3440
  52   0.0000       0.059737         1.6255

MULLIKEN ATOMIC CHARGES
-----------------------
   0 C :   -0.132824
   1 S :    0.106733
   2 C :   -0.142755
   3 C :   -0.082985
   4 C :   -0.049885
   5 C :    0.142610
   6 C :   -0.003895
   7 C :    0.071241
   8 C :    0.205392
   9 O :   -0.300254
  10 C :    0.012071
  11 C :   -0.044397
  12 H :    0.010025
  13 H :   -0.001608
  14 H :    0.009959
  15 H :   -0.001690
  16 H :   -0.004009
  17 H :   -0.000871
  18 H :   -0.003018
  19 H :   -0.007267
  20 H :    0.166128
  21 H :   -0.009519
  22 H :    0.042265
  23 H :    0.018555
Sum of atomic charges:   -0.0000000

LOEWDIN ATOMIC CHARGES
----------------------
   0 C :   -0.203840
   1 S :    0.433431
   2 C :   -0.173461
   3 C :   -0.089546
   4 C :   -0.062931
   5 C :   -0.023213
   6 C :   -0.032362
   7 C :   -0.037194
   8 C :    0.072989
   9 O :   -0.129250
  10 C :   -0.049918
  11 C :   -0.044637
  12 H :    0.021920
  13 H :    0.029006
  14 H :    0.032006
  15 H :    0.017109
  16 H :    0.023571
  17 H :    0.026747
  18 H :    0.022477
  19 H :    0.021486
  20 H :    0.070916
  21 H :    0.026749
  22 H :    0.023549
  23 H :    0.024396

  Mayer bond orders larger than 0.100000
B(  0-C ,  1-S ) :   1.1483 B(  0-C ,  4-C ) :   1.5391 B(  0-C , 12-H ) :   0.9658
B(  1-S ,  2-C ) :   1.1423 B(  2-C ,  3-C ) :   1.4900 B(  2-C , 10-C ) :   1.0984
B(  3-C ,  4-C ) :   1.2948 B(  3-C ,  8-C ) :   1.0285 B(  4-C ,  5-C ) :   1.0383
B(  5-C ,  6-C ) :   1.0947 B(  5-C , 13-H ) :   0.9172 B(  5-C , 14-H ) :   0.9131
B(  6-C ,  7-C ) :   1.0680 B(  6-C , 15-H ) :   0.9404 B(  6-C , 16-H ) :   0.9325
B(  7-C ,  8-C ) :   1.0426 B(  7-C , 17-H ) :   0.9208 B(  7-C , 18-H ) :   0.9316
B(  8-C ,  9-O ) :   1.0109 B(  8-C , 19-H ) :   0.8958 B(  9-O , 20-H ) :   0.9707
B( 10-C , 11-C ) :   1.9238 B( 10-C , 21-H ) :   0.9452 B( 11-C , 22-H ) :   0.9312
B( 11-C , 23-H ) :   0.9415

Dispersion correction           -0.051063595
FINAL SINGLE POINT ENERGY      -861.286451995003

DIPOLE MOMENT
-------------
                                X             Y             Z
Electronic contribution:     11.28216      -1.43015       0.16872
Nuclear contribution   :    -11.31473       0.80217      -0.29448
                        -----------------------------------------
Total Dipole Moment    :     -0.03257      -0.62798      -0.12577
                        -----------------------------------------
Magnitude (a.u.)       :      0.64128
Magnitude (Debye)      :      1.63000

Rotational constants in cm-1:     0.037299     0.027355     0.016845
Rotational constants in MHz :  1118.204447   820.079675   504.990062

                             ****ORCA TERMINATED NORMALLY****
TOTAL RUN TIME: 0 days 0 hours 22 minutes 11 seconds 487 msec
