                         Program Version 4.2.0 -  RELEASE  -
|  1> # ORCA input file
|  2> # SCF done        -36.679626282598          0.000224799035
|  3> ! B3LYP/G D3BJ Opt RIJCOSX def2-SVP def2/J
|  4> * xyz 0 1
|  5>    C        1.96632        -0.27739        -0.23623
|  6>    C        1.06163         0.76444        -0.38338
|  7>    O        1.35510         2.08526        -0.23173
|  8>    C        2.67942         2.45899         0.08981
|  9>    C        2.71945         3.97592         0.19189
| 10>    C       -0.26835         0.49283        -0.71225
| 11>    C       -0.69278        -0.81282        -0.89369
| 12>    O       -1.96185        -1.17816        -1.21348
| 13>    C       -2.94365        -0.17435        -1.37516
| 14>    C       -4.25717        -0.86300        -1.71215
| 15>    C        0.22278        -1.85927        -0.74549
| 16>    C        1.53071        -1.58206        -0.42088
| 17>    H        2.99760        -0.09412         0.01807
| 18>    H        3.36962         2.11327        -0.69257
| 19>    H        2.97852         2.00698         1.04594
| 20>    H        2.41433         4.41878        -0.75224
| 21>    H        3.72650         4.30459         0.43222
| 22>    H        2.03813         4.31326         0.96807
| 23>    H       -0.93211         1.33524        -0.81566
| 24>    H       -2.65421         0.50934        -2.18546
| 25>    H       -3.04628         0.40566        -0.44743
| 26>    H       -4.14943        -1.43903        -2.62707
| 27>    H       -5.04035        -0.12214        -1.84574
| 28>    H       -4.53729        -1.53925        -0.90919
| 29>    H       -0.12134        -2.87019        -0.89057
| 30>    H        2.23536        -2.39229        -0.30620
| 31> *
| 32>
| 33>                          ****END OF INPUT****
 Total Charge           Charge          ....    0
 Multiplicity           Mult            ....    1
 Number of Electrons    NEL             ....   90
Dispersion correction           -0.041231591
FINAL SINGLE POINT ENERGY      -539.581776186022
Dispersion correction            ... done
Dispersion correction           -0.041116578
FINAL SINGLE POINT ENERGY      -539.584005918750
Dispersion correction            ... done
Dispersion correction           -0.041094438
FINAL SINGLE POINT ENERGY      -539.584120452587
Dispersion correction            ... done
FINAL SINGLE POINT ENERGY      -539.584065527264
FINAL SINGLE POINT ENERGY      -539.584041824466
Dispersion correction            ... done
Dispersion correction           -0.041100648
FINAL SINGLE POINT ENERGY      -539.584007415301
Dispersion correction            ... done
Dispersion correction           -0.041100298
FINAL SINGLE POINT ENERGY      -539.584001467861
Dispersion correction            ... done
                    ***********************HURRAY********************

CARTESIAN COORDINATES (ANGSTROEM)
---------------------------------
  C      1.986646   -0.273211   -0.251791
  C      1.079652    0.770959   -0.462298
  O      1.389927    2.086762   -0.348125
  C      2.690100    2.464852    0.069485
  C      2.695134    3.969813    0.245857
  C     -0.254213    0.497708   -0.816277
  C     -0.681334   -0.825075   -0.951929
  O     -1.946236   -1.180595   -1.286155
  C     -2.937459   -0.175936   -1.411154
  C     -4.271858   -0.855267   -1.648032
  C      0.223468   -1.882387   -0.736279
  C      1.536352   -1.593885   -0.392942
  H      3.020305   -0.078588    0.028622
  H      3.436471    2.148339   -0.683440
  H      2.947846    1.959236    1.019297
  H      2.442853    4.472166   -0.700559
  H      3.685535    4.317801    0.577850
  H      1.950539    4.270070    0.997717
  H     -0.913629    1.348273   -0.979841
  H     -2.683901    0.502664   -2.247584
  H     -2.969957    0.437913   -0.491312
  H     -4.244623   -1.466076   -2.563218
  H     -5.066080   -0.100641   -1.754936
  H     -4.525050   -1.514266   -0.803708
  H     -0.137030   -2.906593   -0.842176
  H      2.237204   -2.413545   -0.217642

 Multiplicity           Mult            ....    1
 Number of Electrons    NEL             ....   90
 Basis Dimension        Dim             ....  238

ORBITAL ENERGIES
----------------

  NO   OCC          E(Eh)            E(eV)
   0   2.0000     -19.158458      -521.3282
   1   2.0000     -19.157364      -521.2984
   2   2.0000     -10.244442      -278.7654
   3   2.0000     -10.244371      -278.7635
   4   2.0000     -10.243374      -278.7364
   5   2.0000     -10.243037      -278.7272
   6   2.0000     -10.187760      -277.2230
   7   2.0000     -10.187533      -277.2169
   8   2.0000     -10.186823      -277.1975
   9   2.0000     -10.176292      -276.9110
  10   2.0000     -10.176085      -276.9053
  11   2.0000     -10.173162      -276.8258
  12   2.0000      -1.055441       -28.7200
  13   2.0000      -1.053529       -28.6680
  14   2.0000      -0.838939       -22.8287
  15   2.0000      -0.777194       -21.1485
  16   2.0000      -0.763873       -20.7860
  17   2.0000      -0.724601       -19.7174
  18   2.0000      -0.709656       -19.3107
  19   2.0000      -0.639490       -17.4014
  20   2.0000      -0.635518       -17.2933
  21   2.0000      -0.588007       -16.0005
  22   2.0000      -0.572404       -15.5759
  23   2.0000      -0.546998       -14.8846
  24   2.0000      -0.496525       -13.5111
  25   2.0000      -0.485925       -13.2227
  26   2.0000      -0.483092       -13.1456
  27   2.0000      -0.482431       -13.1276
  28   2.0000      -0.478995       -13.0341
  29   2.0000      -0.429144       -11.6776
  30   2.0000      -0.415046       -11.2940
  31   2.0000      -0.405726       -11.0404
  32   2.0000      -0.396509       -10.7896
  33   2.0000      -0.394805       -10.7432
  34   2.0000      -0.391335       -10.6488
  35   2.0000      -0.389191       -10.5904
  36   2.0000      -0.370224       -10.0743
  37   2.0000      -0.365516        -9.9462
  38   2.0000      -0.357367        -9.7244
  39   2.0000      -0.332602        -9.0506
  40   2.0000      -0.330177        -8.9846
  41   2.0000      -0.324935        -8.8419
  42   2.0000      -0.298239        -8.1155
  43   2.0000      -0.231658        -6.3037
  44   2.0000      -0.212505        -5.7826
  45   0.0000       0.002048         0.0557
  46   0.0000       0.017259         0.4696
  47   0.0000       0.060486         1.6459
  48   0.0000       0.062952         1.7130
  49   0.0000       0.074914         2.0385

MULLIKEN ATOMIC CHARGES
-----------------------
   0 C :   -0.080197
   1 C :    0.219954
   2 O :   -0.316731
   3 C :    0.151555
   4 C :    0.023990
   5 C :   -0.126653
   6 C :    0.224227
   7 O :   -0.315050
   8 C :    0.144531
   9 C :    0.020686
  10 C :   -0.014534
  11 C :    0.020439
  12 H :   -0.033608
  13 H :    0.010963
  14 H :    0.008783
  15 H :    0.021751
  16 H :    0.010053
  17 H :    0.022779
  18 H :   -0.031014
  19 H :    0.011444
  20 H :    0.011564
  21 H :    0.023920
  22 H :    0.014088
  23 H :    0.024461
  24 H :   -0.030574
  25 H :   -0.016826
Sum of atomic charges:    0.0000000

LOEWDIN ATOMIC CHARGES
----------------------
   0 C :   -0.104215
   1 C :    0.061969
   2 O :   -0.102955
   3 C :    0.083209
   4 C :   -0.058556
   5 C :   -0.104648
   6 C :    0.060577
   7 O :   -0.100722
   8 C :    0.082892
   9 C :   -0.060432
  10 C :   -0.072203
  11 C :   -0.009107
  12 H :    0.023160
  13 H :    0.010628
  14 H :    0.010370
  15 H :    0.028507
  16 H :    0.028778
  17 H :    0.028426
  18 H :    0.028852
  19 H :    0.010781
  20 H :    0.011281
  21 H :    0.029025
  22 H :    0.030131
  23 H :    0.028951
  24 H :    0.027617
  25 H :    0.027684

  Mayer bond orders larger than 0.100000
B(  0-C ,  1-C ) :   1.3465 B(  0-C , 11-C ) :   1.3148 B(  0-C , 12-H ) :   0.9880
B(  1-C ,  2-O ) :   1.1319 B(  1-C ,  5-C ) :   1.2929 B(  2-O ,  3-C ) :   0.9512
B(  3-C ,  4-C ) :   1.1027 B(  3-C , 13-H ) :   0.9466 B(  3-C , 14-H ) :   0.9416
B(  4-C , 15-H ) :   0.9663 B(  4-C , 16-H ) :   0.9590 B(  4-C , 17-H ) :   0.9680
B(  5-C ,  6-C ) :   1.3118 B(  5-C , 18-H ) :   0.9969 B(  6-C ,  7-O ) :   1.1260
B(  6-C , 10-C ) :   1.3306 B(  7-O ,  8-C ) :   0.9511 B(  8-C ,  9-C ) :   1.1012
B(  8-C , 19-H ) :   0.9465 B(  8-C , 20-H ) :   0.9449 B(  9-C , 21-H ) :   0.9659
B(  9-C , 22-H ) :   0.9581 B(  9-C , 23-H ) :   0.9665 B( 10-C , 11-C ) :   1.4062
B( 10-C , 24-H ) :   0.9938 B( 11-C , 25-H ) :   0.9784

Dispersion correction           -0.041099293
FINAL SINGLE POINT ENERGY      -539.583999152700

DIPOLE MOMENT
-------------
                                X             Y             Z
Electronic contribution:      2.07985      -5.78105      -0.52438
Nuclear contribution   :     -1.97248       6.29181       0.65790
                        -----------------------------------------
Total Dipole Moment    :      0.10736       0.51077       0.13351
                        -----------------------------------------
Magnitude (a.u.)       :      0.53873
Magnitude (Debye)      :      1.36935

Rotational constants in cm-1:     0.057947     0.014919     0.011983
Rotational constants in MHz :  1737.213957   447.259226   359.241538

                             ****ORCA TERMINATED NORMALLY****
TOTAL RUN TIME: 0 days 0 hours 11 minutes 47 seconds 164 msec
