                         Program Version 4.2.0 -  RELEASE  -
|  1> # ORCA input file
|  2> # SCF done        -23.949213895613          0.000276986940
|  3> ! B3LYP/G D3BJ Opt RIJCOSX def2-SVP def2/J
|  4> * xyz 0 1
|  5>    C       -1.45760        -1.25474         0.15606
|  6>    S       -2.65226        -0.03944         0.23392
|  7>    C       -1.50777         1.22425         0.15520
|  8>    C       -0.22684         0.73414         0.07060
|  9>    C       -0.19670        -0.71192         0.07098
| 10>    N        0.97068        -1.39332        -0.00595
| 11>    C        2.04293        -0.67081        -0.07882
| 12>    N        2.13518         0.67976        -0.08681
| 13>    C        1.03660         1.36854        -0.01463
| 14>    H       -1.72790        -2.29025         0.17578
| 15>    H       -1.82970         2.24616         0.17490
| 16>    H        2.98691        -1.19626        -0.13993
| 17>    H        1.12460         2.44856        -0.02210
| 18> *
| 19>
| 20>                          ****END OF INPUT****
 Total Charge           Charge          ....    0
 Multiplicity           Mult            ....    1
 Number of Electrons    NEL             ....   70
Dispersion correction           -0.028514846
FINAL SINGLE POINT ENERGY      -738.382511877894
Dispersion correction            ... done
Dispersion correction           -0.028484438
FINAL SINGLE POINT ENERGY      -738.384684465311
Dispersion correction            ... done
Dispersion correction           -0.028479808
FINAL SINGLE POINT ENERGY      -738.384768277409
Dispersion correction            ... done
Dispersion correction           -0.028475671
FINAL SINGLE POINT ENERGY      -738.384758430779
Dispersion correction            ... done
Dispersion correction           -0.028476833
FINAL SINGLE POINT ENERGY      -738.384792851848
Dispersion correction            ... done
                    ***********************HURRAY********************

CARTESIAN COORDINATES (ANGSTROEM)
---------------------------------
  C     -1.473739   -1.268783    0.155033
  S     -2.660485   -0.034998    0.242686
  C     -1.517722    1.238829    0.161153
  C     -0.228277    0.731721    0.068841
  C     -0.199222   -0.718763    0.066031
  N      0.976467   -1.408361   -0.010580
  C      2.059543   -0.681400   -0.076186
  N      2.152240    0.691018   -0.088729
  C      1.042816    1.377529   -0.019817
  H     -1.745045   -2.321896    0.169219
  H     -1.841272    2.277969    0.182255
  H      3.017546   -1.211899   -0.129077
  H      1.115280    2.473702   -0.031629

 Multiplicity           Mult            ....    1
 Number of Electrons    NEL             ....   70
 Basis Dimension        Dim             ....  150

ORBITAL ENERGIES
----------------

  NO   OCC          E(Eh)            E(eV)
   0   2.0000     -88.906927     -2419.2805
   1   2.0000     -14.330673      -389.9574
   2   2.0000     -14.330627      -389.9562
   3   2.0000     -10.253673      -279.0166
   4   2.0000     -10.251341      -278.9532
   5   2.0000     -10.238202      -278.5956
   6   2.0000     -10.236598      -278.5520
   7   2.0000     -10.225540      -278.2511
   8   2.0000     -10.216491      -278.0049
   9   2.0000      -8.001376      -217.7285
  10   2.0000      -5.968923      -162.4226
  11   2.0000      -5.964802      -162.3105
  12   2.0000      -5.964063      -162.2904
  13   2.0000      -0.980011       -26.6675
  14   2.0000      -0.901904       -24.5420
  15   2.0000      -0.880768       -23.9669
  16   2.0000      -0.772974       -21.0337
  17   2.0000      -0.736926       -20.0528
  18   2.0000      -0.665531       -18.1100
  19   2.0000      -0.620709       -16.8903
  20   2.0000      -0.591800       -16.1037
  21   2.0000      -0.547456       -14.8970
  22   2.0000      -0.511222       -13.9111
  23   2.0000      -0.482487       -13.1291
  24   2.0000      -0.443251       -12.0615
  25   2.0000      -0.435014       -11.8373
  26   2.0000      -0.424555       -11.5527
  27   2.0000      -0.416929       -11.3452
  28   2.0000      -0.382110       -10.3977
  29   2.0000      -0.373820       -10.1722
  30   2.0000      -0.335740        -9.1359
  31   2.0000      -0.299130        -8.1397
  32   2.0000      -0.281274        -7.6539
  33   2.0000      -0.253493        -6.8979
  34   2.0000      -0.238348        -6.4858
  35   0.0000      -0.086798        -2.3619
  36   0.0000      -0.005045        -0.1373
  37   0.0000       0.002176         0.0592
  38   0.0000       0.034568         0.9407
  39   0.0000       0.067026         1.8239

MULLIKEN ATOMIC CHARGES
-----------------------
   0 C :   -0.127930
   1 S :    0.158353
   2 C :   -0.125590
   3 C :    0.037099
   4 C :    0.060597
   5 N :   -0.087918
   6 C :    0.083084
   7 N :   -0.130819
   8 C :    0.061051
   9 H :    0.022852
  10 H :    0.031647
  11 H :    0.015298
  12 H :    0.002275
Sum of atomic charges:   -0.0000000

LOEWDIN ATOMIC CHARGES
----------------------
   0 C :   -0.204787
   1 S :    0.509882
   2 C :   -0.195062
   3 C :   -0.096787
   4 C :   -0.029915
   5 N :   -0.087269
   6 C :    0.044320
   7 N :   -0.105088
   8 C :    0.059663
   9 H :    0.032973
  10 H :    0.029507
  11 H :    0.018047
  12 H :    0.024517

  Mayer bond orders larger than 0.100000
B(  0-C ,  1-S ) :   1.2040 B(  0-C ,  2-C ) :   0.1210 B(  0-C ,  4-C ) :   1.4054
B(  0-C ,  9-H ) :   0.9699 B(  1-S ,  2-C ) :   1.2337 B(  2-C ,  3-C ) :   1.3728
B(  2-C , 10-H ) :   0.9672 B(  3-C ,  4-C ) :   1.1893 B(  3-C ,  8-C ) :   1.1698
B(  4-C ,  5-N ) :   1.3395 B(  5-N ,  6-C ) :   1.6779 B(  6-C ,  7-N ) :   1.2962
B(  6-C , 11-H ) :   0.9680 B(  7-N ,  8-C ) :   1.7241 B(  8-C , 12-H ) :   0.9782

Dispersion correction           -0.028476632
FINAL SINGLE POINT ENERGY      -738.384795793454

DIPOLE MOMENT
-------------
                                X             Y             Z
Electronic contribution:     -2.84186      -0.67368       0.19492
Nuclear contribution   :      1.83359       1.18861      -0.12608
                        -----------------------------------------
Total Dipole Moment    :     -1.00828       0.51493       0.06884
                        -----------------------------------------
Magnitude (a.u.)       :      1.13424
Magnitude (Debye)      :      2.88302

Rotational constants in cm-1:     0.128148     0.039360     0.030112
Rotational constants in MHz :  3841.793564  1179.995145   902.734009

                             ****ORCA TERMINATED NORMALLY****
TOTAL RUN TIME: 0 days 0 hours 3 minutes 51 seconds 454 msec
