                         Program Version 4.2.0 -  RELEASE  -
|  1> # ORCA input file
|  2> # SCF done        -54.468622619944          0.000630390860
|  3> ! B3LYP/G D3BJ Opt RIJCOSX def2-SVP def2/J
|  4> * xyz 0 1
|  5>    C       -2.17245         0.08617         1.31533
|  6>    C       -1.08300        -0.69172         1.08627
|  7>    C        0.12911        -0.10985         0.61573
|  8>    C        1.37179        -0.62339         0.28993
|  9>    C        1.93323        -2.01090         0.19191
| 10>    C        1.03180        -3.15188         0.67742
| 11>    N       -0.02228        -3.44776        -0.28122
| 12>    C        2.39128        -2.33131        -1.25103
| 13>    N        3.44747        -3.33010        -1.21488
| 14>    C        2.22421         0.51756         0.00239
| 15>    C        3.54585         0.60040        -0.23039
| 16>    C        4.22877         1.90986        -0.43061
| 17>    C        3.30981         3.08928        -0.47387
| 18>    C        1.99486         2.99437        -0.20299
| 19>    C        1.41236         1.73649         0.07919
| 20>    C        0.14671         1.34705         0.46319
| 21>    C       -1.01498         2.11445         0.71008
| 22>    C       -2.15250         1.49262         1.11280
| 23>    C        5.20206         2.10164         0.71475
| 24>    C        6.51036         2.19190         0.57673
| 25>    H       -3.08712        -0.36481         1.67432
| 26>    H       -1.14478        -1.74641         1.29834
| 27>    H        2.83249        -2.03247         0.82379
| 28>    H        0.66540        -2.91080         1.68964
| 29>    H        1.64991        -4.05160         0.74851
| 30>    H       -0.57431        -2.61987        -0.47567
| 31>    H       -0.63814        -4.16460         0.08488
| 32>    H        2.68757        -1.40335        -1.76558
| 33>    H        1.54318        -2.76454        -1.78270
| 34>    H        4.31493        -2.92497        -0.87658
| 35>    H        3.61700        -3.70273        -2.14134
| 36>    H        4.18947        -0.26903        -0.22414
| 37>    H        4.81360         1.86501        -1.35954
| 38>    H        3.77399         4.03959        -0.69061
| 39>    H        1.36733         3.87435        -0.20606
| 40>    H       -0.97735         3.18621         0.57815
| 41>    H       -3.05362         2.05685         1.30428
| 42>    H        4.73428         2.17145         1.68699
| 43>    H        6.99146         2.12593        -0.38586
| 44>    H        7.15922         2.33926         1.42345
| 45> *
| 46>
| 47>                          ****END OF INPUT****
 Total Charge           Charge          ....    0
 Multiplicity           Mult            ....    1
 Number of Electrons    NEL             ....  142
Dispersion correction           -0.089721311
FINAL SINGLE POINT ENERGY      -806.871014132751
Dispersion correction            ... done
Dispersion correction           -0.088923659
FINAL SINGLE POINT ENERGY      -806.876030323997
Dispersion correction            ... done
Dispersion correction           -0.088153510
FINAL SINGLE POINT ENERGY      -806.875354938168
Dispersion correction            ... done
FINAL SINGLE POINT ENERGY      -806.877025759476
FINAL SINGLE POINT ENERGY      -806.877246073989
FINAL SINGLE POINT ENERGY      -806.877352534373
FINAL SINGLE POINT ENERGY      -806.877481625601
FINAL SINGLE POINT ENERGY      -806.877482468175
FINAL SINGLE POINT ENERGY      -806.877484938616
FINAL SINGLE POINT ENERGY      -806.877465842402
Dispersion correction            ... done
Dispersion correction           -0.088505700
FINAL SINGLE POINT ENERGY      -806.877474529113
Dispersion correction            ... done
Dispersion correction           -0.088486774
FINAL SINGLE POINT ENERGY      -806.877484917805
Dispersion correction            ... done
                    ***********************HURRAY********************

CARTESIAN COORDINATES (ANGSTROEM)
---------------------------------
  C     -2.229243    0.049419    1.216319
  C     -1.119906   -0.715992    0.979539
  C      0.108548   -0.096626    0.545851
  C      1.373996   -0.595421    0.225953
  C      1.944853   -1.993991    0.160596
  C      1.055037   -3.117585    0.717488
  N      0.008693   -3.527700   -0.213725
  C      2.454781   -2.374984   -1.253961
  N      3.281783   -3.574109   -1.186792
  C      2.213654    0.581219   -0.010961
  C      3.545143    0.690654   -0.235535
  C      4.226672    2.021848   -0.374442
  C      3.309128    3.212385   -0.319106
  C      1.980173    3.091425   -0.074394
  C      1.390496    1.801384    0.112321
  C      0.113274    1.384041    0.447169
  C     -1.076505    2.135640    0.699643
  C     -2.221573    1.483147    1.062868
  C      5.301033    2.139395    0.695027
  C      6.612181    2.195298    0.454689
  H     -3.149433   -0.435256    1.553186
  H     -1.175173   -1.790976    1.140204
  H      2.840833   -1.980778    0.812702
  H      0.685569   -2.799070    1.714705
  H      1.706292   -3.989842    0.871861
  H     -0.640043   -2.769161   -0.414327
  H     -0.539158   -4.293968    0.173820
  H      2.962468   -1.502653   -1.710095
  H      1.577808   -2.602582   -1.876215
  H      4.212958   -3.351589   -0.833623
  H      3.406703   -3.981591   -2.111291
  H      4.190514   -0.190557   -0.285983
  H      4.752103    2.019873   -1.351556
  H      3.773528    4.192097   -0.453314
  H      1.352180    3.983818   -0.009858
  H     -1.058865    3.224141    0.600539
  H     -3.137986    2.043626    1.261960
  H      4.920060    2.180274    1.722209
  H      7.008491    2.158436   -0.565493
  H      7.337902    2.284660    1.267019

 Multiplicity           Mult            ....    1
 Number of Electrons    NEL             ....  142
 Basis Dimension        Dim             ....  380

ORBITAL ENERGIES
----------------

  NO   OCC          E(Eh)            E(eV)
   0   2.0000     -14.298367      -389.0783
   1   2.0000     -14.295332      -388.9958
   2   2.0000     -10.217743      -278.0389
   3   2.0000     -10.215651      -277.9820
   4   2.0000     -10.206428      -277.7310
   5   2.0000     -10.195365      -277.4300
   6   2.0000     -10.194886      -277.4170
   7   2.0000     -10.194404      -277.4038
   8   2.0000     -10.194268      -277.4001
   9   2.0000     -10.193564      -277.3810
  10   2.0000     -10.191561      -277.3265
  11   2.0000     -10.189811      -277.2788
  12   2.0000     -10.189597      -277.2730
  13   2.0000     -10.189355      -277.2664
  14   2.0000     -10.186814      -277.1973
  15   2.0000     -10.186471      -277.1880
  16   2.0000     -10.185202      -277.1534
  17   2.0000     -10.184110      -277.1237
  18   2.0000     -10.183280      -277.1011
  19   2.0000     -10.181585      -277.0550
  20   2.0000      -0.882341       -24.0097
  21   2.0000      -0.869686       -23.6654
  22   2.0000      -0.853964       -23.2376
  23   2.0000      -0.840417       -22.8689
  24   2.0000      -0.806018       -21.9329
  25   2.0000      -0.778443       -21.1825
  26   2.0000      -0.753326       -20.4990
  27   2.0000      -0.741030       -20.1645
  28   2.0000      -0.735858       -20.0237
  29   2.0000      -0.699112       -19.0238
  30   2.0000      -0.665145       -18.0995
  31   2.0000      -0.637367       -17.3437
  32   2.0000      -0.635183       -17.2842
  33   2.0000      -0.589968       -16.0539
  34   2.0000      -0.581714       -15.8292
  35   2.0000      -0.570107       -15.5134
  36   2.0000      -0.563335       -15.3291
  37   2.0000      -0.539419       -14.6783
  38   2.0000      -0.509281       -13.8582
  39   2.0000      -0.506213       -13.7748
  40   2.0000      -0.491473       -13.3737
  41   2.0000      -0.478953       -13.0330
  42   2.0000      -0.469941       -12.7877
  43   2.0000      -0.463622       -12.6158
  44   2.0000      -0.455932       -12.4065
  45   2.0000      -0.452618       -12.3164
  46   2.0000      -0.447796       -12.1851
  47   2.0000      -0.440846       -11.9960
  48   2.0000      -0.431238       -11.7346
  49   2.0000      -0.424735       -11.5576
  50   2.0000      -0.414576       -11.2812
  51   2.0000      -0.406133       -11.0514
  52   2.0000      -0.397638       -10.8203
  53   2.0000      -0.391021       -10.6402
  54   2.0000      -0.384258       -10.4562
  55   2.0000      -0.371806       -10.1174
  56   2.0000      -0.368266       -10.0210
  57   2.0000      -0.358366        -9.7516
  58   2.0000      -0.353201        -9.6111
  59   2.0000      -0.345731        -9.4078
  60   2.0000      -0.337795        -9.1919
  61   2.0000      -0.327111        -8.9012
  62   2.0000      -0.318894        -8.6776
  63   2.0000      -0.317340        -8.6353
  64   2.0000      -0.294540        -8.0148
  65   2.0000      -0.277371        -7.5477
  66   2.0000      -0.260283        -7.0827
  67   2.0000      -0.246806        -6.7159
  68   2.0000      -0.227133        -6.1806
  69   2.0000      -0.225225        -6.1287
  70   2.0000      -0.172349        -4.6899
  71   0.0000      -0.094655        -2.5757
  72   0.0000      -0.021827        -0.5939
  73   0.0000       0.004103         0.1117
  74   0.0000       0.023029         0.6267
  75   0.0000       0.041919         1.1407

MULLIKEN ATOMIC CHARGES
-----------------------
   0 C :    0.024213
   1 C :   -0.036102
   2 C :    0.019503
   3 C :   -0.013116
   4 C :   -0.057706
   5 C :    0.166571
   6 N :   -0.217166
   7 C :    0.123064
   8 N :   -0.204762
   9 C :    0.086112
  10 C :   -0.120979
  11 C :    0.131456
  12 C :   -0.047212
  13 C :    0.024893
  14 C :    0.006146
  15 C :    0.023320
  16 C :   -0.009880
  17 C :    0.015935
  18 C :   -0.047781
  19 C :   -0.027655
  20 H :   -0.024580
  21 H :   -0.048480
  22 H :   -0.019663
  23 H :   -0.018115
  24 H :   -0.011683
  25 H :    0.089015
  26 H :    0.090260
  27 H :   -0.024632
  28 H :   -0.002062
  29 H :    0.079704
  30 H :    0.090254
  31 H :   -0.010371
  32 H :    0.019627
  33 H :   -0.013499
  34 H :   -0.037754
  35 H :   -0.032249
  36 H :   -0.022967
  37 H :    0.013677
  38 H :    0.015759
  39 H :    0.028907
Sum of atomic charges:    0.0000000

LOEWDIN ATOMIC CHARGES
----------------------
   0 C :   -0.025182
   1 C :   -0.036759
   2 C :   -0.016725
   3 C :   -0.043305
   4 C :   -0.040358
   5 C :    0.026593
   6 N :   -0.107523
   7 C :    0.023981
   8 N :   -0.111681
   9 C :   -0.011087
  10 C :    0.050995
  11 C :   -0.027405
  12 C :   -0.036072
  13 C :   -0.018498
  14 C :   -0.035751
  15 C :   -0.025987
  16 C :   -0.015199
  17 C :   -0.038418
  18 C :   -0.006288
  19 C :   -0.060759
  20 H :    0.024836
  21 H :    0.018715
  22 H :    0.025114
  23 H :   -0.006320
  24 H :    0.018871
  25 H :    0.044381
  26 H :    0.055464
  27 H :   -0.008655
  28 H :    0.017831
  29 H :    0.047982
  30 H :    0.055821
  31 H :    0.026657
  32 H :    0.052725
  33 H :    0.024243
  34 H :    0.028358
  35 H :    0.025867
  36 H :    0.024591
  37 H :    0.029974
  38 H :    0.021300
  39 H :    0.027673

  Mayer bond orders larger than 0.100000
B(  0-C ,  1-C ) :   1.5954 B(  0-C , 17-C ) :   1.1490 B(  0-C , 20-H ) :   0.9709
B(  1-C ,  2-C ) :   1.1253 B(  1-C , 21-H ) :   0.9649 B(  2-C ,  3-C ) :   1.4770
B(  2-C , 15-C ) :   1.1040 B(  3-C ,  4-C ) :   1.0165 B(  3-C ,  9-C ) :   1.1120
B(  4-C ,  5-C ) :   1.0595 B(  4-C ,  7-C ) :   1.0249 B(  4-C , 22-H ) :   0.8774
B(  5-C ,  6-N ) :   1.0992 B(  5-C , 23-H ) :   0.9251 B(  5-C , 24-H ) :   0.9118
B(  6-N , 25-H ) :   0.9720 B(  6-N , 26-H ) :   0.9671 B(  7-C ,  8-N ) :   1.0997
B(  7-C , 27-H ) :   0.9442 B(  7-C , 28-H ) :   0.9141 B(  8-N , 29-H ) :   0.9701
B(  8-N , 30-H ) :   0.9657 B(  9-C , 10-C ) :   1.6271 B(  9-C , 14-C ) :   1.0506
B( 10-C , 11-C ) :   0.9679 B( 10-C , 31-H ) :   0.9626 B( 11-C , 12-C ) :   0.9884
B( 11-C , 18-C ) :   0.9618 B( 11-C , 32-H ) :   0.8639 B( 12-C , 13-C ) :   1.6656
B( 12-C , 33-H ) :   0.9704 B( 13-C , 14-C ) :   1.1541 B( 13-C , 34-H ) :   0.9835
B( 14-C , 15-C ) :   1.4095 B( 15-C , 16-C ) :   1.1712 B( 16-C , 17-C ) :   1.5729
B( 16-C , 35-H ) :   0.9844 B( 17-C , 36-H ) :   0.9754 B( 18-C , 19-C ) :   1.9887
B( 18-C , 37-H ) :   0.9628 B( 19-C , 38-H ) :   0.9549 B( 19-C , 39-H ) :   0.9488

Dispersion correction           -0.088487951
FINAL SINGLE POINT ENERGY      -806.877491008322

DIPOLE MOMENT
-------------
                                X             Y             Z
Electronic contribution:     -6.92744       9.95310       1.52517
Nuclear contribution   :      7.57800      -9.70475      -1.61581
                        -----------------------------------------
Total Dipole Moment    :      0.65056       0.24836      -0.09065
                        -----------------------------------------
Magnitude (a.u.)       :      0.70223
Magnitude (Debye)      :      1.78492

Rotational constants in cm-1:     0.013521     0.009567     0.005927
Rotational constants in MHz :   405.360786   286.815765   177.699619

                             ****ORCA TERMINATED NORMALLY****
TOTAL RUN TIME: 0 days 1 hours 4 minutes 43 seconds 734 msec
