                         Program Version 4.2.0 -  RELEASE  -
|  1> # ORCA input file
|  2> # SCF done        -38.213173779098          0.000415238482
|  3> ! B3LYP/G D3BJ Opt RIJCOSX def2-SVP def2/J
|  4> * xyz 0 1
|  5>    C        3.45099         0.12828        -0.06574
|  6>    C        2.54459         1.17997        -0.07688
|  7>    C        1.19668         0.89392        -0.03507
|  8>    C        0.75155        -0.43681         0.01714
|  9>    C        1.66076        -1.48289         0.02811
| 10>    C        3.01292        -1.18665        -0.01364
| 11>    C       -0.69950        -0.43467         0.05215
| 12>    C       -1.14541         0.89625         0.02137
| 13>    C        0.02606         1.83432        -0.03504
| 14>    C       -2.48947         1.18543         0.04399
| 15>    C       -3.42475         0.14486         0.10392
| 16>    C       -2.96509        -1.17556         0.12997
| 17>    C       -1.61669        -1.47355         0.10428
| 18>    C       -4.84050         0.48646         0.13521
| 19>    C       -5.86069        -0.34750         0.30035
| 20>    H        4.51051         0.33649        -0.09793
| 21>    H        2.89301         2.20222        -0.11736
| 22>    H        1.32289        -2.50781         0.06863
| 23>    H        3.73702        -1.98848        -0.00557
| 24>    H        0.04757         2.50557         0.82727
| 25>    H        0.00544         2.45631        -0.93334
| 26>    H       -2.83066         2.21155         0.01983
| 27>    H       -3.67878        -1.98400         0.16528
| 28>    H       -1.28422        -2.50103         0.12364
| 29>    H       -5.04788         1.54370         0.01710
| 30>    H       -5.73357        -1.40810         0.43321
| 31>    H       -6.87678         0.00829         0.31190
| 32> *
| 33>
| 34>                          ****END OF INPUT****
 Total Charge           Charge          ....    0
 Multiplicity           Mult            ....    1
 Number of Electrons    NEL             ....  102
Dispersion correction           -0.058844272
FINAL SINGLE POINT ENERGY      -578.466546136216
Dispersion correction            ... done
Dispersion correction           -0.058473088
FINAL SINGLE POINT ENERGY      -578.470482716418
Dispersion correction            ... done
Dispersion correction           -0.058419860
FINAL SINGLE POINT ENERGY      -578.470572678884
Dispersion correction            ... done
FINAL SINGLE POINT ENERGY      -578.470597730846
Dispersion correction            ... done
Dispersion correction           -0.058399494
FINAL SINGLE POINT ENERGY      -578.470604721832
Dispersion correction            ... done
Dispersion correction           -0.058406294
FINAL SINGLE POINT ENERGY      -578.470604482713
Dispersion correction            ... done
                    ***********************HURRAY********************

CARTESIAN COORDINATES (ANGSTROEM)
---------------------------------
  C      3.497961    0.132019   -0.078413
  C      2.579114    1.189184   -0.094075
  C      1.218708    0.902229   -0.046980
  C      0.771270   -0.438001    0.017317
  C      1.689984   -1.491423    0.031822
  C      3.055580   -1.196067   -0.016483
  C     -0.694805   -0.437261    0.061584
  C     -1.146900    0.899380    0.027195
  C      0.033391    1.842331   -0.050145
  C     -2.505147    1.184118    0.066707
  C     -3.449639    0.139889    0.136112
  C     -2.980701   -1.192056    0.164582
  C     -1.619934   -1.485837    0.129088
  C     -4.877030    0.486926    0.177431
  C     -5.925656   -0.346567    0.236991
  H      4.569055    0.346689   -0.115632
  H      2.930107    2.223366   -0.143975
  H      1.348545   -2.528309    0.082898
  H      3.785725   -2.008712   -0.004649
  H      0.059529    2.543689    0.802911
  H      0.003256    2.462505   -0.963769
  H     -2.854572    2.220268    0.043692
  H     -3.698270   -2.013018    0.219491
  H     -1.282306   -2.524866    0.157052
  H     -5.081843    1.563839    0.154461
  H     -5.814759   -1.434439    0.264310
  H     -6.944661    0.046692    0.263258

 Multiplicity           Mult            ....    1
 Number of Electrons    NEL             ....  102
 Basis Dimension        Dim             ....  270

ORBITAL ENERGIES
----------------

  NO   OCC          E(Eh)            E(eV)
   0   2.0000     -10.201417      -277.5947
   1   2.0000     -10.198093      -277.5042
   2   2.0000     -10.194461      -277.4054
   3   2.0000     -10.194427      -277.4045
   4   2.0000     -10.194328      -277.4018
   5   2.0000     -10.193804      -277.3875
   6   2.0000     -10.193104      -277.3684
   7   2.0000     -10.193038      -277.3667
   8   2.0000     -10.192430      -277.3501
   9   2.0000     -10.192302      -277.3466
  10   2.0000     -10.192099      -277.3411
  11   2.0000     -10.191834      -277.3339
  12   2.0000     -10.191820      -277.3335
  13   2.0000     -10.191514      -277.3252
  14   2.0000     -10.186435      -277.1870
  15   2.0000      -0.883288       -24.0355
  16   2.0000      -0.843565       -22.9546
  17   2.0000      -0.804357       -21.8877
  18   2.0000      -0.772118       -21.0104
  19   2.0000      -0.749563       -20.3967
  20   2.0000      -0.737741       -20.0750
  21   2.0000      -0.701209       -19.0809
  22   2.0000      -0.685209       -18.6455
  23   2.0000      -0.632790       -17.2191
  24   2.0000      -0.605435       -16.4747
  25   2.0000      -0.581722       -15.8295
  26   2.0000      -0.574453       -15.6317
  27   2.0000      -0.543210       -14.7815
  28   2.0000      -0.517543       -14.0831
  29   2.0000      -0.494958       -13.4685
  30   2.0000      -0.479111       -13.0373
  31   2.0000      -0.462512       -12.5856
  32   2.0000      -0.450134       -12.2488
  33   2.0000      -0.441354       -12.0099
  34   2.0000      -0.436761       -11.8849
  35   2.0000      -0.432855       -11.7786
  36   2.0000      -0.416318       -11.3286
  37   2.0000      -0.410494       -11.1701
  38   2.0000      -0.407313       -11.0836
  39   2.0000      -0.375218       -10.2102
  40   2.0000      -0.372805       -10.1445
  41   2.0000      -0.364561        -9.9202
  42   2.0000      -0.357585        -9.7304
  43   2.0000      -0.351387        -9.5617
  44   2.0000      -0.337583        -9.1861
  45   2.0000      -0.334467        -9.1013
  46   2.0000      -0.312311        -8.4984
  47   2.0000      -0.263812        -7.1787
  48   2.0000      -0.258069        -7.0224
  49   2.0000      -0.249746        -6.7959
  50   2.0000      -0.211288        -5.7494
  51   0.0000      -0.052655        -1.4328
  52   0.0000      -0.022591        -0.6147
  53   0.0000      -0.004121        -0.1121
  54   0.0000       0.008008         0.2179
  55   0.0000       0.061258         1.6669

MULLIKEN ATOMIC CHARGES
-----------------------
   0 C :    0.019113
   1 C :   -0.024766
   2 C :   -0.107908
   3 C :    0.094128
   4 C :   -0.048430
   5 C :    0.025707
   6 C :    0.089934
   7 C :   -0.096120
   8 C :    0.260374
   9 C :   -0.080578
  10 C :    0.103272
  11 C :   -0.015941
  12 C :   -0.039724
  13 C :   -0.002791
  14 C :   -0.029444
  15 H :   -0.017196
  16 H :   -0.037934
  17 H :   -0.035051
  18 H :   -0.017053
  19 H :    0.028357
  20 H :    0.026494
  21 H :   -0.044894
  22 H :   -0.033332
  23 H :   -0.036999
  24 H :   -0.017687
  25 H :    0.019134
  26 H :    0.019335
Sum of atomic charges:   -0.0000000

LOEWDIN ATOMIC CHARGES
----------------------
   0 C :   -0.027748
   1 C :   -0.027745
   2 C :   -0.012943
   3 C :   -0.018942
   4 C :   -0.024657
   5 C :   -0.026222
   6 C :   -0.018021
   7 C :   -0.013427
   8 C :   -0.011805
   9 C :   -0.021359
  10 C :   -0.028433
  11 C :   -0.012877
  12 C :   -0.021227
  13 C :   -0.021713
  14 C :   -0.052526
  15 H :    0.026247
  16 H :    0.024670
  17 H :    0.024553
  18 H :    0.026946
  19 H :    0.045261
  20 H :    0.045440
  21 H :    0.023233
  22 H :    0.024964
  23 H :    0.025347
  24 H :    0.026710
  25 H :    0.020598
  26 H :    0.025676

  Mayer bond orders larger than 0.100000
B(  0-C ,  1-C ) :   1.3502 B(  0-C ,  5-C ) :   1.3787 B(  0-C , 15-H ) :   0.9826
B(  1-C ,  2-C ) :   1.3954 B(  1-C , 16-H ) :   0.9944 B(  2-C ,  3-C ) :   1.3677
B(  2-C ,  8-C ) :   1.0179 B(  3-C ,  4-C ) :   1.3394 B(  3-C ,  6-C ) :   1.0118
B(  4-C ,  5-C ) :   1.3775 B(  4-C , 17-H ) :   0.9882 B(  5-C , 18-H ) :   0.9792
B(  6-C ,  7-C ) :   1.3763 B(  6-C , 12-C ) :   1.3098 B(  7-C ,  8-C ) :   1.0186
B(  7-C ,  9-C ) :   1.3667 B(  8-C , 19-H ) :   0.8832 B(  8-C , 20-H ) :   0.8800
B(  9-C , 10-C ) :   1.2966 B(  9-C , 21-H ) :   1.0013 B( 10-C , 11-C ) :   1.3337
B( 10-C , 13-C ) :   1.0836 B( 11-C , 12-C ) :   1.4047 B( 11-C , 22-H ) :   0.9792
B( 12-C , 23-H ) :   0.9883 B( 13-C , 14-C ) :   1.9178 B( 13-C , 24-H ) :   0.9628
B( 14-C , 25-H ) :   0.9450 B( 14-C , 26-H ) :   0.9445

Dispersion correction           -0.058410737
FINAL SINGLE POINT ENERGY      -578.470604826426

DIPOLE MOMENT
-------------
                                X             Y             Z
Electronic contribution:      4.25245      -0.44733      -0.14052
Nuclear contribution   :     -4.12951       0.65638       0.13175
                        -----------------------------------------
Total Dipole Moment    :      0.12295       0.20905      -0.00877
                        -----------------------------------------
Magnitude (a.u.)       :      0.24268
Magnitude (Debye)      :      0.61686

Rotational constants in cm-1:     0.069936     0.010757     0.009339
Rotational constants in MHz :  2096.622020   322.479366   279.982273

                             ****ORCA TERMINATED NORMALLY****
TOTAL RUN TIME: 0 days 0 hours 15 minutes 41 seconds 773 msec
