                         Program Version 4.2.0 -  RELEASE  -
|  1> # ORCA input file
|  2> # SCF done        -22.267663373347          0.000632137089
|  3> ! B3LYP/G D3BJ Opt RIJCOSX def2-SVP def2/J
|  4> * xyz 0 1
|  5>    C       -1.60182         0.11213        -0.02650
|  6>    S       -0.23041         1.14526         0.10822
|  7>    C        0.84688        -0.20567         0.02381
|  8>    C        2.31826         0.01627         0.08849
|  9>    C        0.16336        -1.39069        -0.10470
| 10>    C       -1.24790        -1.18759        -0.13111
| 11>    C        0.82511        -2.67734        -0.19890
| 12>    C        0.21935        -3.84891        -0.35810
| 13>    H       -2.58416         0.54084        -0.01943
| 14>    H        2.53235         1.07384         0.21858
| 15>    H        2.80091        -0.32345        -0.82840
| 16>    H        2.75526        -0.53058         0.92419
| 17>    H       -1.96266        -1.98458        -0.22370
| 18>    H        1.90484        -2.64437        -0.13104
| 19>    H       -0.85057        -3.94359        -0.43478
| 20>    H        0.78121        -4.76508        -0.41950
| 21> *
| 22>
| 23>                          ****END OF INPUT****
 Total Charge           Charge          ....    0
 Multiplicity           Mult            ....    1
 Number of Electrons    NEL             ....   66
Dispersion correction           -0.030192396
FINAL SINGLE POINT ENERGY      -669.448135464129
Dispersion correction            ... done
Dispersion correction           -0.029994275
FINAL SINGLE POINT ENERGY      -669.450568946968
Dispersion correction            ... done
Dispersion correction           -0.029964501
FINAL SINGLE POINT ENERGY      -669.450638286959
Dispersion correction            ... done
FINAL SINGLE POINT ENERGY      -669.450637146376
FINAL SINGLE POINT ENERGY      -669.450643704021
FINAL SINGLE POINT ENERGY      -669.450645931654
FINAL SINGLE POINT ENERGY      -669.450637528372
FINAL SINGLE POINT ENERGY      -669.450621004636
FINAL SINGLE POINT ENERGY      -669.450581273566
FINAL SINGLE POINT ENERGY      -669.450523164113
FINAL SINGLE POINT ENERGY      -669.450526363337
FINAL SINGLE POINT ENERGY      -669.450515223989
Dispersion correction            ... done
Dispersion correction           -0.029953441
FINAL SINGLE POINT ENERGY      -669.450509776594
Dispersion correction            ... done
Dispersion correction           -0.029953339
FINAL SINGLE POINT ENERGY      -669.450507070314
Dispersion correction            ... done
                    ***********************HURRAY********************

CARTESIAN COORDINATES (ANGSTROEM)
---------------------------------
  C     -1.625369    0.142009   -0.059539
  S     -0.231948    1.164555    0.076198
  C      0.848861   -0.193172    0.014436
  C      2.330377    0.024930    0.076529
  C      0.152275   -1.386792   -0.108307
  C     -1.271229   -1.174573   -0.146415
  C      0.815871   -2.687222   -0.184893
  C      0.224268   -3.885849   -0.307828
  H     -2.624881    0.573772   -0.065242
  H      2.571471    1.015920    0.488864
  H      2.797123   -0.041051   -0.921081
  H      2.816858   -0.724538    0.718671
  H     -1.999662   -1.981104   -0.236367
  H      1.909587   -2.658218   -0.132028
  H     -0.861628   -4.000724   -0.372897
  H      0.818034   -4.801451   -0.352970

 Multiplicity           Mult            ....    1
 Number of Electrons    NEL             ....   66
 Basis Dimension        Dim             ....  156

ORBITAL ENERGIES
----------------

  NO   OCC          E(Eh)            E(eV)
   0   2.0000     -88.869057     -2418.2500
   1   2.0000     -10.215342      -277.9736
   2   2.0000     -10.208483      -277.7869
   3   2.0000     -10.201330      -277.5923
   4   2.0000     -10.195095      -277.4226
   5   2.0000     -10.192087      -277.3408
   6   2.0000     -10.190286      -277.2918
   7   2.0000     -10.184299      -277.1289
   8   2.0000      -7.964365      -216.7214
   9   2.0000      -5.932403      -161.4289
  10   2.0000      -5.928408      -161.3202
  11   2.0000      -5.925768      -161.2483
  12   2.0000      -0.878302       -23.8998
  13   2.0000      -0.780717       -21.2444
  14   2.0000      -0.758018       -20.6267
  15   2.0000      -0.710075       -19.3221
  16   2.0000      -0.671638       -18.2762
  17   2.0000      -0.591238       -16.0884
  18   2.0000      -0.551755       -15.0140
  19   2.0000      -0.513589       -13.9755
  20   2.0000      -0.497117       -13.5272
  21   2.0000      -0.450049       -12.2464
  22   2.0000      -0.432204       -11.7609
  23   2.0000      -0.422366       -11.4932
  24   2.0000      -0.413150       -11.2424
  25   2.0000      -0.393210       -10.6998
  26   2.0000      -0.371852       -10.1186
  27   2.0000      -0.365287        -9.9400
  28   2.0000      -0.358196        -9.7470
  29   2.0000      -0.336436        -9.1549
  30   2.0000      -0.302993        -8.2449
  31   2.0000      -0.241474        -6.5708
  32   2.0000      -0.217178        -5.9097
  33   0.0000      -0.029103        -0.7919
  34   0.0000       0.002262         0.0616
  35   0.0000       0.037427         1.0184
  36   0.0000       0.065127         1.7722
  37   0.0000       0.078973         2.1490

MULLIKEN ATOMIC CHARGES
-----------------------
   0 C :   -0.079523
   1 S :    0.093790
   2 C :   -0.291135
   3 C :    0.109733
   4 C :    0.114839
   5 C :    0.007959
   6 C :   -0.022759
   7 C :   -0.032709
   8 H :    0.023100
   9 H :    0.011926
  10 H :    0.035294
  11 H :    0.034800
  12 H :   -0.013348
  13 H :   -0.019337
  14 H :    0.010631
  15 H :    0.016739
Sum of atomic charges:   -0.0000000

LOEWDIN ATOMIC CHARGES
----------------------
   0 C :   -0.191746
   1 S :    0.416941
   2 C :   -0.179863
   3 C :   -0.059223
   4 C :   -0.077123
   5 C :   -0.054689
   6 C :   -0.024301
   7 C :   -0.057149
   8 H :    0.023951
   9 H :    0.031295
  10 H :    0.037810
  11 H :    0.036423
  12 H :    0.028168
  13 H :    0.026278
  14 H :    0.019065
  15 H :    0.024163

  Mayer bond orders larger than 0.100000
B(  0-C ,  1-S ) :   1.1414 B(  0-C ,  5-C ) :   1.5913 B(  0-C ,  8-H ) :   0.9669
B(  1-S ,  2-C ) :   1.1519 B(  2-C ,  3-C ) :   1.1047 B(  2-C ,  4-C ) :   1.4990
B(  3-C ,  9-H ) :   0.9455 B(  3-C , 10-H ) :   0.9477 B(  3-C , 11-H ) :   0.9453
B(  4-C ,  5-C ) :   1.2214 B(  4-C ,  6-C ) :   1.1072 B(  5-C , 12-H ) :   0.9867
B(  6-C ,  7-C ) :   1.9257 B(  6-C , 13-H ) :   0.9555 B(  7-C , 14-H ) :   0.9502
B(  7-C , 15-H ) :   0.9443

Dispersion correction           -0.029953112
FINAL SINGLE POINT ENERGY      -669.450506118576

DIPOLE MOMENT
-------------
                                X             Y             Z
Electronic contribution:     -3.99225       6.74666       0.39495
Nuclear contribution   :      4.14995      -6.72958      -0.39767
                        -----------------------------------------
Total Dipole Moment    :      0.15771       0.01708      -0.00271
                        -----------------------------------------
Magnitude (a.u.)       :      0.15865
Magnitude (Debye)      :      0.40326

Rotational constants in cm-1:     0.098911     0.047784     0.032417
Rotational constants in MHz :  2965.281315  1432.531194   971.825468

                             ****ORCA TERMINATED NORMALLY****
TOTAL RUN TIME: 0 days 0 hours 10 minutes 49 seconds 948 msec
