                         Program Version 4.2.0 -  RELEASE  -
|  1> # ORCA input file
|  2> # SCF done        -31.856605935306          0.000407056891
|  3> ! B3LYP/G D3BJ Opt RIJCOSX def2-SVP def2/J
|  4> * xyz 0 1
|  5>    C       -1.52216        -1.23303         0.15222
|  6>    S       -2.69753         0.00002         0.23340
|  7>    C       -1.52215         1.23302         0.15222
|  8>    C       -0.24809         0.72085         0.06714
|  9>    C       -0.24809        -0.72086         0.06714
| 10>    C        0.97824        -1.42466        -0.01507
| 11>    C        2.13159        -0.71173        -0.09247
| 12>    F        3.31392        -1.34696        -0.17225
| 13>    C        2.13159         0.71174        -0.09247
| 14>    F        3.31393         1.34697        -0.17225
| 15>    C        0.97823         1.42465        -0.01507
| 16>    H       -1.82045        -2.26160         0.17179
| 17>    H       -1.82044         2.26159         0.17179
| 18>    H        0.99691        -2.50230        -0.01655
| 19>    H        0.99690         2.50229        -0.01655
| 20> *
| 21>
| 22>                          ****END OF INPUT****
 Total Charge           Charge          ....    0
 Multiplicity           Mult            ....    1
 Number of Electrons    NEL             ....   86
Dispersion correction           -0.033257540
FINAL SINGLE POINT ENERGY      -904.653195070027
Dispersion correction            ... done
Dispersion correction           -0.033178995
FINAL SINGLE POINT ENERGY      -904.655251312163
Dispersion correction            ... done
Dispersion correction           -0.033166302
FINAL SINGLE POINT ENERGY      -904.655354393213
Dispersion correction            ... done
FINAL SINGLE POINT ENERGY      -904.655368505834
Dispersion correction            ... done
Dispersion correction           -0.033166413
FINAL SINGLE POINT ENERGY      -904.655376318197
Dispersion correction            ... done
Dispersion correction           -0.033167216
FINAL SINGLE POINT ENERGY      -904.655377493736
Dispersion correction            ... done
                    ***********************HURRAY********************

CARTESIAN COORDINATES (ANGSTROEM)
---------------------------------
  C     -1.543205   -1.247540    0.152831
  S     -2.717258   -0.000008    0.214750
  C     -1.543208    1.247537    0.152831
  C     -0.255915    0.727835    0.083194
  C     -0.255915   -0.727833    0.083192
  C      0.986483   -1.432928    0.000915
  C      2.144757   -0.718795   -0.093359
  F      3.325660   -1.335606   -0.199742
  C      2.144758    0.718794   -0.093356
  F      3.325662    1.335604   -0.199738
  C      0.986485    1.432929    0.000920
  H     -1.844232   -2.293112    0.158331
  H     -1.844236    2.293111    0.158323
  H      1.026278   -2.523467    0.001964
  H      1.026286    2.523469    0.001966

 Multiplicity           Mult            ....    1
 Number of Electrons    NEL             ....   86
 Basis Dimension        Dim             ....  178

ORBITAL ENERGIES
----------------

  NO   OCC          E(Eh)            E(eV)
   0   2.0000     -88.894157     -2418.9330
   1   2.0000     -24.707790      -672.3331
   2   2.0000     -24.707663      -672.3297
   3   2.0000     -10.285558      -279.8843
   4   2.0000     -10.285336      -279.8782
   5   2.0000     -10.221402      -278.1385
   6   2.0000     -10.221335      -278.1367
   7   2.0000     -10.215176      -277.9691
   8   2.0000     -10.215027      -277.9650
   9   2.0000     -10.210170      -277.8329
  10   2.0000     -10.210081      -277.8304
  11   2.0000      -7.988747      -217.3849
  12   2.0000      -5.956457      -162.0834
  13   2.0000      -5.952311      -161.9706
  14   2.0000      -5.951145      -161.9389
  15   2.0000      -1.225726       -33.3537
  16   2.0000      -1.210972       -32.9522
  17   2.0000      -0.903105       -24.5747
  18   2.0000      -0.844320       -22.9751
  19   2.0000      -0.778068       -21.1723
  20   2.0000      -0.742750       -20.2113
  21   2.0000      -0.711854       -19.3705
  22   2.0000      -0.649645       -17.6778
  23   2.0000      -0.602996       -16.4083
  24   2.0000      -0.590773       -16.0758
  25   2.0000      -0.555651       -15.1200
  26   2.0000      -0.533338       -14.5129
  27   2.0000      -0.528233       -14.3739
  28   2.0000      -0.493671       -13.4335
  29   2.0000      -0.485254       -13.2044
  30   2.0000      -0.463391       -12.6095
  31   2.0000      -0.459832       -12.5127
  32   2.0000      -0.448580       -12.2065
  33   2.0000      -0.420181       -11.4337
  34   2.0000      -0.410424       -11.1682
  35   2.0000      -0.400918       -10.9095
  36   2.0000      -0.400071       -10.8865
  37   2.0000      -0.367470        -9.9994
  38   2.0000      -0.358785        -9.7630
  39   2.0000      -0.334529        -9.1030
  40   2.0000      -0.299446        -8.1483
  41   2.0000      -0.252746        -6.8776
  42   2.0000      -0.216746        -5.8980
  43   0.0000      -0.068119        -1.8536
  44   0.0000       0.010409         0.2832
  45   0.0000       0.016964         0.4616
  46   0.0000       0.041233         1.1220
  47   0.0000       0.056803         1.5457

MULLIKEN ATOMIC CHARGES
-----------------------
   0 C :   -0.143518
   1 S :    0.143811
   2 C :   -0.143522
   3 C :    0.104310
   4 C :    0.104318
   5 C :   -0.087592
   6 C :    0.228067
   7 F :   -0.182221
   8 C :    0.228061
   9 F :   -0.182220
  10 C :   -0.087566
  11 H :    0.021092
  12 H :    0.021092
  13 H :   -0.012056
  14 H :   -0.012056
Sum of atomic charges:   -0.0000000

LOEWDIN ATOMIC CHARGES
----------------------
   0 C :   -0.211930
   1 S :    0.487457
   2 C :   -0.211926
   3 C :   -0.050674
   4 C :   -0.050675
   5 C :   -0.048722
   6 C :    0.053960
   7 F :   -0.053043
   8 C :    0.053960
   9 F :   -0.053044
  10 C :   -0.048722
  11 H :    0.026445
  12 H :    0.026445
  13 H :    0.040234
  14 H :    0.040234

  Mayer bond orders larger than 0.100000
B(  0-C ,  1-S ) :   1.2062 B(  0-C ,  2-C ) :   0.1170 B(  0-C ,  4-C ) :   1.4180
B(  0-C , 11-H ) :   0.9663 B(  1-S ,  2-C ) :   1.2062 B(  2-C ,  3-C ) :   1.4180
B(  2-C , 12-H ) :   0.9663 B(  3-C ,  4-C ) :   1.2034 B(  3-C , 10-C ) :   1.1333
B(  4-C ,  5-C ) :   1.1333 B(  5-C ,  6-C ) :   1.5167 B(  5-C , 10-C ) :   0.1150
B(  5-C , 13-H ) :   1.0016 B(  6-C ,  7-F ) :   1.1029 B(  6-C ,  8-C ) :   1.1237
B(  8-C ,  9-F ) :   1.1029 B(  8-C , 10-C ) :   1.5167 B( 10-C , 14-H ) :   1.0016

Dispersion correction           -0.033167061
FINAL SINGLE POINT ENERGY      -904.655378281731

DIPOLE MOMENT
-------------
                                X             Y             Z
Electronic contribution:      7.44238      -0.00000      -0.56686
Nuclear contribution   :     -8.38384       0.00001       0.63096
                        -----------------------------------------
Total Dipole Moment    :     -0.94146       0.00000       0.06409
                        -----------------------------------------
Magnitude (a.u.)       :      0.94364
Magnitude (Debye)      :      2.39854

Rotational constants in cm-1:     0.082997     0.020212     0.016255
Rotational constants in MHz :  2488.192385   605.931911   487.313904

                             ****ORCA TERMINATED NORMALLY****
TOTAL RUN TIME: 0 days 0 hours 6 minutes 38 seconds 806 msec
