                         Program Version 4.2.0 -  RELEASE  -
|  1> # ORCA input file
|  2> # SCF done        -32.636406656991          0.000921389372
|  3> ! B3LYP/G D3BJ Opt RIJCOSX def2-SVP def2/J
|  4> * xyz 0 1
|  5>    C       -1.98797         0.97986         0.35491
|  6>    S       -2.96090        -0.34341        -0.13830
|  7>    C       -1.56952        -1.27448        -0.50150
|  8>    C       -0.41058        -0.59856        -0.26267
|  9>    C       -0.65632         0.72047         0.23364
| 10>    S        0.54690         1.93867         0.66150
| 11>    C        2.00917         1.31763        -0.25340
| 12>    C        2.54841         0.19203         0.58446
| 13>    O        3.47414         0.31373         1.34211
| 14>    C        1.77811        -1.11805         0.47491
| 15>    O        0.80391        -1.16645        -0.54333
| 16>    H       -2.44078         1.88544         0.70257
| 17>    H       -1.66112        -2.26858        -0.88845
| 18>    H        2.71160         2.14757        -0.29597
| 19>    H        1.69723         1.00661        -1.24802
| 20>    H        1.34366        -1.34709         1.45843
| 21>    H        2.49687        -1.90858         0.23750
| 22> *
| 23>
| 24>                          ****END OF INPUT****
 Total Charge           Charge          ....    0
 Multiplicity           Mult            ....    1
 Number of Electrons    NEL             ....   96
Dispersion correction           -0.040810165
FINAL SINGLE POINT ENERGY     -1216.654073081086
Dispersion correction            ... done
Dispersion correction           -0.040512984
FINAL SINGLE POINT ENERGY     -1216.656358776369
Dispersion correction            ... done
Dispersion correction           -0.040357370
FINAL SINGLE POINT ENERGY     -1216.656636711868
Dispersion correction            ... done
FINAL SINGLE POINT ENERGY     -1216.656771317509
FINAL SINGLE POINT ENERGY     -1216.656865546858
FINAL SINGLE POINT ENERGY     -1216.656964670685
FINAL SINGLE POINT ENERGY     -1216.656994078851
Dispersion correction            ... done
Dispersion correction           -0.040356141
FINAL SINGLE POINT ENERGY     -1216.657019074178
Dispersion correction            ... done
Dispersion correction           -0.040356831
FINAL SINGLE POINT ENERGY     -1216.657025203833
Dispersion correction            ... done
                    ***********************HURRAY********************

CARTESIAN COORDINATES (ANGSTROEM)
---------------------------------
  C     -2.039654    0.989548    0.306832
  S     -3.001574   -0.386235   -0.113362
  C     -1.596359   -1.325627   -0.460126
  C     -0.440212   -0.612496   -0.257405
  C     -0.692174    0.737467    0.192220
  S      0.513123    1.952371    0.651176
  C      2.028902    1.363246   -0.200259
  C      2.596638    0.162163    0.532517
  O      3.627563    0.202236    1.159201
  C      1.769874   -1.124083    0.478315
  O      0.788717   -1.131052   -0.541961
  H     -2.510271    1.919383    0.620302
  H     -1.667854   -2.349747   -0.818834
  H      2.748236    2.189433   -0.118939
  H      1.810544    1.143134   -1.255215
  H      1.323329   -1.301033    1.473926
  H      2.463982   -1.951897    0.270002

 Multiplicity           Mult            ....    1
 Number of Electrons    NEL             ....   96
 Basis Dimension        Dim             ....  192

ORBITAL ENERGIES
----------------

  NO   OCC          E(Eh)            E(eV)
   0   2.0000     -88.885437     -2418.6957
   1   2.0000     -88.867846     -2418.2170
   2   2.0000     -19.176296      -521.8136
   3   2.0000     -19.141720      -520.8727
   4   2.0000     -10.290588      -280.0211
   5   2.0000     -10.262205      -279.2488
   6   2.0000     -10.262087      -279.2456
   7   2.0000     -10.234958      -278.5074
   8   2.0000     -10.230507      -278.3862
   9   2.0000     -10.222924      -278.1799
  10   2.0000     -10.218181      -278.0508
  11   2.0000      -7.980439      -217.1588
  12   2.0000      -7.962044      -216.6582
  13   2.0000      -5.948592      -161.8694
  14   2.0000      -5.944617      -161.7613
  15   2.0000      -5.941570      -161.6783
  16   2.0000      -5.931461      -161.4033
  17   2.0000      -5.927638      -161.2992
  18   2.0000      -5.920382      -161.1018
  19   2.0000      -1.074330       -29.2340
  20   2.0000      -1.049619       -28.5616
  21   2.0000      -0.892720       -24.2921
  22   2.0000      -0.825147       -22.4534
  23   2.0000      -0.772986       -21.0340
  24   2.0000      -0.742539       -20.2055
  25   2.0000      -0.701831       -19.0978
  26   2.0000      -0.668800       -18.1990
  27   2.0000      -0.592420       -16.1206
  28   2.0000      -0.579997       -15.7825
  29   2.0000      -0.554085       -15.0774
  30   2.0000      -0.509901       -13.8751
  31   2.0000      -0.509370       -13.8607
  32   2.0000      -0.486621       -13.2416
  33   2.0000      -0.464830       -12.6487
  34   2.0000      -0.450320       -12.2538
  35   2.0000      -0.441148       -12.0042
  36   2.0000      -0.422135       -11.4869
  37   2.0000      -0.418101       -11.3771
  38   2.0000      -0.396418       -10.7871
  39   2.0000      -0.395633       -10.7657
  40   2.0000      -0.372028       -10.1234
  41   2.0000      -0.352493        -9.5918
  42   2.0000      -0.347680        -9.4609
  43   2.0000      -0.326430        -8.8826
  44   2.0000      -0.302206        -8.2234
  45   2.0000      -0.266870        -7.2619
  46   2.0000      -0.242763        -6.6059
  47   2.0000      -0.221173        -6.0184
  48   0.0000      -0.044682        -1.2159
  49   0.0000      -0.028090        -0.7644
  50   0.0000       0.023073         0.6278
  51   0.0000       0.032953         0.8967
  52   0.0000       0.049459         1.3459

MULLIKEN ATOMIC CHARGES
-----------------------
   0 C :   -0.126118
   1 S :    0.113454
   2 C :   -0.125381
   3 C :    0.187579
   4 C :   -0.041776
   5 S :    0.012503
   6 C :   -0.053430
   7 C :    0.003355
   8 O :   -0.184845
   9 C :    0.271229
  10 O :   -0.338221
  11 H :    0.028017
  12 H :    0.020279
  13 H :    0.064383
  14 H :    0.084230
  15 H :    0.041666
  16 H :    0.043076
Sum of atomic charges:    0.0000000

LOEWDIN ATOMIC CHARGES
----------------------
   0 C :   -0.214096
   1 S :    0.439475
   2 C :   -0.213175
   3 C :   -0.018364
   4 C :   -0.225423
   5 S :    0.310113
   6 C :   -0.156638
   7 C :    0.047307
   8 O :   -0.132587
   9 C :    0.062437
  10 O :   -0.118515
  11 H :    0.026649
  12 H :    0.030391
  13 H :    0.041249
  14 H :    0.041010
  15 H :    0.037114
  16 H :    0.043055

  Mayer bond orders larger than 0.100000
B(  0-C ,  1-S ) :   1.1732 B(  0-C ,  4-C ) :   1.5436 B(  0-C , 11-H ) :   0.9642
B(  1-S ,  2-C ) :   1.1493 B(  2-C ,  3-C ) :   1.5768 B(  2-C , 12-H ) :   0.9609
B(  3-C ,  4-C ) :   1.2089 B(  3-C , 10-O ) :   1.0742 B(  4-C ,  5-S ) :   0.9962
B(  5-S ,  6-C ) :   0.9998 B(  6-C ,  7-C ) :   0.9633 B(  6-C , 13-H ) :   0.9341
B(  6-C , 14-H ) :   0.9262 B(  7-C ,  8-O ) :   2.1719 B(  7-C ,  9-C ) :   0.9301
B(  9-C , 10-O ) :   0.9590 B(  9-C , 15-H ) :   0.9199 B(  9-C , 16-H ) :   0.9329

Dispersion correction           -0.040358013
FINAL SINGLE POINT ENERGY     -1216.657025327637

DIPOLE MOMENT
-------------
                                X             Y             Z
Electronic contribution:     -4.17362       1.30668       0.53886
Nuclear contribution   :      3.60799      -1.50925      -0.88032
                        -----------------------------------------
Total Dipole Moment    :     -0.56563      -0.20257      -0.34146
                        -----------------------------------------
Magnitude (a.u.)       :      0.69106
Magnitude (Debye)      :      1.75655

Rotational constants in cm-1:     0.062900     0.019723     0.015796
Rotational constants in MHz :  1885.702667   591.294555   473.549661

                             ****ORCA TERMINATED NORMALLY****
TOTAL RUN TIME: 0 days 0 hours 11 minutes 26 seconds 421 msec
