                         Program Version 4.2.0 -  RELEASE  -
|  1> # ORCA input file
|  2> # SCF done        -29.554847873298          0.000772785538
|  3> ! B3LYP/G D3BJ Opt RIJCOSX def2-SVP def2/J
|  4> * xyz 0 1
|  5>    C        0.07443         1.12907         0.10852
|  6>    S       -1.11591        -0.09118         0.14296
|  7>    C        0.12579        -1.28755        -0.00191
|  8>    N       -0.24109        -2.64613        -0.03263
|  9>    O        0.64963        -3.46485        -0.14531
| 10>    O       -1.42714        -2.90022         0.05722
| 11>    C        1.38484        -0.75437        -0.07074
| 12>    C        1.36458         0.65717        -0.00653
| 13>    C        2.52008         1.53489        -0.05136
| 14>    C        3.78114         1.13546        -0.16091
| 15>    H       -0.22480         2.15752         0.17515
| 16>    H        2.26524        -1.36273        -0.16221
| 17>    H        2.28841         2.58971         0.01342
| 18>    H        4.05532         0.09690        -0.22635
| 19>    H        4.59061         1.84370        -0.18619
| 20> *
| 21>
| 22>                          ****END OF INPUT****
 Total Charge           Charge          ....    0
 Multiplicity           Mult            ....    1
 Number of Electrons    NEL             ....   80
Dispersion correction           -0.030129270
FINAL SINGLE POINT ENERGY      -834.499723474166
Dispersion correction            ... done
Dispersion correction           -0.029952210
FINAL SINGLE POINT ENERGY      -834.502310881335
Dispersion correction            ... done
Dispersion correction           -0.029922163
FINAL SINGLE POINT ENERGY      -834.502360981963
Dispersion correction            ... done
FINAL SINGLE POINT ENERGY      -834.502297980048
FINAL SINGLE POINT ENERGY      -834.502429984684
Dispersion correction            ... done
Dispersion correction           -0.029937832
FINAL SINGLE POINT ENERGY      -834.502479052776
Dispersion correction            ... done
Dispersion correction           -0.029927909
FINAL SINGLE POINT ENERGY      -834.502481993252
Dispersion correction            ... done
                    ***********************HURRAY********************

CARTESIAN COORDINATES (ANGSTROEM)
---------------------------------
  C      0.058455    1.152123    0.123693
  S     -1.142166   -0.083034    0.162061
  C      0.103170   -1.281506    0.016622
  N     -0.245511   -2.680398   -0.040365
  O      0.673413   -3.482276   -0.103609
  O     -1.438562   -2.954861   -0.021554
  C      1.366892   -0.757918   -0.056626
  C      1.354549    0.671920    0.002267
  C      2.530530    1.542146   -0.057820
  C      3.804253    1.139479   -0.167912
  H     -0.241925    2.197562    0.193450
  H      2.249156   -1.386718   -0.157051
  H      2.316444    2.615345   -0.006027
  H      4.080793    0.083275   -0.225773
  H      4.621639    1.862252   -0.208227

 Multiplicity           Mult            ....    1
 Number of Electrons    NEL             ....   80
 Basis Dimension        Dim             ....  169

ORBITAL ENERGIES
----------------

  NO   OCC          E(Eh)            E(eV)
   0   2.0000     -88.910032     -2419.3650
   1   2.0000     -19.167479      -521.5736
   2   2.0000     -19.167319      -521.5693
   3   2.0000     -14.570845      -396.4928
   4   2.0000     -10.272082      -279.5175
   5   2.0000     -10.246157      -278.8121
   6   2.0000     -10.231512      -278.4136
   7   2.0000     -10.230824      -278.3949
   8   2.0000     -10.218381      -278.0563
   9   2.0000     -10.207440      -277.7586
  10   2.0000      -8.004763      -217.8207
  11   2.0000      -5.972988      -162.5333
  12   2.0000      -5.968644      -162.4151
  13   2.0000      -5.966038      -162.3441
  14   2.0000      -1.229228       -33.4490
  15   2.0000      -1.055759       -28.7287
  16   2.0000      -0.921180       -25.0666
  17   2.0000      -0.820695       -22.3322
  18   2.0000      -0.792430       -21.5631
  19   2.0000      -0.749337       -20.3905
  20   2.0000      -0.696230       -18.9454
  21   2.0000      -0.613396       -16.6913
  22   2.0000      -0.573087       -15.5945
  23   2.0000      -0.564555       -15.3623
  24   2.0000      -0.550774       -14.9873
  25   2.0000      -0.549651       -14.9568
  26   2.0000      -0.510726       -13.8976
  27   2.0000      -0.482364       -13.1258
  28   2.0000      -0.469321       -12.7709
  29   2.0000      -0.438198       -11.9240
  30   2.0000      -0.420416       -11.4401
  31   2.0000      -0.419155       -11.4058
  32   2.0000      -0.391117       -10.6428
  33   2.0000      -0.375311       -10.2127
  34   2.0000      -0.331831        -9.0296
  35   2.0000      -0.317637        -8.6433
  36   2.0000      -0.317385        -8.6365
  37   2.0000      -0.300944        -8.1891
  38   2.0000      -0.284315        -7.7366
  39   2.0000      -0.251651        -6.8478
  40   0.0000      -0.100485        -2.7343
  41   0.0000      -0.050581        -1.3764
  42   0.0000       0.003320         0.0904
  43   0.0000       0.013379         0.3641
  44   0.0000       0.054581         1.4852

MULLIKEN ATOMIC CHARGES
-----------------------
   0 C :   -0.116400
   1 S :    0.185812
   2 C :   -0.023878
   3 N :    0.254252
   4 O :   -0.241283
   5 O :   -0.254809
   6 C :    0.040895
   7 C :    0.080584
   8 C :    0.000219
   9 C :   -0.017885
  10 H :    0.035663
  11 H :    0.011698
  12 H :   -0.008483
  13 H :    0.020092
  14 H :    0.033524
Sum of atomic charges:    0.0000000

LOEWDIN ATOMIC CHARGES
----------------------
   0 C :   -0.163587
   1 S :    0.484068
   2 C :   -0.190749
   3 N :    0.266786
   4 O :   -0.206838
   5 O :   -0.218247
   6 C :   -0.011994
   7 C :   -0.060290
   8 C :   -0.025551
   9 C :   -0.035902
  10 H :    0.031116
  11 H :    0.043580
  12 H :    0.032323
  13 H :    0.024055
  14 H :    0.031230

  Mayer bond orders larger than 0.100000
B(  0-C ,  1-S ) :   1.1744 B(  0-C ,  7-C ) :   1.4795 B(  0-C , 10-H ) :   0.9670
B(  1-S ,  2-C ) :   1.1381 B(  2-C ,  3-N ) :   0.9224 B(  2-C ,  6-C ) :   1.4942
B(  3-N ,  4-O ) :   1.5317 B(  3-N ,  5-O ) :   1.5070 B(  4-O ,  5-O ) :   0.2808
B(  6-C ,  7-C ) :   1.2122 B(  6-C , 11-H ) :   0.9913 B(  7-C ,  8-C ) :   1.0876
B(  8-C ,  9-C ) :   1.9312 B(  8-C , 12-H ) :   0.9645 B(  9-C , 13-H ) :   0.9480
B(  9-C , 14-H ) :   0.9462

Dispersion correction           -0.029928926
FINAL SINGLE POINT ENERGY      -834.502481463190

DIPOLE MOMENT
-------------
                                X             Y             Z
Electronic contribution:     -9.46892      -6.46394       0.44375
Nuclear contribution   :     10.07544       8.20598      -0.40185
                        -----------------------------------------
Total Dipole Moment    :      0.60652       1.74204       0.04190
                        -----------------------------------------
Magnitude (a.u.)       :      1.84508
Magnitude (Debye)      :      4.68982

Rotational constants in cm-1:     0.073602     0.026518     0.019499
Rotational constants in MHz :  2206.544645   795.003443   584.560243

                             ****ORCA TERMINATED NORMALLY****
TOTAL RUN TIME: 0 days 0 hours 7 minutes 11 seconds 311 msec
