                         Program Version 4.2.0 -  RELEASE  -
|  1> # ORCA input file
|  2> # SCF done        -28.754079882904          0.000822730981
|  3> ! B3LYP/G D3BJ Opt RIJCOSX def2-SVP def2/J
|  4> * xyz 0 1
|  5>    C        1.25924        -1.29853         0.00861
|  6>    S        2.53572        -0.14176        -0.03115
|  7>    C        0.04117        -0.68977         0.00710
|  8>    C       -1.32272        -1.17601         0.02311
|  9>    C       -2.24229        -0.21724         0.01581
| 10>    S       -1.49634         1.44213        -0.01824
| 11>    N       -1.67969         2.15646        -1.35010
| 12>    O       -1.79179         2.11200         1.23042
| 13>    C        0.14818         0.73038        -0.02589
| 14>    C        1.41832         1.17946        -0.04957
| 15>    H        1.49028        -2.34483         0.03325
| 16>    H       -1.53129        -2.23519         0.03759
| 17>    H       -3.30842        -0.33049         0.02268
| 18>    H       -2.35150         2.90315        -1.34951
| 19>    H        1.78199         2.18629        -0.07690
| 20> *
| 21>
| 22>                          ****END OF INPUT****
 Total Charge           Charge          ....    0
 Multiplicity           Mult            ....    1
 Number of Electrons    NEL             ....   88
Dispersion correction           -0.037332037
FINAL SINGLE POINT ENERGY     -1157.388603398857
Dispersion correction            ... done
Dispersion correction           -0.037273809
FINAL SINGLE POINT ENERGY     -1157.392378830612
Dispersion correction            ... done
Dispersion correction           -0.037279247
FINAL SINGLE POINT ENERGY     -1157.393523271221
Dispersion correction            ... done
FINAL SINGLE POINT ENERGY     -1157.394071619796
FINAL SINGLE POINT ENERGY     -1157.394327247131
FINAL SINGLE POINT ENERGY     -1157.394582741071
FINAL SINGLE POINT ENERGY     -1157.394659204378
Dispersion correction            ... done
Dispersion correction           -0.037363366
FINAL SINGLE POINT ENERGY     -1157.394676501476
Dispersion correction            ... done
Dispersion correction           -0.037361970
FINAL SINGLE POINT ENERGY     -1157.394683927782
Dispersion correction            ... done
                    ***********************HURRAY********************

CARTESIAN COORDINATES (ANGSTROEM)
---------------------------------
  C      1.282580   -1.313480    0.024075
  S      2.555718   -0.130533   -0.012637
  C      0.048331   -0.712740   -0.002104
  C     -1.342024   -1.178198    0.005446
  C     -2.241872   -0.179884   -0.007316
  S     -1.461470    1.471007   -0.008336
  N     -1.570121    2.261822   -1.326161
  O     -1.784332    2.063443    1.304950
  C      0.155400    0.714420   -0.056145
  C      1.429372    1.192814   -0.066095
  H      1.527776   -2.373739    0.067320
  H     -1.609139   -2.237162    0.023673
  H     -3.330243   -0.250596    0.008107
  H     -2.483916    2.725036   -1.368222
  H      1.774801    2.223839   -0.109345

 Multiplicity           Mult            ....    1
 Number of Electrons    NEL             ....   88
 Basis Dimension        Dim             ....  173

ORBITAL ENERGIES
----------------

  NO   OCC          E(Eh)            E(eV)
   0   2.0000     -89.045453     -2423.0500
   1   2.0000     -88.899705     -2419.0839
   2   2.0000     -19.110980      -520.0362
   3   2.0000     -14.296706      -389.0331
   4   2.0000     -10.244057      -278.7550
   5   2.0000     -10.239230      -278.6236
   6   2.0000     -10.232643      -278.4444
   7   2.0000     -10.226960      -278.2897
   8   2.0000     -10.224564      -278.2245
   9   2.0000     -10.224361      -278.2190
  10   2.0000      -8.111785      -220.7329
  11   2.0000      -7.994445      -217.5399
  12   2.0000      -6.080279      -165.4528
  13   2.0000      -6.079206      -165.4236
  14   2.0000      -6.077995      -165.3906
  15   2.0000      -5.962680      -162.2528
  16   2.0000      -5.958354      -162.1351
  17   2.0000      -5.955799      -162.0655
  18   2.0000      -1.054958       -28.7069
  19   2.0000      -0.916870       -24.9493
  20   2.0000      -0.886994       -24.1363
  21   2.0000      -0.834595       -22.7105
  22   2.0000      -0.757230       -20.6053
  23   2.0000      -0.735971       -20.0268
  24   2.0000      -0.678254       -18.4562
  25   2.0000      -0.612179       -16.6582
  26   2.0000      -0.589836       -16.0502
  27   2.0000      -0.557632       -15.1739
  28   2.0000      -0.525722       -14.3056
  29   2.0000      -0.482206       -13.1215
  30   2.0000      -0.471316       -12.8252
  31   2.0000      -0.460422       -12.5287
  32   2.0000      -0.439496       -11.9593
  33   2.0000      -0.428451       -11.6587
  34   2.0000      -0.416359       -11.3297
  35   2.0000      -0.411807       -11.2058
  36   2.0000      -0.373621       -10.1668
  37   2.0000      -0.349340        -9.5060
  38   2.0000      -0.325875        -8.8675
  39   2.0000      -0.304329        -8.2812
  40   2.0000      -0.281670        -7.6646
  41   2.0000      -0.266365        -7.2482
  42   2.0000      -0.259807        -7.0697
  43   2.0000      -0.241440        -6.5699
  44   0.0000      -0.062506        -1.7009
  45   0.0000      -0.042650        -1.1606
  46   0.0000       0.010355         0.2818
  47   0.0000       0.047467         1.2916
  48   0.0000       0.058466         1.5910

MULLIKEN ATOMIC CHARGES
-----------------------
   0 C :   -0.130093
   1 S :    0.119702
   2 C :    0.085386
   3 C :    0.081801
   4 C :   -0.038766
   5 S :    0.610520
   6 N :   -0.396801
   7 O :   -0.475015
   8 C :    0.016170
   9 C :   -0.106755
  10 H :    0.030766
  11 H :    0.001128
  12 H :    0.043533
  13 H :    0.115189
  14 H :    0.043236
Sum of atomic charges:   -0.0000000

LOEWDIN ATOMIC CHARGES
----------------------
   0 C :   -0.179847
   1 S :    0.454239
   2 C :   -0.076080
   3 C :   -0.014918
   4 C :   -0.157205
   5 S :    1.159133
   6 N :   -0.493056
   7 O :   -0.525136
   8 C :   -0.193034
   9 C :   -0.156635
  10 H :    0.030899
  11 H :    0.037874
  12 H :    0.032361
  13 H :    0.041916
  14 H :    0.039487

  Mayer bond orders larger than 0.100000
B(  0-C ,  1-S ) :   1.1589 B(  0-C ,  2-C ) :   1.5189 B(  0-C , 10-H ) :   0.9629
B(  1-S ,  9-C ) :   1.1682 B(  2-C ,  3-C ) :   1.0649 B(  2-C ,  8-C ) :   1.2458
B(  3-C ,  4-C ) :   1.7449 B(  3-C , 11-H ) :   0.9893 B(  4-C ,  5-S ) :   0.8151
B(  4-C , 12-H ) :   0.9570 B(  5-S ,  6-N ) :   1.5451 B(  5-S ,  7-O ) :   1.5996
B(  5-S ,  8-C ) :   0.7831 B(  6-N , 13-H ) :   0.9197 B(  8-C ,  9-C ) :   1.6023
B(  9-C , 14-H ) :   0.9719

Dispersion correction           -0.037361266
FINAL SINGLE POINT ENERGY     -1157.394688378095

DIPOLE MOMENT
-------------
                                X             Y             Z
Electronic contribution:      3.46046       1.08088       1.02966
Nuclear contribution   :     -3.18160      -2.36009      -1.25384
                        -----------------------------------------
Total Dipole Moment    :      0.27886      -1.27921      -0.22418
                        -----------------------------------------
Magnitude (a.u.)       :      1.32831
Magnitude (Debye)      :      3.37630

Rotational constants in cm-1:     0.071063     0.026593     0.022059
Rotational constants in MHz :  2130.406201   797.234975   661.325431

                             ****ORCA TERMINATED NORMALLY****
TOTAL RUN TIME: 0 days 0 hours 9 minutes 16 seconds 785 msec
