                         Program Version 4.2.0 -  RELEASE  -
|  1> # ORCA input file
|  2> # SCF done        -39.207075427827          0.000622472453
|  3> ! B3LYP/G D3BJ Opt RIJCOSX def2-SVP def2/J
|  4> * xyz 0 1
|  5>    C        1.52689        -1.29647        -0.15654
|  6>    S        2.75306        -0.10274        -0.10359
|  7>    C        1.57442         1.17103         0.05485
|  8>    C        0.29904         0.65557         0.04479
|  9>    C        0.27880        -0.75833        -0.07456
| 10>    C       -0.98709        -1.55351        -0.14095
| 11>    C       -2.18712        -0.73854         0.33052
| 12>    F       -3.33625        -1.41282        -0.02639
| 13>    C       -2.17674         0.64327        -0.32251
| 14>    F       -3.31265         1.33690         0.04082
| 15>    C       -0.96419         1.44999         0.13610
| 16>    C        2.07111         2.52067         0.15751
| 17>    C        1.41517         3.59300         0.59273
| 18>    H        1.79423        -2.33011        -0.24939
| 19>    H       -0.90127        -2.46430         0.45479
| 20>    H       -1.17621        -1.85763        -1.17606
| 21>    H       -2.21946        -0.63651         1.42242
| 22>    H       -2.21815         0.53994        -1.41393
| 23>    H       -1.14247         1.74902         1.17477
| 24>    H       -0.88768         2.35932        -0.46400
| 25>    H        3.10615         2.62635        -0.14177
| 26>    H        0.40280         3.56163         0.94915
| 27>    H        1.90015         4.55330         0.62405
| 28> *
| 29>
| 30>                          ****END OF INPUT****
 Total Charge           Charge          ....    0
 Multiplicity           Mult            ....    1
 Number of Electrons    NEL             ....  104
Dispersion correction           -0.048563818
FINAL SINGLE POINT ENERGY      -984.438455842685
Dispersion correction            ... done
Dispersion correction           -0.048307282
FINAL SINGLE POINT ENERGY      -984.441265666221
Dispersion correction            ... done
Dispersion correction           -0.048286754
FINAL SINGLE POINT ENERGY      -984.441451884203
Dispersion correction            ... done
FINAL SINGLE POINT ENERGY      -984.441499859313
FINAL SINGLE POINT ENERGY      -984.441518800555
FINAL SINGLE POINT ENERGY      -984.441527958052
FINAL SINGLE POINT ENERGY      -984.441498712845
FINAL SINGLE POINT ENERGY      -984.441291723589
FINAL SINGLE POINT ENERGY      -984.440872167332
FINAL SINGLE POINT ENERGY      -984.440190283848
FINAL SINGLE POINT ENERGY      -984.440879236999
FINAL SINGLE POINT ENERGY      -984.440831891362
FINAL SINGLE POINT ENERGY      -984.441162401989
FINAL SINGLE POINT ENERGY      -984.440815034259
FINAL SINGLE POINT ENERGY      -984.440950086540
Dispersion correction            ... done
Dispersion correction           -0.048248734
FINAL SINGLE POINT ENERGY      -984.440973803043
Dispersion correction            ... done
Dispersion correction           -0.048248103
FINAL SINGLE POINT ENERGY      -984.440973005288
Dispersion correction            ... done
                    ***********************HURRAY********************

CARTESIAN COORDINATES (ANGSTROEM)
---------------------------------
  C      1.546168   -1.335840   -0.088197
  S      2.767444   -0.139599    0.101084
  C      1.592016    1.155479    0.134510
  C      0.305203    0.645882   -0.003191
  C      0.288760   -0.780775   -0.138964
  C     -0.999386   -1.536365   -0.313822
  C     -2.147107   -0.789930    0.350697
  F     -3.335151   -1.449739    0.086602
  C     -2.241532    0.633064   -0.173957
  F     -3.291771    1.279562    0.457459
  C     -0.966738    1.448469    0.068417
  C      2.097453    2.507143    0.317312
  C      1.411753    3.660525    0.415325
  H      1.809714   -2.389518   -0.164581
  H     -0.930403   -2.551116    0.103709
  H     -1.245781   -1.648532   -1.385498
  H     -2.015509   -0.761114    1.447043
  H     -2.489021    0.580674   -1.249608
  H     -1.066211    1.892968    1.074014
  H     -0.942631    2.297116   -0.633864
  H      3.190158    2.568444    0.385582
  H      0.324326    3.721546    0.370843
  H      1.950787    4.600688    0.551897

 Multiplicity           Mult            ....    1
 Number of Electrons    NEL             ....  104
 Basis Dimension        Dim             ....  236

ORBITAL ENERGIES
----------------

  NO   OCC          E(Eh)            E(eV)
   0   2.0000     -88.880384     -2418.5582
   1   2.0000     -24.671688      -671.3508
   2   2.0000     -24.670701      -671.3239
   3   2.0000     -10.271724      -279.5078
   4   2.0000     -10.270647      -279.4785
   5   2.0000     -10.224825      -278.2316
   6   2.0000     -10.218840      -278.0688
   7   2.0000     -10.211936      -277.8809
   8   2.0000     -10.210132      -277.8318
   9   2.0000     -10.209136      -277.8047
  10   2.0000     -10.209045      -277.8022
  11   2.0000     -10.208620      -277.7907
  12   2.0000     -10.196360      -277.4571
  13   2.0000      -7.975522      -217.0250
  14   2.0000      -5.943473      -161.7301
  15   2.0000      -5.939570      -161.6239
  16   2.0000      -5.937006      -161.5542
  17   2.0000      -1.182484       -32.1770
  18   2.0000      -1.168258       -31.7899
  19   2.0000      -0.896799       -24.4031
  20   2.0000      -0.829374       -22.5684
  21   2.0000      -0.795137       -21.6368
  22   2.0000      -0.760497       -20.6942
  23   2.0000      -0.737289       -20.0626
  24   2.0000      -0.700042       -19.0491
  25   2.0000      -0.651380       -17.7249
  26   2.0000      -0.619609       -16.8604
  27   2.0000      -0.597336       -16.2544
  28   2.0000      -0.568222       -15.4621
  29   2.0000      -0.540620       -14.7110
  30   2.0000      -0.520202       -14.1554
  31   2.0000      -0.504263       -13.7217
  32   2.0000      -0.494714       -13.4619
  33   2.0000      -0.486000       -13.2247
  34   2.0000      -0.467937       -12.7332
  35   2.0000      -0.462996       -12.5988
  36   2.0000      -0.446899       -12.1607
  37   2.0000      -0.433655       -11.8003
  38   2.0000      -0.423812       -11.5325
  39   2.0000      -0.414789       -11.2870
  40   2.0000      -0.402559       -10.9542
  41   2.0000      -0.393805       -10.7160
  42   2.0000      -0.384983       -10.4759
  43   2.0000      -0.374563       -10.1924
  44   2.0000      -0.371963       -10.1216
  45   2.0000      -0.354384        -9.6433
  46   2.0000      -0.345003        -9.3880
  47   2.0000      -0.335505        -9.1296
  48   2.0000      -0.317944        -8.6517
  49   2.0000      -0.309110        -8.4113
  50   2.0000      -0.254646        -6.9293
  51   2.0000      -0.224994        -6.1224
  52   0.0000      -0.053677        -1.4606
  53   0.0000       0.012779         0.3477
  54   0.0000       0.023923         0.6510
  55   0.0000       0.053602         1.4586
  56   0.0000       0.059928         1.6307

MULLIKEN ATOMIC CHARGES
-----------------------
   0 C :   -0.125085
   1 S :    0.113725
   2 C :   -0.157543
   3 C :   -0.052840
   4 C :   -0.082102
   5 C :    0.165197
   6 C :    0.181548
   7 F :   -0.252095
   8 C :    0.224323
   9 F :   -0.258143
  10 C :    0.101331
  11 C :    0.035550
  12 C :   -0.041600
  13 H :    0.016340
  14 H :    0.007321
  15 H :    0.022397
  16 H :    0.003277
  17 H :   -0.001956
  18 H :    0.034092
  19 H :    0.034429
  20 H :   -0.007437
  21 H :    0.016372
  22 H :    0.022898
Sum of atomic charges:    0.0000000

LOEWDIN ATOMIC CHARGES
----------------------
   0 C :   -0.197157
   1 S :    0.441211
   2 C :   -0.179532
   3 C :   -0.061251
   4 C :   -0.068989
   5 C :   -0.030342
   6 C :    0.094119
   7 F :   -0.127810
   8 C :    0.099689
   9 F :   -0.129928
  10 C :   -0.036256
  11 C :   -0.042328
  12 C :   -0.054264
  13 H :    0.025126
  14 H :    0.036386
  15 H :    0.036900
  16 H :    0.018661
  17 H :    0.017631
  18 H :    0.041952
  19 H :    0.038253
  20 H :    0.029361
  21 H :    0.020692
  22 H :    0.027876

  Mayer bond orders larger than 0.100000
B(  0-C ,  1-S ) :   1.1597 B(  0-C ,  4-C ) :   1.5393 B(  0-C , 13-H ) :   0.9658
B(  1-S ,  2-C ) :   1.1371 B(  2-C ,  3-C ) :   1.5103 B(  2-C , 11-C ) :   1.1242
B(  3-C ,  4-C ) :   1.2923 B(  3-C , 10-C ) :   1.0410 B(  4-C ,  5-C ) :   1.0059
B(  5-C ,  6-C ) :   1.0366 B(  5-C , 14-H ) :   0.9089 B(  5-C , 15-H ) :   0.9039
B(  6-C ,  7-F ) :   1.0165 B(  6-C ,  8-C ) :   1.0324 B(  6-C , 16-H ) :   0.9333
B(  8-C ,  9-F ) :   1.0025 B(  8-C , 10-C ) :   1.0197 B(  8-C , 17-H ) :   0.9186
B( 10-C , 18-H ) :   0.9005 B( 10-C , 19-H ) :   0.8993 B( 11-C , 12-C ) :   1.9044
B( 11-C , 20-H ) :   0.9426 B( 12-C , 21-H ) :   0.9547 B( 12-C , 22-H ) :   0.9396

Dispersion correction           -0.048248096
FINAL SINGLE POINT ENERGY      -984.440973824426

DIPOLE MOMENT
-------------
                                X             Y             Z
Electronic contribution:     -4.87374      -5.47408       0.63486
Nuclear contribution   :      5.77968       5.41142      -0.82128
                        -----------------------------------------
Total Dipole Moment    :      0.90594      -0.06266      -0.18641
                        -----------------------------------------
Magnitude (a.u.)       :      0.92704
Magnitude (Debye)      :      2.35635

Rotational constants in cm-1:     0.038083     0.016483     0.011707
Rotational constants in MHz :  1141.706958   494.161438   350.981842

                             ****ORCA TERMINATED NORMALLY****
TOTAL RUN TIME: 0 days 0 hours 30 minutes 5 seconds 548 msec
