                         Program Version 4.2.0 -  RELEASE  -
|  1> # ORCA input file
|  2> # SCF done        -40.690335080259          0.000549465370
|  3> ! B3LYP/G D3BJ Opt RIJCOSX def2-SVP def2/J
|  4> * xyz 0 1
|  5>    N        1.23167        -0.08088        -0.40086
|  6>    C        0.29894         0.98852        -0.12823
|  7>    C        0.21022         1.36278         1.35418
|  8>    C        2.59922         0.07371        -0.19406
|  9>    C        3.38441        -1.05433         0.04819
| 10>    C        4.75169        -0.95566         0.19102
| 11>    C        5.40430         0.27495         0.10654
| 12>    C        4.62342         1.42475        -0.12793
| 13>    C        3.24521         1.30129        -0.27824
| 14>    C        5.22633         2.75513        -0.17988
| 15>    C        4.81546         3.75156        -0.95371
| 16>    N        6.78340         0.35947         0.15898
| 17>    C        7.59441        -0.67757         0.75644
| 18>    C        9.03548        -0.20314         0.87425
| 19>    H        0.89943        -0.98175        -0.08227
| 20>    H       -0.68187         0.66285        -0.48640
| 21>    H        0.59109         1.86278        -0.71449
| 22>    H       -0.11948         0.50795         1.94235
| 23>    H       -0.49531         2.17720         1.49836
| 24>    H        1.18665         1.67514         1.71825
| 25>    H        2.91070        -2.02367         0.12627
| 26>    H        5.32074        -1.85356         0.37302
| 27>    H        2.67633         2.20297        -0.43797
| 28>    H        6.06317         2.93292         0.48842
| 29>    H        4.00730         3.63183        -1.65511
| 30>    H        5.28512         4.72033        -0.92832
| 31>    H        7.13649         1.29069         0.32059
| 32>    H        7.55703        -1.56505         0.11485
| 33>    H        7.21586        -0.96288         1.75185
| 34>    H        9.41620         0.08427        -0.10292
| 35>    H        9.66090        -0.99803         1.27195
| 36>    H        9.10459         0.65434         1.54164
| 37> *
| 38>
| 39>                          ****END OF INPUT****
 Total Charge           Charge          ....    0
 Multiplicity           Mult            ....    1
 Number of Electrons    NEL             ....  104
Dispersion correction           -0.058149168
FINAL SINGLE POINT ENERGY      -577.240445266560
Dispersion correction            ... done
Dispersion correction           -0.057541861
FINAL SINGLE POINT ENERGY      -577.244148069442
Dispersion correction            ... done
Dispersion correction           -0.057485102
FINAL SINGLE POINT ENERGY      -577.244313601995
Dispersion correction            ... done
FINAL SINGLE POINT ENERGY      -577.244387202505
FINAL SINGLE POINT ENERGY      -577.244417066820
FINAL SINGLE POINT ENERGY      -577.244447699307
FINAL SINGLE POINT ENERGY      -577.244469665453
FINAL SINGLE POINT ENERGY      -577.244475791666
FINAL SINGLE POINT ENERGY      -577.244460098505
FINAL SINGLE POINT ENERGY      -577.244434927895
FINAL SINGLE POINT ENERGY      -577.245349065613
FINAL SINGLE POINT ENERGY      -577.245771823317
FINAL SINGLE POINT ENERGY      -577.246091149554
FINAL SINGLE POINT ENERGY      -577.246175447818
FINAL SINGLE POINT ENERGY      -577.246233436644
FINAL SINGLE POINT ENERGY      -577.246219097406
FINAL SINGLE POINT ENERGY      -577.246210957682
Dispersion correction            ... done
Dispersion correction           -0.057455764
FINAL SINGLE POINT ENERGY      -577.246203394977
Dispersion correction            ... done
Dispersion correction           -0.057458179
FINAL SINGLE POINT ENERGY      -577.246207644088
Dispersion correction            ... done
                    ***********************HURRAY********************

CARTESIAN COORDINATES (ANGSTROEM)
---------------------------------
  N      1.210305   -0.103279   -0.389031
  C      0.255680    0.955721   -0.114006
  C      0.150876    1.377371    1.356844
  C      2.582858    0.058795   -0.189408
  C      3.387086   -1.057563    0.103477
  C      4.765067   -0.939375    0.260551
  C      5.409658    0.304604    0.149056
  C      4.611019    1.446525   -0.131278
  C      3.224505    1.302822   -0.297228
  C      5.250119    2.769286   -0.205832
  C      4.846703    3.817278   -0.940795
  N      6.787910    0.447512    0.332563
  C      7.628719   -0.672294    0.692320
  C      9.054448   -0.210511    0.976022
  H      0.881725   -1.019569   -0.104730
  H     -0.725459    0.605429   -0.475150
  H      0.501902    1.831413   -0.736753
  H     -0.173005    0.532393    1.986633
  H     -0.581579    2.190835    1.486634
  H      1.121091    1.730457    1.738193
  H      2.918545   -2.040366    0.212635
  H      5.343092   -1.837670    0.475725
  H      2.638207    2.201693   -0.487540
  H      6.145464    2.884078    0.416800
  H      3.984976    3.759237   -1.612438
  H      5.376773    4.772074   -0.895686
  H      7.229296    1.111539   -0.294068
  H      7.636505   -1.466000   -0.086487
  H      7.207563   -1.143990    1.597252
  H      9.516027    0.236824    0.079051
  H      9.686711   -1.054879    1.289506
  H      9.066313    0.548519    1.773930

 Multiplicity           Mult            ....    1
 Number of Electrons    NEL             ....  104
 Basis Dimension        Dim             ....  286

ORBITAL ENERGIES
----------------

  NO   OCC          E(Eh)            E(eV)
   0   2.0000     -14.325625      -389.8201
   1   2.0000     -14.323200      -389.7541
   2   2.0000     -10.217465      -278.0313
   3   2.0000     -10.216247      -277.9982
   4   2.0000     -10.209513      -277.8150
   5   2.0000     -10.209259      -277.8081
   6   2.0000     -10.187279      -277.2100
   7   2.0000     -10.185459      -277.1604
   8   2.0000     -10.180901      -277.0364
   9   2.0000     -10.178608      -276.9740
  10   2.0000     -10.177945      -276.9560
  11   2.0000     -10.175364      -276.8857
  12   2.0000     -10.174572      -276.8642
  13   2.0000     -10.171863      -276.7905
  14   2.0000      -0.919276       -25.0148
  15   2.0000      -0.912972       -24.8432
  16   2.0000      -0.823923       -22.4201
  17   2.0000      -0.773185       -21.0394
  18   2.0000      -0.751824       -20.4582
  19   2.0000      -0.732681       -19.9373
  20   2.0000      -0.710742       -19.3403
  21   2.0000      -0.685523       -18.6540
  22   2.0000      -0.635221       -17.2852
  23   2.0000      -0.611680       -16.6446
  24   2.0000      -0.607728       -16.5371
  25   2.0000      -0.565692       -15.3933
  26   2.0000      -0.554908       -15.0998
  27   2.0000      -0.519625       -14.1397
  28   2.0000      -0.503331       -13.6963
  29   2.0000      -0.484067       -13.1721
  30   2.0000      -0.473439       -12.8829
  31   2.0000      -0.455519       -12.3953
  32   2.0000      -0.445741       -12.1292
  33   2.0000      -0.434046       -11.8110
  34   2.0000      -0.423137       -11.5142
  35   2.0000      -0.418688       -11.3931
  36   2.0000      -0.417635       -11.3644
  37   2.0000      -0.402016       -10.9394
  38   2.0000      -0.395938       -10.7740
  39   2.0000      -0.381920       -10.3926
  40   2.0000      -0.376817       -10.2537
  41   2.0000      -0.369949       -10.0668
  42   2.0000      -0.365765        -9.9530
  43   2.0000      -0.355910        -9.6848
  44   2.0000      -0.348554        -9.4846
  45   2.0000      -0.343979        -9.3601
  46   2.0000      -0.328778        -8.9465
  47   2.0000      -0.307937        -8.3794
  48   2.0000      -0.284783        -7.7493
  49   2.0000      -0.244035        -6.6405
  50   2.0000      -0.224540        -6.1101
  51   2.0000      -0.169591        -4.6148
  52   0.0000      -0.026863        -0.7310
  53   0.0000       0.024464         0.6657
  54   0.0000       0.051248         1.3945
  55   0.0000       0.054803         1.4913
  56   0.0000       0.056971         1.5503

MULLIKEN ATOMIC CHARGES
-----------------------
   0 N :   -0.149827
   1 C :    0.084538
   2 C :   -0.005497
   3 C :    0.137921
   4 C :   -0.034125
   5 C :   -0.072358
   6 C :    0.104555
   7 C :    0.056610
   8 C :   -0.111143
   9 C :   -0.062894
  10 C :   -0.022805
  11 N :   -0.200849
  12 C :    0.098364
  13 C :   -0.007784
  14 H :    0.094409
  15 H :   -0.000778
  16 H :    0.012675
  17 H :    0.002513
  18 H :    0.011107
  19 H :    0.028722
  20 H :   -0.054001
  21 H :   -0.046005
  22 H :   -0.061210
  23 H :   -0.011094
  24 H :    0.016169
  25 H :    0.014674
  26 H :    0.117955
  27 H :    0.000711
  28 H :    0.007900
  29 H :    0.011997
  30 H :    0.015980
  31 H :    0.023572
Sum of atomic charges:   -0.0000000

LOEWDIN ATOMIC CHARGES
----------------------
   0 N :   -0.048500
   1 C :    0.026640
   2 C :   -0.073066
   3 C :    0.006045
   4 C :   -0.055830
   5 C :   -0.059159
   6 C :    0.007161
   7 C :   -0.047862
   8 C :   -0.049974
   9 C :   -0.027521
  10 C :   -0.057773
  11 N :   -0.051882
  12 C :    0.028774
  13 C :   -0.060012
  14 H :    0.064745
  15 H :    0.020245
  16 H :    0.019256
  17 H :    0.018819
  18 H :    0.024577
  19 H :    0.027254
  20 H :    0.018168
  21 H :    0.022177
  22 H :    0.018996
  23 H :    0.021492
  24 H :    0.019592
  25 H :    0.021751
  26 H :    0.066734
  27 H :    0.003890
  28 H :    0.019480
  29 H :    0.021192
  30 H :    0.028745
  31 H :    0.025845

  Mayer bond orders larger than 0.100000
B(  0-N ,  1-C ) :   1.0497 B(  0-N ,  3-C ) :   1.1478 B(  0-N , 14-H ) :   0.9318
B(  1-C ,  2-C ) :   1.0941 B(  1-C , 15-H ) :   0.9526 B(  1-C , 16-H ) :   0.9403
B(  2-C , 17-H ) :   0.9645 B(  2-C , 18-H ) :   0.9605 B(  2-C , 19-H ) :   0.9637
B(  3-C ,  4-C ) :   1.3201 B(  3-C ,  8-C ) :   1.3067 B(  4-C ,  5-C ) :   1.3583
B(  4-C , 20-H ) :   0.9813 B(  5-C ,  6-C ) :   1.3202 B(  5-C , 21-H ) :   0.9846
B(  6-C ,  7-C ) :   1.3253 B(  6-C , 11-N ) :   1.1451 B(  7-C ,  8-C ) :   1.3556
B(  7-C ,  9-C ) :   1.0615 B(  8-C , 22-H ) :   0.9847 B(  9-C , 10-C ) :   1.9355
B(  9-C , 23-H ) :   0.9435 B( 10-C , 24-H ) :   0.9495 B( 10-C , 25-H ) :   0.9449
B( 11-N , 12-C ) :   1.0226 B( 11-N , 26-H ) :   0.9162 B( 12-C , 13-C ) :   1.1024
B( 12-C , 27-H ) :   0.9349 B( 12-C , 28-H ) :   0.9392 B( 13-C , 29-H ) :   0.9658
B( 13-C , 30-H ) :   0.9615 B( 13-C , 31-H ) :   0.9682

Dispersion correction           -0.057455577
FINAL SINGLE POINT ENERGY      -577.246205633074

DIPOLE MOMENT
-------------
                                X             Y             Z
Electronic contribution:     -1.50161      -1.84472      -3.54773
Nuclear contribution   :      1.52486       1.55867       3.70014
                        -----------------------------------------
Total Dipole Moment    :      0.02326      -0.28604       0.15241
                        -----------------------------------------
Magnitude (a.u.)       :      0.32495
Magnitude (Debye)      :      0.82595

Rotational constants in cm-1:     0.038883     0.011911     0.009734
Rotational constants in MHz :  1165.692904   357.080380   291.817146

                             ****ORCA TERMINATED NORMALLY****
TOTAL RUN TIME: 0 days 0 hours 57 minutes 47 seconds 66 msec
