                         Program Version 4.2.0 -  RELEASE  -
|  1> # ORCA input file
|  2> # SCF done        -28.325155161757          0.000509450113
|  3> ! B3LYP/G D3BJ Opt RIJCOSX def2-SVP def2/J
|  4> * xyz 0 1
|  5>    C       -0.87132         1.46789        -0.01029
|  6>    C        0.02210         0.41016        -0.00931
|  7>    C        1.50091         0.39804        -0.01871
|  8>    O        2.26762         1.31847        -0.02927
|  9>    O        1.90278        -0.89858        -0.01232
| 10>    C        0.79821        -1.78902        -0.00035
| 11>    C       -0.41354        -0.91170         0.00211
| 12>    C       -1.76057        -1.21199         0.01304
| 13>    C       -2.65873        -0.15384         0.01214
| 14>    C       -2.22284         1.16587         0.00053
| 15>    H       -0.51265         2.48493        -0.01947
| 16>    H        0.86476        -2.42106         0.89235
| 17>    H        0.85340        -2.43067        -0.88706
| 18>    H       -2.10620        -2.23443         0.02213
| 19>    H       -3.71856        -0.36085         0.02057
| 20>    H       -2.95019         1.96359        -0.00017
| 21> *
| 22>
| 23>                          ****END OF INPUT****
 Total Charge           Charge          ....    0
 Multiplicity           Mult            ....    1
 Number of Electrons    NEL             ....   70
Dispersion correction           -0.030305978
FINAL SINGLE POINT ENERGY      -458.618874335726
Dispersion correction            ... done
Dispersion correction           -0.030179078
FINAL SINGLE POINT ENERGY      -458.620475289470
Dispersion correction            ... done
Dispersion correction           -0.030161779
FINAL SINGLE POINT ENERGY      -458.620548515460
Dispersion correction            ... done
Dispersion correction           -0.030160226
FINAL SINGLE POINT ENERGY      -458.620563169235
Dispersion correction            ... done
Dispersion correction           -0.030162815
FINAL SINGLE POINT ENERGY      -458.620562182933
Dispersion correction            ... done
                    ***********************HURRAY********************

CARTESIAN COORDINATES (ANGSTROEM)
---------------------------------
  C     -0.866808    1.472651   -0.010638
  C      0.023746    0.400215   -0.009625
  C      1.507496    0.413048   -0.018280
  O      2.266839    1.339954   -0.028460
  O      1.920925   -0.896679   -0.013224
  C      0.813648   -1.799456   -0.000741
  C     -0.410055   -0.922959    0.001738
  C     -1.771457   -1.221804    0.012902
  C     -2.675230   -0.153568    0.012137
  C     -2.231628    1.179691    0.000402
  H     -0.492678    2.498556   -0.019951
  H      0.882777   -2.439024    0.895928
  H      0.871303   -2.450208   -0.890192
  H     -2.132336   -2.253129    0.022562
  H     -3.748352   -0.361100    0.021233
  H     -2.963009    1.990623    0.000129

 Multiplicity           Mult            ....    1
 Number of Electrons    NEL             ....   70
 Basis Dimension        Dim             ....  170

ORBITAL ENERGIES
----------------

  NO   OCC          E(Eh)            E(eV)
   0   2.0000     -19.176242      -521.8121
   1   2.0000     -19.118971      -520.2537
   2   2.0000     -10.313360      -280.6408
   3   2.0000     -10.267765      -279.4001
   4   2.0000     -10.221330      -278.1365
   5   2.0000     -10.218297      -278.0540
   6   2.0000     -10.217797      -278.0404
   7   2.0000     -10.216388      -278.0021
   8   2.0000     -10.213254      -277.9168
   9   2.0000     -10.210026      -277.8289
  10   2.0000      -1.094478       -29.7823
  11   2.0000      -1.015873       -27.6433
  12   2.0000      -0.877378       -23.8747
  13   2.0000      -0.784859       -21.3571
  14   2.0000      -0.771969       -21.0064
  15   2.0000      -0.721425       -19.6310
  16   2.0000      -0.649607       -17.6767
  17   2.0000      -0.616551       -16.7772
  18   2.0000      -0.578058       -15.7297
  19   2.0000      -0.525713       -14.3054
  20   2.0000      -0.505002       -13.7418
  21   2.0000      -0.502167       -13.6647
  22   2.0000      -0.487359       -13.2617
  23   2.0000      -0.459109       -12.4930
  24   2.0000      -0.445741       -12.1292
  25   2.0000      -0.430886       -11.7250
  26   2.0000      -0.416587       -11.3359
  27   2.0000      -0.387979       -10.5574
  28   2.0000      -0.386957       -10.5296
  29   2.0000      -0.376553       -10.2465
  30   2.0000      -0.362874        -9.8743
  31   2.0000      -0.305570        -8.3150
  32   2.0000      -0.279992        -7.6190
  33   2.0000      -0.277410        -7.5487
  34   2.0000      -0.273909        -7.4535
  35   0.0000      -0.057699        -1.5701
  36   0.0000      -0.033752        -0.9184
  37   0.0000       0.045082         1.2268
  38   0.0000       0.053532         1.4567
  39   0.0000       0.067080         1.8253

MULLIKEN ATOMIC CHARGES
-----------------------
   0 C :   -0.016007
   1 C :   -0.042040
   2 C :    0.221265
   3 O :   -0.165983
   4 O :   -0.314171
   5 C :    0.332428
   6 C :   -0.095115
   7 C :   -0.023266
   8 C :    0.026367
   9 C :    0.026106
  10 H :   -0.002062
  11 H :    0.038466
  12 H :    0.038954
  13 H :   -0.021663
  14 H :   -0.001671
  15 H :   -0.001609
Sum of atomic charges:   -0.0000000

LOEWDIN ATOMIC CHARGES
----------------------
   0 C :    0.012923
   1 C :   -0.074325
   2 C :    0.084828
   3 O :   -0.151222
   4 O :   -0.105288
   5 C :    0.106622
   6 C :   -0.026873
   7 C :   -0.024247
   8 C :   -0.003905
   9 C :   -0.020090
  10 H :    0.038887
  11 H :    0.034051
  12 H :    0.034123
  13 H :    0.029505
  14 H :    0.032443
  15 H :    0.032568

  Mayer bond orders larger than 0.100000
B(  0-C ,  1-C ) :   1.3465 B(  0-C ,  9-C ) :   1.3798 B(  0-C , 10-H ) :   1.0012
B(  1-C ,  2-C ) :   0.9140 B(  1-C ,  6-C ) :   1.4195 B(  2-C ,  3-O ) :   2.2180
B(  2-C ,  4-O ) :   1.0811 B(  4-O ,  5-C ) :   0.9698 B(  5-C ,  6-C ) :   1.0131
B(  5-C , 11-H ) :   0.9240 B(  5-C , 12-H ) :   0.9242 B(  6-C ,  7-C ) :   1.3641
B(  7-C ,  8-C ) :   1.3803 B(  7-C , 13-H ) :   1.0026 B(  8-C ,  9-C ) :   1.3660
B(  8-C , 14-H ) :   0.9842 B(  9-C , 15-H ) :   0.9851

Dispersion correction           -0.030164587
FINAL SINGLE POINT ENERGY      -458.620563088587

DIPOLE MOMENT
-------------
                                X             Y             Z
Electronic contribution:      5.01681       1.74071      -0.04367
Nuclear contribution   :     -6.71292      -2.67205       0.06026
                        -----------------------------------------
Total Dipole Moment    :     -1.69611      -0.93134       0.01659
                        -----------------------------------------
Magnitude (a.u.)       :      1.93506
Magnitude (Debye)      :      4.91854

Rotational constants in cm-1:     0.091317     0.041965     0.028910
Rotational constants in MHz :  2737.610293  1258.067609   866.710158

                             ****ORCA TERMINATED NORMALLY****
TOTAL RUN TIME: 0 days 0 hours 4 minutes 24 seconds 654 msec
