                         Program Version 4.2.0 -  RELEASE  -
|  1> # ORCA input file
|  2> # SCF done        -28.573790186952          0.000547143075
|  3> ! B3LYP/G D3BJ Opt RIJCOSX def2-SVP def2/J
|  4> * xyz 0 1
|  5>    C       -1.08366         1.41979        -0.06652
|  6>    C        0.20693         0.81150         0.04943
|  7>    C        1.42868         1.38853         0.06464
|  8>    S        2.75016         0.17926         0.37361
|  9>    F        4.10468        -1.13243         0.39729
| 10>    C        1.55921        -1.10853         0.23328
| 11>    C        0.29319        -0.64562         0.12224
| 12>    C       -0.91120        -1.41314         0.05682
| 13>    C       -2.10107        -0.78125        -0.05935
| 14>    C       -2.18918         0.64423        -0.12078
| 15>    H       -1.14263         2.49671        -0.11555
| 16>    H        1.62765         2.44373         0.06534
| 17>    H        3.17377         0.28895        -0.90100
| 18>    H        1.90836        -2.11648         0.32598
| 19>    H       -0.84128        -2.48912         0.10297
| 20>    H       -3.01801        -1.34984        -0.10569
| 21>    H       -3.16823         1.09115        -0.21078
| 22> *
| 23>
| 24>                          ****END OF INPUT****
 Total Charge           Charge          ....    0
 Multiplicity           Mult            ....    1
 Number of Electrons    NEL             ....   80
Dispersion correction           -0.036342129
FINAL SINGLE POINT ENERGY      -806.595516406584
Dispersion correction            ... done
Dispersion correction           -0.036153897
FINAL SINGLE POINT ENERGY      -806.599379640834
Dispersion correction            ... done
Dispersion correction           -0.036068301
FINAL SINGLE POINT ENERGY      -806.600398842595
Dispersion correction            ... done
FINAL SINGLE POINT ENERGY      -806.600844192663
FINAL SINGLE POINT ENERGY      -806.601043970300
FINAL SINGLE POINT ENERGY      -806.601143573302
FINAL SINGLE POINT ENERGY      -806.601196485266
Dispersion correction            ... done
Dispersion correction           -0.036052158
FINAL SINGLE POINT ENERGY      -806.601218435096
Dispersion correction            ... done
Dispersion correction           -0.036049202
FINAL SINGLE POINT ENERGY      -806.601217541372
Dispersion correction            ... done
                    ***********************HURRAY********************

CARTESIAN COORDINATES (ANGSTROEM)
---------------------------------
  C     -1.102003    1.428290   -0.075677
  C      0.200815    0.810332    0.005251
  C      1.438313    1.384126    0.002089
  S      2.744966    0.147322    0.360324
  F      4.059968   -1.186455    0.412577
  C      1.559432   -1.138710    0.195242
  C      0.283570   -0.663599    0.088273
  C     -0.935484   -1.433081    0.062788
  C     -2.134145   -0.791611   -0.032097
  C     -2.220438    0.651038   -0.101345
  H     -1.171366    2.517337   -0.129540
  H      1.655034    2.455196    0.008113
  H      3.430083    0.480071   -0.761196
  H      1.933597   -2.152555    0.286799
  H     -0.877913   -2.522156    0.120951
  H     -3.059642   -1.372065   -0.054350
  H     -3.207419    1.113960   -0.176271

 Multiplicity           Mult            ....    1
 Number of Electrons    NEL             ....   80
 Basis Dimension        Dim             ....  179

ORBITAL ENERGIES
----------------

  NO   OCC          E(Eh)            E(eV)
   0   2.0000     -88.963753     -2420.8268
   1   2.0000     -24.551435      -668.0785
   2   2.0000     -10.223683      -278.2006
   3   2.0000     -10.220164      -278.1048
   4   2.0000     -10.218273      -278.0533
   5   2.0000     -10.214315      -277.9457
   6   2.0000     -10.212828      -277.9052
   7   2.0000     -10.211984      -277.8822
   8   2.0000     -10.211131      -277.8590
   9   2.0000     -10.209213      -277.8068
  10   2.0000      -8.043793      -218.8827
  11   2.0000      -6.012745      -163.6151
  12   2.0000      -6.009217      -163.5191
  13   2.0000      -6.006428      -163.4432
  14   2.0000      -1.025568       -27.9071
  15   2.0000      -0.897980       -24.4353
  16   2.0000      -0.840885       -22.8816
  17   2.0000      -0.777309       -21.1516
  18   2.0000      -0.758682       -20.6448
  19   2.0000      -0.709408       -19.3040
  20   2.0000      -0.643435       -17.5088
  21   2.0000      -0.595065       -16.1925
  22   2.0000      -0.586915       -15.9708
  23   2.0000      -0.523283       -14.2393
  24   2.0000      -0.510874       -13.9016
  25   2.0000      -0.490539       -13.3482
  26   2.0000      -0.461563       -12.5598
  27   2.0000      -0.449584       -12.2338
  28   2.0000      -0.429071       -11.6756
  29   2.0000      -0.422593       -11.4994
  30   2.0000      -0.412755       -11.2316
  31   2.0000      -0.392425       -10.6784
  32   2.0000      -0.379884       -10.3372
  33   2.0000      -0.356989        -9.7142
  34   2.0000      -0.312050        -8.4913
  35   2.0000      -0.307333        -8.3630
  36   2.0000      -0.289648        -7.8817
  37   2.0000      -0.283086        -7.7032
  38   2.0000      -0.254214        -6.9175
  39   2.0000      -0.220876        -6.0103
  40   0.0000      -0.099224        -2.7000
  41   0.0000      -0.006417        -0.1746
  42   0.0000       0.005577         0.1517
  43   0.0000       0.029323         0.7979
  44   0.0000       0.051617         1.4046

MULLIKEN ATOMIC CHARGES
-----------------------
   0 C :    0.016422
   1 C :    0.102127
   2 C :   -0.211450
   3 S :    0.488911
   4 F :   -0.520495
   5 C :   -0.183568
   6 C :    0.130390
   7 C :    0.010257
   8 C :    0.027372
   9 C :    0.018900
  10 H :   -0.016758
  11 H :    0.015644
  12 H :    0.098067
  13 H :    0.051106
  14 H :   -0.012409
  15 H :   -0.004880
  16 H :   -0.009637
Sum of atomic charges:    0.0000000

LOEWDIN ATOMIC CHARGES
----------------------
   0 C :   -0.010217
   1 C :   -0.050996
   2 C :   -0.200823
   3 S :    0.841249
   4 F :   -0.519981
   5 C :   -0.173497
   6 C :   -0.025235
   7 C :   -0.016500
   8 C :   -0.011056
   9 C :   -0.025200
  10 H :    0.032084
  11 H :    0.020371
  12 H :    0.007058
  13 H :    0.036623
  14 H :    0.033736
  15 H :    0.032013
  16 H :    0.030372

  Mayer bond orders larger than 0.100000
B(  0-C ,  1-C ) :   1.1246 B(  0-C ,  9-C ) :   1.6154 B(  0-C , 10-H ) :   0.9925
B(  1-C ,  2-C ) :   1.5586 B(  1-C ,  6-C ) :   1.1029 B(  2-C ,  3-S ) :   0.9073
B(  2-C ,  5-C ) :   0.1097 B(  2-C , 11-H ) :   0.9450 B(  3-S ,  4-F ) :   0.4921
B(  3-S ,  5-C ) :   1.0337 B(  3-S , 12-H ) :   0.8666 B(  5-C ,  6-C ) :   1.4658
B(  5-C , 13-H ) :   0.9938 B(  6-C ,  7-C ) :   1.1310 B(  7-C ,  8-C ) :   1.6108
B(  7-C , 14-H ) :   0.9952 B(  8-C ,  9-C ) :   1.1301 B(  8-C , 15-H ) :   0.9808
B(  9-C , 16-H ) :   0.9816

Dispersion correction           -0.036047883
FINAL SINGLE POINT ENERGY      -806.601212830597

DIPOLE MOMENT
-------------
                                X             Y             Z
Electronic contribution:      8.25322      -1.23950       1.40449
Nuclear contribution   :     -9.74863       2.10414      -1.79752
                        -----------------------------------------
Total Dipole Moment    :     -1.49542       0.86464      -0.39302
                        -----------------------------------------
Magnitude (a.u.)       :      1.77154
Magnitude (Debye)      :      4.50289

Rotational constants in cm-1:     0.104702     0.024244     0.019761
Rotational constants in MHz :  3138.888850   726.828687   592.415784

                             ****ORCA TERMINATED NORMALLY****
TOTAL RUN TIME: 0 days 0 hours 8 minutes 48 seconds 273 msec
