                         Program Version 4.2.0 -  RELEASE  -
|  1> # ORCA input file
|  2> # SCF done        -39.124774665434          0.000695237923
|  3> ! B3LYP/G D3BJ Opt RIJCOSX def2-SVP def2/J
|  4> * xyz 0 1
|  5>    C        1.00508         0.05064         0.22059
|  6>    C        0.41845        -1.16198         0.20437
|  7>    F        1.00766        -2.33346         0.45315
|  8>    C       -0.99659        -1.05302        -0.11915
|  9>    C       -1.26982         0.25434        -0.26695
| 10>    C       -0.03393         1.01925        -0.07798
| 11>    C        0.05004         2.37874        -0.11952
| 12>    C        1.24999         3.23789         0.01808
| 13>    C        0.81637         4.50296         0.25759
| 14>    C       -0.62532         4.49897         0.19330
| 15>    C       -1.09552         3.26199        -0.07829
| 16>    F       -1.35701         5.60000         0.37315
| 17>    C        2.63386         2.87741        -0.18666
| 18>    C        3.06990         1.96866        -1.05473
| 19>    H        2.02208         0.27728         0.46555
| 20>    H       -1.66246        -1.89033        -0.20284
| 21>    H       -2.21511         0.68864        -0.52363
| 22>    H        1.41355         5.38060         0.41557
| 23>    H       -2.12142         2.96454        -0.14951
| 24>    H        3.34641         3.48179         0.36063
| 25>    H        2.39463         1.39328        -1.66512
| 26>    H        4.12152         1.78597        -1.19432
| 27> *
| 28>
| 29>                          ****END OF INPUT****
 Total Charge           Charge          ....    0
 Multiplicity           Mult            ....    1
 Number of Electrons    NEL             ....   98
Dispersion correction           -0.045531459
FINAL SINGLE POINT ENERGY      -661.220191783775
Dispersion correction            ... done
Dispersion correction           -0.045109627
FINAL SINGLE POINT ENERGY      -661.223858808300
Dispersion correction            ... done
Dispersion correction           -0.045398792
FINAL SINGLE POINT ENERGY      -661.223190233030
Dispersion correction            ... done
FINAL SINGLE POINT ENERGY      -661.224137978490
FINAL SINGLE POINT ENERGY      -661.224165201845
Dispersion correction            ... done
Dispersion correction           -0.045140789
FINAL SINGLE POINT ENERGY      -661.224184326801
Dispersion correction            ... done
Dispersion correction           -0.045132518
FINAL SINGLE POINT ENERGY      -661.224192234163
Dispersion correction            ... done
                    ***********************HURRAY********************

CARTESIAN COORDINATES (ANGSTROEM)
---------------------------------
  C      1.009557    0.006825    0.192894
  C      0.384053   -1.197702    0.178691
  F      0.936095   -2.380614    0.415885
  C     -1.048440   -1.061847   -0.115891
  C     -1.302692    0.262053   -0.248078
  C     -0.028746    1.003345   -0.075094
  C      0.053997    2.372493   -0.109555
  C      1.262392    3.253920    0.004965
  C      0.803620    4.524091    0.235234
  C     -0.652121    4.495886    0.193816
  C     -1.117422    3.244406   -0.055402
  F     -1.387535    5.581376    0.393016
  C      2.666804    2.932366   -0.217295
  C      3.165069    1.980116   -1.024824
  H      2.046848    0.202471    0.437030
  H     -1.742049   -1.896194   -0.208860
  H     -2.256219    0.722103   -0.494857
  H      1.403237    5.425028    0.360790
  H     -2.156935    2.932096   -0.073378
  H      3.368679    3.612027    0.280594
  H      2.519974    1.312154   -1.597846
  H      4.244192    1.857761   -1.148555

 Multiplicity           Mult            ....    1
 Number of Electrons    NEL             ....   98
 Basis Dimension        Dim             ....  236

ORBITAL ENERGIES
----------------

  NO   OCC          E(Eh)            E(eV)
   0   2.0000     -24.713229      -672.4811
   1   2.0000     -24.712256      -672.4547
   2   2.0000     -10.282470      -279.8002
   3   2.0000     -10.280775      -279.7541
   4   2.0000     -10.229857      -278.3686
   5   2.0000     -10.227769      -278.3117
   6   2.0000     -10.214170      -277.9417
   7   2.0000     -10.208430      -277.7855
   8   2.0000     -10.207716      -277.7661
   9   2.0000     -10.206484      -277.7325
  10   2.0000     -10.204038      -277.6660
  11   2.0000     -10.196475      -277.4602
  12   2.0000     -10.192382      -277.3488
  13   2.0000     -10.188212      -277.2353
  14   2.0000      -1.224316       -33.3153
  15   2.0000      -1.222805       -33.2742
  16   2.0000      -0.893290       -24.3076
  17   2.0000      -0.870137       -23.6776
  18   2.0000      -0.786757       -21.4088
  19   2.0000      -0.758049       -20.6276
  20   2.0000      -0.722586       -19.6626
  21   2.0000      -0.711310       -19.3557
  22   2.0000      -0.664273       -18.0758
  23   2.0000      -0.614470       -16.7206
  24   2.0000      -0.597389       -16.2558
  25   2.0000      -0.586537       -15.9605
  26   2.0000      -0.561336       -15.2747
  27   2.0000      -0.541150       -14.7254
  28   2.0000      -0.524809       -14.2808
  29   2.0000      -0.514830       -14.0092
  30   2.0000      -0.486115       -13.2279
  31   2.0000      -0.481711       -13.1080
  32   2.0000      -0.480669       -13.0797
  33   2.0000      -0.469340       -12.7714
  34   2.0000      -0.450758       -12.2657
  35   2.0000      -0.444928       -12.1071
  36   2.0000      -0.434586       -11.8257
  37   2.0000      -0.428828       -11.6690
  38   2.0000      -0.409345       -11.1388
  39   2.0000      -0.395542       -10.7632
  40   2.0000      -0.384571       -10.4647
  41   2.0000      -0.375521       -10.2185
  42   2.0000      -0.368933       -10.0392
  43   2.0000      -0.359259        -9.7759
  44   2.0000      -0.347359        -9.4521
  45   2.0000      -0.297495        -8.0952
  46   2.0000      -0.257840        -7.0162
  47   2.0000      -0.237250        -6.4559
  48   2.0000      -0.217918        -5.9299
  49   0.0000      -0.117520        -3.1979
  50   0.0000      -0.031168        -0.8481
  51   0.0000       0.030124         0.8197
  52   0.0000       0.058547         1.5931
  53   0.0000       0.066765         1.8168

MULLIKEN ATOMIC CHARGES
-----------------------
   0 C :   -0.091037
   1 C :    0.270691
   2 F :   -0.170944
   3 C :   -0.029495
   4 C :    0.016239
   5 C :   -0.003814
   6 C :    0.054684
   7 C :    0.062326
   8 C :   -0.088570
   9 C :    0.306093
  10 C :   -0.117927
  11 F :   -0.171041
  12 C :   -0.023473
  13 C :   -0.029508
  14 H :   -0.005479
  15 H :   -0.003935
  16 H :   -0.011806
  17 H :   -0.011190
  18 H :   -0.016288
  19 H :   -0.002280
  20 H :    0.040176
  21 H :    0.026579
Sum of atomic charges:   -0.0000000

LOEWDIN ATOMIC CHARGES
----------------------
   0 C :   -0.098127
   1 C :    0.082923
   2 F :   -0.043614
   3 C :   -0.034918
   4 C :   -0.021277
   5 C :    0.023510
   6 C :    0.030493
   7 C :   -0.022330
   8 C :   -0.035608
   9 C :    0.083273
  10 C :   -0.093243
  11 F :   -0.042902
  12 C :   -0.025580
  13 C :   -0.041162
  14 H :    0.031972
  15 H :    0.032307
  16 H :    0.026388
  17 H :    0.030960
  18 H :    0.029013
  19 H :    0.033517
  20 H :    0.026848
  21 H :    0.027557

  Mayer bond orders larger than 0.100000
B(  0-C ,  1-C ) :   1.5708 B(  0-C ,  5-C ) :   1.0736 B(  0-C , 14-H ) :   1.0046
B(  1-C ,  2-F ) :   1.1254 B(  1-C ,  3-C ) :   1.0636 B(  3-C ,  4-C ) :   1.6347
B(  3-C , 15-H ) :   1.0008 B(  4-C ,  5-C ) :   1.0633 B(  4-C , 16-H ) :   0.9954
B(  5-C ,  6-C ) :   1.5598 B(  6-C ,  7-C ) :   1.0269 B(  6-C , 10-C ) :   1.0808
B(  7-C ,  8-C ) :   1.5628 B(  7-C , 12-C ) :   1.1112 B(  8-C ,  9-C ) :   1.0727
B(  8-C , 17-H ) :   1.0049 B(  9-C , 10-C ) :   1.5406 B(  9-C , 11-F ) :   1.1262
B( 10-C , 18-H ) :   1.0130 B( 12-C , 13-C ) :   1.9022 B( 12-C , 19-H ) :   0.9478
B( 13-C , 20-H ) :   0.9510 B( 13-C , 21-H ) :   0.9438

Dispersion correction           -0.045127415
FINAL SINGLE POINT ENERGY      -661.224195267163

DIPOLE MOMENT
-------------
                                X             Y             Z
Electronic contribution:     -5.47835      -0.25142       2.92077
Nuclear contribution   :      5.56439       0.30702      -3.05543
                        -----------------------------------------
Total Dipole Moment    :      0.08604       0.05561      -0.13465
                        -----------------------------------------
Magnitude (a.u.)       :      0.16920
Magnitude (Debye)      :      0.43006

Rotational constants in cm-1:     0.041393     0.014080     0.010800
Rotational constants in MHz :  1240.936903   422.103235   323.769770

                             ****ORCA TERMINATED NORMALLY****
TOTAL RUN TIME: 0 days 0 hours 12 minutes 48 seconds 580 msec
