                         Program Version 4.2.0 -  RELEASE  -
|  1> # ORCA input file
|  2> # SCF done        -38.056784908973          0.000596184990
|  3> ! B3LYP/G D3BJ Opt RIJCOSX def2-SVP def2/J
|  4> * xyz 0 1
|  5>    C       -1.69840         1.04830        -0.22914
|  6>    S       -2.75146        -0.28135        -0.06926
|  7>    C       -1.45052        -1.40881         0.08229
|  8>    C       -0.22567        -0.74421         0.00742
|  9>    C       -0.37519         0.67703        -0.17256
| 10>    C        0.78692         1.50770        -0.28208
| 11>    C        0.63706         2.96661        -0.46398
| 12>    O       -0.42392         3.53724        -0.31615
| 13>    C        1.87779         3.74010        -0.85262
| 14>    C        2.01824         0.90055        -0.19898
| 15>    C        2.15664        -0.48627        -0.01053
| 16>    C        1.06567        -1.30149         0.08930
| 17>    C       -1.67753        -2.81290         0.25120
| 18>    C       -2.87547        -3.39499         0.29647
| 19>    H       -2.09821         2.03336        -0.35265
| 20>    H        2.35604         3.29262        -1.72040
| 21>    H        2.58476         3.74985        -0.02535
| 22>    H        1.59391         4.76457        -1.08002
| 23>    H        2.92020         1.48877        -0.26322
| 24>    H        3.15051        -0.90371         0.05504
| 25>    H        1.18652        -2.36444         0.23279
| 26>    H       -0.78426        -3.41675         0.34324
| 27>    H       -3.78344        -2.82152         0.20757
| 28>    H       -2.98179        -4.45708         0.42596
| 29> *
| 30>
| 31>                          ****END OF INPUT****
 Total Charge           Charge          ....    0
 Multiplicity           Mult            ....    1
 Number of Electrons    NEL             ....  106
Dispersion correction           -0.054657894
FINAL SINGLE POINT ENERGY      -936.242919992663
Dispersion correction            ... done
Dispersion correction           -0.054256516
FINAL SINGLE POINT ENERGY      -936.246817622321
Dispersion correction            ... done
Dispersion correction           -0.054182621
FINAL SINGLE POINT ENERGY      -936.247049410584
Dispersion correction            ... done
FINAL SINGLE POINT ENERGY      -936.247130646441
FINAL SINGLE POINT ENERGY      -936.247171594983
Dispersion correction            ... done
Dispersion correction           -0.054183823
FINAL SINGLE POINT ENERGY      -936.247182653168
Dispersion correction            ... done
Dispersion correction           -0.054182302
FINAL SINGLE POINT ENERGY      -936.247198769649
Dispersion correction            ... done
                    ***********************HURRAY********************

CARTESIAN COORDINATES (ANGSTROEM)
---------------------------------
  C     -1.733707    1.072718   -0.194189
  S     -2.778156   -0.274982   -0.027940
  C     -1.481498   -1.414168    0.093758
  C     -0.248808   -0.741752    0.009084
  C     -0.396899    0.694270   -0.168092
  C      0.782445    1.518399   -0.304750
  C      0.664345    2.989077   -0.527007
  O     -0.415188    3.554315   -0.488913
  C      1.924557    3.787693   -0.815626
  C      2.017796    0.901588   -0.234030
  C      2.158821   -0.500014   -0.030999
  C      1.054588   -1.310396    0.080695
  C     -1.706434   -2.834892    0.260754
  C     -2.893607   -3.464916    0.309970
  H     -2.124526    2.078421   -0.307861
  H      2.508006    3.343001   -1.635887
  H      2.576180    3.827351    0.072097
  H      1.626363    4.808205   -1.086056
  H      2.925707    1.496547   -0.337512
  H      3.160535   -0.930714    0.031447
  H      1.176558   -2.385198    0.232134
  H     -0.794206   -3.432774    0.355886
  H     -3.839387   -2.922325    0.221423
  H     -2.955087   -4.546272    0.445954

 Multiplicity           Mult            ....    1
 Number of Electrons    NEL             ....  106
 Basis Dimension        Dim             ....  250

ORBITAL ENERGIES
----------------

  NO   OCC          E(Eh)            E(eV)
   0   2.0000     -88.885739     -2418.7039
   1   2.0000     -19.121976      -520.3354
   2   2.0000     -10.275237      -279.6034
   3   2.0000     -10.223351      -278.1915
   4   2.0000     -10.211852      -277.8786
   5   2.0000     -10.211295      -277.8635
   6   2.0000     -10.210372      -277.8384
   7   2.0000     -10.208924      -277.7990
   8   2.0000     -10.208233      -277.7801
   9   2.0000     -10.206150      -277.7235
  10   2.0000     -10.205945      -277.7179
  11   2.0000     -10.204048      -277.6663
  12   2.0000     -10.193327      -277.3745
  13   2.0000     -10.193106      -277.3685
  14   2.0000      -7.980593      -217.1630
  15   2.0000      -5.948227      -161.8595
  16   2.0000      -5.944149      -161.7485
  17   2.0000      -5.942936      -161.7155
  18   2.0000      -1.028846       -27.9963
  19   2.0000      -0.898120       -24.4391
  20   2.0000      -0.841649       -22.9024
  21   2.0000      -0.793267       -21.5859
  22   2.0000      -0.772793       -21.0288
  23   2.0000      -0.739990       -20.1362
  24   2.0000      -0.732113       -19.9218
  25   2.0000      -0.693912       -18.8823
  26   2.0000      -0.638668       -17.3790
  27   2.0000      -0.614536       -16.7224
  28   2.0000      -0.587060       -15.9747
  29   2.0000      -0.571163       -15.5421
  30   2.0000      -0.522870       -14.2280
  31   2.0000      -0.502741       -13.6803
  32   2.0000      -0.489981       -13.3331
  33   2.0000      -0.482126       -13.1193
  34   2.0000      -0.467270       -12.7151
  35   2.0000      -0.448015       -12.1911
  36   2.0000      -0.445375       -12.1193
  37   2.0000      -0.429895       -11.6980
  38   2.0000      -0.425228       -11.5710
  39   2.0000      -0.413585       -11.2542
  40   2.0000      -0.409919       -11.1545
  41   2.0000      -0.394690       -10.7401
  42   2.0000      -0.379122       -10.3164
  43   2.0000      -0.370976       -10.0948
  44   2.0000      -0.369005       -10.0411
  45   2.0000      -0.365659        -9.9501
  46   2.0000      -0.348058        -9.4711
  47   2.0000      -0.344826        -9.3832
  48   2.0000      -0.314008        -8.5446
  49   2.0000      -0.275609        -7.4997
  50   2.0000      -0.259227        -7.0539
  51   2.0000      -0.253027        -6.8852
  52   2.0000      -0.204066        -5.5529
  53   0.0000      -0.088824        -2.4170
  54   0.0000      -0.040141        -1.0923
  55   0.0000       0.009835         0.2676
  56   0.0000       0.019090         0.5195
  57   0.0000       0.039763         1.0820

MULLIKEN ATOMIC CHARGES
-----------------------
   0 C :   -0.117329
   1 S :    0.144343
   2 C :   -0.144220
   3 C :    0.117205
   4 C :    0.038549
   5 C :    0.074388
   6 C :   -0.010837
   7 O :   -0.206170
   8 C :    0.049758
   9 C :   -0.039130
  10 C :    0.024447
  11 C :   -0.013301
  12 C :    0.009010
  13 C :   -0.042796
  14 H :    0.040917
  15 H :    0.032774
  16 H :    0.038262
  17 H :    0.027781
  18 H :   -0.021677
  19 H :   -0.019397
  20 H :   -0.020021
  21 H :   -0.010152
  22 H :    0.019732
  23 H :    0.027863
Sum of atomic charges:   -0.0000000

LOEWDIN ATOMIC CHARGES
----------------------
   0 C :   -0.183796
   1 S :    0.489918
   2 C :   -0.190698
   3 C :   -0.044627
   4 C :   -0.040780
   5 C :   -0.060742
   6 C :    0.084626
   7 O :   -0.154251
   8 C :   -0.076231
   9 C :   -0.004374
  10 C :   -0.036568
  11 C :    0.004181
  12 C :   -0.040463
  13 C :   -0.057833
  14 H :    0.030075
  15 H :    0.036868
  16 H :    0.042257
  17 H :    0.037970
  18 H :    0.027664
  19 H :    0.028538
  20 H :    0.029356
  21 H :    0.032394
  22 H :    0.018640
  23 H :    0.027878

  Mayer bond orders larger than 0.100000
B(  0-C ,  1-S ) :   1.1777 B(  0-C ,  2-C ) :   0.1013 B(  0-C ,  4-C ) :   1.4636
B(  0-C , 14-H ) :   0.9406 B(  1-S ,  2-C ) :   1.1618 B(  2-C ,  3-C ) :   1.3251
B(  2-C , 12-C ) :   1.1592 B(  3-C ,  4-C ) :   1.1835 B(  3-C , 11-C ) :   1.2123
B(  4-C ,  5-C ) :   1.1627 B(  5-C ,  6-C ) :   0.9382 B(  5-C ,  9-C ) :   1.4851
B(  6-C ,  7-O ) :   2.0991 B(  6-C ,  8-C ) :   1.0763 B(  8-C , 15-H ) :   0.9430
B(  8-C , 16-H ) :   0.9365 B(  8-C , 17-H ) :   0.9462 B(  9-C , 10-C ) :   1.2133
B(  9-C , 18-H ) :   0.9715 B( 10-C , 11-C ) :   1.5149 B( 10-C , 19-H ) :   0.9789
B( 11-C , 20-H ) :   0.9836 B( 12-C , 13-C ) :   1.8875 B( 12-C , 21-H ) :   0.9493
B( 13-C , 22-H ) :   0.9540 B( 13-C , 23-H ) :   0.9455

Dispersion correction           -0.054180075
FINAL SINGLE POINT ENERGY      -936.247201780462

DIPOLE MOMENT
-------------
                                X             Y             Z
Electronic contribution:     -7.34728       0.69818       0.55641
Nuclear contribution   :      8.22596      -1.36155      -0.54738
                        -----------------------------------------
Total Dipole Moment    :      0.87867      -0.66337       0.00903
                        -----------------------------------------
Magnitude (a.u.)       :      1.10100
Magnitude (Debye)      :      2.79853

Rotational constants in cm-1:     0.042751     0.014013     0.010585
Rotational constants in MHz :  1281.642342   420.098869   317.335744

                             ****ORCA TERMINATED NORMALLY****
TOTAL RUN TIME: 0 days 0 hours 13 minutes 35 seconds 922 msec
