                         Program Version 4.2.0 -  RELEASE  -
|  1> # ORCA input file
|  2> # SCF done        -33.457996120501          0.000715064318
|  3> ! B3LYP/G D3BJ Opt RIJCOSX def2-SVP def2/J
|  4> * xyz 0 1
|  5>    C       -1.07474        -0.23755        -0.33145
|  6>    O       -0.79048        -1.41708        -0.93468
|  7>    C        0.28084        -1.89373        -0.31214
|  8>    C        0.70709        -1.03957         0.69606
|  9>    C       -0.19093         0.04830         0.67531
| 10>    C        1.91134        -1.60214         1.37766
| 11>    O        2.54888        -1.14153         2.28652
| 12>    C        2.12106        -2.88307         0.63843
| 13>    C        1.15549        -3.03403        -0.34777
| 14>    O        1.31849        -4.16672        -1.02071
| 15>    C        2.40145        -4.76976        -0.47328
| 16>    C        2.93725        -4.03023         0.54768
| 17>    H       -1.92227         0.30267        -0.70314
| 18>    H       -0.19302         0.91389         1.30438
| 19>    H        2.69150        -5.71277        -0.89148
| 20>    H        3.79120        -4.28075         1.14183
| 21> *
| 22>
| 23>                          ****END OF INPUT****
 Total Charge           Charge          ....    0
 Multiplicity           Mult            ....    1
 Number of Electrons    NEL             ....   82
Dispersion correction           -0.030308599
FINAL SINGLE POINT ENERGY      -570.554421820369
Dispersion correction            ... done
Dispersion correction           -0.030476569
FINAL SINGLE POINT ENERGY      -570.557624315134
Dispersion correction            ... done
Dispersion correction           -0.030485853
FINAL SINGLE POINT ENERGY      -570.557982311561
Dispersion correction            ... done
FINAL SINGLE POINT ENERGY      -570.558067329377
FINAL SINGLE POINT ENERGY      -570.558099546932
Dispersion correction            ... done
Dispersion correction           -0.030460310
FINAL SINGLE POINT ENERGY      -570.558116158996
Dispersion correction            ... done
Dispersion correction           -0.030464128
FINAL SINGLE POINT ENERGY      -570.558108640827
Dispersion correction            ... done
                    ***********************HURRAY********************

CARTESIAN COORDINATES (ANGSTROEM)
---------------------------------
  C     -1.100940   -0.216801   -0.335233
  O     -0.795659   -1.431485   -0.918476
  C      0.287021   -1.879015   -0.280825
  C      0.705157   -1.010663    0.704306
  C     -0.207366    0.086709    0.664005
  C      1.917500   -1.596348    1.399179
  O      2.546180   -1.138498    2.320478
  C      2.136813   -2.902563    0.659466
  C      1.171084   -3.034935   -0.314947
  O      1.317104   -4.158101   -1.019532
  C      2.421743   -4.793811   -0.488206
  C      2.958977   -4.064983    0.545303
  H     -1.969352    0.289996   -0.743754
  H     -0.211842    0.983824    1.278657
  H      2.685442   -5.738937   -0.951879
  H      3.831288   -4.338460    1.134679

 Multiplicity           Mult            ....    1
 Number of Electrons    NEL             ....   82
 Basis Dimension        Dim             ....  188

ORBITAL ENERGIES
----------------

  NO   OCC          E(Eh)            E(eV)
   0   2.0000     -19.232389      -523.3399
   1   2.0000     -19.232206      -523.3349
   2   2.0000     -19.141735      -520.8731
   3   2.0000     -10.297636      -280.2129
   4   2.0000     -10.271646      -279.5057
   5   2.0000     -10.271439      -279.5001
   6   2.0000     -10.256860      -279.1034
   7   2.0000     -10.256569      -279.0954
   8   2.0000     -10.214446      -277.9492
   9   2.0000     -10.214186      -277.9421
  10   2.0000     -10.199477      -277.5419
  11   2.0000     -10.199342      -277.5382
  12   2.0000      -1.135216       -30.8908
  13   2.0000      -1.129552       -30.7367
  14   2.0000      -1.045754       -28.4564
  15   2.0000      -0.873006       -23.7557
  16   2.0000      -0.808520       -22.0009
  17   2.0000      -0.795961       -21.6592
  18   2.0000      -0.730377       -19.8746
  19   2.0000      -0.685578       -18.6555
  20   2.0000      -0.626538       -17.0490
  21   2.0000      -0.602304       -16.3895
  22   2.0000      -0.582428       -15.8487
  23   2.0000      -0.565324       -15.3833
  24   2.0000      -0.517147       -14.0723
  25   2.0000      -0.514520       -14.0008
  26   2.0000      -0.499836       -13.6012
  27   2.0000      -0.470911       -12.8141
  28   2.0000      -0.459094       -12.4926
  29   2.0000      -0.451616       -12.2891
  30   2.0000      -0.446697       -12.1552
  31   2.0000      -0.424120       -11.5409
  32   2.0000      -0.421901       -11.4805
  33   2.0000      -0.416983       -11.3467
  34   2.0000      -0.390688       -10.6312
  35   2.0000      -0.384760       -10.4699
  36   2.0000      -0.314230        -8.5506
  37   2.0000      -0.302736        -8.2379
  38   2.0000      -0.291547        -7.9334
  39   2.0000      -0.269728        -7.3397
  40   2.0000      -0.213088        -5.7984
  41   0.0000      -0.092550        -2.5184
  42   0.0000      -0.014467        -0.3937
  43   0.0000       0.019811         0.5391
  44   0.0000       0.074618         2.0304
  45   0.0000       0.081078         2.2063

MULLIKEN ATOMIC CHARGES
-----------------------
   0 C :    0.139540
   1 O :   -0.189159
   2 C :    0.130441
   3 C :   -0.095615
   4 C :   -0.041331
   5 C :    0.198323
   6 O :   -0.120775
   7 C :   -0.099369
   8 C :    0.131222
   9 O :   -0.187266
  10 C :    0.142446
  11 C :   -0.042321
  12 H :    0.012665
  13 H :    0.005795
  14 H :    0.012217
  15 H :    0.003188
Sum of atomic charges:   -0.0000000

LOEWDIN ATOMIC CHARGES
----------------------
   0 C :    0.040044
   1 O :    0.021575
   2 C :    0.025766
   3 C :   -0.105680
   4 C :   -0.042355
   5 C :    0.097853
   6 O :   -0.110464
   7 C :   -0.105688
   8 C :    0.025484
   9 O :    0.022061
  10 C :    0.040323
  11 C :   -0.042115
  12 H :    0.026020
  13 H :    0.040840
  14 H :    0.026053
  15 H :    0.040283

  Mayer bond orders larger than 0.100000
B(  0-C ,  1-O ) :   1.0720 B(  0-C ,  4-C ) :   1.5242 B(  0-C , 12-H ) :   1.0044
B(  1-O ,  2-C ) :   1.2141 B(  2-C ,  3-C ) :   1.4622 B(  2-C ,  8-C ) :   1.0570
B(  3-C ,  4-C ) :   1.2591 B(  3-C ,  5-C ) :   0.9076 B(  4-C , 13-H ) :   1.0021
B(  5-C ,  6-O ) :   2.2686 B(  5-C ,  7-C ) :   0.9075 B(  7-C ,  8-C ) :   1.4626
B(  7-C , 11-C ) :   1.2572 B(  8-C ,  9-O ) :   1.2131 B(  9-O , 10-C ) :   1.0735
B( 10-C , 11-C ) :   1.5249 B( 10-C , 14-H ) :   1.0043 B( 11-C , 15-H ) :   1.0048

Dispersion correction           -0.030465263
FINAL SINGLE POINT ENERGY      -570.558110730402

DIPOLE MOMENT
-------------
                                X             Y             Z
Electronic contribution:     -0.29814      -0.21719      -0.36889
Nuclear contribution   :     -0.08529      -0.06696      -0.21041
                        -----------------------------------------
Total Dipole Moment    :     -0.38343      -0.28415      -0.57930
                        -----------------------------------------
Magnitude (a.u.)       :      0.75056
Magnitude (Debye)      :      1.90778

Rotational constants in cm-1:     0.059997     0.030217     0.020097
Rotational constants in MHz :  1798.671452   905.889978   602.491254

                             ****ORCA TERMINATED NORMALLY****
TOTAL RUN TIME: 0 days 0 hours 6 minutes 56 seconds 408 msec
