                         Program Version 4.2.0 -  RELEASE  -
|  1> # ORCA input file
|  2> # SCF done        -30.475004910193          0.000449696811
|  3> ! B3LYP/G D3BJ Opt RIJCOSX def2-SVP def2/J
|  4> * xyz 0 1
|  5>    C       -0.87744        -1.45179        -0.00792
|  6>    C       -2.05464        -0.75300        -0.01329
|  7>    C       -2.08879         0.65626        -0.01318
|  8>    C       -0.94682         1.41125        -0.00762
|  9>    C        0.27205         0.72352         0.00030
| 10>    C        0.30668        -0.70583         0.00012
| 11>    N        1.59914        -1.07364         0.01779
| 12>    N        2.25006         0.05637         0.02889
| 13>    C        3.68522         0.09110         0.01953
| 14>    C        4.21181         0.12225        -1.41213
| 15>    N        1.54515         1.15352         0.01818
| 16>    H       -0.84510        -2.52961        -0.00834
| 17>    H       -2.99278        -1.28874        -0.01657
| 18>    H       -3.05178         1.14592        -0.01635
| 19>    H       -0.96674         2.48937        -0.00777
| 20>    H        4.03784        -0.80316         0.53686
| 21>    H        3.99577         0.98763         0.55954
| 22>    H        3.88511        -0.76389        -1.95081
| 23>    H        5.29782         0.14889        -1.40554
| 24>    H        3.84146         1.00482        -1.92794
| 25> *
| 26>
| 27>                          ****END OF INPUT****
 Total Charge           Charge          ....    0
 Multiplicity           Mult            ....    1
 Number of Electrons    NEL             ....   78
Dispersion correction           -0.035938963
FINAL SINGLE POINT ENERGY      -474.190838944365
Dispersion correction            ... done
Dispersion correction           -0.035837937
FINAL SINGLE POINT ENERGY      -474.193898553611
Dispersion correction            ... done
Dispersion correction           -0.035838194
FINAL SINGLE POINT ENERGY      -474.194056624053
Dispersion correction            ... done
Dispersion correction           -0.035846406
FINAL SINGLE POINT ENERGY      -474.194059127255
Dispersion correction            ... done
Dispersion correction           -0.035849794
FINAL SINGLE POINT ENERGY      -474.194058775392
Dispersion correction            ... done
                    ***********************HURRAY********************

CARTESIAN COORDINATES (ANGSTROEM)
---------------------------------
  C     -0.879082   -1.464887    0.005046
  C     -2.066045   -0.761994   -0.039169
  C     -2.098251    0.666539   -0.045747
  C     -0.944480    1.422819   -0.007214
  C      0.284564    0.722185    0.035554
  C      0.317091   -0.708937    0.040629
  N      1.611363   -1.095438    0.079938
  N      2.267888    0.051682    0.105680
  C      3.721610    0.086456    0.020199
  C      4.186024    0.129556   -1.431878
  N      1.559559    1.167567    0.073319
  H     -0.849620   -2.556041    0.009095
  H     -3.012401   -1.306786   -0.073408
  H     -3.067979    1.168369   -0.085941
  H     -0.965441    2.514085   -0.013712
  H      4.086835   -0.810965    0.536520
  H      4.047650    0.976085    0.575228
  H      3.834341   -0.761877   -1.972246
  H      5.285091    0.160695   -1.484082
  H      3.785303    1.022128   -1.934061

 Multiplicity           Mult            ....    1
 Number of Electrons    NEL             ....   78
 Basis Dimension        Dim             ....  199

ORBITAL ENERGIES
----------------

  NO   OCC          E(Eh)            E(eV)
   0   2.0000     -14.447523      -393.1371
   1   2.0000     -14.354288      -390.6000
   2   2.0000     -14.354137      -390.5959
   3   2.0000     -10.243045      -278.7274
   4   2.0000     -10.214762      -277.9578
   5   2.0000     -10.214477      -277.9500
   6   2.0000     -10.198176      -277.5065
   7   2.0000     -10.198039      -277.5027
   8   2.0000     -10.198014      -277.5021
   9   2.0000     -10.196558      -277.4624
  10   2.0000     -10.196330      -277.4563
  11   2.0000      -1.106359       -30.1056
  12   2.0000      -0.889152       -24.1950
  13   2.0000      -0.872833       -23.7510
  14   2.0000      -0.820595       -22.3295
  15   2.0000      -0.744673       -20.2636
  16   2.0000      -0.742722       -20.2105
  17   2.0000      -0.674372       -18.3506
  18   2.0000      -0.626857       -17.0577
  19   2.0000      -0.607832       -16.5400
  20   2.0000      -0.578911       -15.7530
  21   2.0000      -0.525868       -14.3096
  22   2.0000      -0.518965       -14.1218
  23   2.0000      -0.492525       -13.4023
  24   2.0000      -0.477060       -12.9815
  25   2.0000      -0.459382       -12.5004
  26   2.0000      -0.442983       -12.0542
  27   2.0000      -0.441921       -12.0253
  28   2.0000      -0.410927       -11.1819
  29   2.0000      -0.392247       -10.6736
  30   2.0000      -0.380050       -10.3417
  31   2.0000      -0.377590       -10.2747
  32   2.0000      -0.367840       -10.0094
  33   2.0000      -0.353522        -9.6198
  34   2.0000      -0.314284        -8.5521
  35   2.0000      -0.312076        -8.4920
  36   2.0000      -0.296471        -8.0674
  37   2.0000      -0.255663        -6.9570
  38   2.0000      -0.232697        -6.3320
  39   0.0000      -0.053205        -1.4478
  40   0.0000       0.015790         0.4297
  41   0.0000       0.026537         0.7221
  42   0.0000       0.061992         1.6869
  43   0.0000       0.069329         1.8866

MULLIKEN ATOMIC CHARGES
-----------------------
   0 C :   -0.043841
   1 C :    0.024460
   2 C :    0.023475
   3 C :   -0.044071
   4 C :    0.035140
   5 C :    0.031951
   6 N :   -0.072776
   7 N :   -0.109033
   8 C :    0.168267
   9 C :   -0.020528
  10 N :   -0.073409
  11 H :   -0.020637
  12 H :   -0.014537
  13 H :   -0.015238
  14 H :   -0.021212
  15 H :    0.028408
  16 H :    0.028591
  17 H :    0.032375
  18 H :    0.030702
  19 H :    0.031911
Sum of atomic charges:   -0.0000000

LOEWDIN ATOMIC CHARGES
----------------------
   0 C :   -0.026580
   1 C :   -0.027379
   2 C :   -0.027304
   3 C :   -0.026551
   4 C :   -0.052361
   5 C :   -0.052755
   6 N :   -0.102789
   7 N :    0.146535
   8 C :    0.043917
   9 C :   -0.056209
  10 N :   -0.103022
  11 H :    0.033241
  12 H :    0.027790
  13 H :    0.027647
  14 H :    0.033139
  15 H :    0.033611
  16 H :    0.033639
  17 H :    0.031408
  18 H :    0.032773
  19 H :    0.031250

  Mayer bond orders larger than 0.100000
B(  0-C ,  1-C ) :   1.4836 B(  0-C ,  3-C ) :   0.1203 B(  0-C ,  5-C ) :   1.2185
B(  0-C , 11-H ) :   1.0098 B(  1-C ,  2-C ) :   1.2411 B(  1-C , 12-H ) :   0.9818
B(  2-C ,  3-C ) :   1.4839 B(  2-C , 13-H ) :   0.9819 B(  3-C ,  4-C ) :   1.2178
B(  3-C , 14-H ) :   1.0102 B(  4-C ,  5-C ) :   1.2214 B(  4-C , 10-N ) :   1.4190
B(  5-C ,  6-N ) :   1.4199 B(  6-N ,  7-N ) :   1.2158 B(  6-N , 10-N ) :   0.1748
B(  7-N ,  8-C ) :   0.9307 B(  7-N , 10-N ) :   1.2155 B(  8-C ,  9-C ) :   1.1148
B(  8-C , 15-H ) :   0.9421 B(  8-C , 16-H ) :   0.9421 B(  9-C , 17-H ) :   0.9670
B(  9-C , 18-H ) :   0.9662 B(  9-C , 19-H ) :   0.9670

Dispersion correction           -0.035849574
FINAL SINGLE POINT ENERGY      -474.194059574305

DIPOLE MOMENT
-------------
                                X             Y             Z
Electronic contribution:     -5.14106      -0.18437       3.01235
Nuclear contribution   :      5.47978       0.19477      -3.13544
                        -----------------------------------------
Total Dipole Moment    :      0.33873       0.01040      -0.12309
                        -----------------------------------------
Magnitude (a.u.)       :      0.36055
Magnitude (Debye)      :      0.91644

Rotational constants in cm-1:     0.107708     0.024323     0.021171
Rotational constants in MHz :  3229.009350   729.183374   634.695967

                             ****ORCA TERMINATED NORMALLY****
TOTAL RUN TIME: 0 days 0 hours 8 minutes 19 seconds 568 msec
