                         Program Version 4.2.0 -  RELEASE  -
|  1> # ORCA input file
|  2> # SCF done        -26.340040037905          0.000540182681
|  3> ! B3LYP/G D3BJ Opt RIJCOSX def2-SVP def2/J
|  4> * xyz 0 1
|  5>    C        1.36088        -0.18853        -0.12556
|  6>    C        0.85703         1.09479        -0.02921
|  7>    C       -0.51248         1.27229         0.12265
|  8>    N       -1.04505         2.60913         0.22371
|  9>    O       -0.26407         3.53353         0.14809
| 10>    O       -2.24148         2.72839         0.37923
| 11>    C       -1.37935         0.18811         0.17911
| 12>    C       -0.86276        -1.09004         0.08158
| 13>    C        0.50323        -1.27731        -0.07027
| 14>    H        2.42253        -0.34100        -0.24338
| 15>    H        1.50105         1.95986        -0.06931
| 16>    H       -2.43767         0.36299         0.29780
| 17>    H       -1.52460        -1.94119         0.12339
| 18>    H        0.90178        -2.27774        -0.14597
| 19> *
| 20>
| 21>                          ****END OF INPUT****
 Total Charge           Charge          ....    0
 Multiplicity           Mult            ....    1
 Number of Electrons    NEL             ....   64
Dispersion correction           -0.025020852
FINAL SINGLE POINT ENERGY      -436.454779491733
Dispersion correction            ... done
Dispersion correction           -0.024863248
FINAL SINGLE POINT ENERGY      -436.456750985440
Dispersion correction            ... done
Dispersion correction           -0.024844192
FINAL SINGLE POINT ENERGY      -436.456723960083
Dispersion correction            ... done
FINAL SINGLE POINT ENERGY      -436.456804474786
Dispersion correction            ... done
Dispersion correction           -0.024846613
FINAL SINGLE POINT ENERGY      -436.456872636201
Dispersion correction            ... done
Dispersion correction           -0.024846647
FINAL SINGLE POINT ENERGY      -436.456872139153
Dispersion correction            ... done
                    ***********************HURRAY********************

CARTESIAN COORDINATES (ANGSTROEM)
---------------------------------
  C      1.373151   -0.196754   -0.131865
  C      0.865669    1.099546   -0.035609
  C     -0.509882    1.265672    0.121287
  N     -1.055732    2.636110    0.227612
  O     -0.261694    3.562177    0.210983
  O     -2.266284    2.753911    0.323914
  C     -1.388699    0.184793    0.182223
  C     -0.866020   -1.105414    0.087391
  C      0.510731   -1.296213   -0.069645
  H      2.446521   -0.351447   -0.262090
  H      1.505126    1.979821   -0.081541
  H     -2.454156    0.374640    0.307378
  H     -1.536117   -1.965791    0.138599
  H      0.916425   -2.307771   -0.146776

 Multiplicity           Mult            ....    1
 Number of Electrons    NEL             ....   64
 Basis Dimension        Dim             ....  151

ORBITAL ENERGIES
----------------

  NO   OCC          E(Eh)            E(eV)
   0   2.0000     -19.165090      -521.5086
   1   2.0000     -19.165025      -521.5068
   2   2.0000     -14.562237      -396.2586
   3   2.0000     -10.254118      -279.0287
   4   2.0000     -10.224082      -278.2114
   5   2.0000     -10.224055      -278.2107
   6   2.0000     -10.223503      -278.1957
   7   2.0000     -10.221151      -278.1317
   8   2.0000     -10.221114      -278.1307
   9   2.0000      -1.225993       -33.3610
  10   2.0000      -1.052155       -28.6306
  11   2.0000      -0.889277       -24.1985
  12   2.0000      -0.805393       -21.9158
  13   2.0000      -0.771352       -20.9895
  14   2.0000      -0.699865       -19.0443
  15   2.0000      -0.633472       -17.2376
  16   2.0000      -0.595510       -16.2046
  17   2.0000      -0.562747       -15.3131
  18   2.0000      -0.544233       -14.8093
  19   2.0000      -0.513882       -13.9834
  20   2.0000      -0.513810       -13.9815
  21   2.0000      -0.479589       -13.0503
  22   2.0000      -0.469119       -12.7654
  23   2.0000      -0.453991       -12.3537
  24   2.0000      -0.399646       -10.8749
  25   2.0000      -0.396531       -10.7902
  26   2.0000      -0.378045       -10.2871
  27   2.0000      -0.316376        -8.6090
  28   2.0000      -0.313236        -8.5236
  29   2.0000      -0.297679        -8.1003
  30   2.0000      -0.290897        -7.9157
  31   2.0000      -0.286460        -7.7950
  32   0.0000      -0.093652        -2.5484
  33   0.0000      -0.038348        -1.0435
  34   0.0000      -0.008523        -0.2319
  35   0.0000       0.045243         1.2311
  36   0.0000       0.086837         2.3630

MULLIKEN ATOMIC CHARGES
-----------------------
   0 C :    0.007940
   1 C :   -0.005374
   2 C :    0.157196
   3 N :    0.229339
   4 O :   -0.237419
   5 O :   -0.238376
   6 C :   -0.011269
   7 C :    0.016482
   8 C :    0.053282
   9 H :    0.004051
  10 H :    0.011243
  11 H :    0.013179
  12 H :    0.002322
  13 H :   -0.002594
Sum of atomic charges:   -0.0000000

LOEWDIN ATOMIC CHARGES
----------------------
   0 C :   -0.015858
   1 C :   -0.000982
   2 C :   -0.022539
   3 N :    0.274976
   4 O :   -0.202877
   5 O :   -0.203128
   6 C :   -0.002016
   7 C :   -0.014932
   8 C :    0.000023
   9 H :    0.035201
  10 H :    0.041630
  11 H :    0.041970
  12 H :    0.034953
  13 H :    0.033578

  Mayer bond orders larger than 0.100000
B(  0-C ,  1-C ) :   1.3530 B(  0-C ,  8-C ) :   1.3760 B(  0-C ,  9-H ) :   0.9841
B(  1-C ,  2-C ) :   1.3874 B(  1-C , 10-H ) :   0.9832 B(  2-C ,  3-N ) :   0.8528
B(  2-C ,  6-C ) :   1.3853 B(  3-N ,  4-O ) :   1.5518 B(  3-N ,  5-O ) :   1.5502
B(  4-O ,  5-O ) :   0.2820 B(  6-C ,  7-C ) :   1.3521 B(  6-C , 11-H ) :   0.9825
B(  7-C ,  8-C ) :   1.3767 B(  7-C , 12-H ) :   0.9846 B(  8-C , 13-H ) :   0.9898

Dispersion correction           -0.024847408
FINAL SINGLE POINT ENERGY      -436.456868039945

DIPOLE MOMENT
-------------
                                X             Y             Z
Electronic contribution:     -2.23292       5.60451       0.42798
Nuclear contribution   :      2.87357      -7.20865      -0.55261
                        -----------------------------------------
Total Dipole Moment    :      0.64065      -1.60415      -0.12463
                        -----------------------------------------
Magnitude (a.u.)       :      1.73183
Magnitude (Debye)      :      4.40197

Rotational constants in cm-1:     0.132397     0.042753     0.032322
Rotational constants in MHz :  3969.154672  1281.691708   968.984845

                             ****ORCA TERMINATED NORMALLY****
TOTAL RUN TIME: 0 days 0 hours 5 minutes 42 seconds 538 msec
