                         Program Version 4.2.0 -  RELEASE  -
|  1> # ORCA input file
|  2> # SCF done        -18.076357335762          0.000560881389
|  3> ! B3LYP/G D3BJ Opt RIJCOSX def2-SVP def2/J
|  4> * xyz 0 1
|  5>    C       -1.13675        -0.03633        -0.01310
|  6>    O       -0.35783         1.07028         0.03397
|  7>    C        0.91402         0.65336         0.02351
|  8>    C        0.98305        -0.70324        -0.03080
|  9>    C       -0.36421        -1.16360        -0.05835
| 10>    N       -0.77797        -2.47976        -0.20024
| 11>    H       -2.19815         0.10512        -0.01770
| 12>    H        1.67907         1.40345         0.05930
| 13>    H        1.86624        -1.30828        -0.05168
| 14>    H       -0.11633        -3.15459         0.15393
| 15>    H       -1.71774        -2.65400         0.12205
| 16> *
| 17>
| 18>                          ****END OF INPUT****
 Total Charge           Charge          ....    0
 Multiplicity           Mult            ....    1
 Number of Electrons    NEL             ....   44
Dispersion correction           -0.014591396
FINAL SINGLE POINT ENERGY      -285.180226302398
Dispersion correction            ... done
Dispersion correction           -0.014611006
FINAL SINGLE POINT ENERGY      -285.181606732135
Dispersion correction            ... done
Dispersion correction           -0.014617059
FINAL SINGLE POINT ENERGY      -285.181684443536
Dispersion correction            ... done
FINAL SINGLE POINT ENERGY      -285.181725231667
FINAL SINGLE POINT ENERGY      -285.181729844673
FINAL SINGLE POINT ENERGY      -285.181735228837
Dispersion correction            ... done
Dispersion correction           -0.014620222
FINAL SINGLE POINT ENERGY      -285.181739046339
Dispersion correction            ... done
Dispersion correction           -0.014620451
FINAL SINGLE POINT ENERGY      -285.181742595454
Dispersion correction            ... done
                    ***********************HURRAY********************

CARTESIAN COORDINATES (ANGSTROEM)
---------------------------------
  C     -1.147830   -0.040409   -0.009063
  O     -0.354787    1.074423    0.048040
  C      0.927463    0.659618    0.027149
  C      0.994457   -0.702964   -0.047162
  C     -0.369257   -1.170537   -0.074344
  N     -0.769028   -2.501741   -0.217058
  H     -2.221087    0.127912   -0.007355
  H      1.687268    1.435786    0.070908
  H      1.893704   -1.313879   -0.086791
  H     -0.142642   -3.158437    0.238639
  H     -1.724861   -2.677363    0.077927

 Multiplicity           Mult            ....    1
 Number of Electrons    NEL             ....   44
 Basis Dimension        Dim             ....  109

ORBITAL ENERGIES
----------------

  NO   OCC          E(Eh)            E(eV)
   0   2.0000     -19.187404      -522.1158
   1   2.0000     -14.331376      -389.9766
   2   2.0000     -10.230713      -278.3919
   3   2.0000     -10.216253      -277.9984
   4   2.0000     -10.215154      -277.9685
   5   2.0000     -10.179342      -276.9940
   6   2.0000      -1.090432       -29.6722
   7   2.0000      -0.898671       -24.4541
   8   2.0000      -0.767029       -20.8719
   9   2.0000      -0.725256       -19.7352
  10   2.0000      -0.589107       -16.0304
  11   2.0000      -0.568898       -15.4805
  12   2.0000      -0.535826       -14.5806
  13   2.0000      -0.489298       -13.3145
  14   2.0000      -0.453764       -12.3476
  15   2.0000      -0.443917       -12.0796
  16   2.0000      -0.423623       -11.5274
  17   2.0000      -0.393323       -10.7029
  18   2.0000      -0.359699        -9.7879
  19   2.0000      -0.336403        -9.1540
  20   2.0000      -0.245616        -6.6835
  21   2.0000      -0.199455        -5.4275
  22   0.0000       0.019282         0.5247
  23   0.0000       0.050344         1.3699
  24   0.0000       0.088669         2.4128
  25   0.0000       0.090629         2.4661
  26   0.0000       0.100385         2.7316

MULLIKEN ATOMIC CHARGES
-----------------------
   0 C :    0.012593
   1 O :   -0.211623
   2 C :    0.139881
   3 C :   -0.063627
   4 C :    0.041867
   5 N :   -0.090469
   6 H :   -0.017487
   7 H :    0.007278
   8 H :   -0.030909
   9 H :    0.108813
  10 H :    0.103683
Sum of atomic charges:   -0.0000000

LOEWDIN ATOMIC CHARGES
----------------------
   0 C :   -0.039138
   1 O :   -0.004048
   2 C :    0.031849
   3 C :   -0.103055
   4 C :   -0.032084
   5 N :   -0.054199
   6 H :    0.014556
   7 H :    0.020632
   8 H :    0.025533
   9 H :    0.070049
  10 H :    0.069904

  Mayer bond orders larger than 0.100000
B(  0-C ,  1-O ) :   1.0906 B(  0-C ,  4-C ) :   1.5013 B(  0-C ,  6-H ) :   1.0182
B(  1-O ,  2-C ) :   1.1670 B(  2-C ,  3-C ) :   1.5282 B(  2-C ,  7-H ) :   0.9957
B(  3-C ,  4-C ) :   1.2251 B(  3-C ,  8-H ) :   1.0083 B(  4-C ,  5-N ) :   1.1671
B(  5-N ,  9-H ) :   0.9547 B(  5-N , 10-H ) :   0.9579

Dispersion correction           -0.014620743
FINAL SINGLE POINT ENERGY      -285.181744051548

DIPOLE MOMENT
-------------
                                X             Y             Z
Electronic contribution:     -0.19859       2.42104      -0.05270
Nuclear contribution   :      0.20019      -3.05285       0.45718
                        -----------------------------------------
Total Dipole Moment    :      0.00161      -0.63181       0.40448
                        -----------------------------------------
Magnitude (a.u.)       :      0.75020
Magnitude (Debye)      :      1.90685

Rotational constants in cm-1:     0.303530     0.116097     0.084229
Rotational constants in MHz :  9099.587349  3480.509726  2525.118521

                             ****ORCA TERMINATED NORMALLY****
TOTAL RUN TIME: 0 days 0 hours 2 minutes 25 seconds 147 msec
