                         Program Version 4.2.0 -  RELEASE  -
|  1> # ORCA input file
|  2> # SCF done        -47.474667749327          0.000488694042
|  3> ! B3LYP/G D3BJ Opt RIJCOSX def2-SVP def2/J
|  4> * xyz 0 1
|  5>    C        1.03086         1.51113        -0.21937
|  6>    C       -0.01317         0.62787        -0.12192
|  7>    C        0.42533        -0.73156        -0.07720
|  8>    S       -0.90309        -1.84845         0.04731
|  9>    C       -2.04075        -0.51448         0.03851
| 10>    C       -3.46483        -0.85739         0.13042
| 11>    O       -3.86418        -1.99295         0.21916
| 12>    O       -4.23945         0.22884         0.11774
| 13>    C       -5.64869         0.01505         0.19431
| 14>    C       -6.23481        -0.33864        -1.16507
| 15>    C       -1.43343         0.70300        -0.05332
| 16>    F       -2.08080         1.86906        -0.07944
| 17>    C        1.78829        -0.88569        -0.14118
| 18>    S        2.53231         0.69003        -0.25688
| 19>    C        2.53602        -2.10964        -0.12264
| 20>    C        3.86126        -2.19460        -0.19861
| 21>    H        0.99740         2.58048        -0.26955
| 22>    H       -6.05270         0.95876         0.56562
| 23>    H       -5.84672        -0.78794         0.91230
| 24>    H       -5.98679         0.43088        -1.89240
| 25>    H       -7.31520        -0.41764        -1.08425
| 26>    H       -5.83648        -1.29137        -1.50589
| 27>    H        1.92213        -2.99744        -0.03998
| 28>    H        4.47712        -1.31393        -0.28090
| 29>    H        4.36676        -3.14297        -0.17987
| 30> *
| 31>
| 32>                          ****END OF INPUT****
 Total Charge           Charge          ....    0
 Multiplicity           Mult            ....    1
 Number of Electrons    NEL             ....  132
Dispersion correction           -0.055951333
FINAL SINGLE POINT ENERGY     -1470.569173554444
Dispersion correction            ... done
Dispersion correction           -0.055632197
FINAL SINGLE POINT ENERGY     -1470.571931569823
Dispersion correction            ... done
Dispersion correction           -0.055545694
FINAL SINGLE POINT ENERGY     -1470.571845743405
Dispersion correction            ... done
FINAL SINGLE POINT ENERGY     -1470.571629778811
FINAL SINGLE POINT ENERGY     -1470.571844387877
FINAL SINGLE POINT ENERGY     -1470.571917084745
Dispersion correction            ... done
Dispersion correction           -0.055589677
FINAL SINGLE POINT ENERGY     -1470.571873157107
Dispersion correction            ... done
Dispersion correction           -0.055589114
FINAL SINGLE POINT ENERGY     -1470.571854853742
Dispersion correction            ... done
                    ***********************HURRAY********************

CARTESIAN COORDINATES (ANGSTROEM)
---------------------------------
  C      1.026364    1.558081   -0.257304
  C     -0.013959    0.658469   -0.126517
  C      0.439034   -0.701184   -0.024034
  S     -0.882544   -1.836028    0.165358
  C     -2.046822   -0.499042    0.088136
  C     -3.466864   -0.869181    0.186282
  O     -3.843026   -2.019036    0.257652
  O     -4.273429    0.202291    0.193246
  C     -5.691021   -0.047418    0.212474
  C     -6.223779   -0.294003   -1.189081
  C     -1.449222    0.723065   -0.076381
  F     -2.094124    1.874309   -0.206848
  C      1.813176   -0.849733   -0.104301
  S      2.542833    0.738507   -0.270699
  C      2.558960   -2.092997   -0.101597
  C      3.887105   -2.251342   -0.215914
  H      0.978081    2.641310   -0.348921
  H     -6.126749    0.858458    0.656393
  H     -5.893892   -0.904044    0.871509
  H     -5.971709    0.546022   -1.854630
  H     -7.320206   -0.399617   -1.165182
  H     -5.799815   -1.217604   -1.608928
  H      1.926431   -2.983018   -0.007062
  H      4.565167   -1.399407   -0.320763
  H      4.336402   -3.246449   -0.215989

 Multiplicity           Mult            ....    1
 Number of Electrons    NEL             ....  132
 Basis Dimension        Dim             ....  277

ORBITAL ENERGIES
----------------

  NO   OCC          E(Eh)            E(eV)
   0   2.0000     -88.896360     -2418.9929
   1   2.0000     -88.881889     -2418.5992
   2   2.0000     -24.722269      -672.7272
   3   2.0000     -19.179279      -521.8947
   4   2.0000     -19.124682      -520.4090
   5   2.0000     -10.325058      -280.9591
   6   2.0000     -10.300581      -280.2931
   7   2.0000     -10.248482      -278.8754
   8   2.0000     -10.237261      -278.5700
   9   2.0000     -10.235540      -278.5232
  10   2.0000     -10.233756      -278.4747
  11   2.0000     -10.233494      -278.4675
  12   2.0000     -10.221205      -278.1331
  13   2.0000     -10.215015      -277.9647
  14   2.0000     -10.199500      -277.5425
  15   2.0000     -10.189577      -277.2725
  16   2.0000      -7.990858      -217.4423
  17   2.0000      -7.975840      -217.0336
  18   2.0000      -5.958925      -162.1506
  19   2.0000      -5.954833      -162.0392
  20   2.0000      -5.952326      -161.9710
  21   2.0000      -5.944729      -161.7643
  22   2.0000      -5.940829      -161.6582
  23   2.0000      -5.935399      -161.5104
  24   2.0000      -1.233664       -33.5697
  25   2.0000      -1.099671       -29.9236
  26   2.0000      -1.010955       -27.5095
  27   2.0000      -0.919704       -25.0264
  28   2.0000      -0.861355       -23.4387
  29   2.0000      -0.801020       -21.7969
  30   2.0000      -0.779620       -21.2145
  31   2.0000      -0.753625       -20.5072
  32   2.0000      -0.741856       -20.1869
  33   2.0000      -0.702189       -19.1075
  34   2.0000      -0.673023       -18.3139
  35   2.0000      -0.627184       -17.0665
  36   2.0000      -0.617444       -16.8015
  37   2.0000      -0.583458       -15.8767
  38   2.0000      -0.569044       -15.4845
  39   2.0000      -0.552409       -15.0318
  40   2.0000      -0.527461       -14.3530
  41   2.0000      -0.513416       -13.9707
  42   2.0000      -0.497650       -13.5417
  43   2.0000      -0.491325       -13.3696
  44   2.0000      -0.478563       -13.0224
  45   2.0000      -0.467413       -12.7189
  46   2.0000      -0.452294       -12.3076
  47   2.0000      -0.445031       -12.1099
  48   2.0000      -0.435323       -11.8457
  49   2.0000      -0.425447       -11.5770
  50   2.0000      -0.422950       -11.5091
  51   2.0000      -0.411122       -11.1872
  52   2.0000      -0.402951       -10.9648
  53   2.0000      -0.392636       -10.6842
  54   2.0000      -0.385338       -10.4856
  55   2.0000      -0.376553       -10.2465
  56   2.0000      -0.367214        -9.9924
  57   2.0000      -0.349012        -9.4971
  58   2.0000      -0.346328        -9.4241
  59   2.0000      -0.341538        -9.2937
  60   2.0000      -0.324128        -8.8200
  61   2.0000      -0.307532        -8.3684
  62   2.0000      -0.287709        -7.8290
  63   2.0000      -0.270501        -7.3607
  64   2.0000      -0.259122        -7.0511
  65   2.0000      -0.211875        -5.7654
  66   0.0000      -0.079723        -2.1694
  67   0.0000      -0.042945        -1.1686
  68   0.0000       0.007863         0.2140
  69   0.0000       0.015038         0.4092
  70   0.0000       0.036571         0.9951

MULLIKEN ATOMIC CHARGES
-----------------------
   0 C :   -0.131287
   1 C :    0.054576
   2 C :   -0.003816
   3 S :    0.165335
   4 C :   -0.248119
   5 C :    0.236853
   6 O :   -0.225562
   7 O :   -0.301716
   8 C :    0.190951
   9 C :   -0.036273
  10 C :    0.284775
  11 F :   -0.155907
  12 C :   -0.159147
  13 S :    0.137128
  14 C :    0.002108
  15 C :   -0.033342
  16 H :    0.036953
  17 H :    0.018904
  18 H :    0.026882
  19 H :    0.029446
  20 H :    0.025527
  21 H :    0.033687
  22 H :    0.000601
  23 H :    0.021881
  24 H :    0.029563
Sum of atomic charges:   -0.0000000

LOEWDIN ATOMIC CHARGES
----------------------
   0 C :   -0.179931
   1 C :   -0.102346
   2 C :   -0.178775
   3 S :    0.414526
   4 C :   -0.235673
   5 C :    0.063753
   6 O :   -0.188838
   7 O :   -0.089482
   8 C :    0.091683
   9 C :   -0.068141
  10 C :    0.073109
  11 F :   -0.031431
  12 C :   -0.201748
  13 S :    0.466019
  14 C :   -0.039722
  15 C :   -0.050824
  16 H :    0.033800
  17 H :    0.022833
  18 H :    0.020756
  19 H :    0.028559
  20 H :    0.033603
  21 H :    0.031337
  22 H :    0.036051
  23 H :    0.020771
  24 H :    0.030111

  Mayer bond orders larger than 0.100000
B(  0-C ,  1-C ) :   1.4268 B(  0-C , 13-S ) :   1.1853 B(  0-C , 16-H ) :   0.9683
B(  1-C ,  2-C ) :   1.2307 B(  1-C , 10-C ) :   1.0979 B(  2-C ,  3-S ) :   1.0384
B(  2-C , 12-C ) :   1.4929 B(  3-S ,  4-C ) :   1.0520 B(  4-C ,  5-C ) :   0.9793
B(  4-C , 10-C ) :   1.5256 B(  5-C ,  6-O ) :   2.0684 B(  5-C ,  7-O ) :   1.2465
B(  7-O ,  8-C ) :   0.8983 B(  8-C ,  9-C ) :   1.1269 B(  8-C , 17-H ) :   0.9574
B(  8-C , 18-H ) :   0.9414 B(  9-C , 19-H ) :   0.9659 B(  9-C , 20-H ) :   0.9612
B(  9-C , 21-H ) :   0.9647 B( 10-C , 11-F ) :   1.2093 B( 12-C , 13-S ) :   1.1220
B( 12-C , 14-C ) :   1.1425 B( 14-C , 15-C ) :   1.9055 B( 14-C , 22-H ) :   0.9542
B( 15-C , 23-H ) :   0.9543 B( 15-C , 24-H ) :   0.9452

Dispersion correction           -0.055592282
FINAL SINGLE POINT ENERGY     -1470.571869216426

DIPOLE MOMENT
-------------
                                X             Y             Z
Electronic contribution:      9.44518       5.45539       2.70392
Nuclear contribution   :     -9.15369      -4.80476      -2.86059
                        -----------------------------------------
Total Dipole Moment    :      0.29149       0.65063      -0.15666
                        -----------------------------------------
Magnitude (a.u.)       :      0.72996
Magnitude (Debye)      :      1.85540

Rotational constants in cm-1:     0.035883     0.007425     0.006288
Rotational constants in MHz :  1075.759718   222.602875   188.514889

                             ****ORCA TERMINATED NORMALLY****
TOTAL RUN TIME: 0 days 0 hours 17 minutes 23 seconds 737 msec
