                         Program Version 4.2.0 -  RELEASE  -
|  1> # ORCA input file
|  2> # SCF done        -23.159391833640          0.000965583160
|  3> ! B3LYP/G D3BJ Opt RIJCOSX def2-SVP def2/J
|  4> * xyz 0 1
|  5>    C       -0.57377         0.91964         0.05265
|  6>    O       -1.34172        -0.17629        -0.04358
|  7>    C       -0.52552        -1.23996         0.01299
|  8>    C        0.77131        -0.85311         0.13579
|  9>    C        0.74139         0.56845         0.16853
| 10>    S        2.09428         1.68605         0.26749
| 11>    C        3.13171         0.82837         1.40349
| 12>    C        4.36123         1.21734         1.69473
| 13>    H       -1.05073         1.87783         0.01720
| 14>    H       -0.97546        -2.21091        -0.04695
| 15>    H        1.63442        -1.48345         0.18559
| 16>    H        2.66302        -0.02935         1.85752
| 17>    H        4.80390         2.08286         1.23413
| 18>    H        4.95870         0.68306         2.41173
| 19> *
| 20>
| 21>                          ****END OF INPUT****
 Total Charge           Charge          ....    0
 Multiplicity           Mult            ....    1
 Number of Electrons    NEL             ....   66
Dispersion correction           -0.024728141
FINAL SINGLE POINT ENERGY      -705.292332210452
Dispersion correction            ... done
Dispersion correction           -0.024570241
FINAL SINGLE POINT ENERGY      -705.295372636273
Dispersion correction            ... done
Dispersion correction           -0.024569473
FINAL SINGLE POINT ENERGY      -705.295682427938
Dispersion correction            ... done
FINAL SINGLE POINT ENERGY      -705.295708424344
FINAL SINGLE POINT ENERGY      -705.295724169261
Dispersion correction            ... done
Dispersion correction           -0.024610007
FINAL SINGLE POINT ENERGY      -705.295722067081
Dispersion correction            ... done
Dispersion correction           -0.024614992
FINAL SINGLE POINT ENERGY      -705.295719246125
Dispersion correction            ... done
                    ***********************HURRAY********************

CARTESIAN COORDINATES (ANGSTROEM)
---------------------------------
  C     -0.590698    0.904650    0.102254
  O     -1.333816   -0.217253   -0.058426
  C     -0.484506   -1.276667   -0.067276
  C      0.806388   -0.854321    0.062027
  C      0.739036    0.580648    0.179700
  S      2.072048    1.728922    0.295770
  C      3.065848    0.950502    1.535927
  C      4.385351    1.143643    1.637470
  H     -1.126415    1.848580    0.138876
  H     -0.942824   -2.256079   -0.177427
  H      1.704246   -1.467246    0.073036
  H      2.513460    0.331608    2.250894
  H      4.937164    1.752141    0.915103
  H      4.947478    0.701402    2.463381

 Multiplicity           Mult            ....    1
 Number of Electrons    NEL             ....   66
 Basis Dimension        Dim             ....  146

ORBITAL ENERGIES
----------------

  NO   OCC          E(Eh)            E(eV)
   0   2.0000     -88.856632     -2417.9119
   1   2.0000     -19.210322      -522.7394
   2   2.0000     -10.246778      -278.8290
   3   2.0000     -10.245893      -278.8049
   4   2.0000     -10.219267      -278.0804
   5   2.0000     -10.216748      -278.0118
   6   2.0000     -10.198125      -277.5051
   7   2.0000     -10.192283      -277.3461
   8   2.0000      -7.951301      -216.3659
   9   2.0000      -5.920427      -161.1030
  10   2.0000      -5.916602      -160.9989
  11   2.0000      -5.910338      -160.8285
  12   2.0000      -1.113664       -30.3043
  13   2.0000      -0.835103       -22.7243
  14   2.0000      -0.785600       -21.3773
  15   2.0000      -0.753519       -20.5043
  16   2.0000      -0.705404       -19.1950
  17   2.0000      -0.603614       -16.4252
  18   2.0000      -0.572515       -15.5789
  19   2.0000      -0.560164       -15.2428
  20   2.0000      -0.530013       -14.4224
  21   2.0000      -0.470658       -12.8073
  22   2.0000      -0.465650       -12.6710
  23   2.0000      -0.450435       -12.2570
  24   2.0000      -0.430830       -11.7235
  25   2.0000      -0.419298       -11.4097
  26   2.0000      -0.389006       -10.5854
  27   2.0000      -0.384132       -10.4528
  28   2.0000      -0.338826        -9.2199
  29   2.0000      -0.323312        -8.7978
  30   2.0000      -0.291917        -7.9435
  31   2.0000      -0.250575        -6.8185
  32   2.0000      -0.214527        -5.8376
  33   0.0000      -0.011477        -0.3123
  34   0.0000       0.004043         0.1100
  35   0.0000       0.031168         0.8481
  36   0.0000       0.060023         1.6333
  37   0.0000       0.081612         2.2208

MULLIKEN ATOMIC CHARGES
-----------------------
   0 C :    0.099512
   1 O :   -0.206503
   2 C :    0.137270
   3 C :   -0.030588
   4 C :   -0.060763
   5 S :    0.051565
   6 C :   -0.103245
   7 C :   -0.021565
   8 H :    0.011550
   9 H :    0.014305
  10 H :    0.000219
  11 H :    0.047383
  12 H :    0.028234
  13 H :    0.032627
Sum of atomic charges:   -0.0000000

LOEWDIN ATOMIC CHARGES
----------------------
   0 C :    0.016357
   1 O :    0.006598
   2 C :    0.035805
   3 C :   -0.084021
   4 C :   -0.221677
   5 S :    0.327293
   6 C :   -0.160445
   7 C :   -0.085152
   8 H :    0.025113
   9 H :    0.024402
  10 H :    0.034025
  11 H :    0.026346
  12 H :    0.025162
  13 H :    0.030193

  Mayer bond orders larger than 0.100000
B(  0-C ,  1-O ) :   1.1441 B(  0-C ,  4-C ) :   1.5513 B(  0-C ,  8-H ) :   1.0077
B(  1-O ,  2-C ) :   1.1355 B(  2-C ,  3-C ) :   1.5568 B(  2-C ,  9-H ) :   0.9979
B(  3-C ,  4-C ) :   1.2268 B(  3-C , 10-H ) :   1.0084 B(  4-C ,  5-S ) :   0.9889
B(  5-S ,  6-C ) :   1.0314 B(  6-C ,  7-C ) :   1.9610 B(  6-C , 11-H ) :   0.9416
B(  7-C , 12-H ) :   0.9545 B(  7-C , 13-H ) :   0.9529

Dispersion correction           -0.024614494
FINAL SINGLE POINT ENERGY      -705.295721782529

DIPOLE MOMENT
-------------
                                X             Y             Z
Electronic contribution:     -4.42142       1.90005      -2.63196
Nuclear contribution   :      4.42904      -2.32620       2.82572
                        -----------------------------------------
Total Dipole Moment    :      0.00762      -0.42615       0.19376
                        -----------------------------------------
Magnitude (a.u.)       :      0.46819
Magnitude (Debye)      :      1.19005

Rotational constants in cm-1:     0.170035     0.032762     0.028719
Rotational constants in MHz :  5097.524677   982.183137   860.987689

                             ****ORCA TERMINATED NORMALLY****
TOTAL RUN TIME: 0 days 0 hours 4 minutes 14 seconds 54 msec
