                         Program Version 4.2.0 -  RELEASE  -
|  1> # ORCA input file
|  2> # SCF done        -30.264766255096          0.000554445301
|  3> ! B3LYP/G D3BJ Opt RIJCOSX def2-SVP def2/J
|  4> * xyz 0 1
|  5>    C       -2.12075         0.68002        -0.00880
|  6>    C       -2.14927        -0.62792         0.26432
|  7>    C       -0.90803        -1.47592         0.36119
|  8>    C        0.32671        -0.69540         0.09395
|  9>    C        0.33492         0.69236        -0.19291
| 10>    C       -0.90212         1.51077        -0.25536
| 11>    N        1.54534         1.16214        -0.39458
| 12>    S        2.61645        -0.05174        -0.23877
| 13>    N        1.53346        -1.21694         0.09701
| 14>    C       -3.42801        -1.28914         0.48617
| 15>    C       -3.60760        -2.57146         0.78264
| 16>    H       -3.05318         1.22679        -0.06177
| 17>    H       -0.96932        -2.30580        -0.35042
| 18>    H       -0.84187        -1.92193         1.35923
| 19>    H       -0.97261         1.99872        -1.23425
| 20>    H       -0.84631         2.31914         0.48329
| 21>    H       -4.29286        -0.64409         0.39428
| 22>    H       -2.79436        -3.26847         0.88959
| 23>    H       -4.59455        -2.97507         0.93009
| 24> *
| 25>
| 26>                          ****END OF INPUT****
 Total Charge           Charge          ....    0
 Multiplicity           Mult            ....    1
 Number of Electrons    NEL             ....   86
Dispersion correction           -0.038983560
FINAL SINGLE POINT ENERGY      -816.938127842757
Dispersion correction            ... done
Dispersion correction           -0.038754124
FINAL SINGLE POINT ENERGY      -816.941510219761
Dispersion correction            ... done
Dispersion correction           -0.038739979
FINAL SINGLE POINT ENERGY      -816.941893658597
Dispersion correction            ... done
FINAL SINGLE POINT ENERGY      -816.941954170628
FINAL SINGLE POINT ENERGY      -816.942021527607
Dispersion correction            ... done
Dispersion correction           -0.038792028
FINAL SINGLE POINT ENERGY      -816.942032647602
Dispersion correction            ... done
Dispersion correction           -0.038793998
FINAL SINGLE POINT ENERGY      -816.942030566166
Dispersion correction            ... done
                    ***********************HURRAY********************

CARTESIAN COORDINATES (ANGSTROEM)
---------------------------------
  C     -2.123681    0.695561   -0.007285
  C     -2.156174   -0.625984    0.270478
  C     -0.910271   -1.480859    0.331741
  C      0.346860   -0.701066    0.103007
  C      0.358106    0.706162   -0.203017
  C     -0.898425    1.517491   -0.287293
  N      1.564375    1.201302   -0.380738
  S      2.647177   -0.040002   -0.167218
  N      1.545977   -1.239921    0.157815
  C     -3.441254   -1.285076    0.519638
  C     -3.619940   -2.587571    0.788277
  H     -3.075936    1.235067   -0.037982
  H     -0.978814   -2.292919   -0.414091
  H     -0.850503   -1.992661    1.307815
  H     -0.973611    1.990016   -1.284210
  H     -0.834604    2.366101    0.418032
  H     -4.319155   -0.630979    0.476262
  H     -2.787033   -3.292279    0.847305
  H     -4.617055   -2.996323    0.966364

 Multiplicity           Mult            ....    1
 Number of Electrons    NEL             ....   86
 Basis Dimension        Dim             ....  198

ORBITAL ENERGIES
----------------

  NO   OCC          E(Eh)            E(eV)
   0   2.0000     -88.916281     -2419.5350
   1   2.0000     -14.352374      -390.5479
   2   2.0000     -14.351757      -390.5312
   3   2.0000     -10.239213      -278.6231
   4   2.0000     -10.238909      -278.6149
   5   2.0000     -10.213210      -277.9156
   6   2.0000     -10.209561      -277.8163
   7   2.0000     -10.208447      -277.7860
   8   2.0000     -10.204699      -277.6840
   9   2.0000     -10.200823      -277.5785
  10   2.0000     -10.192811      -277.3605
  11   2.0000      -8.008403      -217.9197
  12   2.0000      -5.978858      -162.6930
  13   2.0000      -5.971769      -162.5001
  14   2.0000      -5.968248      -162.4043
  15   2.0000      -1.008035       -27.4300
  16   2.0000      -0.880582       -23.9619
  17   2.0000      -0.850034       -23.1306
  18   2.0000      -0.788464       -21.4552
  19   2.0000      -0.754095       -20.5200
  20   2.0000      -0.730027       -19.8650
  21   2.0000      -0.671140       -18.2626
  22   2.0000      -0.606362       -16.5000
  23   2.0000      -0.600810       -16.3489
  24   2.0000      -0.564040       -15.3483
  25   2.0000      -0.512199       -13.9376
  26   2.0000      -0.502624       -13.6771
  27   2.0000      -0.477056       -12.9814
  28   2.0000      -0.466300       -12.6887
  29   2.0000      -0.447120       -12.1668
  30   2.0000      -0.436791       -11.8857
  31   2.0000      -0.429935       -11.6991
  32   2.0000      -0.414803       -11.2874
  33   2.0000      -0.394185       -10.7263
  34   2.0000      -0.390503       -10.6261
  35   2.0000      -0.375263       -10.2114
  36   2.0000      -0.351990        -9.5781
  37   2.0000      -0.320846        -8.7307
  38   2.0000      -0.315722        -8.5912
  39   2.0000      -0.306395        -8.3374
  40   2.0000      -0.292079        -7.9479
  41   2.0000      -0.261865        -7.1257
  42   2.0000      -0.238770        -6.4973
  43   0.0000      -0.055921        -1.5217
  44   0.0000      -0.038202        -1.0395
  45   0.0000       0.018030         0.4906
  46   0.0000       0.035347         0.9618
  47   0.0000       0.058252         1.5851

MULLIKEN ATOMIC CHARGES
-----------------------
   0 C :   -0.189182
   1 C :   -0.069971
   2 C :    0.272029
   3 C :   -0.109449
   4 C :   -0.127175
   5 C :    0.290225
   6 N :   -0.290200
   7 S :    0.413610
   8 N :   -0.290954
   9 C :   -0.003570
  10 C :   -0.032499
  11 H :   -0.013120
  12 H :    0.034898
  13 H :    0.027297
  14 H :    0.026913
  15 H :    0.032863
  16 H :   -0.016695
  17 H :    0.024079
  18 H :    0.020898
Sum of atomic charges:    0.0000000

LOEWDIN ATOMIC CHARGES
----------------------
   0 C :   -0.026557
   1 C :   -0.035469
   2 C :   -0.022758
   3 C :   -0.054089
   4 C :   -0.056627
   5 C :   -0.029332
   6 N :   -0.269784
   7 S :    0.544680
   8 N :   -0.270206
   9 C :   -0.021535
  10 C :   -0.055233
  11 H :    0.025796
  12 H :    0.048810
  13 H :    0.046992
  14 H :    0.048961
  15 H :    0.049878
  16 H :    0.028094
  17 H :    0.021861
  18 H :    0.026517

  Mayer bond orders larger than 0.100000
B(  0-C ,  1-C ) :   1.7979 B(  0-C ,  5-C ) :   1.0121 B(  0-C , 10-C ) :   0.1134
B(  0-C , 11-H ) :   0.9643 B(  1-C ,  2-C ) :   1.0199 B(  1-C ,  9-C ) :   1.0966
B(  2-C ,  3-C ) :   1.0497 B(  2-C , 12-H ) :   0.8719 B(  2-C , 13-H ) :   0.8727
B(  3-C ,  4-C ) :   1.2253 B(  3-C ,  8-N ) :   1.6312 B(  4-C ,  5-C ) :   1.0630
B(  4-C ,  6-N ) :   1.6349 B(  5-C , 14-H ) :   0.8736 B(  5-C , 15-H ) :   0.8786
B(  6-N ,  7-S ) :   1.1805 B(  6-N ,  8-N ) :   0.1360 B(  7-S ,  8-N ) :   1.1777
B(  9-C , 10-C ) :   1.9045 B(  9-C , 16-H ) :   0.9674 B( 10-C , 17-H ) :   0.9390
B( 10-C , 18-H ) :   0.9464

Dispersion correction           -0.038794095
FINAL SINGLE POINT ENERGY      -816.942025030431

DIPOLE MOMENT
-------------
                                X             Y             Z
Electronic contribution:     14.78814       2.95982      -1.57316
Nuclear contribution   :    -15.54987      -2.86506       1.59428
                        -----------------------------------------
Total Dipole Moment    :     -0.76173       0.09475       0.02111
                        -----------------------------------------
Magnitude (a.u.)       :      0.76789
Magnitude (Debye)      :      1.95182

Rotational constants in cm-1:     0.083127     0.020034     0.016241
Rotational constants in MHz :  2492.089402   600.597093   486.886607

                             ****ORCA TERMINATED NORMALLY****
TOTAL RUN TIME: 0 days 0 hours 9 minutes 12 seconds 165 msec
