                         Program Version 4.2.0 -  RELEASE  -
|  1> # ORCA input file
|  2> # SCF done        -39.866581960179          0.000962494204
|  3> ! B3LYP/G D3BJ Opt RIJCOSX def2-SVP def2/J
|  4> * xyz 0 1
|  5>    C        1.24872         0.27405        -0.16957
|  6>    C        0.89055        -1.01788        -0.09230
|  7>    C       -0.56162        -1.07852         0.07724
|  8>    O       -1.17333        -2.27292         0.17407
|  9>    C       -2.57299        -2.25200         0.32504
| 10>    C       -1.05930         0.18546         0.10376
| 11>    C        0.04511         1.09594        -0.05115
| 12>    C       -0.00000         2.45990        -0.09396
| 13>    C        1.10425         3.36635        -0.27221
| 14>    C        0.60792         4.63095        -0.26761
| 15>    O        1.22001         5.82132        -0.40496
| 16>    C        2.61462         5.79117        -0.59620
| 17>    C       -0.84213         4.57521        -0.07980
| 18>    C       -1.20127         3.28515         0.02181
| 19>    H        2.23935         0.66574        -0.29438
| 20>    H        1.51362        -1.89056        -0.14084
| 21>    H       -2.89241        -3.29170         0.37257
| 22>    H       -3.05279        -1.75829        -0.52597
| 23>    H       -2.86152        -1.73601         1.24636
| 24>    H       -2.08233         0.48579         0.21430
| 25>    H        2.12554         3.06257        -0.38872
| 26>    H        2.93283         6.82676        -0.70372
| 27>    H        2.87526         5.23055        -1.49955
| 28>    H        3.11971         5.33843         0.26303
| 29>    H       -1.46374         5.44935        -0.03891
| 30>    H       -2.19093         2.89722         0.16546
| 31> *
| 32>
| 33>                          ****END OF INPUT****
 Total Charge           Charge          ....    0
 Multiplicity           Mult            ....    1
 Number of Electrons    NEL             ....  100
Dispersion correction           -0.046906931
FINAL SINGLE POINT ENERGY      -614.454833207475
Dispersion correction            ... done
Dispersion correction           -0.046906076
FINAL SINGLE POINT ENERGY      -614.458187298666
Dispersion correction            ... done
Dispersion correction           -0.046917864
FINAL SINGLE POINT ENERGY      -614.458297662711
Dispersion correction            ... done
Dispersion correction           -0.046921483
FINAL SINGLE POINT ENERGY      -614.458305842043
Dispersion correction            ... done
Dispersion correction           -0.046921523
FINAL SINGLE POINT ENERGY      -614.458308170422
Dispersion correction            ... done
                    ***********************HURRAY********************

CARTESIAN COORDINATES (ANGSTROEM)
---------------------------------
  C      1.260372    0.264818   -0.199842
  C      0.899149   -1.039101   -0.109493
  C     -0.562991   -1.091659    0.067064
  O     -1.170224   -2.276433    0.196093
  C     -2.572066   -2.250823    0.363087
  C     -1.082044    0.177080    0.073563
  C      0.042067    1.088844   -0.087844
  C      0.004554    2.459132   -0.124814
  C      1.128055    3.372274   -0.281849
  C      0.608130    4.640646   -0.268812
  O      1.214475    5.826759   -0.388977
  C      2.615567    5.803079   -0.563454
  C     -0.854115    4.586436   -0.094027
  C     -1.214512    3.281942   -0.009827
  H      2.264465    0.660317   -0.337988
  H      1.534330   -1.922506   -0.157032
  H     -2.907904   -3.291931    0.447049
  H     -3.065319   -1.772121   -0.501023
  H     -2.850207   -1.697512    1.277490
  H     -2.119501    0.474005    0.191145
  H      2.165671    3.076540   -0.401251
  H      2.949700    6.844750   -0.647437
  H      2.889270    5.251474   -1.480211
  H      3.114136    5.323561    0.297144
  H     -1.489711    5.469292   -0.042123
  H     -2.218218    2.885169    0.127159

 Multiplicity           Mult            ....    1
 Number of Electrons    NEL             ....  100
 Basis Dimension        Dim             ....  256

ORBITAL ENERGIES
----------------

  NO   OCC          E(Eh)            E(eV)
   0   2.0000     -19.174510      -521.7649
   1   2.0000     -19.174453      -521.7634
   2   2.0000     -10.247930      -278.8603
   3   2.0000     -10.247893      -278.8594
   4   2.0000     -10.245128      -278.7841
   5   2.0000     -10.245073      -278.7826
   6   2.0000     -10.200142      -277.5600
   7   2.0000     -10.199716      -277.5484
   8   2.0000     -10.187999      -277.2295
   9   2.0000     -10.187973      -277.2288
  10   2.0000     -10.184877      -277.1446
  11   2.0000     -10.184868      -277.1443
  12   2.0000     -10.167477      -276.6711
  13   2.0000     -10.167439      -276.6701
  14   2.0000      -1.070121       -29.1195
  15   2.0000      -1.070089       -29.1186
  16   2.0000      -0.866646       -23.5826
  17   2.0000      -0.844440       -22.9784
  18   2.0000      -0.749886       -20.4054
  19   2.0000      -0.726704       -19.7746
  20   2.0000      -0.706651       -19.2290
  21   2.0000      -0.703801       -19.1514
  22   2.0000      -0.681937       -18.5564
  23   2.0000      -0.621221       -16.9043
  24   2.0000      -0.570199       -15.5159
  25   2.0000      -0.558477       -15.1969
  26   2.0000      -0.545783       -14.8515
  27   2.0000      -0.529629       -14.4119
  28   2.0000      -0.520011       -14.1502
  29   2.0000      -0.500703       -13.6248
  30   2.0000      -0.476603       -12.9690
  31   2.0000      -0.476215       -12.9585
  32   2.0000      -0.465507       -12.6671
  33   2.0000      -0.453001       -12.3268
  34   2.0000      -0.431918       -11.7531
  35   2.0000      -0.425846       -11.5879
  36   2.0000      -0.404886       -11.0175
  37   2.0000      -0.392159       -10.6712
  38   2.0000      -0.388541       -10.5727
  39   2.0000      -0.385520       -10.4905
  40   2.0000      -0.379772       -10.3341
  41   2.0000      -0.373701       -10.1689
  42   2.0000      -0.347742        -9.4626
  43   2.0000      -0.340043        -9.2530
  44   2.0000      -0.335333        -9.1249
  45   2.0000      -0.331577        -9.0227
  46   2.0000      -0.302966        -8.2441
  47   2.0000      -0.233324        -6.3491
  48   2.0000      -0.216893        -5.9020
  49   2.0000      -0.196331        -5.3424
  50   0.0000      -0.090864        -2.4725
  51   0.0000       0.028348         0.7714
  52   0.0000       0.060860         1.6561
  53   0.0000       0.065525         1.7830
  54   0.0000       0.075003         2.0409

MULLIKEN ATOMIC CHARGES
-----------------------
   0 C :    0.002029
   1 C :    0.005864
   2 C :    0.203961
   3 O :   -0.286960
   4 C :    0.188993
   5 C :   -0.157922
   6 C :    0.053391
   7 C :    0.053300
   8 C :   -0.157753
   9 C :    0.203870
  10 O :   -0.286924
  11 C :    0.188927
  12 C :    0.005782
  13 C :    0.002181
  14 H :   -0.026753
  15 H :   -0.020989
  16 H :    0.031867
  17 H :    0.023285
  18 H :    0.020983
  19 H :   -0.037852
  20 H :   -0.037810
  21 H :    0.031942
  22 H :    0.020937
  23 H :    0.023401
  24 H :   -0.020974
  25 H :   -0.026776
Sum of atomic charges:   -0.0000000

LOEWDIN ATOMIC CHARGES
----------------------
   0 C :   -0.025009
   1 C :   -0.028225
   2 C :    0.046967
   3 O :   -0.077873
   4 C :    0.084963
   5 C :   -0.137521
   6 C :    0.012811
   7 C :    0.012840
   8 C :   -0.137591
   9 C :    0.047059
  10 O :   -0.077846
  11 C :    0.084991
  12 C :   -0.028329
  13 C :   -0.024881
  14 H :    0.022165
  15 H :    0.026552
  16 H :    0.025386
  17 H :    0.016488
  18 H :    0.016076
  19 H :    0.017112
  20 H :    0.017139
  21 H :    0.025406
  22 H :    0.016088
  23 H :    0.016518
  24 H :    0.026560
  25 H :    0.022154

  Mayer bond orders larger than 0.100000
B(  0-C ,  1-C ) :   1.6334 B(  0-C ,  6-C ) :   1.0731 B(  0-C , 14-H ) :   1.0025
B(  1-C ,  2-C ) :   1.0848 B(  1-C , 15-H ) :   1.0063 B(  2-C ,  3-O ) :   1.1705
B(  2-C ,  5-C ) :   1.4966 B(  3-O ,  4-C ) :   0.9581 B(  4-C , 16-H ) :   0.9786
B(  4-C , 17-H ) :   0.9654 B(  4-C , 18-H ) :   0.9655 B(  5-C ,  6-C ) :   1.0912
B(  5-C , 19-H ) :   1.0143 B(  6-C ,  7-C ) :   1.5055 B(  7-C ,  8-C ) :   1.0913
B(  7-C , 13-C ) :   1.0730 B(  8-C ,  9-C ) :   1.4966 B(  8-C , 20-H ) :   1.0143
B(  9-C , 10-O ) :   1.1707 B(  9-C , 12-C ) :   1.0848 B( 10-O , 11-C ) :   0.9580
B( 11-C , 21-H ) :   0.9786 B( 11-C , 22-H ) :   0.9654 B( 11-C , 23-H ) :   0.9656
B( 12-C , 13-C ) :   1.6334 B( 12-C , 24-H ) :   1.0063 B( 13-C , 25-H ) :   1.0025

Dispersion correction           -0.046920342
FINAL SINGLE POINT ENERGY      -614.458307422281

DIPOLE MOMENT
-------------
                                X             Y             Z
Electronic contribution:      0.00394      -0.00419       0.00249
Nuclear contribution   :     -0.00374       0.00589      -0.00438
                        -----------------------------------------
Total Dipole Moment    :      0.00020       0.00169      -0.00189
                        -----------------------------------------
Magnitude (a.u.)       :      0.00254
Magnitude (Debye)      :      0.00647

Rotational constants in cm-1:     0.071947     0.009772     0.008632
Rotational constants in MHz :  2156.920052   292.970150   258.793597

                             ****ORCA TERMINATED NORMALLY****
TOTAL RUN TIME: 0 days 0 hours 10 minutes 29 seconds 108 msec
