                         Program Version 4.2.0 -  RELEASE  -
|  1> # ORCA input file
|  2> # SCF done        -15.912895714274          0.000080437195
|  3> ! B3LYP/G D3BJ Opt RIJCOSX def2-SVP def2/J
|  4> * xyz 0 1
|  5>    C        1.17414         0.35487         0.00215
|  6>    C        0.73946        -0.91478        -0.00073
|  7>    C       -0.73147        -0.91617        -0.00090
|  8>    C       -1.16853         0.35267         0.00186
|  9>    C        0.00199         1.22612         0.00386
| 10>    S        0.00045         2.85568         0.00750
| 11>    H        2.18263         0.71992         0.00308
| 12>    H        1.33485        -1.80942        -0.00267
| 13>    H       -1.32518        -1.81192        -0.00298
| 14>    H       -2.17770         0.71584         0.00254
| 15> *
| 16>
| 17>                          ****END OF INPUT****
 Total Charge           Charge          ....    0
 Multiplicity           Mult            ....    1
 Number of Electrons    NEL             ....   50
Dispersion correction           -0.018093903
FINAL SINGLE POINT ENERGY      -590.836943475997
Dispersion correction            ... done
Dispersion correction           -0.018066781
FINAL SINGLE POINT ENERGY      -590.838833891248
Dispersion correction            ... done
Dispersion correction           -0.018063401
FINAL SINGLE POINT ENERGY      -590.838894057665
Dispersion correction            ... done
Dispersion correction           -0.018063158
FINAL SINGLE POINT ENERGY      -590.838903718541
Dispersion correction            ... done
Dispersion correction           -0.018063652
FINAL SINGLE POINT ENERGY      -590.838906286660
Dispersion correction            ... done
                    ***********************HURRAY********************

CARTESIAN COORDINATES (ANGSTROEM)
---------------------------------
  C      1.190829    0.354992    0.001915
  C      0.749693   -0.922914   -0.000524
  C     -0.741682   -0.924310   -0.000702
  C     -1.185192    0.352767    0.001632
  C      0.001976    1.241167    0.004573
  S      0.000356    2.873386    0.007981
  H      2.213514    0.727006    0.002400
  H      1.362682   -1.824839   -0.002546
  H     -1.352988   -1.827376   -0.002880
  H     -2.208549    0.722930    0.001859

 Multiplicity           Mult            ....    1
 Number of Electrons    NEL             ....   50
 Basis Dimension        Dim             ....  108

ORBITAL ENERGIES
----------------

  NO   OCC          E(Eh)            E(eV)
   0   2.0000     -88.839704     -2417.4513
   1   2.0000     -10.253203      -279.0039
   2   2.0000     -10.214811      -277.9591
   3   2.0000     -10.214765      -277.9579
   4   2.0000     -10.200152      -277.5602
   5   2.0000     -10.200148      -277.5601
   6   2.0000      -7.935142      -215.9262
   7   2.0000      -5.904254      -160.6629
   8   2.0000      -5.902008      -160.6018
   9   2.0000      -5.892655      -160.3473
  10   2.0000      -0.880495       -23.9595
  11   2.0000      -0.774052       -21.0630
  12   2.0000      -0.721498       -19.6330
  13   2.0000      -0.644844       -17.5471
  14   2.0000      -0.554831       -15.0977
  15   2.0000      -0.540508       -14.7080
  16   2.0000      -0.491942       -13.3864
  17   2.0000      -0.424379       -11.5479
  18   2.0000      -0.401439       -10.9237
  19   2.0000      -0.394079       -10.7234
  20   2.0000      -0.392250       -10.6737
  21   2.0000      -0.376597       -10.2477
  22   2.0000      -0.292691        -7.9645
  23   2.0000      -0.244887        -6.6637
  24   2.0000      -0.231524        -6.3001
  25   0.0000      -0.129525        -3.5245
  26   0.0000       0.042082         1.1451
  27   0.0000       0.049236         1.3398
  28   0.0000       0.066181         1.8009
  29   0.0000       0.107964         2.9378

MULLIKEN ATOMIC CHARGES
-----------------------
   0 C :    0.037270
   1 C :    0.023200
   2 C :    0.023293
   3 C :    0.037184
   4 C :   -0.049127
   5 S :   -0.065645
   6 H :   -0.005799
   7 H :    0.002714
   8 H :    0.002681
   9 H :   -0.005772
Sum of atomic charges:   -0.0000000

LOEWDIN ATOMIC CHARGES
----------------------
   0 C :   -0.055784
   1 C :    0.001449
   2 C :    0.001457
   3 C :   -0.055800
   4 C :   -0.135815
   5 S :    0.130553
   6 H :    0.028926
   7 H :    0.028044
   8 H :    0.028039
   9 H :    0.028931

  Mayer bond orders larger than 0.100000
B(  0-C ,  1-C ) :   1.7017 B(  0-C ,  4-C ) :   1.0490 B(  0-C ,  6-H ) :   1.0083
B(  1-C ,  2-C ) :   1.0246 B(  1-C ,  5-S ) :   0.1127 B(  1-C ,  7-H ) :   0.9938
B(  2-C ,  3-C ) :   1.7017 B(  2-C ,  5-S ) :   0.1127 B(  2-C ,  8-H ) :   0.9938
B(  3-C ,  4-C ) :   1.0490 B(  3-C ,  9-H ) :   1.0083 B(  4-C ,  5-S ) :   1.6899

Dispersion correction           -0.018064188
FINAL SINGLE POINT ENERGY      -590.838905874494

DIPOLE MOMENT
-------------
                                X             Y             Z
Electronic contribution:     -0.00463       4.84406       0.01216
Nuclear contribution   :      0.00546      -5.67846      -0.01440
                        -----------------------------------------
Total Dipole Moment    :      0.00083      -0.83441      -0.00224
                        -----------------------------------------
Magnitude (a.u.)       :      0.83441
Magnitude (Debye)      :      2.12091

Rotational constants in cm-1:     0.277109     0.073896     0.058339
Rotational constants in MHz :  8307.532880  2215.360249  1748.965692

                             ****ORCA TERMINATED NORMALLY****
TOTAL RUN TIME: 0 days 0 hours 1 minutes 39 seconds 632 msec
