                         Program Version 4.2.0 -  RELEASE  -
|  1> # ORCA input file
|  2> # SCF done        -45.977780869417          0.000529875571
|  3> ! B3LYP/G D3BJ Opt RIJCOSX def2-SVP def2/J
|  4> * xyz 0 1
|  5>    N        1.88038         0.48066         1.10612
|  6>    C        0.55493         0.88718         0.70358
|  7>    C        0.00991         0.10057        -0.49145
|  8>    C        3.00248         0.70696         0.32947
|  9>    C        4.15041        -0.05807         0.55508
| 10>    C        5.31622         0.19376        -0.13313
| 11>    C        5.39124         1.20268        -1.09271
| 12>    C        4.23240         1.95388        -1.36299
| 13>    C        3.07046         1.70312        -0.63953
| 14>    C        4.20498         2.93142        -2.45067
| 15>    C        3.45251         4.02323        -2.48681
| 16>    N        6.59217         1.45193        -1.76793
| 17>    C        7.42470         0.34276        -2.17884
| 18>    C        8.67064         0.16500        -1.30958
| 19>    C        7.02656         2.74287        -1.96114
| 20>    C        8.07283         3.14539        -2.67931
| 21>    H        1.90365        -0.40904         1.58466
| 22>    H        0.57409         1.95402         0.46958
| 23>    H       -0.10289         0.74945         1.56637
| 24>    H        0.66345         0.22465        -1.35197
| 25>    H       -0.98458         0.45242        -0.75266
| 26>    H       -0.04785        -0.95976        -0.25303
| 27>    H        4.12355        -0.85100         1.28988
| 28>    H        6.18713        -0.40488         0.08462
| 29>    H        2.19458         2.28370        -0.87878
| 30>    H        4.85650         2.70897        -3.28716
| 31>    H        2.81871         4.31325        -1.66528
| 32>    H        3.45966         4.68434        -3.33645
| 33>    H        7.73166         0.50794        -3.21814
| 34>    H        6.81691        -0.56504        -2.15325
| 35>    H        9.27310         1.06904        -1.32839
| 36>    H        9.26772        -0.66358        -1.68259
| 37>    H        8.39824        -0.03821        -0.27693
| 38>    H        6.42731         3.47608        -1.43749
| 39>    H        8.71248         2.48274        -3.23282
| 40>    H        8.31137         4.19132        -2.73455
| 41> *
| 42>
| 43>                          ****END OF INPUT****
 Total Charge           Charge          ....    0
 Multiplicity           Mult            ....    1
 Number of Electrons    NEL             ....  118
Dispersion correction           -0.071310748
FINAL SINGLE POINT ENERGY      -654.589396234538
Dispersion correction            ... done
Dispersion correction           -0.070247801
FINAL SINGLE POINT ENERGY      -654.594209487281
Dispersion correction            ... done
Dispersion correction           -0.070251706
FINAL SINGLE POINT ENERGY      -654.594551757313
Dispersion correction            ... done
FINAL SINGLE POINT ENERGY      -654.594784319949
FINAL SINGLE POINT ENERGY      -654.594875939143
FINAL SINGLE POINT ENERGY      -654.594866658016
FINAL SINGLE POINT ENERGY      -654.594837821281
FINAL SINGLE POINT ENERGY      -654.594797347106
FINAL SINGLE POINT ENERGY      -654.594751429629
FINAL SINGLE POINT ENERGY      -654.594708148110
Dispersion correction            ... done
Dispersion correction           -0.069934079
FINAL SINGLE POINT ENERGY      -654.594686965747
Dispersion correction            ... done
Dispersion correction           -0.069934364
FINAL SINGLE POINT ENERGY      -654.594678661508
Dispersion correction            ... done
                    ***********************HURRAY********************

CARTESIAN COORDINATES (ANGSTROEM)
---------------------------------
  N      1.821485    0.487239    1.143053
  C      0.507514    0.877496    0.670464
  C      0.000494    0.114340   -0.557617
  C      2.992345    0.744204    0.448328
  C      4.196591    0.114401    0.837113
  C      5.386499    0.390000    0.174858
  C      5.442036    1.282990   -0.908253
  C      4.244342    1.916144   -1.320185
  C      3.048444    1.638003   -0.634116
  C      4.237354    2.826419   -2.481569
  C      3.326594    3.778758   -2.731473
  N      6.682818    1.525327   -1.565065
  C      7.330142    0.444573   -2.302580
  C      8.657707   -0.030743   -1.710595
  C      7.175075    2.814894   -1.662937
  C      8.203859    3.253354   -2.416507
  H      1.847445   -0.335659    1.732253
  H      0.514557    1.960626    0.457113
  H     -0.195981    0.739294    1.508267
  H      0.695823    0.215386   -1.404416
  H     -0.980483    0.501379   -0.877322
  H     -0.110993   -0.958861   -0.332907
  H      4.190945   -0.579579    1.682423
  H      6.310107   -0.085165    0.511661
  H      2.134709    2.105728   -0.995029
  H      5.064879    2.699561   -3.184536
  H      2.504044    3.992930   -2.042807
  H      3.386140    4.392065   -3.633649
  H      7.497650    0.779655   -3.344819
  H      6.618429   -0.392181   -2.352665
  H      9.378003    0.796726   -1.635972
  H      9.100399   -0.811433   -2.349758
  H      8.518309   -0.453643   -0.703114
  H      6.629974    3.524852   -1.034299
  H      8.797792    2.603877   -3.060122
  H      8.482565    4.306793   -2.377442

 Multiplicity           Mult            ....    1
 Number of Electrons    NEL             ....  118
 Basis Dimension        Dim             ....  324

ORBITAL ENERGIES
----------------

  NO   OCC          E(Eh)            E(eV)
   0   2.0000     -14.339407      -390.1951
   1   2.0000     -14.338227      -390.1630
   2   2.0000     -10.227601      -278.3072
   3   2.0000     -10.227420      -278.3023
   4   2.0000     -10.216111      -277.9945
   5   2.0000     -10.212166      -277.8872
   6   2.0000     -10.206843      -277.7423
   7   2.0000     -10.193854      -277.3889
   8   2.0000     -10.188591      -277.2457
   9   2.0000     -10.187248      -277.2091
  10   2.0000     -10.186103      -277.1780
  11   2.0000     -10.185364      -277.1579
  12   2.0000     -10.182372      -277.0764
  13   2.0000     -10.179432      -276.9964
  14   2.0000     -10.177534      -276.9448
  15   2.0000     -10.150432      -276.2073
  16   2.0000      -0.937834       -25.5198
  17   2.0000      -0.928800       -25.2739
  18   2.0000      -0.835819       -22.7438
  19   2.0000      -0.780530       -21.2393
  20   2.0000      -0.756502       -20.5855
  21   2.0000      -0.749614       -20.3980
  22   2.0000      -0.729575       -19.8527
  23   2.0000      -0.716731       -19.5032
  24   2.0000      -0.686859       -18.6904
  25   2.0000      -0.637128       -17.3371
  26   2.0000      -0.623174       -16.9574
  27   2.0000      -0.618653       -16.8344
  28   2.0000      -0.583804       -15.8861
  29   2.0000      -0.563852       -15.3432
  30   2.0000      -0.543084       -14.7781
  31   2.0000      -0.519422       -14.1342
  32   2.0000      -0.512932       -13.9576
  33   2.0000      -0.494753       -13.4629
  34   2.0000      -0.471615       -12.8333
  35   2.0000      -0.458036       -12.4638
  36   2.0000      -0.449975       -12.2444
  37   2.0000      -0.436672       -11.8825
  38   2.0000      -0.433937       -11.8080
  39   2.0000      -0.427003       -11.6193
  40   2.0000      -0.420233       -11.4351
  41   2.0000      -0.416365       -11.3299
  42   2.0000      -0.414183       -11.2705
  43   2.0000      -0.407398       -11.0859
  44   2.0000      -0.386773       -10.5246
  45   2.0000      -0.379221       -10.3191
  46   2.0000      -0.378368       -10.2959
  47   2.0000      -0.371960       -10.1215
  48   2.0000      -0.357941        -9.7401
  49   2.0000      -0.355046        -9.6613
  50   2.0000      -0.348456        -9.4820
  51   2.0000      -0.342636        -9.3236
  52   2.0000      -0.341137        -9.2828
  53   2.0000      -0.313548        -8.5321
  54   2.0000      -0.306862        -8.3501
  55   2.0000      -0.278148        -7.5688
  56   2.0000      -0.231154        -6.2900
  57   2.0000      -0.210364        -5.7243
  58   2.0000      -0.180246        -4.9047
  59   0.0000      -0.035160        -0.9568
  60   0.0000       0.004176         0.1136
  61   0.0000       0.039237         1.0677
  62   0.0000       0.046344         1.2611
  63   0.0000       0.053815         1.4644

MULLIKEN ATOMIC CHARGES
-----------------------
   0 N :   -0.155357
   1 C :    0.077016
   2 C :    0.005092
   3 C :    0.168807
   4 C :   -0.047679
   5 C :   -0.006397
   6 C :    0.072558
   7 C :    0.084426
   8 C :   -0.137840
   9 C :   -0.030948
  10 C :   -0.025123
  11 N :   -0.264839
  12 C :    0.115856
  13 C :    0.005575
  14 C :    0.085012
  15 C :   -0.107919
  16 H :    0.103365
  17 H :    0.016602
  18 H :    0.010612
  19 H :    0.029710
  20 H :    0.008035
  21 H :    0.006996
  22 H :   -0.046705
  23 H :   -0.040686
  24 H :   -0.056598
  25 H :    0.011935
  26 H :    0.012837
  27 H :    0.021352
  28 H :    0.005258
  29 H :    0.012854
  30 H :    0.025788
  31 H :    0.010788
  32 H :    0.006899
  33 H :    0.012885
  34 H :    0.005338
  35 H :    0.004492
Sum of atomic charges:    0.0000000

LOEWDIN ATOMIC CHARGES
----------------------
   0 N :   -0.034072
   1 C :    0.026322
   2 C :   -0.070161
   3 C :    0.027635
   4 C :   -0.062389
   5 C :   -0.023617
   6 C :   -0.007322
   7 C :   -0.026188
   8 C :   -0.061565
   9 C :   -0.017453
  10 C :   -0.053225
  11 N :   -0.039175
  12 C :    0.042849
  13 C :   -0.065673
  14 C :    0.027391
  15 C :   -0.171905
  16 H :    0.070065
  17 H :    0.021566
  18 H :    0.023984
  19 H :    0.026955
  20 H :    0.025743
  21 H :    0.020640
  22 H :    0.020551
  23 H :    0.027263
  24 H :    0.019146
  25 H :    0.034043
  26 H :    0.018170
  27 H :    0.025137
  28 H :    0.016416
  29 H :    0.024068
  30 H :    0.027684
  31 H :    0.025369
  32 H :    0.019659
  33 H :    0.027888
  34 H :    0.012297
  35 H :    0.021905

  Mayer bond orders larger than 0.100000
B(  0-N ,  1-C ) :   1.0389 B(  0-N ,  3-C ) :   1.1752 B(  0-N , 16-H ) :   0.9319
B(  1-C ,  2-C ) :   1.1028 B(  1-C , 17-H ) :   0.9361 B(  1-C , 18-H ) :   0.9522
B(  2-C , 19-H ) :   0.9651 B(  2-C , 20-H ) :   0.9579 B(  2-C , 21-H ) :   0.9629
B(  3-C ,  4-C ) :   1.2863 B(  3-C ,  8-C ) :   1.3000 B(  4-C ,  5-C ) :   1.3774
B(  4-C , 22-H ) :   0.9854 B(  5-C ,  6-C ) :   1.3608 B(  5-C , 23-H ) :   0.9839
B(  6-C ,  7-C ) :   1.3666 B(  6-C , 11-N ) :   0.9995 B(  7-C ,  8-C ) :   1.3239
B(  7-C ,  9-C ) :   1.0643 B(  8-C , 24-H ) :   0.9813 B(  9-C , 10-C ) :   1.9390
B(  9-C , 25-H ) :   0.9469 B( 10-C , 26-H ) :   0.9456 B( 10-C , 27-H ) :   0.9447
B( 11-N , 12-C ) :   0.9782 B( 11-N , 14-C ) :   1.1281 B( 12-C , 13-C ) :   1.1182
B( 12-C , 28-H ) :   0.9292 B( 12-C , 29-H ) :   0.9451 B( 13-C , 30-H ) :   0.9620
B( 13-C , 31-H ) :   0.9598 B( 13-C , 32-H ) :   0.9626 B( 14-C , 15-C ) :   1.8498
B( 14-C , 33-H ) :   0.9532 B( 15-C , 34-H ) :   0.9483 B( 15-C , 35-H ) :   0.9436

Dispersion correction           -0.069932407
FINAL SINGLE POINT ENERGY      -654.594672519547

DIPOLE MOMENT
-------------
                                X             Y             Z
Electronic contribution:     -0.07868       1.37456       4.63382
Nuclear contribution   :     -0.89637      -2.18598      -4.21322
                        -----------------------------------------
Total Dipole Moment    :     -0.97505      -0.81142       0.42060
                        -----------------------------------------
Magnitude (a.u.)       :      1.33643
Magnitude (Debye)      :      3.39692

Rotational constants in cm-1:     0.031825     0.009651     0.008071
Rotational constants in MHz :   954.092881   289.317437   241.958728

                             ****ORCA TERMINATED NORMALLY****
TOTAL RUN TIME: 0 days 0 hours 39 minutes 56 seconds 759 msec
