                         Program Version 4.2.0 -  RELEASE  -
|  1> # ORCA input file
|  2> # SCF done        -28.645169710518          0.000524372273
|  3> ! B3LYP/G D3BJ Opt RIJCOSX def2-SVP def2/J
|  4> * xyz 0 1
|  5>    C        1.61325         1.21886        -0.08660
|  6>    S        2.80405        -0.02210        -0.07838
|  7>    C        1.57703        -1.22805        -0.04358
|  8>    C        0.32676        -0.69753        -0.04079
|  9>    C        0.34706         0.72669        -0.06180
| 10>    C       -0.89728         1.56449        -0.00172
| 11>    C       -1.02263         2.20393         1.38603
| 12>    C       -2.12273         0.71039        -0.34651
| 13>    C       -2.11733        -0.62010         0.40124
| 14>    C       -0.94706        -1.48220        -0.06540
| 15>    H        1.92618         2.24400        -0.11090
| 16>    H        1.85775        -2.26263        -0.03104
| 17>    H       -0.81683         2.37589        -0.73521
| 18>    H       -1.05835         1.44329         2.16186
| 19>    H       -1.92680         2.80570         1.44614
| 20>    H       -0.16595         2.84398         1.58178
| 21>    H       -2.12598         0.50875        -1.42078
| 22>    H       -3.02957         1.27016        -0.10893
| 23>    H       -3.05532        -1.14931         0.22120
| 24>    H       -2.03769        -0.44161         1.47460
| 25>    H       -1.13220        -1.81603        -1.09215
| 26>    H       -0.85177        -2.37562         0.55544
| 27> *
| 28>
| 29>                          ****END OF INPUT****
 Total Charge           Charge          ....    0
 Multiplicity           Mult            ....    1
 Number of Electrons    NEL             ....   82
Dispersion correction           -0.044638868
FINAL SINGLE POINT ENERGY      -748.057070106245
Dispersion correction            ... done
Dispersion correction           -0.044231403
FINAL SINGLE POINT ENERGY      -748.059993589578
Dispersion correction            ... done
Dispersion correction           -0.044140235
FINAL SINGLE POINT ENERGY      -748.060080359171
Dispersion correction            ... done
FINAL SINGLE POINT ENERGY      -748.060054464935
FINAL SINGLE POINT ENERGY      -748.060007536005
Dispersion correction            ... done
Dispersion correction           -0.044086381
FINAL SINGLE POINT ENERGY      -748.060028239874
Dispersion correction            ... done
Dispersion correction           -0.044088077
FINAL SINGLE POINT ENERGY      -748.060026728622
Dispersion correction            ... done
                    ***********************HURRAY********************

CARTESIAN COORDINATES (ANGSTROEM)
---------------------------------
  C      1.648017    1.226231   -0.109745
  S      2.837477   -0.027347   -0.119283
  C      1.614888   -1.247471   -0.055781
  C      0.348685   -0.711933   -0.035892
  C      0.366607    0.728074   -0.061057
  C     -0.894741    1.566619    0.017870
  C     -1.031718    2.240874    1.394841
  C     -2.135667    0.715981   -0.327980
  C     -2.139229   -0.644524    0.375375
  C     -0.938190   -1.498610   -0.051474
  H      1.957437    2.270431   -0.135525
  H      1.894209   -2.300327   -0.045713
  H     -0.814623    2.372988   -0.731220
  H     -1.126719    1.493911    2.198237
  H     -1.919955    2.892954    1.427295
  H     -0.148232    2.856452    1.622733
  H     -2.173222    0.551338   -1.419226
  H     -3.042794    1.283233   -0.061089
  H     -3.072282   -1.183775    0.144296
  H     -2.124053   -0.497006    1.468773
  H     -1.113285   -1.874251   -1.076419
  H     -0.848020   -2.392891    0.585483

 Multiplicity           Mult            ....    1
 Number of Electrons    NEL             ....   82
 Basis Dimension        Dim             ....  204

ORBITAL ENERGIES
----------------

  NO   OCC          E(Eh)            E(eV)
   0   2.0000     -88.864155     -2418.1166
   1   2.0000     -10.199584      -277.5448
   2   2.0000     -10.198945      -277.5274
   3   2.0000     -10.194316      -277.4015
   4   2.0000     -10.189107      -277.2597
   5   2.0000     -10.186823      -277.1975
   6   2.0000     -10.185474      -277.1608
   7   2.0000     -10.185010      -277.1482
   8   2.0000     -10.183717      -277.1130
   9   2.0000     -10.179628      -277.0018
  10   2.0000      -7.959158      -216.5797
  11   2.0000      -5.927207      -161.2875
  12   2.0000      -5.923113      -161.1761
  13   2.0000      -5.920763      -161.1122
  14   2.0000      -0.874126       -23.7862
  15   2.0000      -0.813604       -22.1393
  16   2.0000      -0.766726       -20.8637
  17   2.0000      -0.722122       -19.6499
  18   2.0000      -0.697333       -18.9754
  19   2.0000      -0.666503       -18.1365
  20   2.0000      -0.607070       -16.5192
  21   2.0000      -0.573218       -15.5981
  22   2.0000      -0.559851       -15.2343
  23   2.0000      -0.501346       -13.6423
  24   2.0000      -0.491864       -13.3843
  25   2.0000      -0.460568       -12.5327
  26   2.0000      -0.428393       -11.6572
  27   2.0000      -0.427618       -11.6361
  28   2.0000      -0.416792       -11.3415
  29   2.0000      -0.401562       -10.9271
  30   2.0000      -0.394818       -10.7435
  31   2.0000      -0.391445       -10.6518
  32   2.0000      -0.369692       -10.0598
  33   2.0000      -0.364463        -9.9175
  34   2.0000      -0.347130        -9.4459
  35   2.0000      -0.332926        -9.0594
  36   2.0000      -0.326122        -8.8742
  37   2.0000      -0.319549        -8.6954
  38   2.0000      -0.314029        -8.5452
  39   2.0000      -0.235392        -6.4053
  40   2.0000      -0.225984        -6.1493
  41   0.0000      -0.013040        -0.3548
  42   0.0000       0.050293         1.3685
  43   0.0000       0.053870         1.4659
  44   0.0000       0.056825         1.5463
  45   0.0000       0.080202         2.1824

MULLIKEN ATOMIC CHARGES
-----------------------
   0 C :   -0.148384
   1 S :    0.089988
   2 C :   -0.144792
   3 C :   -0.046772
   4 C :    0.004321
   5 C :   -0.007891
   6 C :    0.050957
   7 C :    0.047720
   8 C :    0.009548
   9 C :    0.134741
  10 H :    0.008590
  11 H :    0.006176
  12 H :   -0.008471
  13 H :    0.007053
  14 H :    0.006561
  15 H :    0.006572
  16 H :   -0.003956
  17 H :   -0.013283
  18 H :   -0.007482
  19 H :    0.005035
  20 H :    0.006354
  21 H :   -0.002585
Sum of atomic charges:   -0.0000000

LOEWDIN ATOMIC CHARGES
----------------------
   0 C :   -0.204706
   1 S :    0.421613
   2 C :   -0.206907
   3 C :   -0.067315
   4 C :   -0.060215
   5 C :   -0.027004
   6 C :   -0.044889
   7 C :   -0.024664
   8 C :   -0.031080
   9 C :   -0.023165
  10 H :    0.019362
  11 H :    0.019794
  12 H :    0.027713
  13 H :    0.020784
  14 H :    0.019775
  15 H :    0.022023
  16 H :    0.020277
  17 H :    0.019541
  18 H :    0.021969
  19 H :    0.019461
  20 H :    0.029574
  21 H :    0.028060

  Mayer bond orders larger than 0.100000
B(  0-C ,  1-S ) :   1.1622 B(  0-C ,  4-C ) :   1.5461 B(  0-C , 10-H ) :   0.9637
B(  1-S ,  2-C ) :   1.1608 B(  2-C ,  3-C ) :   1.5471 B(  2-C , 11-H ) :   0.9652
B(  3-C ,  4-C ) :   1.3056 B(  3-C ,  9-C ) :   1.0415 B(  4-C ,  5-C ) :   0.9911
B(  5-C ,  6-C ) :   1.0755 B(  5-C ,  7-C ) :   1.0628 B(  5-C , 12-H ) :   0.8984
B(  6-C , 13-H ) :   0.9605 B(  6-C , 14-H ) :   0.9620 B(  6-C , 15-H ) :   0.9632
B(  7-C ,  8-C ) :   1.0762 B(  7-C , 16-H ) :   0.9359 B(  7-C , 17-H ) :   0.9329
B(  8-C ,  9-C ) :   1.0915 B(  8-C , 18-H ) :   0.9304 B(  8-C , 19-H ) :   0.9422
B(  9-C , 20-H ) :   0.9152 B(  9-C , 21-H ) :   0.9187

Dispersion correction           -0.044085136
FINAL SINGLE POINT ENERGY      -748.060017494568

DIPOLE MOMENT
-------------
                                X             Y             Z
Electronic contribution:     14.42135      -2.68505      -2.70666
Nuclear contribution   :    -14.81608       2.68919       2.70619
                        -----------------------------------------
Total Dipole Moment    :     -0.39474       0.00414      -0.00047
                        -----------------------------------------
Magnitude (a.u.)       :      0.39476
Magnitude (Debye)      :      1.00339

Rotational constants in cm-1:     0.068088     0.030977     0.023142
Rotational constants in MHz :  2041.212570   928.657199   693.772950

                             ****ORCA TERMINATED NORMALLY****
TOTAL RUN TIME: 0 days 0 hours 9 minutes 29 seconds 308 msec
