                         Program Version 4.2.0 -  RELEASE  -
|  1> # ORCA input file
|  2> # SCF done        -39.708250253285          0.000573058850
|  3> ! B3LYP/G D3BJ Opt RIJCOSX def2-SVP def2/J
|  4> * xyz 0 1
|  5>    C        0.98996         0.39595         0.37887
|  6>    C        0.58831        -0.87993         0.26594
|  7>    C       -0.83729        -0.88374        -0.09074
|  8>    C       -1.58049        -2.04579        -0.33270
|  9>    N       -2.17907        -3.00706        -0.52179
| 10>    C       -1.27895         0.39980        -0.14791
| 11>    C       -0.15731         1.27166         0.15028
| 12>    C       -0.12638         2.63573         0.17308
| 13>    C       -1.24244         3.59523         0.03181
| 14>    C       -0.69926         4.81319        -0.21370
| 15>    C        0.75338         4.70293        -0.16560
| 16>    C        1.09087         3.41361         0.11691
| 17>    C        1.62999         5.77632        -0.37389
| 18>    N        2.33780         6.66432        -0.54135
| 19>    C       -2.65318         3.35270         0.23761
| 20>    C       -3.16076         2.48654         1.10969
| 21>    H        1.97130         0.73802         0.64341
| 22>    H        1.17186        -1.77249         0.39325
| 23>    H       -2.26124         0.72708        -0.42570
| 24>    H       -1.22361         5.73690        -0.37397
| 25>    H        2.08543         3.01813         0.18615
| 26>    H       -3.31361         4.00911        -0.31568
| 27>    H       -2.53636         1.86545         1.73053
| 28>    H       -4.22342         2.38825         1.24928
| 29> *
| 30>
| 31>                          ****END OF INPUT****
 Total Charge           Charge          ....    0
 Multiplicity           Mult            ....    1
 Number of Electrons    NEL             ....  106
Dispersion correction           -0.053925418
FINAL SINGLE POINT ENERGY      -647.255886176864
Dispersion correction            ... done
Dispersion correction           -0.053334211
FINAL SINGLE POINT ENERGY      -647.260886228877
Dispersion correction            ... done
Dispersion correction           -0.053622451
FINAL SINGLE POINT ENERGY      -647.260142896700
Dispersion correction            ... done
FINAL SINGLE POINT ENERGY      -647.261157662811
FINAL SINGLE POINT ENERGY      -647.261176569130
Dispersion correction            ... done
Dispersion correction           -0.053307261
FINAL SINGLE POINT ENERGY      -647.261183159370
Dispersion correction            ... done
Dispersion correction           -0.053296573
FINAL SINGLE POINT ENERGY      -647.261188956940
Dispersion correction            ... done
                    ***********************HURRAY********************

CARTESIAN COORDINATES (ANGSTROEM)
---------------------------------
  C      1.033245    0.403547    0.313080
  C      0.648652   -0.890208    0.219971
  C     -0.807801   -0.925029   -0.065299
  C     -1.557251   -2.117799   -0.263005
  N     -2.152080   -3.104809   -0.413921
  C     -1.286260    0.354329   -0.112349
  C     -0.156642    1.258769    0.132376
  C     -0.140623    2.631730    0.152034
  C     -1.263040    3.610972    0.034380
  C     -0.696945    4.835134   -0.187066
  C      0.769073    4.710729   -0.144790
  C      1.098923    3.405466    0.098694
  C      1.686095    5.781829   -0.337663
  N      2.432600    6.658743   -0.491947
  C     -2.693793    3.405655    0.238369
  C     -3.270573    2.522697    1.070586
  H      2.033055    0.768112    0.534448
  H      1.270013   -1.777142    0.332309
  H     -2.300253    0.657056   -0.347263
  H     -1.228332    5.776841   -0.318924
  H      2.104188    2.996699    0.146350
  H     -3.335179    4.118439   -0.292905
  H     -2.684633    1.833894    1.682534
  H     -4.356909    2.486257    1.183779

 Multiplicity           Mult            ....    1
 Number of Electrons    NEL             ....  106
 Basis Dimension        Dim             ....  264

ORBITAL ENERGIES
----------------

  NO   OCC          E(Eh)            E(eV)
   0   2.0000     -14.344312      -390.3286
   1   2.0000     -14.343215      -390.2987
   2   2.0000     -10.257674      -279.1255
   3   2.0000     -10.257057      -279.1087
   4   2.0000     -10.256244      -279.0866
   5   2.0000     -10.255524      -279.0670
   6   2.0000     -10.243467      -278.7389
   7   2.0000     -10.242470      -278.7118
   8   2.0000     -10.233576      -278.4698
   9   2.0000     -10.233321      -278.4628
  10   2.0000     -10.232637      -278.4442
  11   2.0000     -10.231396      -278.4104
  12   2.0000     -10.230273      -278.3799
  13   2.0000     -10.225603      -278.2528
  14   2.0000     -10.222928      -278.1800
  15   2.0000     -10.213855      -277.9331
  16   2.0000      -0.925341       -25.1798
  17   2.0000      -0.916327       -24.9345
  18   2.0000      -0.905883       -24.6503
  19   2.0000      -0.892014       -24.2729
  20   2.0000      -0.810550       -22.0562
  21   2.0000      -0.795457       -21.6455
  22   2.0000      -0.754342       -20.5267
  23   2.0000      -0.742529       -20.2052
  24   2.0000      -0.715697       -19.4751
  25   2.0000      -0.648947       -17.6587
  26   2.0000      -0.631176       -17.1752
  27   2.0000      -0.617752       -16.8099
  28   2.0000      -0.579963       -15.7816
  29   2.0000      -0.564384       -15.3577
  30   2.0000      -0.537916       -14.6374
  31   2.0000      -0.525618       -14.3028
  32   2.0000      -0.493625       -13.4322
  33   2.0000      -0.462459       -12.5841
  34   2.0000      -0.457214       -12.4414
  35   2.0000      -0.453993       -12.3538
  36   2.0000      -0.442100       -12.0301
  37   2.0000      -0.434391       -11.8204
  38   2.0000      -0.428973       -11.6729
  39   2.0000      -0.427637       -11.6366
  40   2.0000      -0.418053       -11.3758
  41   2.0000      -0.403798       -10.9879
  42   2.0000      -0.380313       -10.3488
  43   2.0000      -0.376851       -10.2546
  44   2.0000      -0.374171       -10.1817
  45   2.0000      -0.372785       -10.1440
  46   2.0000      -0.354952        -9.6587
  47   2.0000      -0.349048        -9.4981
  48   2.0000      -0.346837        -9.4379
  49   2.0000      -0.315935        -8.5970
  50   2.0000      -0.284114        -7.7311
  51   2.0000      -0.265721        -7.2306
  52   2.0000      -0.245967        -6.6931
  53   0.0000      -0.156522        -4.2592
  54   0.0000      -0.056136        -1.5275
  55   0.0000      -0.032829        -0.8933
  56   0.0000      -0.014345        -0.3904
  57   0.0000       0.011952         0.3252

MULLIKEN ATOMIC CHARGES
-----------------------
   0 C :   -0.003324
   1 C :    0.066079
   2 C :   -0.119089
   3 C :   -0.106554
   4 N :    0.098675
   5 C :    0.008225
   6 C :    0.018146
   7 C :    0.060666
   8 C :    0.053118
   9 C :    0.003459
  10 C :   -0.081050
  11 C :   -0.017893
  12 C :   -0.107457
  13 N :    0.100183
  14 C :   -0.026368
  15 C :   -0.032192
  16 H :   -0.004781
  17 H :    0.002852
  18 H :    0.008841
  19 H :   -0.004803
  20 H :   -0.002661
  21 H :    0.007555
  22 H :    0.040429
  23 H :    0.037942
Sum of atomic charges:   -0.0000000

LOEWDIN ATOMIC CHARGES
----------------------
   0 C :   -0.031116
   1 C :    0.017890
   2 C :   -0.054910
   3 C :   -0.028006
   4 N :   -0.049433
   5 C :    0.006439
   6 C :    0.030817
   7 C :    0.038052
   8 C :   -0.030708
   9 C :    0.011256
  10 C :   -0.050750
  11 C :    0.003547
  12 C :   -0.026810
  13 N :   -0.047930
  14 C :   -0.022879
  15 C :   -0.036571
  16 H :    0.030779
  17 H :    0.036899
  18 H :    0.037143
  19 H :    0.034958
  20 H :    0.034979
  21 H :    0.037419
  22 H :    0.026551
  23 H :    0.032384

  Mayer bond orders larger than 0.100000
B(  0-C ,  1-C ) :   1.6548 B(  0-C ,  6-C ) :   1.0809 B(  0-C , 16-H ) :   0.9973
B(  1-C ,  2-C ) :   1.0632 B(  1-C , 17-H ) :   1.0063 B(  2-C ,  3-C ) :   1.0787
B(  2-C ,  5-C ) :   1.6268 B(  3-C ,  4-N ) :   2.9957 B(  5-C ,  6-C ) :   1.0674
B(  5-C , 18-H ) :   1.0050 B(  6-C ,  7-C ) :   1.4749 B(  7-C ,  8-C ) :   1.0471
B(  7-C , 11-C ) :   1.0769 B(  8-C ,  9-C ) :   1.5915 B(  8-C , 14-C ) :   1.0918
B(  9-C , 10-C ) :   1.0786 B(  9-C , 19-H ) :   1.0110 B( 10-C , 11-C ) :   1.5973
B( 10-C , 12-C ) :   1.0712 B( 11-C , 20-H ) :   1.0153 B( 12-C , 13-N ) :   3.0011
B( 14-C , 15-C ) :   1.9065 B( 14-C , 21-H ) :   0.9481 B( 15-C , 22-H ) :   0.9536
B( 15-C , 23-H ) :   0.9440

Dispersion correction           -0.053289540
FINAL SINGLE POINT ENERGY      -647.261192362383

DIPOLE MOMENT
-------------
                                X             Y             Z
Electronic contribution:      4.56720      -0.40425      -2.15105
Nuclear contribution   :     -4.86665       0.56590       2.58538
                        -----------------------------------------
Total Dipole Moment    :     -0.29945       0.16165       0.43433
                        -----------------------------------------
Magnitude (a.u.)       :      0.55177
Magnitude (Debye)      :      1.40248

Rotational constants in cm-1:     0.038201     0.009470     0.007763
Rotational constants in MHz :  1145.223590   283.912023   232.743516

                             ****ORCA TERMINATED NORMALLY****
TOTAL RUN TIME: 0 days 0 hours 18 minutes 45 seconds 924 msec
