                         Program Version 4.2.0 -  RELEASE  -
|  1> # ORCA input file
|  2> # SCF done        -27.013693715714          0.000747736632
|  3> ! B3LYP/G D3BJ Opt RIJCOSX def2-SVP def2/J
|  4> * xyz 0 1
|  5>    C       -1.27091         1.20172         0.03047
|  6>    N       -2.08342         0.10693        -0.09233
|  7>    C       -1.36579        -1.04806        -0.16285
|  8>    C       -0.03433        -0.70725        -0.08586
|  9>    C        0.01125         0.71725         0.03657
| 10>    N        1.32208         1.10173         0.11959
| 11>    C        2.09477        -0.02956         0.05036
| 12>    C        1.32920        -1.16312        -0.07530
| 13>    C        1.83789        -2.50560        -0.17626
| 14>    C        1.09496        -3.60070        -0.30969
| 15>    H       -1.66844         2.19360         0.09892
| 16>    H       -3.08816         0.15423        -0.12586
| 17>    H       -1.85868        -1.99412        -0.25879
| 18>    H        1.66814         2.04065         0.20567
| 19>    H        3.16568         0.04543         0.09684
| 20>    H        2.91771        -2.58820        -0.13651
| 21>    H        0.02152        -3.55018        -0.35256
| 22>    H        1.53639        -4.57995        -0.38139
| 23> *
| 24>
| 25>                          ****END OF INPUT****
 Total Charge           Charge          ....    0
 Multiplicity           Mult            ....    1
 Number of Electrons    NEL             ....   70
Dispersion correction           -0.032225768
FINAL SINGLE POINT ENERGY      -418.852481114749
Dispersion correction            ... done
Dispersion correction           -0.032223313
FINAL SINGLE POINT ENERGY      -418.855501188528
Dispersion correction            ... done
Dispersion correction           -0.032209346
FINAL SINGLE POINT ENERGY      -418.855573090110
Dispersion correction            ... done
Dispersion correction           -0.032193056
FINAL SINGLE POINT ENERGY      -418.855578952425
Dispersion correction            ... done
Dispersion correction           -0.032182175
FINAL SINGLE POINT ENERGY      -418.855575469075
Dispersion correction            ... done
                    ***********************HURRAY********************

CARTESIAN COORDINATES (ANGSTROEM)
---------------------------------
  C     -1.289398    1.238086    0.033414
  N     -2.108177    0.129786   -0.091387
  C     -1.391781   -1.042741   -0.167947
  C     -0.045901   -0.696311   -0.088487
  C      0.000575    0.732608    0.040622
  N      1.328395    1.111047    0.124821
  C      2.109315   -0.028161    0.049260
  C      1.329605   -1.166616   -0.081945
  C      1.844827   -2.517090   -0.187540
  C      1.118031   -3.642489   -0.299405
  H     -1.696155    2.242198    0.104416
  H     -3.116877    0.182024   -0.133606
  H     -1.894423   -1.998958   -0.276930
  H      1.683863    2.050080    0.224278
  H      3.195143    0.042568    0.100702
  H      2.938651   -2.599964   -0.170942
  H      0.024908   -3.621088   -0.322440
  H      1.599259   -4.620181   -0.375865

 Multiplicity           Mult            ....    1
 Number of Electrons    NEL             ....   70
 Basis Dimension        Dim             ....  180

ORBITAL ENERGIES
----------------

  NO   OCC          E(Eh)            E(eV)
   0   2.0000     -14.371894      -391.0791
   1   2.0000     -14.362624      -390.8269
   2   2.0000     -10.211025      -277.8561
   3   2.0000     -10.202156      -277.6148
   4   2.0000     -10.200700      -277.5752
   5   2.0000     -10.198684      -277.5203
   6   2.0000     -10.177342      -276.9396
   7   2.0000     -10.171615      -276.7837
   8   2.0000     -10.162306      -276.5304
   9   2.0000     -10.162181      -276.5270
  10   2.0000      -0.970949       -26.4209
  11   2.0000      -0.942813       -25.6553
  12   2.0000      -0.786068       -21.3900
  13   2.0000      -0.748890       -20.3783
  14   2.0000      -0.718324       -19.5466
  15   2.0000      -0.694511       -18.8986
  16   2.0000      -0.624161       -16.9843
  17   2.0000      -0.595044       -16.1920
  18   2.0000      -0.561275       -15.2731
  19   2.0000      -0.534718       -14.5504
  20   2.0000      -0.502124       -13.6635
  21   2.0000      -0.492312       -13.3965
  22   2.0000      -0.453679       -12.3452
  23   2.0000      -0.445897       -12.1335
  24   2.0000      -0.425491       -11.5782
  25   2.0000      -0.421200       -11.4614
  26   2.0000      -0.404924       -11.0185
  27   2.0000      -0.373412       -10.1610
  28   2.0000      -0.371047       -10.0967
  29   2.0000      -0.366277        -9.9669
  30   2.0000      -0.329867        -8.9761
  31   2.0000      -0.300100        -8.1661
  32   2.0000      -0.229840        -6.2543
  33   2.0000      -0.216101        -5.8804
  34   2.0000      -0.171215        -4.6590
  35   0.0000      -0.005788        -0.1575
  36   0.0000       0.035557         0.9676
  37   0.0000       0.051898         1.4122
  38   0.0000       0.058971         1.6047
  39   0.0000       0.089969         2.4482

MULLIKEN ATOMIC CHARGES
-----------------------
   0 C :   -0.101601
   1 N :   -0.065331
   2 C :   -0.058584
   3 C :    0.038721
   4 C :    0.117870
   5 N :   -0.079616
   6 C :    0.011177
   7 C :    0.033422
   8 C :    0.000239
   9 C :   -0.051816
  10 H :   -0.025842
  11 H :    0.118538
  12 H :   -0.012676
  13 H :    0.113804
  14 H :   -0.013088
  15 H :   -0.031577
  16 H :    0.000981
  17 H :    0.005379
Sum of atomic charges:   -0.0000000

LOEWDIN ATOMIC CHARGES
----------------------
   0 C :   -0.081135
   1 N :    0.089385
   2 C :   -0.044369
   3 C :   -0.071654
   4 C :   -0.025784
   5 N :    0.044051
   6 C :    0.008887
   7 C :   -0.083147
   8 C :   -0.022824
   9 C :   -0.086904
  10 H :    0.013657
  11 H :    0.085471
  12 H :    0.014855
  13 H :    0.082287
  14 H :    0.018593
  15 H :    0.023893
  16 H :    0.016459
  17 H :    0.018277

  Mayer bond orders larger than 0.100000
B(  0-C ,  1-N ) :   1.1911 B(  0-C ,  2-C ) :   0.1399 B(  0-C ,  4-C ) :   1.3634
B(  0-C , 10-H ) :   1.0070 B(  1-N ,  2-C ) :   1.2351 B(  1-N , 11-H ) :   0.9407
B(  2-C ,  3-C ) :   1.3882 B(  2-C , 12-H ) :   0.9846 B(  3-C ,  4-C ) :   1.3034
B(  3-C ,  7-C ) :   1.1099 B(  4-C ,  5-N ) :   1.1145 B(  5-N ,  6-C ) :   1.1665
B(  5-N , 13-H ) :   0.9456 B(  6-C ,  7-C ) :   1.4878 B(  6-C , 14-H ) :   0.9817
B(  7-C ,  8-C ) :   1.1394 B(  8-C ,  9-C ) :   1.8908 B(  8-C , 15-H ) :   0.9533
B(  9-C , 16-H ) :   0.9491 B(  9-C , 17-H ) :   0.9438

Dispersion correction           -0.032178485
FINAL SINGLE POINT ENERGY      -418.855572206485

DIPOLE MOMENT
-------------
                                X             Y             Z
Electronic contribution:     -0.98523       4.52060       0.36659
Nuclear contribution   :      0.51494      -3.44783      -0.29597
                        -----------------------------------------
Total Dipole Moment    :     -0.47029       1.07277       0.07062
                        -----------------------------------------
Magnitude (a.u.)       :      1.17345
Magnitude (Debye)      :      2.98267

Rotational constants in cm-1:     0.081044     0.041151     0.027293
Rotational constants in MHz :  2429.639771  1233.678533   818.225922

                             ****ORCA TERMINATED NORMALLY****
TOTAL RUN TIME: 0 days 0 hours 6 minutes 37 seconds 990 msec
