                         Program Version 4.2.0 -  RELEASE  -
|  1> # ORCA input file
|  2> # SCF done        -29.984294829221          0.000787196035
|  3> ! B3LYP/G D3BJ Opt RIJCOSX def2-SVP def2/J
|  4> * xyz 0 1
|  5>    C       -0.91397         1.49572         0.04719
|  6>    C        0.28480         0.75879         0.07798
|  7>    N        1.54944         1.12751         0.17432
|  8>    O        2.26434         0.00507         0.15511
|  9>    N        1.51895        -1.09179         0.04860
| 10>    C        0.26605        -0.68207        -0.00352
| 11>    C       -0.95225        -1.40465        -0.11886
| 12>    C       -2.09039        -0.63282        -0.14511
| 13>    C       -2.06944         0.77859        -0.06415
| 14>    C       -0.90013        -2.85391        -0.19322
| 15>    C       -1.93962        -3.66784        -0.34989
| 16>    H       -0.89420         2.57045         0.11059
| 17>    H       -3.05288        -1.11328        -0.22900
| 18>    H       -3.01586         1.29854        -0.09236
| 19>    H        0.10018        -3.25959        -0.11258
| 20>    H       -2.95232        -3.31217        -0.44243
| 21>    H       -1.80763        -4.73490        -0.39371
| 22> *
| 23>
| 24>                          ****END OF INPUT****
 Total Charge           Charge          ....    0
 Multiplicity           Mult            ....    1
 Number of Electrons    NEL             ....   76
Dispersion correction           -0.033665395
FINAL SINGLE POINT ENERGY      -492.743576442595
Dispersion correction            ... done
Dispersion correction           -0.033509382
FINAL SINGLE POINT ENERGY      -492.746428699184
Dispersion correction            ... done
Dispersion correction           -0.033479929
FINAL SINGLE POINT ENERGY      -492.746692788467
Dispersion correction            ... done
FINAL SINGLE POINT ENERGY      -492.746740189162
FINAL SINGLE POINT ENERGY      -492.746744828060
Dispersion correction            ... done
Dispersion correction           -0.033490341
FINAL SINGLE POINT ENERGY      -492.746745828383
Dispersion correction            ... done
Dispersion correction           -0.033489970
FINAL SINGLE POINT ENERGY      -492.746746982166
Dispersion correction            ... done
                    ***********************HURRAY********************

CARTESIAN COORDINATES (ANGSTROEM)
---------------------------------
  C     -0.909192    1.521196    0.047485
  C      0.298556    0.766525    0.090563
  N      1.557157    1.153723    0.212234
  O      2.278800    0.005921    0.195160
  N      1.519066   -1.106862    0.065510
  C      0.275280   -0.668865   -0.002100
  C     -0.952349   -1.405652   -0.137581
  C     -2.094601   -0.628515   -0.165965
  C     -2.072379    0.802371   -0.075434
  C     -0.901491   -2.867645   -0.234639
  C     -1.948315   -3.701000   -0.316103
  H     -0.891938    2.609243    0.114410
  H     -3.066213   -1.114631   -0.271003
  H     -3.027571    1.331118   -0.111432
  H      0.108784   -3.287209   -0.237011
  H     -2.983431   -3.347734   -0.315088
  H     -1.795094   -4.780334   -0.390044

 Multiplicity           Mult            ....    1
 Number of Electrons    NEL             ....   76
 Basis Dimension        Dim             ....  184

ORBITAL ENERGIES
----------------

  NO   OCC          E(Eh)            E(eV)
   0   2.0000     -19.267169      -524.2863
   1   2.0000     -14.398578      -391.8052
   2   2.0000     -14.397203      -391.7678
   3   2.0000     -10.245118      -278.7838
   4   2.0000     -10.244779      -278.7746
   5   2.0000     -10.231163      -278.4041
   6   2.0000     -10.224691      -278.2280
   7   2.0000     -10.223496      -278.1955
   8   2.0000     -10.221591      -278.1436
   9   2.0000     -10.211719      -277.8750
  10   2.0000     -10.206654      -277.7372
  11   2.0000      -1.198485       -32.6124
  12   2.0000      -0.917410       -24.9640
  13   2.0000      -0.903284       -24.5796
  14   2.0000      -0.828970       -22.5574
  15   2.0000      -0.803208       -21.8564
  16   2.0000      -0.744915       -20.2702
  17   2.0000      -0.683661       -18.6034
  18   2.0000      -0.657356       -17.8876
  19   2.0000      -0.628735       -17.1087
  20   2.0000      -0.572759       -15.5856
  21   2.0000      -0.540998       -14.7213
  22   2.0000      -0.530078       -14.4242
  23   2.0000      -0.513867       -13.9830
  24   2.0000      -0.497062       -13.5257
  25   2.0000      -0.479887       -13.0584
  26   2.0000      -0.449530       -12.2323
  27   2.0000      -0.430791       -11.7224
  28   2.0000      -0.407561       -11.0903
  29   2.0000      -0.400867       -10.9081
  30   2.0000      -0.390769       -10.6334
  31   2.0000      -0.375612       -10.2209
  32   2.0000      -0.354025        -9.6335
  33   2.0000      -0.336479        -9.1561
  34   2.0000      -0.322842        -8.7850
  35   2.0000      -0.308644        -8.3986
  36   2.0000      -0.297897        -8.1062
  37   2.0000      -0.240504        -6.5444
  38   0.0000      -0.101679        -2.7668
  39   0.0000      -0.036181        -0.9845
  40   0.0000      -0.004664        -0.1269
  41   0.0000       0.043479         1.1831
  42   0.0000       0.051278         1.3953

MULLIKEN ATOMIC CHARGES
-----------------------
   0 C :   -0.024532
   1 C :    0.021967
   2 N :    0.042506
   3 O :   -0.124992
   4 N :    0.034422
   5 C :   -0.053485
   6 C :    0.090620
   7 C :   -0.050481
   8 C :    0.045352
   9 C :   -0.007789
  10 C :   -0.013377
  11 H :   -0.005400
  12 H :   -0.019566
  13 H :   -0.002017
  14 H :    0.009006
  15 H :    0.019832
  16 H :    0.037935
Sum of atomic charges:   -0.0000000

LOEWDIN ATOMIC CHARGES
----------------------
   0 C :   -0.020100
   1 C :   -0.056662
   2 N :   -0.023216
   3 O :    0.056008
   4 N :   -0.024516
   5 C :   -0.050490
   6 C :   -0.022146
   7 C :   -0.006544
   8 C :   -0.006843
   9 C :   -0.019542
  10 C :   -0.024428
  11 H :    0.040520
  12 H :    0.030781
  13 H :    0.034879
  14 H :    0.037538
  15 H :    0.022247
  16 H :    0.032515

  Mayer bond orders larger than 0.100000
B(  0-C ,  1-C ) :   1.1631 B(  0-C ,  6-C ) :   0.1068 B(  0-C ,  8-C ) :   1.5092
B(  0-C , 11-H ) :   1.0163 B(  1-C ,  2-N ) :   1.5680 B(  1-C ,  5-C ) :   1.1373
B(  2-N ,  3-O ) :   1.0497 B(  2-N ,  4-N ) :   0.1998 B(  3-O ,  4-N ) :   1.0461
B(  4-N ,  5-C ) :   1.5944 B(  5-C ,  6-C ) :   1.1389 B(  6-C ,  7-C ) :   1.5068
B(  6-C ,  9-C ) :   1.1051 B(  7-C ,  8-C ) :   1.1963 B(  7-C , 12-H ) :   0.9846
B(  8-C , 13-H ) :   0.9791 B(  9-C , 10-C ) :   1.9063 B(  9-C , 14-H ) :   0.9631
B( 10-C , 15-H ) :   0.9455 B( 10-C , 16-H ) :   0.9465

Dispersion correction           -0.033488604
FINAL SINGLE POINT ENERGY      -492.746747832237

DIPOLE MOMENT
-------------
                                X             Y             Z
Electronic contribution:      8.08414       4.73985       0.85452
Nuclear contribution   :     -9.64814      -4.87942      -0.98618
                        -----------------------------------------
Total Dipole Moment    :     -1.56400      -0.13957      -0.13166
                        -----------------------------------------
Magnitude (a.u.)       :      1.57572
Magnitude (Debye)      :      4.00516

Rotational constants in cm-1:     0.065601     0.034521     0.022620
Rotational constants in MHz :  1966.677090  1034.918090   678.135474

                             ****ORCA TERMINATED NORMALLY****
TOTAL RUN TIME: 0 days 0 hours 9 minutes 10 seconds 684 msec
