                         Program Version 4.2.0 -  RELEASE  -
|  1> # ORCA input file
|  2> # SCF done        -25.637083435212          0.000617897497
|  3> ! B3LYP/G D3BJ Opt RIJCOSX def2-SVP def2/J
|  4> * xyz 0 1
|  5>    C       -1.08239         0.06715         0.00617
|  6>    N       -0.22537         1.11741        -0.03020
|  7>    C       -0.63597         2.49199         0.07807
|  8>    C       -0.51277         3.00500         1.51331
|  9>    C        1.06114         0.64098        -0.08840
| 10>    C        0.98817        -0.74166        -0.10512
| 11>    C       -0.36423        -1.09943        -0.04662
| 12>    C        2.21741         1.49678        -0.13870
| 13>    C        3.47987         1.07570        -0.12337
| 14>    H       -2.14312         0.22212         0.05833
| 15>    H       -1.67791         2.55860        -0.24824
| 16>    H       -0.03307         3.10955        -0.59452
| 17>    H       -1.13263         2.40800         2.17844
| 18>    H       -0.83473         4.04160         1.57016
| 19>    H        0.51799         2.93729         1.85299
| 20>    H        1.81929        -1.41595        -0.16100
| 21>    H       -0.76482        -2.09401        -0.04478
| 22>    H        2.02544         2.56091        -0.19461
| 23>    H        3.73156         0.03165        -0.06311
| 24>    H        4.30327         1.76673        -0.17102
| 25> *
| 26>
| 27>                          ****END OF INPUT****
 Total Charge           Charge          ....    0
 Multiplicity           Mult            ....    1
 Number of Electrons    NEL             ....   66
Dispersion correction           -0.033281548
FINAL SINGLE POINT ENERGY      -365.967103585167
Dispersion correction            ... done
Dispersion correction           -0.033074162
FINAL SINGLE POINT ENERGY      -365.970368638684
Dispersion correction            ... done
Dispersion correction           -0.033064412
FINAL SINGLE POINT ENERGY      -365.970492774804
Dispersion correction            ... done
FINAL SINGLE POINT ENERGY      -365.970505803179
Dispersion correction            ... done
Dispersion correction           -0.033068744
FINAL SINGLE POINT ENERGY      -365.970494784958
Dispersion correction            ... done
Dispersion correction           -0.033072372
FINAL SINGLE POINT ENERGY      -365.970487951613
Dispersion correction            ... done
                    ***********************HURRAY********************

CARTESIAN COORDINATES (ANGSTROEM)
---------------------------------
  C     -1.107891    0.068849   -0.004162
  N     -0.223499    1.115273   -0.058700
  C     -0.615156    2.507829    0.086025
  C     -0.541222    2.994143    1.530305
  C      1.074362    0.619566   -0.098721
  C      0.979572   -0.772228   -0.081834
  C     -0.392573   -1.117159   -0.021935
  C      2.237551    1.486131   -0.160392
  C      3.523775    1.094901   -0.152343
  H     -2.179258    0.254857    0.043085
  H     -1.641406    2.600892   -0.301345
  H      0.015802    3.127792   -0.568052
  H     -1.182220    2.377045    2.176754
  H     -0.880830    4.039359    1.605467
  H      0.487646    2.931586    1.916094
  H      1.822866   -1.457917   -0.126543
  H     -0.818213   -2.118376   -0.005205
  H      2.035037    2.560131   -0.228423
  H      3.810662    0.042271   -0.083780
  H      4.332123    1.825465   -0.218515

 Multiplicity           Mult            ....    1
 Number of Electrons    NEL             ....   66
 Basis Dimension        Dim             ....  181

ORBITAL ENERGIES
----------------

  NO   OCC          E(Eh)            E(eV)
   0   2.0000     -14.371743      -391.0750
   1   2.0000     -10.237781      -278.5842
   2   2.0000     -10.204886      -277.6891
   3   2.0000     -10.202913      -277.6354
   4   2.0000     -10.193821      -277.3880
   5   2.0000     -10.193037      -277.3666
   6   2.0000     -10.178388      -276.9680
   7   2.0000     -10.167999      -276.6853
   8   2.0000     -10.166363      -276.6408
   9   2.0000      -0.975920       -26.5561
  10   2.0000      -0.807923       -21.9847
  11   2.0000      -0.775835       -21.1115
  12   2.0000      -0.726669       -19.7737
  13   2.0000      -0.696836       -18.9619
  14   2.0000      -0.637123       -17.3370
  15   2.0000      -0.594467       -16.1763
  16   2.0000      -0.566554       -15.4167
  17   2.0000      -0.531580       -14.4650
  18   2.0000      -0.505837       -13.7645
  19   2.0000      -0.468978       -12.7615
  20   2.0000      -0.455560       -12.3964
  21   2.0000      -0.443871       -12.0783
  22   2.0000      -0.423655       -11.5282
  23   2.0000      -0.411515       -11.1979
  24   2.0000      -0.393076       -10.6961
  25   2.0000      -0.385891       -10.5006
  26   2.0000      -0.379466       -10.3258
  27   2.0000      -0.373209       -10.1555
  28   2.0000      -0.359118        -9.7721
  29   2.0000      -0.348203        -9.4751
  30   2.0000      -0.292345        -7.9551
  31   2.0000      -0.238337        -6.4855
  32   2.0000      -0.194650        -5.2967
  33   0.0000      -0.020326        -0.5531
  34   0.0000       0.048249         1.3129
  35   0.0000       0.058223         1.5843
  36   0.0000       0.077719         2.1148
  37   0.0000       0.086388         2.3507

MULLIKEN ATOMIC CHARGES
-----------------------
   0 C :    0.049090
   1 N :   -0.193481
   2 C :    0.096375
   3 C :    0.013660
   4 C :    0.098217
   5 C :   -0.061581
   6 C :    0.002261
   7 C :   -0.005476
   8 C :   -0.040409
   9 H :   -0.008767
  10 H :    0.012194
  11 H :    0.025447
  12 H :    0.021607
  13 H :    0.015848
  14 H :    0.027098
  15 H :   -0.030314
  16 H :   -0.025787
  17 H :   -0.021939
  18 H :    0.009930
  19 H :    0.016026
Sum of atomic charges:   -0.0000000

LOEWDIN ATOMIC CHARGES
----------------------
   0 C :   -0.024386
   1 N :    0.053823
   2 C :    0.042904
   3 C :   -0.059483
   4 C :   -0.028425
   5 C :   -0.066986
   6 C :   -0.078062
   7 C :   -0.040739
   8 C :   -0.062177
   9 H :    0.016330
  10 H :    0.027217
  11 H :    0.024899
  12 H :    0.028025
  13 H :    0.027996
  14 H :    0.028583
  15 H :    0.020939
  16 H :    0.021964
  17 H :    0.024835
  18 H :    0.020048
  19 H :    0.022694

  Mayer bond orders larger than 0.100000
B(  0-C ,  1-N ) :   1.2012 B(  0-C ,  6-C ) :   1.4382 B(  0-C ,  9-H ) :   0.9861
B(  1-N ,  2-C ) :   0.9796 B(  1-N ,  4-C ) :   1.1584 B(  2-C ,  3-C ) :   1.1114
B(  2-C , 10-H ) :   0.9441 B(  2-C , 11-H ) :   0.9423 B(  3-C , 12-H ) :   0.9628
B(  3-C , 13-H ) :   0.9624 B(  3-C , 14-H ) :   0.9648 B(  4-C ,  5-C ) :   1.4507
B(  4-C ,  7-C ) :   1.0990 B(  5-C ,  6-C ) :   1.3154 B(  5-C , 15-H ) :   1.0024
B(  6-C , 16-H ) :   1.0020 B(  7-C ,  8-C ) :   1.9207 B(  7-C , 17-H ) :   0.9427
B(  8-C , 18-H ) :   0.9518 B(  8-C , 19-H ) :   0.9428

Dispersion correction           -0.033071580
FINAL SINGLE POINT ENERGY      -365.970483733730

DIPOLE MOMENT
-------------
                                X             Y             Z
Electronic contribution:     -0.38063      -4.70113      -2.42930
Nuclear contribution   :     -0.06847       5.42470       2.53486
                        -----------------------------------------
Total Dipole Moment    :     -0.44909       0.72357       0.10556
                        -----------------------------------------
Magnitude (a.u.)       :      0.85813
Magnitude (Debye)      :      2.18119

Rotational constants in cm-1:     0.067080     0.054423     0.032510
Rotational constants in MHz :  2010.997651  1631.554324   974.629999

                             ****ORCA TERMINATED NORMALLY****
TOTAL RUN TIME: 0 days 0 hours 8 minutes 6 seconds 811 msec
