                         Program Version 4.2.0 -  RELEASE  -
|  1> # ORCA input file
|  2> # SCF done        -31.291044147655          0.000807894679
|  3> ! B3LYP/G D3BJ Opt RIJCOSX def2-SVP def2/J
|  4> * xyz 0 1
|  5>    C       -2.37590         0.70777        -0.02582
|  6>    C       -2.39554        -0.70729         0.06103
|  7>    C       -1.19806        -1.38863         0.09375
|  8>    C        0.02159        -0.69343         0.05085
|  9>    C        0.02388         0.72834        -0.02922
| 10>    C       -1.20849         1.41152        -0.06693
| 11>    N        1.18315         1.41629        -0.07232
| 12>    C        2.28897         0.72246        -0.03745
| 13>    C        2.28900        -0.68605         0.04196
| 14>    N        1.18542        -1.38095         0.08483
| 15>    C       -3.69117        -1.37540         0.10585
| 16>    C       -3.90556        -2.65623         0.38246
| 17>    H       -3.31997         1.23374        -0.05524
| 18>    H       -1.15599        -2.46481         0.14306
| 19>    H       -1.19370         2.48852        -0.13096
| 20>    H        3.21475         1.28141        -0.07179
| 21>    H        3.21581        -1.24410         0.07095
| 22>    H       -4.53915        -0.73084        -0.09456
| 23>    H       -3.10778        -3.34335         0.60960
| 24>    H       -4.90113        -3.06544         0.39827
| 25> *
| 26>
| 27>                          ****END OF INPUT****
 Total Charge           Charge          ....    0
 Multiplicity           Mult            ....    1
 Number of Electrons    NEL             ....   82
Dispersion correction           -0.041281442
FINAL SINGLE POINT ENERGY      -495.044497458260
Dispersion correction            ... done
Dispersion correction           -0.041043254
FINAL SINGLE POINT ENERGY      -495.047195530180
Dispersion correction            ... done
Dispersion correction           -0.041013743
FINAL SINGLE POINT ENERGY      -495.047290188019
Dispersion correction            ... done
FINAL SINGLE POINT ENERGY      -495.047331095122
FINAL SINGLE POINT ENERGY      -495.047314797878
FINAL SINGLE POINT ENERGY      -495.047311189253
Dispersion correction            ... done
Dispersion correction           -0.041019806
FINAL SINGLE POINT ENERGY      -495.047312172816
Dispersion correction            ... done
Dispersion correction           -0.041018708
FINAL SINGLE POINT ENERGY      -495.047312477298
Dispersion correction            ... done
                    ***********************HURRAY********************

CARTESIAN COORDINATES (ANGSTROEM)
---------------------------------
  C     -2.386698    0.721370   -0.022831
  C     -2.409611   -0.700428    0.120583
  C     -1.199811   -1.379508    0.182040
  C      0.030217   -0.687471    0.100453
  C      0.033764    0.737927   -0.056149
  C     -1.206653    1.423351   -0.109476
  N      1.200583    1.429129   -0.151160
  C      2.310246    0.730977   -0.084100
  C      2.309363   -0.684922    0.080673
  N      1.201444   -1.381264    0.171247
  C     -3.715117   -1.376421    0.194864
  C     -3.935263   -2.696163    0.268305
  H     -3.339855    1.254373   -0.068950
  H     -1.147961   -2.462853    0.303665
  H     -1.182532    2.508373   -0.227412
  H      3.260919    1.271965   -0.160699
  H      3.260548   -1.227943    0.136621
  H     -4.581494   -0.705594    0.181556
  H     -3.121139   -3.425957    0.279004
  H     -4.950821   -3.095414    0.320085

 Multiplicity           Mult            ....    1
 Number of Electrons    NEL             ....   82
 Basis Dimension        Dim             ....  208

ORBITAL ENERGIES
----------------

  NO   OCC          E(Eh)            E(eV)
   0   2.0000     -14.341760      -390.2591
   1   2.0000     -14.341306      -390.2468
   2   2.0000     -10.237509      -278.5768
   3   2.0000     -10.236990      -278.5627
   4   2.0000     -10.235012      -278.5088
   5   2.0000     -10.234532      -278.4958
   6   2.0000     -10.214277      -277.9446
   7   2.0000     -10.207411      -277.7578
   8   2.0000     -10.204766      -277.6858
   9   2.0000     -10.202609      -277.6271
  10   2.0000     -10.201108      -277.5863
  11   2.0000     -10.198042      -277.5028
  12   2.0000      -0.978863       -26.6362
  13   2.0000      -0.907364       -24.6906
  14   2.0000      -0.859432       -23.3863
  15   2.0000      -0.792981       -21.5781
  16   2.0000      -0.757320       -20.6077
  17   2.0000      -0.736406       -20.0386
  18   2.0000      -0.672752       -18.3065
  19   2.0000      -0.650169       -17.6920
  20   2.0000      -0.618135       -16.8203
  21   2.0000      -0.579284       -15.7631
  22   2.0000      -0.545601       -14.8465
  23   2.0000      -0.529511       -14.4087
  24   2.0000      -0.513188       -13.9645
  25   2.0000      -0.479064       -13.0360
  26   2.0000      -0.457821       -12.4579
  27   2.0000      -0.446653       -12.1540
  28   2.0000      -0.443354       -12.0643
  29   2.0000      -0.441442       -12.0123
  30   2.0000      -0.424416       -11.5489
  31   2.0000      -0.391653       -10.6574
  32   2.0000      -0.372648       -10.1403
  33   2.0000      -0.370589       -10.0843
  34   2.0000      -0.362696        -9.8695
  35   2.0000      -0.349381        -9.5071
  36   2.0000      -0.310253        -8.4424
  37   2.0000      -0.306465        -8.3393
  38   2.0000      -0.261621        -7.1191
  39   2.0000      -0.250418        -6.8142
  40   2.0000      -0.238081        -6.4785
  41   0.0000      -0.083818        -2.2808
  42   0.0000      -0.046437        -1.2636
  43   0.0000      -0.010587        -0.2881
  44   0.0000       0.024562         0.6684
  45   0.0000       0.064111         1.7446

MULLIKEN ATOMIC CHARGES
-----------------------
   0 C :    0.003685
   1 C :    0.124148
   2 C :   -0.054431
   3 C :    0.013813
   4 C :   -0.007374
   5 C :    0.007221
   6 N :   -0.048802
   7 C :    0.030693
   8 C :    0.032395
   9 N :   -0.049664
  10 C :   -0.009045
  11 C :   -0.011221
  12 H :   -0.020196
  13 H :   -0.037373
  14 H :   -0.022653
  15 H :    0.004772
  16 H :    0.005049
  17 H :   -0.012450
  18 H :    0.025846
  19 H :    0.025586
Sum of atomic charges:   -0.0000000

LOEWDIN ATOMIC CHARGES
----------------------
   0 C :   -0.009375
   1 C :   -0.020465
   2 C :   -0.005571
   3 C :   -0.008291
   4 C :   -0.010391
   5 C :   -0.013165
   6 N :   -0.050138
   7 C :   -0.000475
   8 C :    0.001460
   9 N :   -0.051900
  10 C :   -0.024058
  11 C :   -0.031847
  12 H :    0.029065
  13 H :    0.031661
  14 H :    0.035391
  15 H :    0.023262
  16 H :    0.023394
  17 H :    0.028430
  18 H :    0.024358
  19 H :    0.028653

  Mayer bond orders larger than 0.100000
B(  0-C ,  1-C ) :   1.2200 B(  0-C ,  5-C ) :   1.4380 B(  0-C , 12-H ) :   0.9915
B(  1-C ,  2-C ) :   1.3714 B(  1-C , 10-C ) :   1.0691 B(  2-C ,  3-C ) :   1.2597
B(  2-C ,  5-C ) :   0.1052 B(  2-C , 13-H ) :   0.9992 B(  3-C ,  4-C ) :   1.2118
B(  3-C ,  9-N ) :   1.4126 B(  4-C ,  5-C ) :   1.2457 B(  4-C ,  6-N ) :   1.4181
B(  5-C , 14-H ) :   0.9972 B(  6-N ,  7-C ) :   1.6482 B(  7-C ,  8-C ) :   1.2244
B(  7-C , 15-H ) :   0.9655 B(  8-C ,  9-N ) :   1.6555 B(  8-C , 16-H ) :   0.9654
B( 10-C , 11-C ) :   1.9354 B( 10-C , 17-H ) :   0.9639 B( 11-C , 18-H ) :   0.9437
B( 11-C , 19-H ) :   0.9459

Dispersion correction           -0.041015910
FINAL SINGLE POINT ENERGY      -495.047313236935

DIPOLE MOMENT
-------------
                                X             Y             Z
Electronic contribution:      5.94896       2.95726      -0.27336
Nuclear contribution   :     -6.22786      -3.00516       0.27637
                        -----------------------------------------
Total Dipole Moment    :     -0.27890      -0.04789       0.00300
                        -----------------------------------------
Magnitude (a.u.)       :      0.28300
Magnitude (Debye)      :      0.71932

Rotational constants in cm-1:     0.080920     0.021466     0.016968
Rotational constants in MHz :  2425.924931   643.541102   508.690396

                             ****ORCA TERMINATED NORMALLY****
TOTAL RUN TIME: 0 days 0 hours 12 minutes 56 seconds 68 msec
