                         Program Version 4.2.0 -  RELEASE  -
|  1> # ORCA input file
|  2> # SCF done        -32.790427193301          0.000924697240
|  3> ! B3LYP/G D3BJ Opt RIJCOSX def2-SVP def2/J
|  4> * xyz 0 1
|  5>    C        0.95457         0.05076        -0.23884
|  6>    C        1.67625        -0.64388         0.62243
|  7>    C        2.80123         0.17803         1.17985
|  8>    C        2.85561         1.41801         0.26104
|  9>    C        1.46733         1.44913        -0.40990
| 10>    C        3.21879         2.60230         1.17253
| 11>    C        2.68624         2.20984         2.56698
| 12>    C        1.42399         3.01930         2.69149
| 13>    C        1.33776         3.94386         1.75010
| 14>    C        2.52436         3.92936         0.83045
| 15>    C        2.49333         0.71720         2.55797
| 16>    C        2.11012        -0.00290         3.59657
| 17>    H        0.07437        -0.29125        -0.75635
| 18>    H        1.49866        -1.65566         0.94265
| 19>    H        3.74519        -0.37515         1.20418
| 20>    H        3.61383         1.29144        -0.51583
| 21>    H        1.52161         1.74133        -1.45994
| 22>    H        0.78969         2.13861         0.09897
| 23>    H        4.30505         2.71511         1.18154
| 24>    H        3.37148         2.49109         3.37554
| 25>    H        0.71587         2.83407         3.47981
| 26>    H        0.54333         4.66214         1.63365
| 27>    H        3.17688         4.77877         1.05465
| 28>    H        2.24587         3.99972        -0.22143
| 29>    H        1.90908         0.44702         4.55504
| 30>    H        1.97989        -1.06932         3.53386
| 31> *
| 32>
| 33>                          ****END OF INPUT****
 Total Charge           Charge          ....    0
 Multiplicity           Mult            ....    1
 Number of Electrons    NEL             ....   86
Dispersion correction           -0.055632157
FINAL SINGLE POINT ENERGY      -465.357577951386
Dispersion correction            ... done
Dispersion correction           -0.054651416
FINAL SINGLE POINT ENERGY      -465.361694287432
Dispersion correction            ... done
Dispersion correction           -0.054521096
FINAL SINGLE POINT ENERGY      -465.361883042144
Dispersion correction            ... done
FINAL SINGLE POINT ENERGY      -465.361946997846
Dispersion correction            ... done
Dispersion correction           -0.054461716
FINAL SINGLE POINT ENERGY      -465.361963378311
Dispersion correction            ... done
Dispersion correction           -0.054475906
FINAL SINGLE POINT ENERGY      -465.361969658663
Dispersion correction            ... done
                    ***********************HURRAY********************

CARTESIAN COORDINATES (ANGSTROEM)
---------------------------------
  C      0.959135    0.019015   -0.302429
  C      1.664515   -0.669939    0.600845
  C      2.779322    0.164689    1.186516
  C      2.839108    1.413692    0.259524
  C      1.463956    1.430892   -0.464338
  C      3.208340    2.609583    1.172008
  C      2.685801    2.217304    2.588354
  C      1.422783    3.046234    2.721369
  C      1.339493    3.986717    1.772717
  C      2.526528    3.957921    0.838977
  C      2.501271    0.707091    2.587323
  C      2.139951   -0.020005    3.646953
  H      0.082167   -0.361806   -0.832381
  H      1.445316   -1.688452    0.929657
  H      3.742251   -0.377435    1.199794
  H      3.616953    1.268016   -0.505879
  H      1.547888    1.741780   -1.519153
  H      0.755071    2.130317    0.011452
  H      4.304003    2.710208    1.176762
  H      3.394185    2.501496    3.388612
  H      0.697121    2.882421    3.521799
  H      0.527997    4.713994    1.680417
  H      3.202632    4.807294    1.049670
  H      2.237567    4.046916   -0.222386
  H      1.958305    0.443630    4.621061
  H      1.998719   -1.102644    3.579766

 Multiplicity           Mult            ....    1
 Number of Electrons    NEL             ....   86
 Basis Dimension        Dim             ....  238

ORBITAL ENERGIES
----------------

  NO   OCC          E(Eh)            E(eV)
   0   2.0000     -10.189372      -277.2669
   1   2.0000     -10.187622      -277.2193
   2   2.0000     -10.187262      -277.2095
   3   2.0000     -10.186992      -277.2021
   4   2.0000     -10.186891      -277.1994
   5   2.0000     -10.184730      -277.1406
   6   2.0000     -10.183782      -277.1148
   7   2.0000     -10.182956      -277.0923
   8   2.0000     -10.180637      -277.0292
   9   2.0000     -10.178901      -276.9820
  10   2.0000     -10.177967      -276.9566
  11   2.0000     -10.171408      -276.7781
  12   2.0000      -0.868424       -23.6310
  13   2.0000      -0.821318       -22.3492
  14   2.0000      -0.772007       -21.0074
  15   2.0000      -0.731583       -19.9074
  16   2.0000      -0.691316       -18.8117
  17   2.0000      -0.684759       -18.6332
  18   2.0000      -0.665977       -18.1222
  19   2.0000      -0.596161       -16.2224
  20   2.0000      -0.551661       -15.0115
  21   2.0000      -0.537109       -14.6155
  22   2.0000      -0.517096       -14.0709
  23   2.0000      -0.511801       -13.9268
  24   2.0000      -0.504097       -13.7172
  25   2.0000      -0.481595       -13.1049
  26   2.0000      -0.465100       -12.6560
  27   2.0000      -0.429294       -11.6817
  28   2.0000      -0.420830       -11.4514
  29   2.0000      -0.403877       -10.9900
  30   2.0000      -0.395930       -10.7738
  31   2.0000      -0.379592       -10.3292
  32   2.0000      -0.377098       -10.2614
  33   2.0000      -0.362665        -9.8686
  34   2.0000      -0.357050        -9.7158
  35   2.0000      -0.349980        -9.5234
  36   2.0000      -0.334953        -9.1145
  37   2.0000      -0.325043        -8.8449
  38   2.0000      -0.316439        -8.6108
  39   2.0000      -0.314121        -8.5477
  40   2.0000      -0.248265        -6.7556
  41   2.0000      -0.245064        -6.6685
  42   2.0000      -0.237072        -6.4511
  43   0.0000       0.000198         0.0054
  44   0.0000       0.015536         0.4227
  45   0.0000       0.025720         0.6999
  46   0.0000       0.054665         1.4875
  47   0.0000       0.081308         2.2125

MULLIKEN ATOMIC CHARGES
-----------------------
   0 C :   -0.078341
   1 C :    0.014775
   2 C :    0.033673
   3 C :   -0.047182
   4 C :    0.150742
   5 C :   -0.070199
   6 C :    0.054581
   7 C :    0.001899
   8 C :   -0.085781
   9 C :    0.160193
  10 C :   -0.057370
  11 C :   -0.041326
  12 H :   -0.014920
  13 H :   -0.017678
  14 H :    0.009078
  15 H :   -0.014372
  16 H :    0.002761
  17 H :    0.015413
  18 H :   -0.013886
  19 H :    0.010459
  20 H :   -0.010823
  21 H :   -0.010361
  22 H :    0.007840
  23 H :    0.001404
  24 H :   -0.002034
  25 H :    0.001453
Sum of atomic charges:   -0.0000000

LOEWDIN ATOMIC CHARGES
----------------------
   0 C :   -0.028188
   1 C :   -0.025489
   2 C :   -0.021919
   3 C :   -0.008912
   4 C :   -0.030937
   5 C :   -0.013263
   6 C :   -0.020768
   7 C :   -0.021849
   8 C :   -0.037868
   9 C :   -0.027116
  10 C :   -0.006610
  11 C :   -0.078178
  12 H :    0.018750
  13 H :    0.018380
  14 H :    0.029765
  15 H :    0.021893
  16 H :    0.021223
  17 H :    0.029707
  18 H :    0.019930
  19 H :    0.032722
  20 H :    0.021038
  21 H :    0.020249
  22 H :    0.027953
  23 H :    0.021708
  24 H :    0.018622
  25 H :    0.019155

  Mayer bond orders larger than 0.100000
B(  0-C ,  1-C ) :   1.8740 B(  0-C ,  4-C ) :   1.0185 B(  0-C , 12-H ) :   0.9857
B(  1-C ,  2-C ) :   0.9999 B(  1-C , 13-H ) :   0.9864 B(  2-C ,  3-C ) :   1.0547
B(  2-C , 10-C ) :   0.9768 B(  2-C , 14-H ) :   0.8906 B(  3-C ,  4-C ) :   1.0640
B(  3-C ,  5-C ) :   1.0273 B(  3-C , 15-H ) :   0.8996 B(  4-C , 16-H ) :   0.9301
B(  4-C , 17-H ) :   0.8983 B(  5-C ,  6-C ) :   1.0443 B(  5-C ,  9-C ) :   1.0778
B(  5-C , 18-H ) :   0.8976 B(  6-C ,  7-C ) :   0.9901 B(  6-C , 10-C ) :   1.0013
B(  6-C , 19-H ) :   0.8808 B(  7-C ,  8-C ) :   1.8652 B(  7-C , 20-H ) :   0.9842
B(  8-C ,  9-C ) :   1.0234 B(  8-C , 21-H ) :   0.9802 B(  9-C , 22-H ) :   0.9110
B(  9-C , 23-H ) :   0.9257 B( 10-C , 11-C ) :   2.0258 B( 11-C , 24-H ) :   0.9355
B( 11-C , 25-H ) :   0.9329

Dispersion correction           -0.054482557
FINAL SINGLE POINT ENERGY      -465.361972663870

DIPOLE MOMENT
-------------
                                X             Y             Z
Electronic contribution:      0.32782      -1.25139       0.98128
Nuclear contribution   :     -0.23504       1.46008      -1.10796
                        -----------------------------------------
Total Dipole Moment    :      0.09278       0.20869      -0.12667
                        -----------------------------------------
Magnitude (a.u.)       :      0.26116
Magnitude (Debye)      :      0.66383

Rotational constants in cm-1:     0.047478     0.034389     0.025309
Rotational constants in MHz :  1423.358896  1030.942574   758.740346

                             ****ORCA TERMINATED NORMALLY****
TOTAL RUN TIME: 0 days 0 hours 14 minutes 26 seconds 430 msec
