                         Program Version 4.2.0 -  RELEASE  -
|  1> # ORCA input file
|  2> # SCF done        -28.963678550368          0.000821981008
|  3> ! B3LYP/G D3BJ Opt RIJCOSX def2-SVP def2/J
|  4> * xyz 0 1
|  5>    C       -1.07234         0.00933         0.11078
|  6>    O       -0.19110         1.00974         0.04898
|  7>    C        1.04524         0.48431        -0.08917
|  8>    C        0.95608        -0.89831        -0.11681
|  9>    C       -0.44035        -1.20241         0.01563
| 10>    C       -1.02213        -2.48078         0.04350
| 11>    N       -1.48567        -3.52757         0.06752
| 12>    C        1.98705        -1.83816        -0.24568
| 13>    N        2.81357        -2.62585        -0.35094
| 14>    C        2.16305         1.38785        -0.17388
| 15>    C        3.43235         1.01881        -0.31656
| 16>    H       -2.11045         0.25422         0.22102
| 17>    H        1.88705         2.43197        -0.10984
| 18>    H        3.72439        -0.01490        -0.38414
| 19>    H        4.21848         1.75053        -0.37053
| 20> *
| 21>
| 22>                          ****END OF INPUT****
 Total Charge           Charge          ....    0
 Multiplicity           Mult            ....    1
 Number of Electrons    NEL             ....   74
Dispersion correction           -0.029011715
FINAL SINGLE POINT ENERGY      -491.571546560890
Dispersion correction            ... done
Dispersion correction           -0.028797319
FINAL SINGLE POINT ENERGY      -491.574665191062
Dispersion correction            ... done
Dispersion correction           -0.028751290
FINAL SINGLE POINT ENERGY      -491.574814952622
Dispersion correction            ... done
FINAL SINGLE POINT ENERGY      -491.574867432390
FINAL SINGLE POINT ENERGY      -491.574877498895
FINAL SINGLE POINT ENERGY      -491.574881529491
Dispersion correction            ... done
Dispersion correction           -0.028734328
FINAL SINGLE POINT ENERGY      -491.574886025605
Dispersion correction            ... done
Dispersion correction           -0.028735623
FINAL SINGLE POINT ENERGY      -491.574891444000
Dispersion correction            ... done
                    ***********************HURRAY********************

CARTESIAN COORDINATES (ANGSTROEM)
---------------------------------
  C     -1.083275    0.000252    0.121133
  O     -0.171626    0.989496    0.060292
  C      1.068780    0.449683   -0.090833
  C      0.949174   -0.931378   -0.120757
  C     -0.463719   -1.219635    0.020171
  C     -1.082803   -2.498655    0.049171
  N     -1.595149   -3.539187    0.075888
  C      1.998437   -1.873141   -0.266286
  N      2.869520   -2.631501   -0.387621
  C      2.170318    1.381657   -0.187540
  C      3.467594    1.054608   -0.299667
  H     -2.123749    0.289253    0.238816
  H      1.862935    2.431688   -0.164124
  H      3.813142    0.019020   -0.325180
  H      4.225640    1.836621   -0.373584

 Multiplicity           Mult            ....    1
 Number of Electrons    NEL             ....   74
 Basis Dimension        Dim             ....  174

ORBITAL ENERGIES
----------------

  NO   OCC          E(Eh)            E(eV)
   0   2.0000     -19.258366      -524.0468
   1   2.0000     -14.348800      -390.4507
   2   2.0000     -14.347769      -390.4226
   3   2.0000     -10.303310      -280.3673
   4   2.0000     -10.299438      -280.2620
   5   2.0000     -10.267947      -279.4051
   6   2.0000     -10.264495      -279.3111
   7   2.0000     -10.250435      -278.9285
   8   2.0000     -10.249274      -278.8969
   9   2.0000     -10.237083      -278.5652
  10   2.0000     -10.227141      -278.2947
  11   2.0000      -1.165635       -31.7185
  12   2.0000      -0.922164       -25.0934
  13   2.0000      -0.915103       -24.9012
  14   2.0000      -0.864271       -23.5180
  15   2.0000      -0.843492       -22.9526
  16   2.0000      -0.774409       -21.0727
  17   2.0000      -0.710639       -19.3375
  18   2.0000      -0.666237       -18.1292
  19   2.0000      -0.642962       -17.4959
  20   2.0000      -0.571665       -15.5558
  21   2.0000      -0.554984       -15.1019
  22   2.0000      -0.518938       -14.1210
  23   2.0000      -0.501791       -13.6544
  24   2.0000      -0.495366       -13.4796
  25   2.0000      -0.462029       -12.5725
  26   2.0000      -0.442672       -12.0457
  27   2.0000      -0.408348       -11.1117
  28   2.0000      -0.407606       -11.0915
  29   2.0000      -0.387075       -10.5328
  30   2.0000      -0.379158       -10.3174
  31   2.0000      -0.377393       -10.2694
  32   2.0000      -0.361609        -9.8399
  33   2.0000      -0.348554        -9.4846
  34   2.0000      -0.344511        -9.3746
  35   2.0000      -0.308908        -8.4058
  36   2.0000      -0.261301        -7.1104
  37   0.0000      -0.090141        -2.4529
  38   0.0000      -0.059757        -1.6261
  39   0.0000      -0.002226        -0.0606
  40   0.0000       0.007529         0.2049
  41   0.0000       0.017558         0.4778

MULLIKEN ATOMIC CHARGES
-----------------------
   0 C :    0.097567
   1 O :   -0.186059
   2 C :    0.128497
   3 C :   -0.053500
   4 C :   -0.023183
   5 C :   -0.175836
   6 N :    0.161030
   7 C :   -0.228750
   8 N :    0.163052
   9 C :   -0.024370
  10 C :   -0.008551
  11 H :    0.033951
  12 H :    0.014705
  13 H :    0.055346
  14 H :    0.046099
Sum of atomic charges:   -0.0000000

LOEWDIN ATOMIC CHARGES
----------------------
   0 C :    0.086276
   1 O :    0.034140
   2 C :    0.070758
   3 C :   -0.090259
   4 C :   -0.084981
   5 C :   -0.027807
   6 N :   -0.036657
   7 C :   -0.025584
   8 N :   -0.044066
   9 C :   -0.045860
  10 C :    0.003860
  11 H :    0.041176
  12 H :    0.043762
  13 H :    0.037469
  14 H :    0.037773

  Mayer bond orders larger than 0.100000
B(  0-C ,  1-O ) :   1.1527 B(  0-C ,  4-C ) :   1.4734 B(  0-C , 11-H ) :   1.0134
B(  1-O ,  2-C ) :   1.1345 B(  2-C ,  3-C ) :   1.4315 B(  2-C ,  9-C ) :   1.1496
B(  3-C ,  4-C ) :   1.3061 B(  3-C ,  7-C ) :   1.1677 B(  4-C ,  5-C ) :   1.1085
B(  5-C ,  6-N ) :   3.0129 B(  7-C ,  8-N ) :   2.9558 B(  9-C , 10-C ) :   1.8966
B(  9-C , 12-H ) :   0.9392 B( 10-C , 13-H ) :   0.9495 B( 10-C , 14-H ) :   0.9411

Dispersion correction           -0.028734296
FINAL SINGLE POINT ENERGY      -491.574891754008

DIPOLE MOMENT
-------------
                                X             Y             Z
Electronic contribution:     -4.62923      -4.79825       0.32428
Nuclear contribution   :      4.48826       7.14929      -0.23674
                        -----------------------------------------
Total Dipole Moment    :     -0.14097       2.35103       0.08754
                        -----------------------------------------
Magnitude (a.u.)       :      2.35688
Magnitude (Debye)      :      5.99072

Rotational constants in cm-1:     0.061069     0.031050     0.020585
Rotational constants in MHz :  1830.800548   930.870426   617.133093

                             ****ORCA TERMINATED NORMALLY****
TOTAL RUN TIME: 0 days 0 hours 8 minutes 52 seconds 829 msec
