                         Program Version 4.2.0 -  RELEASE  -
|  1> # ORCA input file
|  2> # SCF done        -31.854843225137          0.000782576464
|  3> ! B3LYP/G D3BJ Opt RIJCOSX def2-SVP def2/J
|  4> * xyz 0 1
|  5>    C       -1.57143        -1.15695         0.16537
|  6>    S       -2.72277         0.10285         0.22825
|  7>    C       -1.51252         1.30170         0.13375
|  8>    C       -0.25098         0.75814         0.05609
|  9>    C       -0.28446        -0.68277         0.07002
| 10>    C        0.93708        -1.42618         0.00722
| 11>    C        0.90437        -2.88162         0.00441
| 12>    C        1.89709        -3.67652         0.38615
| 13>    C        2.10393        -0.71063        -0.06981
| 14>    C        2.12907         0.69890        -0.08543
| 15>    C        0.99138         1.44950        -0.02634
| 16>    C        1.01266         2.94495        -0.04781
| 17>    H       -1.91388        -2.17090         0.20891
| 18>    H       -1.79355         2.33511         0.14543
| 19>    H       -0.02408        -3.32485        -0.33078
| 20>    H        2.83102        -3.29283         0.75995
| 21>    H        1.80468        -4.74845         0.35053
| 22>    H        3.04406        -1.23533        -0.14520
| 23>    H        3.08869         1.19156        -0.15431
| 24>    H        2.03176         3.31383        -0.13053
| 25>    H        0.56965         3.34397         0.86449
| 26>    H        0.43459         3.32153        -0.89120
| 27> *
| 28>
| 29>                          ****END OF INPUT****
 Total Charge           Charge          ....    0
 Multiplicity           Mult            ....    1
 Number of Electrons    NEL             ....   92
Dispersion correction           -0.048373147
FINAL SINGLE POINT ENERGY      -822.988320995828
Dispersion correction            ... done
Dispersion correction           -0.048096456
FINAL SINGLE POINT ENERGY      -822.991807394458
Dispersion correction            ... done
Dispersion correction           -0.048058953
FINAL SINGLE POINT ENERGY      -822.991903569063
Dispersion correction            ... done
FINAL SINGLE POINT ENERGY      -822.991891044424
FINAL SINGLE POINT ENERGY      -822.991910330334
Dispersion correction            ... done
Dispersion correction           -0.048060553
FINAL SINGLE POINT ENERGY      -822.991917273759
Dispersion correction            ... done
Dispersion correction           -0.048062340
FINAL SINGLE POINT ENERGY      -822.991919535067
Dispersion correction            ... done
                    ***********************HURRAY********************

CARTESIAN COORDINATES (ANGSTROEM)
---------------------------------
  C     -1.583305   -1.173765    0.175811
  S     -2.731016    0.097129    0.255465
  C     -1.531027    1.315978    0.155395
  C     -0.255272    0.768176    0.064119
  C     -0.284820   -0.685662    0.072998
  C      0.947422   -1.433651    0.000995
  C      0.914071   -2.901975   -0.015168
  C      1.890383   -3.723134    0.398191
  C      2.121583   -0.710836   -0.063143
  C      2.143848    0.714612   -0.070057
  C      0.995519    1.470823   -0.021733
  C      1.011293    2.970233   -0.066527
  H     -1.914803   -2.208527    0.222377
  H     -1.813755    2.366089    0.171079
  H     -0.005289   -3.350162   -0.408132
  H      2.817342   -3.342233    0.835670
  H      1.782982   -4.807888    0.318022
  H      3.069894   -1.245346   -0.148360
  H      3.110421    1.220888   -0.139297
  H      2.035634    3.358456   -0.155672
  H      0.557409    3.406409    0.840109
  H      0.427845    3.349398   -0.922983

 Multiplicity           Mult            ....    1
 Number of Electrons    NEL             ....   92
 Basis Dimension        Dim             ....  222

ORBITAL ENERGIES
----------------

  NO   OCC          E(Eh)            E(eV)
   0   2.0000     -88.884175     -2418.6614
   1   2.0000     -10.210978      -277.8549
   2   2.0000     -10.210900      -277.8527
   3   2.0000     -10.198104      -277.5045
   4   2.0000     -10.197867      -277.4981
   5   2.0000     -10.196278      -277.4548
   6   2.0000     -10.196192      -277.4525
   7   2.0000     -10.194311      -277.4013
   8   2.0000     -10.190400      -277.2949
   9   2.0000     -10.188234      -277.2359
  10   2.0000     -10.186802      -277.1970
  11   2.0000     -10.186437      -277.1870
  12   2.0000      -7.978846      -217.1154
  13   2.0000      -5.946557      -161.8141
  14   2.0000      -5.942421      -161.7015
  15   2.0000      -5.941232      -161.6691
  16   2.0000      -0.890463       -24.2307
  17   2.0000      -0.832360       -22.6497
  18   2.0000      -0.797071       -21.6894
  19   2.0000      -0.743560       -20.2333
  20   2.0000      -0.729978       -19.8637
  21   2.0000      -0.710067       -19.3219
  22   2.0000      -0.672048       -18.2874
  23   2.0000      -0.610246       -16.6056
  24   2.0000      -0.588169       -16.0049
  25   2.0000      -0.572522       -15.5791
  26   2.0000      -0.540747       -14.7145
  27   2.0000      -0.507555       -13.8113
  28   2.0000      -0.467556       -12.7228
  29   2.0000      -0.465362       -12.6631
  30   2.0000      -0.448115       -12.1938
  31   2.0000      -0.426836       -11.6148
  32   2.0000      -0.425192       -11.5701
  33   2.0000      -0.421099       -11.4587
  34   2.0000      -0.407676       -11.0934
  35   2.0000      -0.392837       -10.6896
  36   2.0000      -0.386306       -10.5119
  37   2.0000      -0.371643       -10.1129
  38   2.0000      -0.353378        -9.6159
  39   2.0000      -0.351478        -9.5642
  40   2.0000      -0.339523        -9.2389
  41   2.0000      -0.336479        -9.1561
  42   2.0000      -0.297057        -8.0833
  43   2.0000      -0.255987        -6.9658
  44   2.0000      -0.249861        -6.7991
  45   2.0000      -0.198389        -5.3984
  46   0.0000      -0.063977        -1.7409
  47   0.0000      -0.009562        -0.2602
  48   0.0000       0.023543         0.6407
  49   0.0000       0.049334         1.3424
  50   0.0000       0.057763         1.5718

MULLIKEN ATOMIC CHARGES
-----------------------
   0 C :   -0.164880
   1 S :    0.137624
   2 C :   -0.168186
   3 C :    0.071916
   4 C :    0.076588
   5 C :    0.101923
   6 C :   -0.040430
   7 C :   -0.016590
   8 C :   -0.047000
   9 C :   -0.036850
  10 C :   -0.040872
  11 C :    0.084117
  12 H :    0.017061
  13 H :    0.016262
  14 H :   -0.009985
  15 H :    0.015214
  16 H :    0.022734
  17 H :   -0.032343
  18 H :   -0.037278
  19 H :    0.003910
  20 H :    0.022987
  21 H :    0.024078
Sum of atomic charges:   -0.0000000

LOEWDIN ATOMIC CHARGES
----------------------
   0 C :   -0.213722
   1 S :    0.481531
   2 C :   -0.215894
   3 C :   -0.050166
   4 C :   -0.043094
   5 C :   -0.029071
   6 C :   -0.021260
   7 C :   -0.046442
   8 C :   -0.020379
   9 C :   -0.039522
  10 C :   -0.018646
  11 C :   -0.043772
  12 H :    0.022194
  13 H :    0.022424
  14 H :    0.026165
  15 H :    0.021092
  16 H :    0.025226
  17 H :    0.025015
  18 H :    0.023488
  19 H :    0.028676
  20 H :    0.032911
  21 H :    0.033248

  Mayer bond orders larger than 0.100000
B(  0-C ,  1-S ) :   1.2008 B(  0-C ,  2-C ) :   0.1168 B(  0-C ,  4-C ) :   1.4320
B(  0-C , 12-H ) :   0.9526 B(  1-S ,  2-C ) :   1.2009 B(  2-C ,  3-C ) :   1.4226
B(  2-C , 13-H ) :   0.9533 B(  3-C ,  4-C ) :   1.1987 B(  3-C , 10-C ) :   1.1925
B(  4-C ,  5-C ) :   1.1557 B(  5-C ,  6-C ) :   1.0700 B(  5-C ,  8-C ) :   1.5054
B(  6-C ,  7-C ) :   1.9495 B(  6-C , 14-H ) :   0.9485 B(  7-C , 15-H ) :   0.9473
B(  7-C , 16-H ) :   0.9443 B(  8-C ,  9-C ) :   1.1856 B(  8-C , 17-H ) :   0.9816
B(  9-C , 10-C ) :   1.5313 B(  9-C , 18-H ) :   0.9811 B( 10-C , 11-C ) :   1.0964
B( 11-C , 19-H ) :   0.9532 B( 11-C , 20-H ) :   0.9430 B( 11-C , 21-H ) :   0.9444

Dispersion correction           -0.048062544
FINAL SINGLE POINT ENERGY      -822.991921461966

DIPOLE MOMENT
-------------
                                X             Y             Z
Electronic contribution:     -9.62262      -0.68162       0.29859
Nuclear contribution   :      9.57272       0.90722      -0.31189
                        -----------------------------------------
Total Dipole Moment    :     -0.04990       0.22560      -0.01331
                        -----------------------------------------
Magnitude (a.u.)       :      0.23144
Magnitude (Debye)      :      0.58827

Rotational constants in cm-1:     0.036440     0.025618     0.015152
Rotational constants in MHz :  1092.435899   767.996906   454.231502

                             ****ORCA TERMINATED NORMALLY****
TOTAL RUN TIME: 0 days 0 hours 13 minutes 19 seconds 819 msec
