                         Program Version 4.2.0 -  RELEASE  -
|  1> # ORCA input file
|  2> # SCF done        -22.447534451899          0.000640938730
|  3> ! B3LYP/G D3BJ Opt RIJCOSX def2-SVP def2/J
|  4> * xyz 0 1
|  5>    C        1.45177        -0.97948         0.00073
|  6>    S        2.32113         0.51515         0.00427
|  7>    C        0.89744         1.48508         0.00693
|  8>    C       -0.20285         0.68521         0.00503
|  9>    C        0.12362        -0.71369         0.00150
| 10>    O       -1.04699        -1.40339        -0.00030
| 11>    C       -1.99056        -0.42479         0.00271
| 12>    N       -1.57957         0.78798         0.00521
| 13>    H        1.97579        -1.91194        -0.00171
| 14>    H        0.97222         2.55204         0.00950
| 15>    H       -3.01904        -0.73076         0.00183
| 16> *
| 17>
| 18>                          ****END OF INPUT****
 Total Charge           Charge          ....    0
 Multiplicity           Mult            ....    1
 Number of Electrons    NEL             ....   64
Dispersion correction           -0.021150591
FINAL SINGLE POINT ENERGY      -720.134642335168
Dispersion correction            ... done
Dispersion correction           -0.021157408
FINAL SINGLE POINT ENERGY      -720.136464097132
Dispersion correction            ... done
Dispersion correction           -0.021152567
FINAL SINGLE POINT ENERGY      -720.136681098469
Dispersion correction            ... done
FINAL SINGLE POINT ENERGY      -720.136735457579
Dispersion correction            ... done
Dispersion correction           -0.021144726
FINAL SINGLE POINT ENERGY      -720.136738978072
Dispersion correction            ... done
Dispersion correction           -0.021145570
FINAL SINGLE POINT ENERGY      -720.136738610082
Dispersion correction            ... done
                    ***********************HURRAY********************

CARTESIAN COORDINATES (ANGSTROEM)
---------------------------------
  C      1.460748   -0.993417    0.000723
  S      2.334525    0.516159    0.003811
  C      0.906620    1.498488    0.006948
  C     -0.204327    0.687941    0.004962
  C      0.127554   -0.699344    0.001527
  O     -1.045235   -1.401174   -0.000042
  C     -2.007283   -0.414946    0.002496
  N     -1.595314    0.804525    0.005330
  H      1.980172   -1.947997   -0.001610
  H      0.982673    2.583370    0.009904
  H     -3.037173   -0.772194    0.001650

 Multiplicity           Mult            ....    1
 Number of Electrons    NEL             ....   64
 Basis Dimension        Dim             ....  131

ORBITAL ENERGIES
----------------

  NO   OCC          E(Eh)            E(eV)
   0   2.0000     -88.889015     -2418.7931
   1   2.0000     -19.215244      -522.8734
   2   2.0000     -14.337870      -390.1533
   3   2.0000     -10.291790      -280.0538
   4   2.0000     -10.255040      -279.0538
   5   2.0000     -10.226744      -278.2839
   6   2.0000     -10.225311      -278.2449
   7   2.0000     -10.223933      -278.2074
   8   2.0000      -7.983297      -217.2366
   9   2.0000      -5.951603      -161.9513
  10   2.0000      -5.947305      -161.8344
  11   2.0000      -5.944573      -161.7601
  12   2.0000      -1.127508       -30.6811
  13   2.0000      -0.932510       -25.3749
  14   2.0000      -0.884254       -24.0618
  15   2.0000      -0.749983       -20.4081
  16   2.0000      -0.728857       -19.8332
  17   2.0000      -0.643199       -17.5023
  18   2.0000      -0.595223       -16.1968
  19   2.0000      -0.583968       -15.8906
  20   2.0000      -0.512661       -13.9502
  21   2.0000      -0.486827       -13.2472
  22   2.0000      -0.485639       -13.2149
  23   2.0000      -0.466130       -12.6840
  24   2.0000      -0.420594       -11.4449
  25   2.0000      -0.386719       -10.5232
  26   2.0000      -0.379486       -10.3263
  27   2.0000      -0.361268        -9.8306
  28   2.0000      -0.344701        -9.3798
  29   2.0000      -0.300464        -8.1760
  30   2.0000      -0.255291        -6.9468
  31   2.0000      -0.236755        -6.4424
  32   0.0000      -0.047320        -1.2876
  33   0.0000       0.016040         0.4365
  34   0.0000       0.028889         0.7861
  35   0.0000       0.075293         2.0488
  36   0.0000       0.086037         2.3412

MULLIKEN ATOMIC CHARGES
-----------------------
   0 C :   -0.185317
   1 S :    0.100182
   2 C :   -0.180575
   3 C :    0.078426
   4 C :    0.226204
   5 O :   -0.231856
   6 C :    0.190557
   7 N :   -0.095804
   8 H :    0.031924
   9 H :    0.033459
  10 H :    0.032801
Sum of atomic charges:   -0.0000000

LOEWDIN ATOMIC CHARGES
----------------------
   0 C :   -0.223448
   1 S :    0.451701
   2 C :   -0.201488
   3 C :   -0.066898
   4 C :   -0.007812
   5 O :   -0.037221
   6 C :    0.097121
   7 N :   -0.102940
   8 H :    0.031691
   9 H :    0.032303
  10 H :    0.026991

  Mayer bond orders larger than 0.100000
B(  0-C ,  1-S ) :   1.1414 B(  0-C ,  2-C ) :   0.1234 B(  0-C ,  4-C ) :   1.4812
B(  0-C ,  8-H ) :   0.9867 B(  1-S ,  2-C ) :   1.1699 B(  2-C ,  3-C ) :   1.4420
B(  2-C ,  9-H ) :   0.9864 B(  3-C ,  4-C ) :   1.2427 B(  3-C ,  7-N ) :   1.2342
B(  4-C ,  5-O ) :   1.0791 B(  5-O ,  6-C ) :   1.0967 B(  6-C ,  7-N ) :   1.7909
B(  6-C , 10-H ) :   0.9786

Dispersion correction           -0.021146607
FINAL SINGLE POINT ENERGY      -720.136738272015

DIPOLE MOMENT
-------------
                                X             Y             Z
Electronic contribution:      1.23488      -0.05413      -0.00093
Nuclear contribution   :     -1.03832      -0.29877       0.00014
                        -----------------------------------------
Total Dipole Moment    :      0.19656      -0.35290      -0.00079
                        -----------------------------------------
Magnitude (a.u.)       :      0.40395
Magnitude (Debye)      :      1.02676

Rotational constants in cm-1:     0.167030     0.051736     0.039501
Rotational constants in MHz :  5007.429568  1550.999455  1184.204424

                             ****ORCA TERMINATED NORMALLY****
TOTAL RUN TIME: 0 days 0 hours 4 minutes 3 seconds 51 msec
