                         Program Version 4.2.0 -  RELEASE  -
|  1> # ORCA input file
|  2> # SCF done        -44.185525331477          0.000363810742
|  3> ! B3LYP/G D3BJ Opt RIJCOSX def2-SVP def2/J
|  4> * xyz 0 1
|  5>    C        0.32603        -1.19000         3.50064
|  6>    S        1.22472         0.18084         4.00602
|  7>    C        2.25865         0.06582         2.65419
|  8>    C        1.92882        -0.98579         1.83636
|  9>    C        0.79483        -1.72554         2.32517
| 10>    C        0.26521        -2.86272         1.64889
| 11>    S        0.69640        -3.21870         0.05995
| 12>    O       -0.34365        -2.13054        -0.89655
| 13>    C       -0.41901        -2.24900        -2.28217
| 14>    C        2.23177        -2.35883        -0.14880
| 15>    C        2.65183        -1.38322         0.67967
| 16>    O        2.99975        -2.71245        -1.21969
| 17>    C        2.80971        -3.99273        -1.77560
| 18>    C       -0.68872        -3.74848         2.26779
| 19>    C       -1.42188        -4.67049         1.64573
| 20>    H       -0.50962        -1.50444         4.09086
| 21>    H        3.05452         0.77133         2.52395
| 22>    H       -1.23017        -1.59758        -2.61211
| 23>    H       -0.64781        -3.27692        -2.59013
| 24>    H        0.51151        -1.92547        -2.76547
| 25>    H        3.59123        -0.89665         0.46007
| 26>    H        3.60073        -4.11099        -2.51432
| 27>    H        1.83754        -4.08210        -2.27108
| 28>    H        2.89704        -4.77506        -1.01467
| 29>    H       -0.78098        -3.63606         3.33959
| 30>    H       -1.38329        -4.79904         0.57682
| 31>    H       -2.08594        -5.32055         2.18602
| 32> *
| 33>
| 34>                          ****END OF INPUT****
 Total Charge           Charge          ....    0
 Multiplicity           Mult            ....    1
 Number of Electrons    NEL             ....  126
Dispersion correction           -0.063228050
FINAL SINGLE POINT ENERGY     -1372.490379753654
Dispersion correction            ... done
Dispersion correction           -0.062694714
FINAL SINGLE POINT ENERGY     -1372.496425705335
Dispersion correction            ... done
Dispersion correction           -0.062470973
FINAL SINGLE POINT ENERGY     -1372.498173104520
Dispersion correction            ... done
FINAL SINGLE POINT ENERGY     -1372.499362800107
FINAL SINGLE POINT ENERGY     -1372.500158247697
FINAL SINGLE POINT ENERGY     -1372.500445832977
FINAL SINGLE POINT ENERGY     -1372.500500360952
FINAL SINGLE POINT ENERGY     -1372.500633403878
FINAL SINGLE POINT ENERGY     -1372.500741732491
FINAL SINGLE POINT ENERGY     -1372.500758546465
FINAL SINGLE POINT ENERGY     -1372.500659798001
Dispersion correction            ... done
Dispersion correction           -0.062023807
FINAL SINGLE POINT ENERGY     -1372.500692435576
Dispersion correction            ... done
Dispersion correction           -0.062006657
FINAL SINGLE POINT ENERGY     -1372.500688948659
Dispersion correction            ... done
                    ***********************HURRAY********************

CARTESIAN COORDINATES (ANGSTROEM)
---------------------------------
  C      0.467022   -1.362511    3.602839
  S      1.471053   -0.080233    4.177670
  C      2.413948   -0.076528    2.742632
  C      1.984546   -1.040368    1.845785
  C      0.846842   -1.791939    2.341044
  C      0.254733   -2.885404    1.604259
  S      0.553499   -3.114015   -0.024867
  O     -0.470483   -2.009680   -1.065090
  C     -0.665097   -2.485096   -2.375275
  C      2.084496   -2.248585   -0.288625
  C      2.589388   -1.342462    0.578372
  O      2.663321   -2.530406   -1.484071
  C      3.248313   -3.826032   -1.586901
  C     -0.749137   -3.765238    2.196185
  C     -1.816575   -4.293406    1.572396
  H     -0.364717   -1.719318    4.205730
  H      3.241196    0.620166    2.619260
  H     -1.536640   -1.960317   -2.801749
  H     -0.883237   -3.572901   -2.407179
  H      0.207378   -2.289270   -3.028443
  H      3.518543   -0.845284    0.288805
  H      3.686966   -3.901458   -2.590428
  H      2.492238   -4.619941   -1.456863
  H      4.036981   -3.962069   -0.827234
  H     -0.559768   -4.021102    3.246834
  H     -2.080547   -3.995119    0.553716
  H     -2.465044   -5.016842    2.072327

 Multiplicity           Mult            ....    1
 Number of Electrons    NEL             ....  126
 Basis Dimension        Dim             ....  278

ORBITAL ENERGIES
----------------

  NO   OCC          E(Eh)            E(eV)
   0   2.0000     -88.945088     -2420.3189
   1   2.0000     -88.879602     -2418.5369
   2   2.0000     -19.176631      -521.8227
   3   2.0000     -19.119363      -520.2643
   4   2.0000     -10.272263      -279.5225
   5   2.0000     -10.255961      -279.0789
   6   2.0000     -10.222290      -278.1626
   7   2.0000     -10.215569      -277.9798
   8   2.0000     -10.211313      -277.8640
   9   2.0000     -10.207091      -277.7491
  10   2.0000     -10.206359      -277.7292
  11   2.0000     -10.205351      -277.7017
  12   2.0000     -10.204785      -277.6863
  13   2.0000     -10.195305      -277.4284
  14   2.0000     -10.178379      -276.9678
  15   2.0000      -8.029457      -218.4926
  16   2.0000      -7.974444      -216.9957
  17   2.0000      -5.997751      -163.2071
  18   2.0000      -5.995671      -163.1505
  19   2.0000      -5.990390      -163.0068
  20   2.0000      -5.942370      -161.7001
  21   2.0000      -5.938214      -161.5870
  22   2.0000      -5.936311      -161.5352
  23   2.0000      -1.073114       -29.2009
  24   2.0000      -0.984705       -26.7952
  25   2.0000      -0.892808       -24.2946
  26   2.0000      -0.853684       -23.2299
  27   2.0000      -0.799023       -21.7425
  28   2.0000      -0.760579       -20.6964
  29   2.0000      -0.739936       -20.1347
  30   2.0000      -0.728008       -19.8101
  31   2.0000      -0.687380       -18.7046
  32   2.0000      -0.654686       -17.8149
  33   2.0000      -0.635682       -17.2978
  34   2.0000      -0.591131       -16.0855
  35   2.0000      -0.582671       -15.8553
  36   2.0000      -0.551170       -14.9981
  37   2.0000      -0.537036       -14.6135
  38   2.0000      -0.519163       -14.1271
  39   2.0000      -0.501999       -13.6601
  40   2.0000      -0.483525       -13.1574
  41   2.0000      -0.475274       -12.9329
  42   2.0000      -0.463000       -12.5989
  43   2.0000      -0.447336       -12.1726
  44   2.0000      -0.439689       -11.9645
  45   2.0000      -0.436144       -11.8681
  46   2.0000      -0.425525       -11.5791
  47   2.0000      -0.415814       -11.3149
  48   2.0000      -0.405968       -11.0469
  49   2.0000      -0.400414       -10.8958
  50   2.0000      -0.386476       -10.5165
  51   2.0000      -0.376251       -10.2383
  52   2.0000      -0.367421        -9.9980
  53   2.0000      -0.353070        -9.6075
  54   2.0000      -0.347120        -9.4456
  55   2.0000      -0.330375        -8.9900
  56   2.0000      -0.310887        -8.4597
  57   2.0000      -0.302735        -8.2378
  58   2.0000      -0.291187        -7.9236
  59   2.0000      -0.257643        -7.0108
  60   2.0000      -0.256581        -6.9819
  61   2.0000      -0.224385        -6.1058
  62   2.0000      -0.189241        -5.1495
  63   0.0000      -0.058157        -1.5825
  64   0.0000      -0.011812        -0.3214
  65   0.0000      -0.005786        -0.1574
  66   0.0000       0.034782         0.9465
  67   0.0000       0.038295         1.0421

MULLIKEN ATOMIC CHARGES
-----------------------
   0 C :   -0.168290
   1 S :    0.122074
   2 C :   -0.139439
   3 C :    0.072997
   4 C :    0.166670
   5 C :   -0.187525
   6 S :    0.368357
   7 O :   -0.489040
   8 C :    0.186586
   9 C :    0.016333
  10 C :    0.089240
  11 O :   -0.327418
  12 C :    0.200447
  13 C :   -0.013770
  14 C :   -0.054909
  15 H :    0.022330
  16 H :    0.019833
  17 H :    0.021540
  18 H :   -0.010188
  19 H :    0.006210
  20 H :   -0.019506
  21 H :    0.037720
  22 H :    0.022329
  23 H :    0.016126
  24 H :    0.001523
  25 H :    0.020776
  26 H :    0.018996
Sum of atomic charges:   -0.0000000

LOEWDIN ATOMIC CHARGES
----------------------
   0 C :   -0.217392
   1 S :    0.456514
   2 C :   -0.197764
   3 C :   -0.065560
   4 C :   -0.055706
   5 C :   -0.286933
   6 S :    0.815663
   7 O :   -0.383507
   8 C :    0.031188
   9 C :   -0.112624
  10 C :   -0.034843
  11 O :   -0.126454
  12 C :    0.082265
  13 C :   -0.041765
  14 C :   -0.082566
  15 H :    0.024011
  16 H :    0.025230
  17 H :    0.019462
  18 H :   -0.007379
  19 H :   -0.001147
  20 H :    0.041235
  21 H :    0.027131
  22 H :    0.007620
  23 H :    0.014571
  24 H :    0.028913
  25 H :    0.017044
  26 H :    0.022794

  Mayer bond orders larger than 0.100000
B(  0-C ,  1-S ) :   1.1549 B(  0-C ,  4-C ) :   1.4848 B(  0-C , 15-H ) :   0.9478
B(  1-S ,  2-C ) :   1.1976 B(  2-C ,  3-C ) :   1.4433 B(  2-C , 16-H ) :   0.9656
B(  3-C ,  4-C ) :   1.1972 B(  3-C , 10-C ) :   1.1186 B(  4-C ,  5-C ) :   1.1174
B(  5-C ,  6-S ) :   1.3139 B(  5-C ,  7-O ) :   0.1120 B(  5-C , 13-C ) :   1.1134
B(  6-S ,  7-O ) :   0.6158 B(  6-S ,  9-C ) :   0.9666 B(  7-O ,  8-C ) :   1.0031
B(  8-C , 17-H ) :   0.9718 B(  8-C , 18-H ) :   0.9567 B(  8-C , 19-H ) :   0.9686
B(  9-C , 10-C ) :   1.6606 B(  9-C , 11-O ) :   1.0836 B( 10-C , 20-H ) :   0.9714
B( 11-O , 12-C ) :   0.9353 B( 12-C , 21-H ) :   0.9804 B( 12-C , 22-H ) :   0.9671
B( 12-C , 23-H ) :   0.9612 B( 13-C , 14-C ) :   1.9213 B( 13-C , 24-H ) :   0.9459
B( 14-C , 25-H ) :   0.9474 B( 14-C , 26-H ) :   0.9482

Dispersion correction           -0.062005617
FINAL SINGLE POINT ENERGY     -1372.500677847466

DIPOLE MOMENT
-------------
                                X             Y             Z
Electronic contribution:      3.29634       8.53933      11.23717
Nuclear contribution   :     -2.39896      -9.13938     -11.45010
                        -----------------------------------------
Total Dipole Moment    :      0.89738      -0.60006      -0.21293
                        -----------------------------------------
Magnitude (a.u.)       :      1.10032
Magnitude (Debye)      :      2.79678

Rotational constants in cm-1:     0.023744     0.012407     0.009531
Rotational constants in MHz :   711.834526   371.949781   285.722017

                             ****ORCA TERMINATED NORMALLY****
TOTAL RUN TIME: 0 days 0 hours 37 minutes 40 seconds 621 msec
