                         Program Version 4.2.0 -  RELEASE  -
|  1> # ORCA input file
|  2> # SCF done        -51.446941154499          0.000860367226
|  3> ! B3LYP/G D3BJ Opt RIJCOSX def2-SVP def2/J
|  4> * xyz 0 1
|  5>    C       -3.03481        -1.41431        -2.05712
|  6>    C       -2.29708        -0.98196        -3.14804
|  7>    O       -2.82363        -0.49714        -4.31423
|  8>    C       -4.22121        -0.40911        -4.42614
|  9>    C       -0.90717        -1.02817        -3.08345
| 10>    C       -0.24051        -1.49552        -1.96172
| 11>    C       -1.00307        -1.92825        -0.85306
| 12>    C       -2.38593        -1.88162        -0.92239
| 13>    O       -0.30245        -2.37841         0.22627
| 14>    C       -1.00706        -2.84229         1.35802
| 15>    C        0.01458        -3.29994         2.40698
| 16>    C        0.52588        -2.13236         3.25891
| 17>    C        1.41878        -1.17662         2.47706
| 18>    C       -0.55731        -4.42939         3.27540
| 19>    C       -1.77560        -4.03310         4.10257
| 20>    C        1.21462        -1.54288        -1.88081
| 21>    C        2.06035        -1.44351        -2.89843
| 22>    H       -4.11308        -1.39596        -2.06274
| 23>    H       -4.41282         0.00669        -5.41408
| 24>    H       -4.64578         0.25588        -3.66653
| 25>    H       -4.69549        -1.39353        -4.35148
| 26>    H       -0.35415        -0.67342        -3.93738
| 27>    H       -2.99070        -2.20837        -0.09114
| 28>    H       -1.64649        -3.68878         1.06908
| 29>    H       -1.64329        -2.04362         1.76287
| 30>    H        0.86429        -3.71077         1.85040
| 31>    H        1.09217        -2.53817         4.10075
| 32>    H       -0.32228        -1.57783         3.66528
| 33>    H        2.29318        -1.69966         2.09645
| 34>    H        1.75618        -0.36549         3.11894
| 35>    H        0.88366        -0.75000         1.63389
| 36>    H        0.22862        -4.77844         3.94872
| 37>    H       -0.82612        -5.26666         2.62667
| 38>    H       -1.52784        -3.24527         4.80833
| 39>    H       -2.13344        -4.89152         4.66678
| 40>    H       -2.58441        -3.68586         3.46493
| 41>    H        1.59910        -1.69392        -0.88223
| 42>    H        1.73418        -1.32194        -3.91664
| 43>    H        3.12535        -1.48824        -2.74610
| 44> *
| 45>
| 46>                          ****END OF INPUT****
 Total Charge           Charge          ....    0
 Multiplicity           Mult            ....    1
 Number of Electrons    NEL             ....  128
Dispersion correction           -0.070528408
FINAL SINGLE POINT ENERGY      -734.794531347895
Dispersion correction            ... done
Dispersion correction           -0.070118797
FINAL SINGLE POINT ENERGY      -734.798542878823
Dispersion correction            ... done
Dispersion correction           -0.070403946
FINAL SINGLE POINT ENERGY      -734.798300687668
Dispersion correction            ... done
FINAL SINGLE POINT ENERGY      -734.797805966202
FINAL SINGLE POINT ENERGY      -734.798166146772
FINAL SINGLE POINT ENERGY      -734.798251105234
FINAL SINGLE POINT ENERGY      -734.798118275289
FINAL SINGLE POINT ENERGY      -734.797882633185
FINAL SINGLE POINT ENERGY      -734.798149895510
FINAL SINGLE POINT ENERGY      -734.798319320637
FINAL SINGLE POINT ENERGY      -734.798442928461
FINAL SINGLE POINT ENERGY      -734.798481089994
FINAL SINGLE POINT ENERGY      -734.798519129877
FINAL SINGLE POINT ENERGY      -734.798531782411
FINAL SINGLE POINT ENERGY      -734.798538303038
FINAL SINGLE POINT ENERGY      -734.798536635809
FINAL SINGLE POINT ENERGY      -734.798473691001
Dispersion correction            ... done
Dispersion correction           -0.070489363
FINAL SINGLE POINT ENERGY      -734.798538015916
Dispersion correction            ... done
Dispersion correction           -0.070477527
FINAL SINGLE POINT ENERGY      -734.798537033167
Dispersion correction            ... done
                    ***********************HURRAY********************

CARTESIAN COORDINATES (ANGSTROEM)
---------------------------------
  C     -3.071245   -1.686218   -2.189729
  C     -2.324164   -1.000872   -3.153810
  O     -2.843709   -0.404955   -4.262823
  C     -4.223718   -0.509152   -4.504917
  C     -0.935894   -0.906462   -2.999252
  C     -0.273686   -1.453429   -1.896925
  C     -1.044278   -2.135296   -0.916579
  C     -2.427694   -2.245808   -1.076634
  O     -0.361960   -2.643506    0.147329
  C     -1.074812   -3.075095    1.291131
  C     -0.094571   -3.502270    2.383539
  C      0.737109   -2.351294    2.978911
  C      1.798724   -1.732135    2.068888
  C     -0.844840   -4.281167    3.485070
  C     -1.802537   -3.452453    4.347165
  C      1.182820   -1.338655   -1.725769
  C      1.993272   -0.505372   -2.394224
  H     -4.150931   -1.800516   -2.284672
  H     -4.422682    0.028932   -5.441311
  H     -4.821519   -0.048976   -3.697492
  H     -4.543544   -1.561157   -4.621374
  H     -0.375596   -0.389015   -3.778598
  H     -3.029368   -2.775817   -0.338705
  H     -1.722087   -3.933793    1.029016
  H     -1.735736   -2.259540    1.640476
  H      0.603567   -4.212617    1.904602
  H      1.234033   -2.742893    3.884597
  H      0.055548   -1.558314    3.332824
  H      2.468231   -2.504287    1.654210
  H      2.422565   -1.021314    2.635213
  H      1.353545   -1.195757    1.221195
  H     -0.094737   -4.756092    4.140324
  H     -1.402096   -5.110133    3.014864
  H     -1.266219   -2.691951    4.934943
  H     -2.344899   -4.096245    5.057730
  H     -2.557455   -2.926781    3.740508
  H      1.610368   -1.995723   -0.965665
  H      1.621585    0.198116   -3.144628
  H      3.067827   -0.491447   -2.194837

 Multiplicity           Mult            ....    1
 Number of Electrons    NEL             ....  128
 Basis Dimension        Dim             ....  348

ORBITAL ENERGIES
----------------

  NO   OCC          E(Eh)            E(eV)
   0   2.0000     -19.159030      -521.3437
   1   2.0000     -19.158213      -521.3215
   2   2.0000     -10.242977      -278.7256
   3   2.0000     -10.241503      -278.6855
   4   2.0000     -10.240162      -278.6490
   5   2.0000     -10.240068      -278.6464
   6   2.0000     -10.192002      -277.3385
   7   2.0000     -10.190526      -277.2983
   8   2.0000     -10.189049      -277.2581
   9   2.0000     -10.188658      -277.2475
  10   2.0000     -10.188580      -277.2453
  11   2.0000     -10.185067      -277.1498
  12   2.0000     -10.183138      -277.0973
  13   2.0000     -10.181733      -277.0590
  14   2.0000     -10.181075      -277.0411
  15   2.0000     -10.179564      -277.0000
  16   2.0000     -10.169710      -276.7319
  17   2.0000      -1.054969       -28.7072
  18   2.0000      -1.053752       -28.6740
  19   2.0000      -0.847782       -23.0693
  20   2.0000      -0.813574       -22.1385
  21   2.0000      -0.778967       -21.1968
  22   2.0000      -0.751069       -20.4376
  23   2.0000      -0.741168       -20.1682
  24   2.0000      -0.725238       -19.7347
  25   2.0000      -0.704706       -19.1760
  26   2.0000      -0.678836       -18.4721
  27   2.0000      -0.650732       -17.7073
  28   2.0000      -0.622070       -16.9274
  29   2.0000      -0.606475       -16.5030
  30   2.0000      -0.582282       -15.8447
  31   2.0000      -0.557961       -15.1829
  32   2.0000      -0.548527       -14.9262
  33   2.0000      -0.532193       -14.4817
  34   2.0000      -0.517884       -14.0923
  35   2.0000      -0.499048       -13.5798
  36   2.0000      -0.482729       -13.1357
  37   2.0000      -0.468254       -12.7418
  38   2.0000      -0.458062       -12.4645
  39   2.0000      -0.454559       -12.3692
  40   2.0000      -0.444390       -12.0925
  41   2.0000      -0.439269       -11.9531
  42   2.0000      -0.430959       -11.7270
  43   2.0000      -0.423469       -11.5232
  44   2.0000      -0.418198       -11.3797
  45   2.0000      -0.411678       -11.2023
  46   2.0000      -0.400845       -10.9076
  47   2.0000      -0.394377       -10.7315
  48   2.0000      -0.386423       -10.5151
  49   2.0000      -0.378864       -10.3094
  50   2.0000      -0.371778       -10.1166
  51   2.0000      -0.363066        -9.8795
  52   2.0000      -0.356216        -9.6931
  53   2.0000      -0.353055        -9.6071
  54   2.0000      -0.339391        -9.2353
  55   2.0000      -0.332566        -9.0496
  56   2.0000      -0.328517        -8.9394
  57   2.0000      -0.324895        -8.8408
  58   2.0000      -0.315897        -8.5960
  59   2.0000      -0.309520        -8.4225
  60   2.0000      -0.299200        -8.1417
  61   2.0000      -0.285988        -7.7821
  62   2.0000      -0.230189        -6.2638
  63   2.0000      -0.201399        -5.4804
  64   0.0000      -0.036482        -0.9927
  65   0.0000       0.014401         0.3919
  66   0.0000       0.047292         1.2869
  67   0.0000       0.054182         1.4744
  68   0.0000       0.061652         1.6776

MULLIKEN ATOMIC CHARGES
-----------------------
   0 C :   -0.093604
   1 C :    0.245979
   2 O :   -0.315114
   3 C :    0.191808
   4 C :   -0.086746
   5 C :    0.041861
   6 C :    0.207760
   7 C :   -0.084528
   8 O :   -0.328282
   9 C :    0.233773
  10 C :   -0.071452
  11 C :   -0.007039
  12 C :    0.033918
  13 C :    0.014822
  14 C :   -0.001597
  15 C :    0.013842
  16 C :   -0.033112
  17 H :   -0.031053
  18 H :    0.027484
  19 H :    0.014866
  20 H :    0.011669
  21 H :   -0.034298
  22 H :   -0.028206
  23 H :   -0.000928
  24 H :    0.000513
  25 H :   -0.005460
  26 H :   -0.004808
  27 H :   -0.003832
  28 H :    0.002332
  29 H :    0.000480
  30 H :    0.024823
  31 H :    0.000376
  32 H :   -0.004909
  33 H :    0.015455
  34 H :    0.010746
  35 H :    0.006110
  36 H :   -0.001535
  37 H :    0.015553
  38 H :    0.022333
Sum of atomic charges:   -0.0000000

LOEWDIN ATOMIC CHARGES
----------------------
   0 C :   -0.070641
   1 C :    0.036616
   2 O :   -0.106655
   3 C :    0.077693
   4 C :   -0.027013
   5 C :   -0.042017
   6 C :    0.043962
   7 C :   -0.067510
   8 O :   -0.099679
   9 C :    0.091369
  10 C :   -0.039322
  11 C :   -0.030512
  12 C :   -0.056616
  13 C :   -0.028622
  14 C :   -0.058240
  15 C :   -0.016269
  16 C :   -0.051049
  17 H :    0.025707
  18 H :    0.025118
  19 H :    0.010425
  20 H :    0.010068
  21 H :    0.030224
  22 H :    0.026848
  23 H :    0.007469
  24 H :    0.007756
  25 H :    0.024159
  26 H :    0.019039
  27 H :    0.017388
  28 H :    0.019007
  29 H :    0.020353
  30 H :    0.022319
  31 H :    0.021607
  32 H :    0.017522
  33 H :    0.022236
  34 H :    0.024889
  35 H :    0.018218
  36 H :    0.029993
  37 H :    0.019152
  38 H :    0.025008

  Mayer bond orders larger than 0.100000
B(  0-C ,  1-C ) :   1.3151 B(  0-C ,  7-C ) :   1.2963 B(  0-C , 17-H ) :   0.9898
B(  1-C ,  2-O ) :   1.1217 B(  1-C ,  4-C ) :   1.3256 B(  2-O ,  3-C ) :   0.9793
B(  3-C , 18-H ) :   0.9769 B(  3-C , 19-H ) :   0.9635 B(  3-C , 20-H ) :   0.9633
B(  4-C ,  5-C ) :   1.3671 B(  4-C , 21-H ) :   0.9928 B(  5-C ,  6-C ) :   1.3056
B(  5-C , 15-C ) :   1.0964 B(  6-C ,  7-C ) :   1.3399 B(  6-C ,  8-O ) :   1.1265
B(  7-C , 22-H ) :   0.9848 B(  8-O ,  9-C ) :   0.9625 B(  9-C , 10-C ) :   1.0187
B(  9-C , 23-H ) :   0.9378 B(  9-C , 24-H ) :   0.9338 B( 10-C , 11-C ) :   1.0490
B( 10-C , 13-C ) :   1.0648 B( 10-C , 25-H ) :   0.9099 B( 11-C , 12-C ) :   1.1152
B( 11-C , 26-H ) :   0.9451 B( 11-C , 27-H ) :   0.9338 B( 12-C , 28-H ) :   0.9621
B( 12-C , 29-H ) :   0.9592 B( 12-C , 30-H ) :   0.9619 B( 13-C , 14-C ) :   1.0944
B( 13-C , 31-H ) :   0.9387 B( 13-C , 32-H ) :   0.9399 B( 14-C , 33-H ) :   0.9673
B( 14-C , 34-H ) :   0.9627 B( 14-C , 35-H ) :   0.9713 B( 15-C , 16-C ) :   1.9219
B( 15-C , 36-H ) :   0.9498 B( 16-C , 37-H ) :   0.9447 B( 16-C , 38-H ) :   0.9472

Dispersion correction           -0.070456032
FINAL SINGLE POINT ENERGY      -734.798524623299

DIPOLE MOMENT
-------------
                                X             Y             Z
Electronic contribution:     -3.13135       4.13966     -19.82348
Nuclear contribution   :      2.30687      -4.40829      20.26170
                        -----------------------------------------
Total Dipole Moment    :     -0.82447      -0.26864       0.43822
                        -----------------------------------------
Magnitude (a.u.)       :      0.97158
Magnitude (Debye)      :      2.46955

Rotational constants in cm-1:     0.025342     0.007525     0.006023
Rotational constants in MHz :   759.728866   225.598725   180.558326

                             ****ORCA TERMINATED NORMALLY****
TOTAL RUN TIME: 0 days 1 hours 32 minutes 0 seconds 485 msec
