                         Program Version 4.2.0 -  RELEASE  -
|  1> # ORCA input file
|  2> # SCF done        -27.740651281874          0.000834632085
|  3> ! B3LYP/G D3BJ Opt RIJCOSX def2-SVP def2/J
|  4> * xyz 0 1
|  5>    C       -1.31108         1.34533        -0.15710
|  6>    S       -2.52737         0.12923        -0.25544
|  7>    C       -1.36613        -1.15056         0.01829
|  8>    C       -0.11426        -0.61647         0.17342
|  9>    C       -0.09084         0.80240         0.07633
| 10>    S        1.45340         1.59935         0.31087
| 11>    C        2.41252         0.07025         0.05493
| 12>    S        1.41849        -1.40026         0.48738
| 13>    C       -1.81958        -2.51363         0.05518
| 14>    C       -1.06952        -3.56424         0.37622
| 15>    H       -1.56714         2.37873        -0.26655
| 16>    H        3.29491         0.09604         0.68938
| 17>    H        2.70248         0.00269        -0.99410
| 18>    H       -2.86341        -2.64397        -0.19833
| 19>    H       -0.03286        -3.46580         0.64969
| 20>    H       -1.47661        -4.55978         0.37429
| 21> *
| 22>
| 23>                          ****END OF INPUT****
 Total Charge           Charge          ....    0
 Multiplicity           Mult            ....    1
 Number of Electrons    NEL             ....   96
Dispersion correction           -0.043053590
FINAL SINGLE POINT ENERGY     -1464.406266127360
Dispersion correction            ... done
Dispersion correction           -0.042801678
FINAL SINGLE POINT ENERGY     -1464.408801259258
Dispersion correction            ... done
Dispersion correction           -0.042755273
FINAL SINGLE POINT ENERGY     -1464.408951811759
Dispersion correction            ... done
FINAL SINGLE POINT ENERGY     -1464.408940490286
FINAL SINGLE POINT ENERGY     -1464.408973181951
FINAL SINGLE POINT ENERGY     -1464.408969796909
FINAL SINGLE POINT ENERGY     -1464.408952482963
FINAL SINGLE POINT ENERGY     -1464.408940840969
Dispersion correction            ... done
Dispersion correction           -0.042718470
FINAL SINGLE POINT ENERGY     -1464.408928538088
Dispersion correction            ... done
Dispersion correction           -0.042719883
FINAL SINGLE POINT ENERGY     -1464.408929822087
Dispersion correction            ... done
                    ***********************HURRAY********************

CARTESIAN COORDINATES (ANGSTROEM)
---------------------------------
  C     -1.319489    1.364657   -0.198430
  S     -2.530101    0.125742   -0.251631
  C     -1.359918   -1.144995    0.068235
  C     -0.100830   -0.593394    0.219846
  C     -0.082738    0.835900    0.067560
  S      1.473741    1.637970    0.315071
  C      2.432359    0.092331    0.068476
  S      1.439717   -1.355485    0.615643
  C     -1.824434   -2.520803    0.106750
  C     -1.084312   -3.621580    0.321701
  H     -1.587768    2.405326   -0.368786
  H      3.343185    0.143930    0.678608
  H      2.702294   -0.022643   -0.991561
  H     -2.897289   -2.646987   -0.076060
  H     -0.009413   -3.581847    0.511807
  H     -1.552003   -4.608813    0.307231

 Multiplicity           Mult            ....    1
 Number of Electrons    NEL             ....   96
 Basis Dimension        Dim             ....  182

ORBITAL ENERGIES
----------------

  NO   OCC          E(Eh)            E(eV)
   0   2.0000     -88.878003     -2418.4934
   1   2.0000     -88.865805     -2418.1615
   2   2.0000     -88.862455     -2418.0703
   3   2.0000     -10.254971      -279.0520
   4   2.0000     -10.228299      -278.3262
   5   2.0000     -10.226906      -278.2883
   6   2.0000     -10.225766      -278.2573
   7   2.0000     -10.220645      -278.1179
   8   2.0000     -10.207059      -277.7482
   9   2.0000     -10.191200      -277.3166
  10   2.0000      -7.972894      -216.9535
  11   2.0000      -7.960238      -216.6091
  12   2.0000      -7.957368      -216.5310
  13   2.0000      -5.941237      -161.6693
  14   2.0000      -5.937196      -161.5593
  15   2.0000      -5.933728      -161.4649
  16   2.0000      -5.929623      -161.3533
  17   2.0000      -5.926790      -161.2762
  18   2.0000      -5.925723      -161.2471
  19   2.0000      -5.923068      -161.1749
  20   2.0000      -5.918759      -161.0576
  21   2.0000      -5.915588      -160.9713
  22   2.0000      -0.902781       -24.5659
  23   2.0000      -0.840327       -22.8665
  24   2.0000      -0.793580       -21.5944
  25   2.0000      -0.754127       -20.5208
  26   2.0000      -0.732837       -19.9415
  27   2.0000      -0.693892       -18.8818
  28   2.0000      -0.625577       -17.0228
  29   2.0000      -0.605167       -16.4674
  30   2.0000      -0.563707       -15.3392
  31   2.0000      -0.517622       -14.0852
  32   2.0000      -0.481678       -13.1071
  33   2.0000      -0.463692       -12.6177
  34   2.0000      -0.458567       -12.4783
  35   2.0000      -0.434484       -11.8229
  36   2.0000      -0.430533       -11.7154
  37   2.0000      -0.405588       -11.0366
  38   2.0000      -0.393604       -10.7105
  39   2.0000      -0.385288       -10.4842
  40   2.0000      -0.358500        -9.7553
  41   2.0000      -0.342902        -9.3308
  42   2.0000      -0.341100        -9.2818
  43   2.0000      -0.318539        -8.6679
  44   2.0000      -0.299771        -8.1572
  45   2.0000      -0.271113        -7.3773
  46   2.0000      -0.214780        -5.8445
  47   2.0000      -0.211139        -5.7454
  48   0.0000      -0.048925        -1.3313
  49   0.0000      -0.010423        -0.2836
  50   0.0000       0.003871         0.1053
  51   0.0000       0.017454         0.4749
  52   0.0000       0.055039         1.4977

MULLIKEN ATOMIC CHARGES
-----------------------
   0 C :   -0.145660
   1 S :    0.106377
   2 C :   -0.176433
   3 C :    0.007772
   4 C :    0.014439
   5 S :    0.024789
   6 C :   -0.106766
   7 S :    0.033116
   8 C :    0.036995
   9 C :   -0.043429
  10 H :    0.026039
  11 H :    0.083787
  12 H :    0.098831
  13 H :   -0.011378
  14 H :    0.026834
  15 H :    0.024688
Sum of atomic charges:   -0.0000000

LOEWDIN ATOMIC CHARGES
----------------------
   0 C :   -0.214155
   1 S :    0.426866
   2 C :   -0.197408
   3 C :   -0.204335
   4 C :   -0.207548
   5 S :    0.276041
   6 C :   -0.223100
   7 S :    0.295528
   8 C :   -0.045150
   9 C :   -0.053586
  10 H :    0.027902
  11 H :    0.027655
  12 H :    0.019875
  13 H :    0.029138
  14 H :    0.014471
  15 H :    0.027807

  Mayer bond orders larger than 0.100000
B(  0-C ,  1-S ) :   1.1358 B(  0-C ,  4-C ) :   1.5833 B(  0-C , 10-H ) :   0.9714
B(  1-S ,  2-C ) :   1.1137 B(  2-C ,  3-C ) :   1.5625 B(  2-C ,  8-C ) :   1.1297
B(  3-C ,  4-C ) :   1.2352 B(  3-C ,  7-S ) :   1.0172 B(  4-C ,  5-S ) :   0.9913
B(  5-S ,  6-C ) :   0.9862 B(  6-C ,  7-S ) :   0.9750 B(  6-C , 11-H ) :   0.9557
B(  6-C , 12-H ) :   0.9426 B(  8-C ,  9-C ) :   1.9106 B(  8-C , 13-H ) :   0.9446
B(  9-C , 14-H ) :   0.9465 B(  9-C , 15-H ) :   0.9427

Dispersion correction           -0.042720948
FINAL SINGLE POINT ENERGY     -1464.408931466256

DIPOLE MOMENT
-------------
                                X             Y             Z
Electronic contribution:     -0.53525       5.99116       0.62033
Nuclear contribution   :      0.81555      -5.95258      -0.84542
                        -----------------------------------------
Total Dipole Moment    :      0.28030       0.03858      -0.22510
                        -----------------------------------------
Magnitude (a.u.)       :      0.36156
Magnitude (Debye)      :      0.91902

Rotational constants in cm-1:     0.042617     0.027139     0.016756
Rotational constants in MHz :  1277.613023   813.620209   502.344012

                             ****ORCA TERMINATED NORMALLY****
TOTAL RUN TIME: 0 days 0 hours 11 minutes 8 seconds 422 msec
