                         Program Version 4.2.0 -  RELEASE  -
|  1> # ORCA input file
|  2> # SCF done        -42.275909786323          0.000497671549
|  3> ! B3LYP/G D3BJ Opt RIJCOSX def2-SVP def2/J
|  4> * xyz 0 1
|  5>    C        1.02035        -0.21319        -1.05652
|  6>    C        0.34847         0.98560        -0.90833
|  7>    C       -0.92570         1.02339        -0.35935
|  8>    C       -1.62092         2.34604        -0.18667
|  9>    C       -1.29401         2.95841         1.17660
| 10>    C       -1.52982        -0.16737         0.05277
| 11>    C       -0.85840        -1.38260        -0.10514
| 12>    C        0.41485        -1.38983        -0.65758
| 13>    C       -1.47877        -2.67679         0.34507
| 14>    C       -1.11951        -2.97284         1.80234
| 15>    C       -2.87262        -0.14022         0.67063
| 16>    C       -4.02990        -0.24810         0.00718
| 17>    C       -5.34447        -0.21008         0.72971
| 18>    C       -4.03870        -0.40438        -1.44019
| 19>    C       -5.12119        -0.52028        -2.20133
| 20>    H        2.01178        -0.23076        -1.48504
| 21>    H        0.81416         1.90800        -1.22586
| 22>    H       -2.70076         2.21460        -0.27416
| 23>    H       -1.29560         3.03147        -0.97237
| 24>    H       -1.62407         2.30108         1.97736
| 25>    H       -1.79110         3.91922         1.29087
| 26>    H       -0.22109         3.10765         1.27717
| 27>    H        0.93243        -2.33111        -0.77853
| 28>    H       -1.11406        -3.49137        -0.28452
| 29>    H       -2.56410        -2.62673         0.24344
| 30>    H       -0.03948        -3.02160         1.92349
| 31>    H       -1.54775        -3.92287         2.11413
| 32>    H       -1.50153        -2.19091         2.45427
| 33>    H       -2.88516        -0.02326         1.74839
| 34>    H       -5.19334        -0.09814         1.80059
| 35>    H       -5.90136        -1.12902         0.55158
| 36>    H       -5.94794         0.62451         0.37483
| 37>    H       -3.05917        -0.42237        -1.90131
| 38>    H       -6.12040        -0.50838        -1.80063
| 39>    H       -5.04318        -0.63329        -3.26936
| 40> *
| 41>
| 42>                          ****END OF INPUT****
 Total Charge           Charge          ....    0
 Multiplicity           Mult            ....    1
 Number of Electrons    NEL             ....  110
Dispersion correction           -0.070265018
FINAL SINGLE POINT ENERGY      -583.267151733157
Dispersion correction            ... done
Dispersion correction           -0.069313865
FINAL SINGLE POINT ENERGY      -583.271830340931
Dispersion correction            ... done
Dispersion correction           -0.069260789
FINAL SINGLE POINT ENERGY      -583.271972571370
Dispersion correction            ... done
FINAL SINGLE POINT ENERGY      -583.272014233575
FINAL SINGLE POINT ENERGY      -583.271957919776
FINAL SINGLE POINT ENERGY      -583.271872516032
FINAL SINGLE POINT ENERGY      -583.271740367755
FINAL SINGLE POINT ENERGY      -583.271712311158
FINAL SINGLE POINT ENERGY      -583.271857920402
FINAL SINGLE POINT ENERGY      -583.272019601355
FINAL SINGLE POINT ENERGY      -583.272043315179
FINAL SINGLE POINT ENERGY      -583.272050158718
FINAL SINGLE POINT ENERGY      -583.272064394289
Dispersion correction            ... done
Dispersion correction           -0.069592825
FINAL SINGLE POINT ENERGY      -583.272080785620
Dispersion correction            ... done
Dispersion correction           -0.069595222
FINAL SINGLE POINT ENERGY      -583.272093550782
Dispersion correction            ... done
                    ***********************HURRAY********************

CARTESIAN COORDINATES (ANGSTROEM)
---------------------------------
  C      1.109078   -0.161109   -1.127725
  C      0.497847    1.067349   -0.884101
  C     -0.785430    1.134969   -0.327686
  C     -1.418289    2.487704   -0.080039
  C     -1.252099    2.988696    1.361347
  C     -1.464059   -0.064909   -0.004135
  C     -0.844734   -1.315673   -0.245557
  C      0.438060   -1.340225   -0.809525
  C     -1.507242   -2.623362    0.133131
  C     -1.490547   -2.890125    1.641558
  C     -2.814457    0.020172    0.613409
  C     -3.995742   -0.277400    0.025289
  C     -5.288716   -0.132647    0.785291
  C     -4.054486   -0.738526   -1.364817
  C     -5.173938   -1.082887   -2.021753
  H      2.104648   -0.200562   -1.575771
  H      1.014686    1.995080   -1.144981
  H     -2.489918    2.442678   -0.331884
  H     -0.967456    3.221559   -0.766711
  H     -1.696144    2.289427    2.085108
  H     -1.743732    3.965004    1.497989
  H     -0.187839    3.100447    1.621764
  H      0.913377   -2.305153   -1.006313
  H     -0.985449   -3.442220   -0.386123
  H     -2.545806   -2.644130   -0.228719
  H     -0.459703   -2.921533    2.028209
  H     -1.975908   -3.850621    1.877965
  H     -2.028403   -2.102138    2.189407
  H     -2.851612    0.398532    1.640900
  H     -5.118814    0.286607    1.786903
  H     -5.793441   -1.106593    0.901651
  H     -5.992213    0.526032    0.250710
  H     -3.095811   -0.791891   -1.889647
  H     -6.160264   -1.047202   -1.551845
  H     -5.137503   -1.420872   -3.059770

 Multiplicity           Mult            ....    1
 Number of Electrons    NEL             ....  110
 Basis Dimension        Dim             ....  310

ORBITAL ENERGIES
----------------

  NO   OCC          E(Eh)            E(eV)
   0   2.0000     -10.196689      -277.4660
   1   2.0000     -10.190653      -277.3018
   2   2.0000     -10.189995      -277.2839
   3   2.0000     -10.189687      -277.2755
   4   2.0000     -10.189496      -277.2703
   5   2.0000     -10.188267      -277.2368
   6   2.0000     -10.186381      -277.1855
   7   2.0000     -10.186208      -277.1808
   8   2.0000     -10.184642      -277.1382
   9   2.0000     -10.183973      -277.1200
  10   2.0000     -10.181927      -277.0643
  11   2.0000     -10.181284      -277.0468
  12   2.0000     -10.181110      -277.0421
  13   2.0000     -10.180059      -277.0135
  14   2.0000     -10.176413      -276.9143
  15   2.0000      -0.855705       -23.2849
  16   2.0000      -0.814893       -22.1744
  17   2.0000      -0.786929       -21.4134
  18   2.0000      -0.765479       -20.8297
  19   2.0000      -0.740613       -20.1531
  20   2.0000      -0.720701       -19.6113
  21   2.0000      -0.706142       -19.2151
  22   2.0000      -0.675089       -18.3701
  23   2.0000      -0.626412       -17.0455
  24   2.0000      -0.622859       -16.9488
  25   2.0000      -0.598159       -16.2767
  26   2.0000      -0.570870       -15.5342
  27   2.0000      -0.555021       -15.1029
  28   2.0000      -0.515108       -14.0168
  29   2.0000      -0.495120       -13.4729
  30   2.0000      -0.481333       -13.0977
  31   2.0000      -0.464630       -12.6432
  32   2.0000      -0.459864       -12.5135
  33   2.0000      -0.436737       -11.8842
  34   2.0000      -0.433297       -11.7906
  35   2.0000      -0.427929       -11.6445
  36   2.0000      -0.417599       -11.3635
  37   2.0000      -0.410215       -11.1625
  38   2.0000      -0.405784       -11.0419
  39   2.0000      -0.396714       -10.7951
  40   2.0000      -0.392400       -10.6778
  41   2.0000      -0.386895       -10.5279
  42   2.0000      -0.377946       -10.2844
  43   2.0000      -0.368101       -10.0165
  44   2.0000      -0.366878        -9.9833
  45   2.0000      -0.351762        -9.5719
  46   2.0000      -0.341522        -9.2933
  47   2.0000      -0.338171        -9.2021
  48   2.0000      -0.336509        -9.1569
  49   2.0000      -0.326902        -8.8954
  50   2.0000      -0.320217        -8.7136
  51   2.0000      -0.303195        -8.2503
  52   2.0000      -0.246609        -6.7106
  53   2.0000      -0.239250        -6.5103
  54   2.0000      -0.225890        -6.1468
  55   0.0000      -0.037556        -1.0219
  56   0.0000      -0.005666        -0.1542
  57   0.0000      -0.001419        -0.0386
  58   0.0000       0.055491         1.5100
  59   0.0000       0.067581         1.8390

MULLIKEN ATOMIC CHARGES
-----------------------
   0 C :    0.048164
   1 C :   -0.038163
   2 C :   -0.046590
   3 C :    0.092033
   4 C :    0.025292
   5 C :   -0.001023
   6 C :   -0.053292
   7 C :   -0.038302
   8 C :    0.109863
   9 C :    0.020055
  10 C :   -0.090053
  11 C :   -0.080732
  12 C :    0.096008
  13 C :   -0.006224
  14 C :   -0.030182
  15 H :   -0.026084
  16 H :   -0.038532
  17 H :    0.005327
  18 H :   -0.007462
  19 H :    0.001603
  20 H :    0.008007
  21 H :    0.007916
  22 H :   -0.038392
  23 H :   -0.015961
  24 H :    0.000183
  25 H :    0.004500
  26 H :    0.004901
  27 H :    0.009104
  28 H :   -0.000051
  29 H :    0.000113
  30 H :    0.020344
  31 H :    0.021573
  32 H :    0.005365
  33 H :    0.010016
  34 H :    0.020675
Sum of atomic charges:   -0.0000000

LOEWDIN ATOMIC CHARGES
----------------------
   0 C :   -0.024802
   1 C :   -0.034826
   2 C :   -0.013247
   3 C :   -0.028486
   4 C :   -0.048220
   5 C :   -0.035288
   6 C :   -0.013927
   7 C :   -0.035601
   8 C :   -0.026833
   9 C :   -0.047911
  10 C :   -0.021266
  11 C :   -0.032075
  12 C :   -0.042530
  13 C :   -0.026321
  14 C :   -0.051785
  15 H :    0.025180
  16 H :    0.021697
  17 H :    0.027622
  18 H :    0.024388
  19 H :    0.018788
  20 H :    0.022232
  21 H :    0.021974
  22 H :    0.021727
  23 H :    0.022223
  24 H :    0.027764
  25 H :    0.020724
  26 H :    0.021397
  27 H :    0.020787
  28 H :    0.022708
  29 H :    0.026021
  30 H :    0.031457
  31 H :    0.030768
  32 H :    0.031526
  33 H :    0.018921
  34 H :    0.025211

  Mayer bond orders larger than 0.100000
B(  0-C ,  1-C ) :   1.3595 B(  0-C ,  7-C ) :   1.3617 B(  0-C , 15-H ) :   0.9799
B(  1-C ,  2-C ) :   1.3834 B(  1-C , 16-H ) :   0.9843 B(  2-C ,  3-C ) :   1.0677
B(  2-C ,  5-C ) :   1.4002 B(  3-C ,  4-C ) :   1.1094 B(  3-C , 17-H ) :   0.9045
B(  3-C , 18-H ) :   0.9228 B(  4-C , 19-H ) :   0.9670 B(  4-C , 20-H ) :   0.9622
B(  4-C , 21-H ) :   0.9653 B(  5-C ,  6-C ) :   1.3878 B(  5-C , 10-C ) :   0.9647
B(  6-C ,  7-C ) :   1.3831 B(  6-C ,  8-C ) :   1.0679 B(  7-C , 22-H ) :   0.9841
B(  8-C ,  9-C ) :   1.1037 B(  8-C , 23-H ) :   0.9183 B(  8-C , 24-H ) :   0.9075
B(  9-C , 25-H ) :   0.9641 B(  9-C , 26-H ) :   0.9632 B(  9-C , 27-H ) :   0.9690
B( 10-C , 11-C ) :   1.8094 B( 10-C , 14-C ) :   0.1136 B( 10-C , 28-H ) :   0.9220
B( 11-C , 12-C ) :   1.0946 B( 11-C , 13-C ) :   1.1097 B( 12-C , 29-H ) :   0.9507
B( 12-C , 30-H ) :   0.9395 B( 12-C , 31-H ) :   0.9405 B( 13-C , 14-C ) :   1.9057
B( 13-C , 32-H ) :   0.9482 B( 14-C , 33-H ) :   0.9431 B( 14-C , 34-H ) :   0.9435

Dispersion correction           -0.069592691
FINAL SINGLE POINT ENERGY      -583.272097618135

DIPOLE MOMENT
-------------
                                X             Y             Z
Electronic contribution:      6.39929      -0.20495      -5.82232
Nuclear contribution   :     -6.58497       0.25010       5.91696
                        -----------------------------------------
Total Dipole Moment    :     -0.18568       0.04515       0.09464
                        -----------------------------------------
Magnitude (a.u.)       :      0.21324
Magnitude (Debye)      :      0.54201

Rotational constants in cm-1:     0.022390     0.016369     0.012513
Rotational constants in MHz :   671.233150   490.718701   375.133035

                             ****ORCA TERMINATED NORMALLY****
TOTAL RUN TIME: 0 days 0 hours 58 minutes 23 seconds 707 msec
