                         Program Version 4.2.0 -  RELEASE  -
|  1> # ORCA input file
|  2> # SCF done        -26.488246033517          0.000478731712
|  3> ! B3LYP/G D3BJ Opt RIJCOSX def2-SVP def2/J
|  4> * xyz 0 1
|  5>    C       -0.12519         1.42506        -0.24796
|  6>    S       -1.32230         0.20541        -0.45599
|  7>    C       -0.13044        -1.04504        -0.27644
|  8>    C       -0.52669        -2.48085        -0.32899
|  9>    C       -1.44652        -2.85112         0.83510
| 10>    C        1.10063        -0.51112        -0.07225
| 11>    C        1.11529         0.90964        -0.05310
| 12>    C        2.35915         1.72455         0.11672
| 13>    C        3.11551         1.84563        -1.20723
| 14>    H       -0.41894         2.45567        -0.27967
| 15>    H        0.37672        -3.09324        -0.29650
| 16>    H       -1.04271        -2.68569        -1.27084
| 17>    H       -0.95283        -2.65514         1.78437
| 18>    H       -1.70908        -3.90524         0.78997
| 19>    H       -2.35965        -2.26211         0.79341
| 20>    H        1.98546        -1.10814         0.06564
| 21>    H        3.00364         1.24902         0.85941
| 22>    H        2.09703         2.72089         0.47785
| 23>    H        3.38430         0.86091        -1.58275
| 24>    H        4.02495         2.42691        -1.07345
| 25>    H        2.49437         2.33802        -1.95205
| 26> *
| 27>
| 28>                          ****END OF INPUT****
 Total Charge           Charge          ....    0
 Multiplicity           Mult            ....    1
 Number of Electrons    NEL             ....   76
Dispersion correction           -0.037174116
FINAL SINGLE POINT ENERGY      -709.969027515190
Dispersion correction            ... done
Dispersion correction           -0.036785396
FINAL SINGLE POINT ENERGY      -709.971876248036
Dispersion correction            ... done
Dispersion correction           -0.036685498
FINAL SINGLE POINT ENERGY      -709.971988125718
Dispersion correction            ... done
FINAL SINGLE POINT ENERGY      -709.971639791893
FINAL SINGLE POINT ENERGY      -709.971648100278
FINAL SINGLE POINT ENERGY      -709.971778431800
FINAL SINGLE POINT ENERGY      -709.971815675849
FINAL SINGLE POINT ENERGY      -709.971819436960
FINAL SINGLE POINT ENERGY      -709.971810971645
FINAL SINGLE POINT ENERGY      -709.971786034043
Dispersion correction            ... done
Dispersion correction           -0.036648584
FINAL SINGLE POINT ENERGY      -709.971776383274
Dispersion correction            ... done
Dispersion correction           -0.036645922
FINAL SINGLE POINT ENERGY      -709.971771790639
Dispersion correction            ... done
                    ***********************HURRAY********************

CARTESIAN COORDINATES (ANGSTROEM)
---------------------------------
  C     -0.106887    1.413545   -0.488352
  S     -1.312521    0.206552   -0.779064
  C     -0.196684   -1.082825   -0.421104
  C     -0.666869   -2.508381   -0.368392
  C     -1.343333   -2.857692    0.966599
  C      1.037534   -0.569545   -0.103232
  C      1.102662    0.864136   -0.132926
  C      2.350764    1.662677    0.144591
  C      3.165338    1.977185   -1.118249
  H     -0.351770    2.468283   -0.609199
  H      0.201803   -3.166445   -0.534997
  H     -1.364898   -2.707309   -1.198805
  H     -0.640409   -2.725623    1.803427
  H     -1.704880   -3.898720    0.974214
  H     -2.204429   -2.197997    1.151577
  H      1.885566   -1.201893    0.169136
  H      2.980683    1.108029    0.860134
  H      2.075227    2.605648    0.645201
  H      3.491461    1.054345   -1.624265
  H      4.062881    2.567739   -0.873404
  H      2.561462    2.552308   -1.837642

 Multiplicity           Mult            ....    1
 Number of Electrons    NEL             ....   76
 Basis Dimension        Dim             ....  190

ORBITAL ENERGIES
----------------

  NO   OCC          E(Eh)            E(eV)
   0   2.0000     -88.861858     -2418.0541
   1   2.0000     -10.207327      -277.7555
   2   2.0000     -10.198981      -277.5284
   3   2.0000     -10.198208      -277.5074
   4   2.0000     -10.190204      -277.2896
   5   2.0000     -10.187995      -277.2294
   6   2.0000     -10.183379      -277.1038
   7   2.0000     -10.180933      -277.0373
   8   2.0000     -10.180531      -277.0263
   9   2.0000      -7.957164      -216.5254
  10   2.0000      -5.925272      -161.2348
  11   2.0000      -5.921164      -161.1231
  12   2.0000      -5.918536      -161.0516
  13   2.0000      -0.871487       -23.7144
  14   2.0000      -0.786546       -21.4030
  15   2.0000      -0.762278       -20.7427
  16   2.0000      -0.712224       -19.3806
  17   2.0000      -0.691071       -18.8050
  18   2.0000      -0.624877       -17.0038
  19   2.0000      -0.608334       -16.5536
  20   2.0000      -0.536237       -14.5918
  21   2.0000      -0.530765       -14.4428
  22   2.0000      -0.480565       -13.0769
  23   2.0000      -0.448273       -12.1981
  24   2.0000      -0.443282       -12.0623
  25   2.0000      -0.430913       -11.7257
  26   2.0000      -0.405793       -11.0422
  27   2.0000      -0.397036       -10.8039
  28   2.0000      -0.387965       -10.5571
  29   2.0000      -0.380586       -10.3563
  30   2.0000      -0.362641        -9.8680
  31   2.0000      -0.358796        -9.7633
  32   2.0000      -0.347600        -9.4587
  33   2.0000      -0.340543        -9.2666
  34   2.0000      -0.334761        -9.1093
  35   2.0000      -0.326513        -8.8849
  36   2.0000      -0.242025        -6.5858
  37   2.0000      -0.222352        -6.0505
  38   0.0000      -0.010638        -0.2895
  39   0.0000       0.038848         1.0571
  40   0.0000       0.055217         1.5025
  41   0.0000       0.064742         1.7617
  42   0.0000       0.077248         2.1020

MULLIKEN ATOMIC CHARGES
-----------------------
   0 C :   -0.136637
   1 S :    0.086179
   2 C :   -0.209131
   3 C :    0.092592
   4 C :    0.017074
   5 C :    0.023131
   6 C :   -0.023460
   7 C :    0.077232
   8 C :    0.016528
   9 H :    0.011871
  10 H :    0.006261
  11 H :    0.006989
  12 H :    0.014036
  13 H :    0.011663
  14 H :    0.012035
  15 H :   -0.033591
  16 H :   -0.002469
  17 H :   -0.001457
  18 H :    0.008027
  19 H :    0.011835
  20 H :    0.011293
Sum of atomic charges:    0.0000000

LOEWDIN ATOMIC CHARGES
----------------------
   0 C :   -0.209092
   1 S :    0.408358
   2 C :   -0.174920
   3 C :   -0.042576
   4 C :   -0.050879
   5 C :   -0.078271
   6 C :   -0.061280
   7 C :   -0.028292
   8 C :   -0.050334
   9 H :    0.019693
  10 H :    0.031764
  11 H :    0.027247
  12 H :    0.023905
  13 H :    0.021994
  14 H :    0.021318
  15 H :    0.022896
  16 H :    0.025568
  17 H :    0.026969
  18 H :    0.022274
  19 H :    0.021371
  20 H :    0.022287

  Mayer bond orders larger than 0.100000
B(  0-C ,  1-S ) :   1.1336 B(  0-C ,  6-C ) :   1.5770 B(  0-C ,  9-H ) :   0.9681
B(  1-S ,  2-C ) :   1.1570 B(  2-C ,  3-C ) :   1.0579 B(  2-C ,  5-C ) :   1.5680
B(  3-C ,  4-C ) :   1.0978 B(  3-C , 10-H ) :   0.9281 B(  3-C , 11-H ) :   0.9252
B(  4-C , 12-H ) :   0.9705 B(  4-C , 13-H ) :   0.9640 B(  4-C , 14-H ) :   0.9691
B(  5-C ,  6-C ) :   1.2432 B(  5-C , 15-H ) :   0.9906 B(  6-C ,  7-C ) :   1.0575
B(  7-C ,  8-C ) :   1.1044 B(  7-C , 16-H ) :   0.9283 B(  7-C , 17-H ) :   0.9279
B(  8-C , 18-H ) :   0.9677 B(  8-C , 19-H ) :   0.9648 B(  8-C , 20-H ) :   0.9704

Dispersion correction           -0.036645583
FINAL SINGLE POINT ENERGY      -709.971772911144

DIPOLE MOMENT
-------------
                                X             Y             Z
Electronic contribution:     -7.48183       2.39076      -2.46750
Nuclear contribution   :      7.69518      -2.51429       2.56378
                        -----------------------------------------
Total Dipole Moment    :      0.21335      -0.12353       0.09628
                        -----------------------------------------
Magnitude (a.u.)       :      0.26467
Magnitude (Debye)      :      0.67273

Rotational constants in cm-1:     0.092588     0.026304     0.022436
Rotational constants in MHz :  2775.708117   788.588280   672.612058

                             ****ORCA TERMINATED NORMALLY****
TOTAL RUN TIME: 0 days 0 hours 13 minutes 58 seconds 481 msec
