                         Program Version 4.2.0 -  RELEASE  -
|  1> # ORCA input file
|  2> # SCF done        -29.282718313265          0.000311308883
|  3> ! B3LYP/G D3BJ Opt RIJCOSX def2-SVP def2/J
|  4> * xyz 0 1
|  5>    C       -1.24363         1.30099        -0.00261
|  6>    C       -0.01422         0.73659        -0.00210
|  7>    C       -0.02285        -0.70785        -0.00198
|  8>    C       -1.33839        -1.30158        -0.00255
|  9>    O       -1.70986        -2.43302        -0.00255
| 10>    S       -2.51428         0.13237        -0.00314
| 11>    C        1.27325        -1.10708        -0.00130
| 12>    O        2.11600        -0.06755        -0.00083
| 13>    C        1.38490         1.14015        -0.00170
| 14>    O        1.92578         2.20370        -0.00139
| 15>    H       -1.48754         2.34677        -0.00289
| 16>    H        1.71130        -2.08936        -0.00089
| 17> *
| 18>
| 19>                          ****END OF INPUT****
 Total Charge           Charge          ....    0
 Multiplicity           Mult            ....    1
 Number of Electrons    NEL             ....   78
Dispersion correction           -0.026209733
FINAL SINGLE POINT ENERGY      -853.252095635498
Dispersion correction            ... done
Dispersion correction           -0.026193328
FINAL SINGLE POINT ENERGY      -853.253936378640
Dispersion correction            ... done
Dispersion correction           -0.026194402
FINAL SINGLE POINT ENERGY      -853.254255294134
Dispersion correction            ... done
FINAL SINGLE POINT ENERGY      -853.254360660353
FINAL SINGLE POINT ENERGY      -853.254381041835
FINAL SINGLE POINT ENERGY      -853.254403764915
Dispersion correction            ... done
Dispersion correction           -0.026206044
FINAL SINGLE POINT ENERGY      -853.254405059656
Dispersion correction            ... done
Dispersion correction           -0.026205494
FINAL SINGLE POINT ENERGY      -853.254412220864
Dispersion correction            ... done
                    ***********************HURRAY********************

CARTESIAN COORDINATES (ANGSTROEM)
---------------------------------
  C     -1.250987    1.309708   -0.002698
  C     -0.021119    0.729919   -0.002104
  C     -0.023426   -0.711140   -0.001906
  C     -1.346692   -1.324622   -0.002365
  O     -1.708163   -2.464733   -0.002524
  S     -2.551322    0.144083   -0.003262
  C      1.278094   -1.112119   -0.001311
  O      2.130063   -0.070074   -0.000981
  C      1.378291    1.165778   -0.001575
  O      1.940385    2.213884   -0.001284
  H     -1.471081    2.378900   -0.002940
  H      1.726418   -2.105455   -0.000982

 Multiplicity           Mult            ....    1
 Number of Electrons    NEL             ....   78
 Basis Dimension        Dim             ....  154

ORBITAL ENERGIES
----------------

  NO   OCC          E(Eh)            E(eV)
   0   2.0000     -88.888367     -2418.7754
   1   2.0000     -19.222605      -523.0737
   2   2.0000     -19.165225      -521.5123
   3   2.0000     -19.160952      -521.3960
   4   2.0000     -10.348955      -281.6094
   5   2.0000     -10.328519      -281.0533
   6   2.0000     -10.308942      -280.5206
   7   2.0000     -10.270063      -279.4626
   8   2.0000     -10.234540      -278.4960
   9   2.0000     -10.230501      -278.3861
  10   2.0000      -7.984308      -217.2641
  11   2.0000      -5.952424      -161.9737
  12   2.0000      -5.948671      -161.8716
  13   2.0000      -5.944869      -161.7681
  14   2.0000      -1.136523       -30.9264
  15   2.0000      -1.075788       -29.2737
  16   2.0000      -1.062682       -28.9170
  17   2.0000      -0.898520       -24.4500
  18   2.0000      -0.801681       -21.8149
  19   2.0000      -0.762841       -20.7579
  20   2.0000      -0.707269       -19.2458
  21   2.0000      -0.649878       -17.6841
  22   2.0000      -0.604699       -16.4547
  23   2.0000      -0.565933       -15.3998
  24   2.0000      -0.533500       -14.5173
  25   2.0000      -0.505912       -13.7666
  26   2.0000      -0.496352       -13.5064
  27   2.0000      -0.469852       -12.7853
  28   2.0000      -0.459494       -12.5035
  29   2.0000      -0.448119       -12.1939
  30   2.0000      -0.440990       -12.0000
  31   2.0000      -0.432027       -11.7561
  32   2.0000      -0.400685       -10.9032
  33   2.0000      -0.387357       -10.5405
  34   2.0000      -0.373802       -10.1717
  35   2.0000      -0.314302        -8.5526
  36   2.0000      -0.302314        -8.2264
  37   2.0000      -0.292309        -7.9541
  38   2.0000      -0.249318        -6.7843
  39   0.0000      -0.117353        -3.1933
  40   0.0000      -0.061155        -1.6641
  41   0.0000      -0.007101        -0.1932
  42   0.0000       0.039811         1.0833
  43   0.0000       0.058565         1.5936

MULLIKEN ATOMIC CHARGES
-----------------------
   0 C :   -0.081626
   1 C :   -0.037464
   2 C :    0.034460
   3 C :    0.056169
   4 O :   -0.131774
   5 S :    0.022799
   6 C :    0.145755
   7 O :   -0.257021
   8 C :    0.258288
   9 O :   -0.111539
  10 H :    0.057089
  11 H :    0.044864
Sum of atomic charges:    0.0000000

LOEWDIN ATOMIC CHARGES
----------------------
   0 C :   -0.093109
   1 C :   -0.126450
   2 C :   -0.149079
   3 C :   -0.022640
   4 O :   -0.117961
   5 S :    0.317547
   6 C :    0.148985
   7 O :   -0.061759
   8 C :    0.119297
   9 O :   -0.099914
  10 H :    0.042861
  11 H :    0.042224

  Mayer bond orders larger than 0.100000
B(  0-C ,  1-C ) :   1.5693 B(  0-C ,  5-S ) :   1.1389 B(  0-C , 10-H ) :   0.9594
B(  1-C ,  2-C ) :   1.1491 B(  1-C ,  8-C ) :   0.9678 B(  2-C ,  3-C ) :   0.9193
B(  2-C ,  6-C ) :   1.5050 B(  3-C ,  4-O ) :   2.1883 B(  3-C ,  5-S ) :   0.9370
B(  4-O ,  5-S ) :   0.1315 B(  6-C ,  7-O ) :   1.1766 B(  6-C , 11-H ) :   0.9972
B(  7-O ,  8-C ) :   0.9216 B(  8-C ,  9-O ) :   2.2546

Dispersion correction           -0.026205766
FINAL SINGLE POINT ENERGY      -853.254414030785

DIPOLE MOMENT
-------------
                                X             Y             Z
Electronic contribution:     -1.06148      -0.28657      -0.00053
Nuclear contribution   :      0.88313       0.24208       0.00038
                        -----------------------------------------
Total Dipole Moment    :     -0.17835      -0.04448      -0.00016
                        -----------------------------------------
Magnitude (a.u.)       :      0.18381
Magnitude (Debye)      :      0.46722

Rotational constants in cm-1:     0.078361     0.032368     0.022906
Rotational constants in MHz :  2349.194063   970.356777   686.706272

                             ****ORCA TERMINATED NORMALLY****
TOTAL RUN TIME: 0 days 0 hours 6 minutes 9 seconds 737 msec
