                         Program Version 4.2.0 -  RELEASE  -
|  1> # ORCA input file
|  2> # SCF done        -30.750954086569          0.000535535349
|  3> ! B3LYP/G D3BJ Opt RIJCOSX def2-SVP def2/J
|  4> * xyz 0 1
|  5>    C        1.65404         1.13570        -0.02145
|  6>    S        2.81596        -0.13130        -0.05784
|  7>    C        1.56249        -1.31014        -0.10693
|  8>    C        0.32407        -0.75209        -0.09807
|  9>    C        0.37762         0.66989        -0.04875
| 10>    C       -0.84588         1.54033         0.02905
| 11>    C       -0.93065         2.12271         1.41311
| 12>    C       -0.88102         3.41345         1.68021
| 13>    C       -2.10532         0.72892        -0.31419
| 14>    C       -2.10935        -0.63623         0.36782
| 15>    C       -0.96998        -1.49944        -0.16906
| 16>    H        1.98379         2.15470         0.02262
| 17>    H        1.81951        -2.35029        -0.14260
| 18>    H       -0.74825         2.36621        -0.68452
| 19>    H       -1.01955         1.40357         2.21601
| 20>    H       -0.78201         4.15161         0.90065
| 21>    H       -0.93617         3.79115         2.68745
| 22>    H       -2.14926         0.58286        -1.39629
| 23>    H       -2.98625         1.30158        -0.01626
| 24>    H       -3.06333        -1.13539         0.18600
| 25>    H       -1.99926        -0.51329         1.44637
| 26>    H       -1.17309        -1.75632        -1.21438
| 27>    H       -0.89609        -2.43531         0.38926
| 28> *
| 29>
| 30>                          ****END OF INPUT****
 Total Charge           Charge          ....    0
 Multiplicity           Mult            ....    1
 Number of Electrons    NEL             ....   88
Dispersion correction           -0.048000899
FINAL SINGLE POINT ENERGY      -786.110436137842
Dispersion correction            ... done
Dispersion correction           -0.047519287
FINAL SINGLE POINT ENERGY      -786.113815574962
Dispersion correction            ... done
Dispersion correction           -0.047407993
FINAL SINGLE POINT ENERGY      -786.113891812899
Dispersion correction            ... done
FINAL SINGLE POINT ENERGY      -786.113817722388
Dispersion correction            ... done
Dispersion correction           -0.047339352
FINAL SINGLE POINT ENERGY      -786.113787425178
Dispersion correction            ... done
Dispersion correction           -0.047352397
FINAL SINGLE POINT ENERGY      -786.113807348082
Dispersion correction            ... done
                    ***********************HURRAY********************

CARTESIAN COORDINATES (ANGSTROEM)
---------------------------------
  C      1.690725    1.129116   -0.018446
  S      2.847785   -0.152424   -0.061848
  C      1.594673   -1.343287   -0.110005
  C      0.341870   -0.776606   -0.103268
  C      0.398109    0.660355   -0.044313
  C     -0.839825    1.534776    0.062791
  C     -0.909191    2.167199    1.433193
  C     -0.898675    3.482337    1.662070
  C     -2.121874    0.731331   -0.270942
  C     -2.133106   -0.674079    0.336382
  C     -0.966458   -1.519817   -0.189993
  H      2.018790    2.164954    0.055648
  H      1.848933   -2.401395   -0.156486
  H     -0.754114    2.356987   -0.666767
  H     -0.957882    1.473615    2.281220
  H     -0.838488    4.203014    0.839092
  H     -0.945139    3.892470    2.674592
  H     -2.208623    0.644933   -1.368326
  H     -2.996183    1.306288    0.073057
  H     -3.086257   -1.174188    0.098719
  H     -2.078395   -0.606338    1.436903
  H     -1.164427   -1.779839   -1.246355
  H     -0.900227   -2.476521    0.351293

 Multiplicity           Mult            ....    1
 Number of Electrons    NEL             ....   88
 Basis Dimension        Dim             ....  218

ORBITAL ENERGIES
----------------

  NO   OCC          E(Eh)            E(eV)
   0   2.0000     -88.866301     -2418.1750
   1   2.0000     -10.201405      -277.5944
   2   2.0000     -10.201146      -277.5873
   3   2.0000     -10.198665      -277.5198
   4   2.0000     -10.191069      -277.3131
   5   2.0000     -10.190281      -277.2916
   6   2.0000     -10.189153      -277.2609
   7   2.0000     -10.188684      -277.2482
   8   2.0000     -10.187949      -277.2282
   9   2.0000     -10.187759      -277.2230
  10   2.0000     -10.181854      -277.0623
  11   2.0000      -7.961290      -216.6377
  12   2.0000      -5.929338      -161.3455
  13   2.0000      -5.925235      -161.2338
  14   2.0000      -5.922898      -161.1703
  15   2.0000      -0.876909       -23.8619
  16   2.0000      -0.819347       -22.2956
  17   2.0000      -0.779761       -21.2184
  18   2.0000      -0.729347       -19.8465
  19   2.0000      -0.723881       -19.6978
  20   2.0000      -0.685478       -18.6528
  21   2.0000      -0.628277       -17.0963
  22   2.0000      -0.586724       -15.9656
  23   2.0000      -0.563261       -15.3271
  24   2.0000      -0.553682       -15.0664
  25   2.0000      -0.504674       -13.7329
  26   2.0000      -0.499132       -13.5821
  27   2.0000      -0.461272       -12.5519
  28   2.0000      -0.444007       -12.0821
  29   2.0000      -0.434471       -11.8226
  30   2.0000      -0.423923       -11.5355
  31   2.0000      -0.408167       -11.1068
  32   2.0000      -0.396478       -10.7887
  33   2.0000      -0.395653       -10.7663
  34   2.0000      -0.383262       -10.4291
  35   2.0000      -0.372823       -10.1450
  36   2.0000      -0.347949        -9.4682
  37   2.0000      -0.338421        -9.2089
  38   2.0000      -0.331237        -9.0134
  39   2.0000      -0.327062        -8.8998
  40   2.0000      -0.319083        -8.6827
  41   2.0000      -0.264297        -7.1919
  42   2.0000      -0.237572        -6.4647
  43   2.0000      -0.226960        -6.1759
  44   0.0000      -0.015280        -0.4158
  45   0.0000       0.008045         0.2189
  46   0.0000       0.054747         1.4897
  47   0.0000       0.056798         1.5455
  48   0.0000       0.059211         1.6112

MULLIKEN ATOMIC CHARGES
-----------------------
   0 C :   -0.132646
   1 S :    0.092390
   2 C :   -0.146719
   3 C :   -0.041635
   4 C :   -0.002964
   5 C :    0.054849
   6 C :   -0.016832
   7 C :   -0.039141
   8 C :    0.057984
   9 C :    0.005008
  10 C :    0.141072
  11 H :    0.010643
  12 H :    0.007793
  13 H :   -0.014054
  14 H :   -0.000971
  15 H :    0.010933
  16 H :    0.016409
  17 H :   -0.000356
  18 H :   -0.004041
  19 H :   -0.005637
  20 H :    0.007165
  21 H :    0.007066
  22 H :   -0.006315
Sum of atomic charges:    0.0000000

LOEWDIN ATOMIC CHARGES
----------------------
   0 C :   -0.195501
   1 S :    0.425237
   2 C :   -0.206463
   3 C :   -0.067598
   4 C :   -0.062095
   5 C :   -0.023390
   6 C :   -0.010500
   7 C :   -0.069361
   8 C :   -0.020583
   9 C :   -0.031271
  10 C :   -0.022545
  11 H :    0.022125
  12 H :    0.020308
  13 H :    0.031534
  14 H :    0.022923
  15 H :    0.018713
  16 H :    0.022756
  17 H :    0.021895
  18 H :    0.023191
  19 H :    0.022862
  20 H :    0.020255
  21 H :    0.029849
  22 H :    0.027660

  Mayer bond orders larger than 0.100000
B(  0-C ,  1-S ) :   1.1665 B(  0-C ,  4-C ) :   1.5428 B(  0-C , 11-H ) :   0.9639
B(  1-S ,  2-C ) :   1.1600 B(  2-C ,  3-C ) :   1.5475 B(  2-C , 12-H ) :   0.9648
B(  3-C ,  4-C ) :   1.3018 B(  3-C , 10-C ) :   1.0432 B(  4-C ,  5-C ) :   0.9772
B(  5-C ,  6-C ) :   1.0128 B(  5-C ,  8-C ) :   1.0512 B(  5-C , 13-H ) :   0.8938
B(  6-C ,  7-C ) :   2.0036 B(  6-C , 14-H ) :   0.9581 B(  7-C , 15-H ) :   0.9525
B(  7-C , 16-H ) :   0.9479 B(  8-C ,  9-C ) :   1.0756 B(  8-C , 17-H ) :   0.9347
B(  8-C , 18-H ) :   0.9316 B(  9-C , 10-C ) :   1.0894 B(  9-C , 19-H ) :   0.9305
B(  9-C , 20-H ) :   0.9451 B( 10-C , 21-H ) :   0.9141 B( 10-C , 22-H ) :   0.9169

Dispersion correction           -0.047353664
FINAL SINGLE POINT ENERGY      -786.113803721031

DIPOLE MOMENT
-------------
                                X             Y             Z
Electronic contribution:     13.29525      -2.64425      -1.73159
Nuclear contribution   :    -13.65284       2.52173       1.67423
                        -----------------------------------------
Total Dipole Moment    :     -0.35759      -0.12252      -0.05737
                        -----------------------------------------
Magnitude (a.u.)       :      0.38233
Magnitude (Debye)      :      0.97180

Rotational constants in cm-1:     0.046436     0.027581     0.018607
Rotational constants in MHz :  1392.126781   826.856457   557.813507

                             ****ORCA TERMINATED NORMALLY****
TOTAL RUN TIME: 0 days 0 hours 11 minutes 7 seconds 380 msec
