                         Program Version 4.2.0 -  RELEASE  -
|  1> # ORCA input file
|  2> # SCF done        -26.118506680660          0.000369390752
|  3> ! B3LYP/G D3BJ Opt RIJCOSX def2-SVP def2/J
|  4> * xyz 0 1
|  5>    C       -0.23614         1.03773         0.01295
|  6>    O       -1.01059        -0.04145        -0.00422
|  7>    C       -0.20007        -1.13478        -0.03167
|  8>    C        1.10960        -0.73483        -0.03205
|  9>    C        1.09541         0.68888        -0.00232
| 10>    C        2.23641         1.58899         0.00956
| 11>    O        3.39271         1.25354        -0.00118
| 12>    C       -0.76859        -2.46008        -0.05490
| 13>    C       -2.07295        -2.71442        -0.04811
| 14>    H       -0.71792         1.99626         0.03575
| 15>    H        1.98197        -1.35403        -0.05030
| 16>    H        1.94695         2.65955         0.03086
| 17>    H       -0.03986        -3.25750        -0.07995
| 18>    H       -2.79873        -1.91943        -0.02554
| 19>    H       -2.45140        -3.72075        -0.06847
| 20> *
| 21>
| 22>                          ****END OF INPUT****
 Total Charge           Charge          ....    0
 Multiplicity           Mult            ....    1
 Number of Electrons    NEL             ....   64
Dispersion correction           -0.023647692
FINAL SINGLE POINT ENERGY      -420.469461826298
Dispersion correction            ... done
Dispersion correction           -0.023618542
FINAL SINGLE POINT ENERGY      -420.471538004668
Dispersion correction            ... done
Dispersion correction           -0.023617053
FINAL SINGLE POINT ENERGY      -420.471682178813
Dispersion correction            ... done
FINAL SINGLE POINT ENERGY      -420.471701500246
Dispersion correction            ... done
Dispersion correction           -0.023626829
FINAL SINGLE POINT ENERGY      -420.471660628454
Dispersion correction            ... done
Dispersion correction           -0.023623462
FINAL SINGLE POINT ENERGY      -420.471730882686
Dispersion correction            ... done
                    ***********************HURRAY********************

CARTESIAN COORDINATES (ANGSTROEM)
---------------------------------
  C     -0.226781    1.039828    0.014723
  O     -0.996119   -0.060394   -0.002390
  C     -0.170095   -1.161023   -0.030039
  C      1.136202   -0.741943   -0.029674
  C      1.105399    0.694615   -0.001461
  C      2.240677    1.621182    0.008065
  O      3.403873    1.284182   -0.007556
  C     -0.780841   -2.472684   -0.053919
  C     -2.100589   -2.715776   -0.051427
  H     -0.741823    1.997431    0.038380
  H      2.027177   -1.363732   -0.048890
  H      1.951705    2.704934    0.031851
  H     -0.066993   -3.300969   -0.076489
  H     -2.828328   -1.901004   -0.029396
  H     -2.486666   -3.736966   -0.071368

 Multiplicity           Mult            ....    1
 Number of Electrons    NEL             ....   64
 Basis Dimension        Dim             ....  156

ORBITAL ENERGIES
----------------

  NO   OCC          E(Eh)            E(eV)
   0   2.0000     -19.223541      -523.0991
   1   2.0000     -19.131641      -520.5984
   2   2.0000     -10.280153      -279.7372
   3   2.0000     -10.270710      -279.4802
   4   2.0000     -10.260367      -279.1988
   5   2.0000     -10.212806      -277.9046
   6   2.0000     -10.207396      -277.7574
   7   2.0000     -10.206032      -277.7202
   8   2.0000     -10.201123      -277.5867
   9   2.0000      -1.128509       -30.7083
  10   2.0000      -1.034033       -28.1375
  11   2.0000      -0.821560       -22.3558
  12   2.0000      -0.812410       -22.1068
  13   2.0000      -0.740241       -20.1430
  14   2.0000      -0.664149       -18.0724
  15   2.0000      -0.626378       -17.0446
  16   2.0000      -0.591396       -16.0927
  17   2.0000      -0.545994       -14.8572
  18   2.0000      -0.534883       -14.5549
  19   2.0000      -0.482832       -13.1385
  20   2.0000      -0.473976       -12.8975
  21   2.0000      -0.469178       -12.7670
  22   2.0000      -0.449498       -12.2315
  23   2.0000      -0.428864       -11.6700
  24   2.0000      -0.418445       -11.3865
  25   2.0000      -0.401976       -10.9383
  26   2.0000      -0.388055       -10.5595
  27   2.0000      -0.379817       -10.3353
  28   2.0000      -0.325084        -8.8460
  29   2.0000      -0.297772        -8.1028
  30   2.0000      -0.262346        -7.1388
  31   2.0000      -0.234702        -6.3866
  32   0.0000      -0.058163        -1.5827
  33   0.0000      -0.046577        -1.2674
  34   0.0000       0.063172         1.7190
  35   0.0000       0.064128         1.7450
  36   0.0000       0.074443         2.0257

MULLIKEN ATOMIC CHARGES
-----------------------
   0 C :    0.129104
   1 O :   -0.206806
   2 C :    0.146185
   3 C :   -0.044555
   4 C :   -0.018707
   5 C :    0.160716
   6 O :   -0.195247
   7 C :   -0.014495
   8 C :   -0.006170
   9 H :    0.019586
  10 H :   -0.000226
  11 H :   -0.028092
  12 H :    0.001053
  13 H :    0.031384
  14 H :    0.026270
Sum of atomic charges:   -0.0000000

LOEWDIN ATOMIC CHARGES
----------------------
   0 C :    0.073955
   1 O :    0.013189
   2 C :    0.033006
   3 C :   -0.036327
   4 C :   -0.124208
   5 C :    0.102831
   6 O :   -0.143661
   7 C :   -0.041036
   8 C :   -0.033581
   9 H :    0.029550
  10 H :    0.039643
  11 H :   -0.009032
  12 H :    0.039205
  13 H :    0.027690
  14 H :    0.028776

  Mayer bond orders larger than 0.100000
B(  0-C ,  1-O ) :   1.1778 B(  0-C ,  4-C ) :   1.4465 B(  0-C ,  9-H ) :   1.0005
B(  1-O ,  2-C ) :   1.0966 B(  2-C ,  3-C ) :   1.4923 B(  2-C ,  7-C ) :   1.1227
B(  3-C ,  4-C ) :   1.1876 B(  3-C , 10-H ) :   1.0158 B(  4-C ,  5-C ) :   0.9859
B(  5-C ,  6-O ) :   2.1585 B(  5-C , 11-H ) :   0.9499 B(  7-C ,  8-C ) :   1.9029
B(  7-C , 12-H ) :   0.9555 B(  8-C , 13-H ) :   0.9542 B(  8-C , 14-H ) :   0.9430

Dispersion correction           -0.023623704
FINAL SINGLE POINT ENERGY      -420.471731078964

DIPOLE MOMENT
-------------
                                X             Y             Z
Electronic contribution:      3.24879       3.68264       0.05697
Nuclear contribution   :     -4.33151      -3.80252      -0.05177
                        -----------------------------------------
Total Dipole Moment    :     -1.08272      -0.11988       0.00519
                        -----------------------------------------
Magnitude (a.u.)       :      1.08935
Magnitude (Debye)      :      2.76890

Rotational constants in cm-1:     0.188106     0.030054     0.025913
Rotational constants in MHz :  5639.290944   900.984132   776.865571

                             ****ORCA TERMINATED NORMALLY****
TOTAL RUN TIME: 0 days 0 hours 5 minutes 22 seconds 433 msec
