                         Program Version 4.2.0 -  RELEASE  -
|  1> # ORCA input file
|  2> # SCF done        -40.084337342149          0.000827364227
|  3> ! B3LYP/G D3BJ Opt RIJCOSX def2-SVP def2/J
|  4> * xyz 0 1
|  5>    C       -1.42829         0.88606        -0.06450
|  6>    S       -2.41003        -0.51790        -0.10678
|  7>    C       -1.03712        -1.59696        -0.05495
|  8>    C        0.11336        -0.85019        -0.00767
|  9>    C       -0.09549         0.56686        -0.01234
| 10>    C        1.13099         1.28136         0.03854
| 11>    C        2.20539         0.44848         0.07933
| 12>    C        3.62447         0.80006         0.13738
| 13>    O        4.52728         0.00072         0.17125
| 14>    O        3.80595         2.13241         0.14819
| 15>    C        5.15718         2.56449         0.20422
| 16>    S        1.80052        -1.25966         0.05877
| 17>    C       -1.16247        -3.02549        -0.06244
| 18>    C       -2.31383        -3.69044        -0.10754
| 19>    H       -1.88380         1.85535        -0.08015
| 20>    H        1.21360         2.35232         0.04474
| 21>    H        5.12829         3.65052         0.17904
| 22>    H        5.71666         2.17373        -0.64828
| 23>    H        5.63027         2.21344         1.12379
| 24>    H       -0.21609        -3.55039        -0.02835
| 25>    H       -3.25921        -3.17415        -0.14412
| 26>    H       -2.34467        -4.76494        -0.11311
| 27> *
| 28>
| 29>                          ****END OF INPUT****
 Total Charge           Charge          ....    0
 Multiplicity           Mult            ....    1
 Number of Electrons    NEL             ....  116
Dispersion correction           -0.050507516
FINAL SINGLE POINT ENERGY     -1332.122313615535
Dispersion correction            ... done
Dispersion correction           -0.050255904
FINAL SINGLE POINT ENERGY     -1332.125073704732
Dispersion correction            ... done
Dispersion correction           -0.050215721
FINAL SINGLE POINT ENERGY     -1332.125173806719
Dispersion correction            ... done
FINAL SINGLE POINT ENERGY     -1332.125183150722
FINAL SINGLE POINT ENERGY     -1332.125187440740
FINAL SINGLE POINT ENERGY     -1332.125192880118
FINAL SINGLE POINT ENERGY     -1332.125186973547
FINAL SINGLE POINT ENERGY     -1332.125180851113
FINAL SINGLE POINT ENERGY     -1332.125160426555
FINAL SINGLE POINT ENERGY     -1332.125124996770
Dispersion correction            ... done
Dispersion correction           -0.050201655
FINAL SINGLE POINT ENERGY     -1332.125107946824
Dispersion correction            ... done
Dispersion correction           -0.050201137
FINAL SINGLE POINT ENERGY     -1332.125091870961
Dispersion correction            ... done
                    ***********************HURRAY********************

CARTESIAN COORDINATES (ANGSTROEM)
---------------------------------
  C     -1.453954    0.904804   -0.043556
  S     -2.433377   -0.511333   -0.102897
  C     -1.059605   -1.599887   -0.052244
  C      0.100931   -0.847654    0.010998
  C     -0.109921    0.580562    0.013979
  C      1.131036    1.303867    0.068046
  C      2.211214    0.467684    0.104536
  C      3.641544    0.819249    0.154356
  O      4.539125    0.009071    0.200114
  O      3.835856    2.152152    0.135923
  C      5.196684    2.576750    0.180570
  S      1.803510   -1.256800    0.082746
  C     -1.196148   -3.043428   -0.082284
  C     -2.341379   -3.743784   -0.135895
  H     -1.914264    1.890798   -0.057015
  H      1.230634    2.388700    0.077514
  H      5.185398    3.662394    0.023903
  H      5.786875    2.077971   -0.601407
  H      5.646078    2.335741    1.156886
  H     -0.242891   -3.583494   -0.058810
  H     -3.318494   -3.252213   -0.161623
  H     -2.335891   -4.835471   -0.158819

 Multiplicity           Mult            ....    1
 Number of Electrons    NEL             ....  116
 Basis Dimension        Dim             ....  244

ORBITAL ENERGIES
----------------

  NO   OCC          E(Eh)            E(eV)
   0   2.0000     -88.889065     -2418.7944
   1   2.0000     -88.876440     -2418.4509
   2   2.0000     -19.183929      -522.0212
   3   2.0000     -19.126537      -520.4595
   4   2.0000     -10.323364      -280.9130
   5   2.0000     -10.250181      -278.9216
   6   2.0000     -10.231616      -278.4164
   7   2.0000     -10.229598      -278.3615
   8   2.0000     -10.228874      -278.3418
   9   2.0000     -10.226734      -278.2836
  10   2.0000     -10.216741      -278.0117
  11   2.0000     -10.213983      -277.9366
  12   2.0000     -10.211000      -277.8554
  13   2.0000     -10.195293      -277.4280
  14   2.0000      -7.983661      -217.2465
  15   2.0000      -7.970829      -216.8973
  16   2.0000      -5.951681      -161.9535
  17   2.0000      -5.947628      -161.8432
  18   2.0000      -5.945196      -161.7770
  19   2.0000      -5.939496      -161.6219
  20   2.0000      -5.935598      -161.5158
  21   2.0000      -5.930773      -161.3845
  22   2.0000      -1.102726       -30.0067
  23   2.0000      -1.012309       -27.5463
  24   2.0000      -0.911647       -24.8072
  25   2.0000      -0.854879       -23.2624
  26   2.0000      -0.795024       -21.6337
  27   2.0000      -0.764076       -20.7916
  28   2.0000      -0.745615       -20.2892
  29   2.0000      -0.717085       -19.5129
  30   2.0000      -0.691988       -18.8300
  31   2.0000      -0.634353       -17.2616
  32   2.0000      -0.612412       -16.6646
  33   2.0000      -0.562308       -15.3012
  34   2.0000      -0.554486       -15.0883
  35   2.0000      -0.536638       -14.6027
  36   2.0000      -0.508082       -13.8256
  37   2.0000      -0.491943       -13.3865
  38   2.0000      -0.490578       -13.3493
  39   2.0000      -0.479203       -13.0398
  40   2.0000      -0.455781       -12.4024
  41   2.0000      -0.438921       -11.9436
  42   2.0000      -0.429637       -11.6910
  43   2.0000      -0.427521       -11.6334
  44   2.0000      -0.412610       -11.2277
  45   2.0000      -0.406425       -11.0594
  46   2.0000      -0.392006       -10.6670
  47   2.0000      -0.378912       -10.3107
  48   2.0000      -0.366218        -9.9653
  49   2.0000      -0.361188        -9.8284
  50   2.0000      -0.348958        -9.4956
  51   2.0000      -0.342758        -9.3269
  52   2.0000      -0.319328        -8.6893
  53   2.0000      -0.311629        -8.4798
  54   2.0000      -0.287907        -7.8343
  55   2.0000      -0.272431        -7.4132
  56   2.0000      -0.252443        -6.8693
  57   2.0000      -0.208266        -5.6672
  58   0.0000      -0.076566        -2.0835
  59   0.0000      -0.041863        -1.1392
  60   0.0000       0.019537         0.5316
  61   0.0000       0.021486         0.5847
  62   0.0000       0.040631         1.1056

MULLIKEN ATOMIC CHARGES
-----------------------
   0 C :   -0.125704
   1 S :    0.126577
   2 C :   -0.164256
   3 C :   -0.009478
   4 C :    0.120069
   5 C :    0.020196
   6 C :   -0.147335
   7 C :    0.222341
   8 O :   -0.216001
   9 O :   -0.310754
  10 C :    0.193306
  11 S :    0.150438
  12 C :    0.011755
  13 C :   -0.045306
  14 H :    0.025351
  15 H :    0.001094
  16 H :    0.032951
  17 H :    0.034298
  18 H :    0.029656
  19 H :   -0.002517
  20 H :    0.019907
  21 H :    0.033414
Sum of atomic charges:   -0.0000000

LOEWDIN ATOMIC CHARGES
----------------------
   0 C :   -0.187018
   1 S :    0.460219
   2 C :   -0.204321
   3 C :   -0.181423
   4 C :   -0.080158
   5 C :   -0.019530
   6 C :   -0.193655
   7 C :    0.063592
   8 O :   -0.179535
   9 O :   -0.098182
  10 C :    0.085735
  11 S :    0.406865
  12 C :   -0.039162
  13 C :   -0.056072
  14 H :    0.028776
  15 H :    0.039158
  16 H :    0.024878
  17 H :    0.022967
  18 H :    0.022523
  19 H :    0.035316
  20 H :    0.019196
  21 H :    0.029832

  Mayer bond orders larger than 0.100000
B(  0-C ,  1-S ) :   1.1806 B(  0-C ,  2-C ) :   0.1008 B(  0-C ,  4-C ) :   1.4276
B(  0-C , 14-H ) :   0.9676 B(  1-S ,  2-C ) :   1.1205 B(  2-C ,  3-C ) :   1.4850
B(  2-C , 12-C ) :   1.1497 B(  3-C ,  4-C ) :   1.2240 B(  3-C , 11-S ) :   1.0453
B(  4-C ,  5-C ) :   1.1095 B(  5-C ,  6-C ) :   1.5921 B(  5-C , 15-H ) :   1.0019
B(  6-C ,  7-C ) :   0.9850 B(  6-C , 11-S ) :   1.0619 B(  7-C ,  8-O ) :   2.0948
B(  7-C ,  9-O ) :   1.2175 B(  9-O , 10-C ) :   0.9193 B( 10-C , 16-H ) :   0.9791
B( 10-C , 17-H ) :   0.9706 B( 10-C , 18-H ) :   0.9756 B( 12-C , 13-C ) :   1.8961
B( 12-C , 19-H ) :   0.9558 B( 13-C , 20-H ) :   0.9536 B( 13-C , 21-H ) :   0.9479

Dispersion correction           -0.050201215
FINAL SINGLE POINT ENERGY     -1332.125096051753

DIPOLE MOMENT
-------------
                                X             Y             Z
Electronic contribution:     -3.44374      -1.56794       0.00300
Nuclear contribution   :      2.97746       2.47307      -0.04005
                        -----------------------------------------
Total Dipole Moment    :     -0.46628       0.90513      -0.03705
                        -----------------------------------------
Magnitude (a.u.)       :      1.01885
Magnitude (Debye)      :      2.58971

Rotational constants in cm-1:     0.049623     0.009413     0.007925
Rotational constants in MHz :  1487.669374   282.200323   237.578890

                             ****ORCA TERMINATED NORMALLY****
TOTAL RUN TIME: 0 days 0 hours 20 minutes 22 seconds 968 msec
