                         Program Version 4.2.0 -  RELEASE  -
|  1> # ORCA input file
|  2> # SCF done        -23.706875649634          0.000700663890
|  3> ! B3LYP/G D3BJ Opt RIJCOSX def2-SVP def2/J
|  4> * xyz 0 2
|  5>    C       -1.37296         0.77323        -0.43383
|  6>    C       -1.76253        -0.52964        -0.04769
|  7>    C       -0.54435        -1.39878         0.24207
|  8>    C        0.55020        -0.42915        -0.02584
|  9>    C       -0.00764         0.82741        -0.41920
| 10>    C        1.39298         1.40707        -0.56054
| 11>    C        1.83268         0.00721        -0.12715
| 12>    C       -3.09702        -0.97198         0.06033
| 13>    C       -3.48635        -2.20744         0.43496
| 14>    H       -2.06939         1.55394        -0.68596
| 15>    H       -0.51046        -2.26843        -0.41749
| 16>    H       -0.54805        -1.75935         1.27275
| 17>    H        1.63119         2.21321         0.13286
| 18>    H        1.67317         1.69969        -1.57205
| 19>    H        2.80356        -0.42329         0.02639
| 20>    H       -3.85797        -0.23901        -0.18066
| 21>    H       -2.77723        -2.97557         0.68936
| 22>    H       -4.52676        -2.47184         0.49729
| 23> *
| 24>
| 25>                          ****END OF INPUT****
 Total Charge           Charge          ....    0
 Multiplicity           Mult            ....    2
 Number of Electrons    NEL             ....   63
Dispersion correction           -0.029781590
FINAL SINGLE POINT ENERGY      -348.013863876162
Dispersion correction            ... done
Dispersion correction           -0.029703088
FINAL SINGLE POINT ENERGY      -348.016971226155
Dispersion correction            ... done
Dispersion correction           -0.029698876
FINAL SINGLE POINT ENERGY      -348.017071512408
Dispersion correction            ... done
Dispersion correction           -0.029698770
FINAL SINGLE POINT ENERGY      -348.017086585994
Dispersion correction            ... done
Dispersion correction           -0.029698124
FINAL SINGLE POINT ENERGY      -348.017086643947
Dispersion correction            ... done
                    ***********************HURRAY********************

CARTESIAN COORDINATES (ANGSTROEM)
---------------------------------
  C     -1.376473    0.788755   -0.428346
  C     -1.780099   -0.523444   -0.037157
  C     -0.546560   -1.397422    0.251395
  C      0.561027   -0.419854   -0.023598
  C      0.007583    0.835088   -0.418398
  C      1.418103    1.428259   -0.572979
  C      1.860634    0.005871   -0.130431
  C     -3.121426   -0.978939    0.066405
  C     -3.513390   -2.232510    0.433650
  H     -2.080449    1.581864   -0.687230
  H     -0.514804   -2.284070   -0.404165
  H     -0.547576   -1.776327    1.288015
  H      1.667329    2.250643    0.118130
  H      1.700982    1.730386   -1.595833
  H      2.842786   -0.443030    0.029216
  H     -3.896087   -0.243970   -0.181109
  H     -2.789037   -3.007901    0.694544
  H     -4.569472   -2.506118    0.483491

 Multiplicity           Mult            ....    2
 Number of Electrons    NEL             ....   63
 Basis Dimension        Dim             ....  171

ORBITAL ENERGIES
----------------
                 SPIN UP ORBITALS
  NO   OCC          E(Eh)            E(eV)
   0   1.0000     -10.206399      -277.7302
   1   1.0000     -10.202563      -277.6259
   2   1.0000     -10.200571      -277.5717
   3   1.0000     -10.199556      -277.5440
   4   1.0000     -10.194541      -277.4076
   5   1.0000     -10.190934      -277.3094
   6   1.0000     -10.187790      -277.2239
   7   1.0000     -10.186661      -277.1931
   8   1.0000     -10.184750      -277.1411
   9   1.0000      -0.889441       -24.2029
  10   1.0000      -0.814069       -22.1520
  11   1.0000      -0.750779       -20.4297
  12   1.0000      -0.712039       -19.3756
  13   1.0000      -0.647645       -17.6233
  14   1.0000      -0.628413       -17.1000
  15   1.0000      -0.573552       -15.6071
  16   1.0000      -0.526642       -14.3306
  17   1.0000      -0.501840       -13.6557
  18   1.0000      -0.490683       -13.3522
  19   1.0000      -0.457288       -12.4434
  20   1.0000      -0.445048       -12.1104
  21   1.0000      -0.425693       -11.5837
  22   1.0000      -0.418955       -11.4004
  23   1.0000      -0.387771       -10.5518
  24   1.0000      -0.385444       -10.4885
  25   1.0000      -0.357210        -9.7202
  26   1.0000      -0.343514        -9.3475
  27   1.0000      -0.325589        -8.8597
  28   1.0000      -0.308794        -8.4027
  29   1.0000      -0.298256        -8.1160
  30   1.0000      -0.247070        -6.7231
  31   1.0000      -0.166237        -4.5235
  32   0.0000      -0.023901        -0.6504
  33   0.0000       0.033937         0.9235
  34   0.0000       0.073778         2.0076
  35   0.0000       0.080463         2.1895
  36   0.0000       0.083322         2.2673

                 SPIN DOWN ORBITALS
  NO   OCC          E(Eh)            E(eV)
   0   1.0000     -10.207008      -277.7468
   1   1.0000     -10.202877      -277.6344
   2   1.0000     -10.197556      -277.4896
   3   1.0000     -10.195729      -277.4399
   4   1.0000     -10.192555      -277.3535
   5   1.0000     -10.190383      -277.2944
   6   1.0000     -10.188835      -277.2523
   7   1.0000     -10.184993      -277.1478
   8   1.0000     -10.178925      -276.9826
   9   1.0000      -0.884346       -24.0643
  10   1.0000      -0.807548       -21.9745
  11   1.0000      -0.746639       -20.3171
  12   1.0000      -0.711854       -19.3705
  13   1.0000      -0.638147       -17.3649
  14   1.0000      -0.622711       -16.9448
  15   1.0000      -0.568163       -15.4605
  16   1.0000      -0.523043       -14.2327
  17   1.0000      -0.500922       -13.6308
  18   1.0000      -0.486530       -13.2392
  19   1.0000      -0.450461       -12.2577
  20   1.0000      -0.444183       -12.0868
  21   1.0000      -0.421024       -11.4567
  22   1.0000      -0.415654       -11.3105
  23   1.0000      -0.384552       -10.4642
  24   1.0000      -0.383838       -10.4448
  25   1.0000      -0.354371        -9.6429
  26   1.0000      -0.341408        -9.2902
  27   1.0000      -0.313173        -8.5219
  28   1.0000      -0.306749        -8.3471
  29   1.0000      -0.285453        -7.7676
  30   1.0000      -0.229600        -6.2477
  31   0.0000      -0.078249        -2.1293
  32   0.0000      -0.009403        -0.2559
  33   0.0000       0.049413         1.3446
  34   0.0000       0.075189         2.0460
  35   0.0000       0.080721         2.1965

MULLIKEN ATOMIC CHARGES AND SPIN POPULATIONS
--------------------------------------------
   0 C :   -0.068053   -0.240516
   1 C :   -0.154938    0.491859
   2 C :    0.262654   -0.025905
   3 C :    0.044844   -0.179574
   4 C :   -0.053599    0.423800
   5 C :    0.194394   -0.056942
   6 C :   -0.259416    0.364570
   7 C :    0.007904   -0.215418
   8 C :   -0.043159    0.451963
   9 H :   -0.023278    0.008461
  10 H :    0.029771    0.009167
  11 H :    0.026706    0.009144
  12 H :    0.024319    0.004109
  13 H :    0.021747    0.004112
  14 H :   -0.016644   -0.015540
  15 H :   -0.023459    0.007798
  16 H :    0.012614   -0.019653
  17 H :    0.017592   -0.021434
Sum of atomic charges         :   -0.0000000

LOEWDIN ATOMIC CHARGES AND SPIN POPULATIONS
-------------------------------------------
   0 C :   -0.035383   -0.145407
   1 C :   -0.017487    0.382581
   2 C :   -0.020242   -0.006563
   3 C :   -0.023515   -0.100173
   4 C :   -0.012263    0.328727
   5 C :   -0.003432   -0.015950
   6 C :   -0.027908    0.288556
   7 C :   -0.046360   -0.117466
   8 C :   -0.061102    0.366205
   9 H :    0.024737    0.000078
  10 H :    0.046996    0.007168
  11 H :    0.046370    0.007196
  12 H :    0.026487    0.003111
  13 H :    0.026059    0.003100
  14 H :    0.010644   -0.000302
  15 H :    0.027904    0.000361
  16 H :    0.016889   -0.000377
  17 H :    0.021606   -0.000846

  Mayer bond orders larger than 0.100000
B(  0-C ,  1-C ) :   1.2983 B(  0-C ,  4-C ) :   1.3812 B(  0-C ,  9-H ) :   1.0010
B(  1-C ,  2-C ) :   1.0173 B(  1-C ,  7-C ) :   1.2692 B(  2-C ,  3-C ) :   1.0223
B(  2-C , 10-H ) :   0.8805 B(  2-C , 11-H ) :   0.8800 B(  3-C ,  4-C ) :   1.2093
B(  3-C ,  6-C ) :   1.5223 B(  4-C ,  5-C ) :   1.0022 B(  5-C ,  6-C ) :   0.9864
B(  5-C , 12-H ) :   0.9049 B(  5-C , 13-H ) :   0.9056 B(  6-C , 14-H ) :   1.0257
B(  7-C ,  8-C ) :   1.7097 B(  7-C , 15-H ) :   0.9561 B(  8-C , 16-H ) :   0.9468
B(  8-C , 17-H ) :   0.9487

Dispersion correction           -0.029697289
FINAL SINGLE POINT ENERGY      -348.017086208645

DIPOLE MOMENT
-------------
                                X             Y             Z
Electronic contribution:      1.66933       1.94459      -0.53275
Nuclear contribution   :     -1.46772      -1.90793       0.52323
                        -----------------------------------------
Total Dipole Moment    :      0.20162       0.03667      -0.00952
                        -----------------------------------------
Magnitude (a.u.)       :      0.20515
Magnitude (Debye)      :      0.52144

Rotational constants in cm-1:     0.180322     0.034416     0.029220
Rotational constants in MHz :  5405.903248  1031.754137   875.986774

                             ****ORCA TERMINATED NORMALLY****
TOTAL RUN TIME: 0 days 0 hours 7 minutes 31 seconds 433 msec
