                         Program Version 4.2.0 -  RELEASE  -
|  1> # ORCA input file
|  2> # SCF done        -36.241740581234          0.000926914897
|  3> ! B3LYP/G D3BJ Opt RIJCOSX def2-SVP def2/J
|  4> * xyz 0 1
|  5>    C        2.89192        -1.24604         0.01045
|  6>    S        3.10811         0.46742        -0.07188
|  7>    C        1.38266         0.70824        -0.07083
|  8>    C        0.70303        -0.51938        -0.00830
|  9>    C        1.59492        -1.62513         0.03756
| 10>    C       -0.70427        -0.48723         0.00384
| 11>    C       -1.34432         0.75980        -0.04381
| 12>    S       -3.07481         0.56744        -0.01847
| 13>    C       -2.91307        -1.15061         0.05692
| 14>    C       -1.62913        -1.56759         0.06175
| 15>    C       -0.65481         1.98700        -0.10791
| 16>    C        0.73120         1.93486        -0.11948
| 17>    C       -1.41007         3.22948        -0.15069
| 18>    C       -0.91854         4.44864        -0.34229
| 19>    H        3.76291        -1.87149         0.03402
| 20>    H        1.27442        -2.64998         0.08866
| 21>    H       -3.80355        -1.74736         0.09267
| 22>    H       -1.33583        -2.60096         0.10420
| 23>    H        1.31364         2.84059        -0.15799
| 24>    H       -2.47850         3.10564        -0.01631
| 25>    H        0.13009         4.63918        -0.49673
| 26>    H       -1.56159         5.31126        -0.35690
| 27> *
| 28>
| 29>                          ****END OF INPUT****
 Total Charge           Charge          ....    0
 Multiplicity           Mult            ....    1
 Number of Electrons    NEL             ....  112
Dispersion correction           -0.057558846
FINAL SINGLE POINT ENERGY     -1257.967495862576
Dispersion correction            ... done
Dispersion correction           -0.057317957
FINAL SINGLE POINT ENERGY     -1257.971285310613
Dispersion correction            ... done
Dispersion correction           -0.057282996
FINAL SINGLE POINT ENERGY     -1257.971388697293
Dispersion correction            ... done
FINAL SINGLE POINT ENERGY     -1257.971396665758
FINAL SINGLE POINT ENERGY     -1257.971409530631
FINAL SINGLE POINT ENERGY     -1257.971415506506
FINAL SINGLE POINT ENERGY     -1257.971421226133
FINAL SINGLE POINT ENERGY     -1257.971422439956
Dispersion correction            ... done
Dispersion correction           -0.057281494
FINAL SINGLE POINT ENERGY     -1257.971425106937
Dispersion correction            ... done
Dispersion correction           -0.057280526
FINAL SINGLE POINT ENERGY     -1257.971426147135
Dispersion correction            ... done
                    ***********************HURRAY********************

CARTESIAN COORDINATES (ANGSTROEM)
---------------------------------
  C      2.925994   -1.261913   -0.003177
  S      3.132765    0.463992   -0.116742
  C      1.397025    0.706573   -0.092370
  C      0.711050   -0.529291   -0.002184
  C      1.615102   -1.644028    0.049692
  C     -0.709128   -0.499048    0.014972
  C     -1.358928    0.755453   -0.060258
  S     -3.102194    0.557222   -0.038261
  C     -2.942684   -1.172315    0.073658
  C     -1.643195   -1.589224    0.092792
  C     -0.662817    1.992780   -0.143302
  C      0.732767    1.940108   -0.156249
  C     -1.413731    3.254404   -0.211954
  C     -0.915002    4.497810   -0.275379
  H      3.804531   -1.905100    0.022039
  H      1.296133   -2.684101    0.125760
  H     -3.839124   -1.788659    0.124950
  H     -1.348464   -2.636807    0.163866
  H      1.310021    2.862973   -0.221632
  H     -2.503803    3.143749   -0.209331
  H      0.158430    4.707120   -0.283161
  H     -1.580337    5.362082   -0.325251

 Multiplicity           Mult            ....    1
 Number of Electrons    NEL             ....  112
 Basis Dimension        Dim             ....  244

ORBITAL ENERGIES
----------------

  NO   OCC          E(Eh)            E(eV)
   0   2.0000     -88.873553     -2418.3723
   1   2.0000     -88.872695     -2418.3490
   2   2.0000     -10.220508      -278.1142
   3   2.0000     -10.219823      -278.0955
   4   2.0000     -10.219459      -278.0856
   5   2.0000     -10.219310      -278.0816
   6   2.0000     -10.209284      -277.8087
   7   2.0000     -10.204101      -277.6677
   8   2.0000     -10.203810      -277.6598
   9   2.0000     -10.201764      -277.6041
  10   2.0000     -10.201686      -277.6020
  11   2.0000     -10.199958      -277.5550
  12   2.0000     -10.199301      -277.5371
  13   2.0000     -10.192544      -277.3532
  14   2.0000      -7.968201      -216.8258
  15   2.0000      -7.967778      -216.8143
  16   2.0000      -5.936551      -161.5418
  17   2.0000      -5.936111      -161.5298
  18   2.0000      -5.932562      -161.4332
  19   2.0000      -5.932214      -161.4237
  20   2.0000      -5.929033      -161.3372
  21   2.0000      -5.928466      -161.3218
  22   2.0000      -0.900425       -24.5018
  23   2.0000      -0.872051       -23.7297
  24   2.0000      -0.823640       -22.4124
  25   2.0000      -0.779217       -21.2036
  26   2.0000      -0.756857       -20.5951
  27   2.0000      -0.735068       -20.0022
  28   2.0000      -0.703965       -19.1559
  29   2.0000      -0.696668       -18.9573
  30   2.0000      -0.631021       -17.1710
  31   2.0000      -0.592125       -16.1125
  32   2.0000      -0.577638       -15.7183
  33   2.0000      -0.559111       -15.2142
  34   2.0000      -0.534734       -14.5508
  35   2.0000      -0.530236       -14.4285
  36   2.0000      -0.474378       -12.9085
  37   2.0000      -0.472266       -12.8510
  38   2.0000      -0.461380       -12.5548
  39   2.0000      -0.451688       -12.2911
  40   2.0000      -0.420056       -11.4303
  41   2.0000      -0.418678       -11.3928
  42   2.0000      -0.414320       -11.2742
  43   2.0000      -0.400670       -10.9028
  44   2.0000      -0.385351       -10.4859
  45   2.0000      -0.377117       -10.2619
  46   2.0000      -0.368880       -10.0377
  47   2.0000      -0.362812        -9.8726
  48   2.0000      -0.349276        -9.5043
  49   2.0000      -0.342844        -9.3293
  50   2.0000      -0.337497        -9.1838
  51   2.0000      -0.293549        -7.9879
  52   2.0000      -0.278303        -7.5730
  53   2.0000      -0.256703        -6.9853
  54   2.0000      -0.227178        -6.1818
  55   2.0000      -0.207654        -5.6505
  56   0.0000      -0.059219        -1.6114
  57   0.0000      -0.020610        -0.5608
  58   0.0000       0.005469         0.1488
  59   0.0000       0.021345         0.5808
  60   0.0000       0.025226         0.6864

MULLIKEN ATOMIC CHARGES
-----------------------
   0 C :   -0.064221
   1 S :    0.101273
   2 C :   -0.082143
   3 C :    0.063988
   4 C :    0.004535
   5 C :    0.086781
   6 C :   -0.133068
   7 S :    0.089083
   8 C :   -0.058204
   9 C :    0.000609
  10 C :    0.083890
  11 C :   -0.060668
  12 C :   -0.030799
  13 C :   -0.019449
  14 H :    0.030155
  15 H :   -0.019343
  16 H :    0.029136
  17 H :   -0.017950
  18 H :   -0.039453
  19 H :   -0.003201
  20 H :    0.014602
  21 H :    0.024447
Sum of atomic charges:    0.0000000

LOEWDIN ATOMIC CHARGES
----------------------
   0 C :   -0.169182
   1 S :    0.397870
   2 C :   -0.159749
   3 C :   -0.044621
   4 C :   -0.062558
   5 C :   -0.044710
   6 C :   -0.154349
   7 S :    0.401150
   8 C :   -0.170276
   9 C :   -0.061980
  10 C :   -0.044450
  11 C :   -0.030568
  12 C :   -0.027079
  13 C :   -0.041697
  14 H :    0.026855
  15 H :    0.029643
  16 H :    0.026999
  17 H :    0.029553
  18 H :    0.027431
  19 H :    0.022921
  20 H :    0.020621
  21 H :    0.028176

  Mayer bond orders larger than 0.100000
B(  0-C ,  1-S ) :   1.1288 B(  0-C ,  4-C ) :   1.5923 B(  0-C , 14-H ) :   0.9617
B(  1-S ,  2-C ) :   1.0652 B(  2-C ,  3-C ) :   1.3288 B(  2-C , 11-C ) :   1.3032
B(  3-C ,  4-C ) :   1.2081 B(  3-C ,  5-C ) :   1.2210 B(  4-C , 15-H ) :   0.9902
B(  5-C ,  6-C ) :   1.3398 B(  5-C ,  9-C ) :   1.1981 B(  6-C ,  7-S ) :   1.0752
B(  6-C , 10-C ) :   1.3075 B(  7-S ,  8-C ) :   1.1266 B(  8-C ,  9-C ) :   1.5997
B(  8-C , 16-H ) :   0.9626 B(  9-C , 17-H ) :   0.9898 B( 10-C , 11-C ) :   1.4127
B( 10-C , 12-C ) :   1.0710 B( 11-C , 18-H ) :   0.9880 B( 12-C , 13-C ) :   1.9387
B( 12-C , 19-H ) :   0.9565 B( 13-C , 20-H ) :   0.9470 B( 13-C , 21-H ) :   0.9440

Dispersion correction           -0.057281168
FINAL SINGLE POINT ENERGY     -1257.971426128345

DIPOLE MOMENT
-------------
                                X             Y             Z
Electronic contribution:      1.55617      -2.92426       0.09929
Nuclear contribution   :     -1.54033       2.55510      -0.07384
                        -----------------------------------------
Total Dipole Moment    :      0.01583      -0.36916       0.02545
                        -----------------------------------------
Magnitude (a.u.)       :      0.37037
Magnitude (Debye)      :      0.94141

Rotational constants in cm-1:     0.028194     0.015814     0.010132
Rotational constants in MHz :   845.231984   474.101485   303.740808

                             ****ORCA TERMINATED NORMALLY****
TOTAL RUN TIME: 0 days 0 hours 18 minutes 59 seconds 508 msec
