                         Program Version 4.2.0 -  RELEASE  -
|  1> # ORCA input file
|  2> # SCF done        -25.092294175086          0.000659528473
|  3> ! B3LYP/G D3BJ Opt RIJCOSX def2-SVP def2/J
|  4> * xyz 0 1
|  5>    C       -1.25918        -1.26538         0.00533
|  6>    S       -2.43652         0.00473         0.00791
|  7>    C       -1.23732         1.25421         0.01299
|  8>    C        0.00013         0.70060         0.00951
|  9>    C       -0.01231        -0.73330         0.00513
| 10>    N        1.30300        -1.13416         0.00239
| 11>    C        2.12114        -0.03480         0.00425
| 12>    S        3.75652        -0.04904         0.00227
| 13>    N        1.32221         1.07858         0.00910
| 14>    H       -1.57604        -2.28687         0.00294
| 15>    H       -1.53640         2.28104         0.01686
| 16>    H        1.65496        -2.07585        -0.00118
| 17>    H        1.69039         2.01405         0.01146
| 18> *
| 19>
| 20>                          ****END OF INPUT****
 Total Charge           Charge          ....    0
 Multiplicity           Mult            ....    1
 Number of Electrons    NEL             ....   80
Dispersion correction           -0.029368378
FINAL SINGLE POINT ENERGY     -1098.413598018473
Dispersion correction            ... done
Dispersion correction           -0.029334616
FINAL SINGLE POINT ENERGY     -1098.416266685779
Dispersion correction            ... done
Dispersion correction           -0.029329707
FINAL SINGLE POINT ENERGY     -1098.416404119780
Dispersion correction            ... done
FINAL SINGLE POINT ENERGY     -1098.416417359936
Dispersion correction            ... done
Dispersion correction           -0.029330727
FINAL SINGLE POINT ENERGY     -1098.416433698161
Dispersion correction            ... done
Dispersion correction           -0.029332120
FINAL SINGLE POINT ENERGY     -1098.416436811861
Dispersion correction            ... done
                    ***********************HURRAY********************

CARTESIAN COORDINATES (ANGSTROEM)
---------------------------------
  C     -1.281242   -1.275239    0.005188
  S     -2.465152    0.004960    0.010065
  C     -1.259265    1.264474    0.012452
  C     -0.010676    0.701516    0.009325
  C     -0.023218   -0.733722    0.005030
  N      1.306617   -1.128865    0.002211
  C      2.154469   -0.035088    0.004522
  S      3.806510   -0.050376    0.002618
  N      1.325940    1.073603    0.008907
  H     -1.594204   -2.316339    0.002189
  H     -1.554964    2.310602    0.016140
  H      1.675198   -2.070268   -0.001379
  H      1.710568    2.008552    0.011692

 Multiplicity           Mult            ....    1
 Number of Electrons    NEL             ....   80
 Basis Dimension        Dim             ....  154

ORBITAL ENERGIES
----------------

  NO   OCC          E(Eh)            E(eV)
   0   2.0000     -88.885253     -2418.6907
   1   2.0000     -88.785280     -2415.9703
   2   2.0000     -14.392201      -391.6317
   3   2.0000     -14.392173      -391.6309
   4   2.0000     -10.301061      -280.3061
   5   2.0000     -10.248592      -278.8784
   6   2.0000     -10.248309      -278.8707
   7   2.0000     -10.225245      -278.2431
   8   2.0000     -10.225163      -278.2408
   9   2.0000      -7.979457      -217.1321
  10   2.0000      -7.881690      -214.4717
  11   2.0000      -5.947966      -161.8524
  12   2.0000      -5.943707      -161.7365
  13   2.0000      -5.940363      -161.6455
  14   2.0000      -5.851199      -159.2192
  15   2.0000      -5.845583      -159.0664
  16   2.0000      -5.841693      -158.9606
  17   2.0000      -1.038297       -28.2535
  18   2.0000      -0.914064       -24.8730
  19   2.0000      -0.885768       -24.1030
  20   2.0000      -0.775344       -21.0982
  21   2.0000      -0.732507       -19.9325
  22   2.0000      -0.701206       -19.0808
  23   2.0000      -0.662800       -18.0357
  24   2.0000      -0.602102       -16.3840
  25   2.0000      -0.588343       -16.0096
  26   2.0000      -0.553336       -15.0570
  27   2.0000      -0.515359       -14.0236
  28   2.0000      -0.488445       -13.2913
  29   2.0000      -0.475445       -12.9375
  30   2.0000      -0.419771       -11.4225
  31   2.0000      -0.414788       -11.2870
  32   2.0000      -0.386398       -10.5144
  33   2.0000      -0.376956       -10.2575
  34   2.0000      -0.358462        -9.7542
  35   2.0000      -0.349984        -9.5235
  36   2.0000      -0.278650        -7.5825
  37   2.0000      -0.237034        -6.4500
  38   2.0000      -0.215139        -5.8542
  39   2.0000      -0.206344        -5.6149
  40   0.0000      -0.041389        -1.1263
  41   0.0000       0.020451         0.5565
  42   0.0000       0.024809         0.6751
  43   0.0000       0.042040         1.1440
  44   0.0000       0.071665         1.9501

MULLIKEN ATOMIC CHARGES
-----------------------
   0 C :   -0.202566
   1 S :    0.090593
   2 C :   -0.203361
   3 C :    0.169981
   4 C :    0.169638
   5 N :   -0.072846
   6 C :    0.081982
   7 S :   -0.262114
   8 N :   -0.073110
   9 H :    0.020253
  10 H :    0.020551
  11 H :    0.130481
  12 H :    0.130518
Sum of atomic charges:   -0.0000000

LOEWDIN ATOMIC CHARGES
----------------------
   0 C :   -0.231308
   1 S :    0.429505
   2 C :   -0.231425
   3 C :   -0.023958
   4 C :   -0.024003
   5 N :    0.033151
   6 C :   -0.093156
   7 S :   -0.133178
   8 N :    0.033060
   9 H :    0.027700
  10 H :    0.027743
  11 H :    0.092925
  12 H :    0.092944

  Mayer bond orders larger than 0.100000
B(  0-C ,  1-S ) :   1.1234 B(  0-C ,  2-C ) :   0.1007 B(  0-C ,  4-C ) :   1.4811
B(  0-C ,  9-H ) :   0.9888 B(  1-S ,  2-C ) :   1.1235 B(  2-C ,  3-C ) :   1.4812
B(  2-C , 10-H ) :   0.9888 B(  3-C ,  4-C ) :   1.2379 B(  3-C ,  8-N ) :   1.1045
B(  4-C ,  5-N ) :   1.1046 B(  5-N ,  6-C ) :   1.1431 B(  5-N , 11-H ) :   0.9314
B(  6-C ,  7-S ) :   1.6260 B(  6-C ,  8-N ) :   1.1427 B(  8-N , 12-H ) :   0.9315

Dispersion correction           -0.029332986
FINAL SINGLE POINT ENERGY     -1098.416438205336

DIPOLE MOMENT
-------------
                                X             Y             Z
Electronic contribution:      0.35655      -0.00308      -0.00069
Nuclear contribution   :     -1.58322       0.01448       0.00214
                        -----------------------------------------
Total Dipole Moment    :     -1.22666       0.01140       0.00144
                        -----------------------------------------
Magnitude (a.u.)       :      1.22672
Magnitude (Debye)      :      3.11807

Rotational constants in cm-1:     0.161683     0.021691     0.019125
Rotational constants in MHz :  4847.122008   650.274863   573.355296

                             ****ORCA TERMINATED NORMALLY****
TOTAL RUN TIME: 0 days 0 hours 4 minutes 58 seconds 783 msec
