                         Program Version 4.2.0 -  RELEASE  -
|  1> # ORCA input file
|  2> # SCF done        -33.024595655945          0.000653320154
|  3> ! B3LYP/G D3BJ Opt RIJCOSX def2-SVP def2/J
|  4> * xyz 0 1
|  5>    C       -2.96385         1.47552         0.01543
|  6>    C       -3.46391         0.17691         0.03121
|  7>    C       -2.60950        -0.90866         0.03413
|  8>    C       -1.24463        -0.67349         0.02294
|  9>    C       -0.72197         0.63057         0.00803
| 10>    C       -1.60393         1.70771         0.00323
| 11>    C        0.71840         0.63447         0.00426
| 12>    C        1.24818        -0.66672         0.01717
| 13>    S        0.00512        -1.89954         0.02921
| 14>    C        2.61435        -0.89448         0.02208
| 15>    C        3.46283         0.19568         0.01384
| 16>    C        2.95569         1.49155        -0.00094
| 17>    C        1.59449         1.71636        -0.00614
| 18>    H       -3.64986         2.30940         0.01398
| 19>    H       -4.53131         0.01481         0.04230
| 20>    H       -2.98930        -1.91852         0.04609
| 21>    H       -1.21903         2.71624        -0.00878
| 22>    H        2.99965        -1.90227         0.03311
| 23>    H        4.53115         0.03935         0.01957
| 24>    H        3.63717         2.32913        -0.00713
| 25>    H        1.20406         2.72279        -0.01690
| 26> *
| 27>
| 28>                          ****END OF INPUT****
 Total Charge           Charge          ....    0
 Multiplicity           Mult            ....    1
 Number of Electrons    NEL             ....   96
Dispersion correction           -0.051436131
FINAL SINGLE POINT ENERGY      -859.919906569605
Dispersion correction            ... done
Dispersion correction           -0.051201859
FINAL SINGLE POINT ENERGY      -859.922990896794
Dispersion correction            ... done
Dispersion correction           -0.051168332
FINAL SINGLE POINT ENERGY      -859.923058800314
Dispersion correction            ... done
Dispersion correction           -0.051165005
FINAL SINGLE POINT ENERGY      -859.923062752648
Dispersion correction            ... done
                    ***********************HURRAY********************

CARTESIAN COORDINATES (ANGSTROEM)
---------------------------------
  C     -2.990553    1.487193    0.011929
  C     -3.495836    0.175445    0.024313
  C     -2.634676   -0.920091    0.034552
  C     -1.255478   -0.686598    0.032313
  C     -0.728790    0.628539    0.018332
  C     -1.617352    1.715472    0.008732
  C      0.725274    0.632491    0.014695
  C      1.259126   -0.679750    0.026107
  S      0.005225   -1.917510    0.043412
  C      2.639556   -0.905778    0.021194
  C      3.494712    0.194407    0.006516
  C      2.982312    1.503397   -0.003360
  C      1.607908    1.724232    0.000444
  H     -3.680887    2.333163    0.003963
  H     -4.575903    0.008595    0.025472
  H     -3.027883   -1.938786    0.043831
  H     -1.227237    2.735825   -0.001984
  H      3.038323   -1.922336    0.028166
  H      4.575650    0.033367    0.001779
  H      3.668019    2.353065   -0.015190
  H      1.212290    2.742466   -0.008525

 Multiplicity           Mult            ....    1
 Number of Electrons    NEL             ....   96
 Basis Dimension        Dim             ....  226

ORBITAL ENERGIES
----------------

  NO   OCC          E(Eh)            E(eV)
   0   2.0000     -88.867447     -2418.2062
   1   2.0000     -10.222309      -278.1632
   2   2.0000     -10.222256      -278.1617
   3   2.0000     -10.203027      -277.6385
   4   2.0000     -10.202926      -277.6357
   5   2.0000     -10.201474      -277.5962
   6   2.0000     -10.201458      -277.5958
   7   2.0000     -10.199330      -277.5379
   8   2.0000     -10.199220      -277.5349
   9   2.0000     -10.198005      -277.5018
  10   2.0000     -10.198001      -277.5017
  11   2.0000     -10.195094      -277.4226
  12   2.0000     -10.195085      -277.4224
  13   2.0000      -7.962352      -216.6666
  14   2.0000      -5.930843      -161.3864
  15   2.0000      -5.927256      -161.2888
  16   2.0000      -5.922425      -161.1574
  17   2.0000      -0.895513       -24.3682
  18   2.0000      -0.847641       -23.0655
  19   2.0000      -0.809126       -22.0174
  20   2.0000      -0.773274       -21.0419
  21   2.0000      -0.746381       -20.3101
  22   2.0000      -0.718241       -19.5443
  23   2.0000      -0.702381       -19.1128
  24   2.0000      -0.636773       -17.3275
  25   2.0000      -0.590988       -16.0816
  26   2.0000      -0.590949       -16.0805
  27   2.0000      -0.582952       -15.8629
  28   2.0000      -0.520895       -14.1743
  29   2.0000      -0.502560       -13.6753
  30   2.0000      -0.484771       -13.1913
  31   2.0000      -0.457771       -12.4566
  32   2.0000      -0.448917       -12.2157
  33   2.0000      -0.440642       -11.9905
  34   2.0000      -0.431428       -11.7398
  35   2.0000      -0.425104       -11.5677
  36   2.0000      -0.415935       -11.3182
  37   2.0000      -0.393590       -10.7101
  38   2.0000      -0.370003       -10.0683
  39   2.0000      -0.367735       -10.0066
  40   2.0000      -0.357067        -9.7163
  41   2.0000      -0.348241        -9.4761
  42   2.0000      -0.338122        -9.2008
  43   2.0000      -0.319514        -8.6944
  44   2.0000      -0.293451        -7.9852
  45   2.0000      -0.267507        -7.2792
  46   2.0000      -0.231148        -6.2899
  47   2.0000      -0.219888        -5.9834
  48   0.0000      -0.045223        -1.2306
  49   0.0000      -0.013979        -0.3804
  50   0.0000      -0.011693        -0.3182
  51   0.0000       0.020699         0.5633
  52   0.0000       0.024880         0.6770

MULLIKEN ATOMIC CHARGES
-----------------------
   0 C :    0.027091
   1 C :    0.013090
   2 C :   -0.008944
   3 C :   -0.065243
   4 C :    0.098428
   5 C :   -0.037081
   6 C :    0.098423
   7 C :   -0.065100
   8 S :    0.107121
   9 C :   -0.009167
  10 C :    0.012775
  11 C :    0.027460
  12 C :   -0.036918
  13 H :   -0.016275
  14 H :   -0.009609
  15 H :   -0.024309
  16 H :   -0.030723
  17 H :   -0.024309
  18 H :   -0.009443
  19 H :   -0.016430
  20 H :   -0.030838
Sum of atomic charges:    0.0000000

LOEWDIN ATOMIC CHARGES
----------------------
   0 C :   -0.031734
   1 C :   -0.024017
   2 C :   -0.041098
   3 C :   -0.144589
   4 C :   -0.041616
   5 C :   -0.015357
   6 C :   -0.041625
   7 C :   -0.144580
   8 S :    0.371818
   9 C :   -0.041115
  10 C :   -0.024064
  11 C :   -0.031676
  12 C :   -0.015348
  13 H :    0.028037
  14 H :    0.029257
  15 H :    0.028749
  16 H :    0.026460
  17 H :    0.028756
  18 H :    0.029287
  19 H :    0.028006
  20 H :    0.026447

  Mayer bond orders larger than 0.100000
B(  0-C ,  1-C ) :   1.3395 B(  0-C ,  5-C ) :   1.4080 B(  0-C , 13-H ) :   0.9808
B(  1-C ,  2-C ) :   1.4115 B(  1-C , 14-H ) :   0.9830 B(  2-C ,  3-C ) :   1.3616
B(  2-C , 15-H ) :   0.9900 B(  3-C ,  4-C ) :   1.3262 B(  3-C ,  8-S ) :   1.0369
B(  4-C ,  5-C ) :   1.3331 B(  4-C ,  6-C ) :   1.0925 B(  5-C , 16-H ) :   0.9866
B(  6-C ,  7-C ) :   1.3260 B(  6-C , 12-C ) :   1.3332 B(  7-C ,  8-S ) :   1.0368
B(  7-C ,  9-C ) :   1.3617 B(  9-C , 10-C ) :   1.4118 B(  9-C , 17-H ) :   0.9899
B( 10-C , 11-C ) :   1.3393 B( 10-C , 18-H ) :   0.9830 B( 11-C , 12-C ) :   1.4080
B( 11-C , 19-H ) :   0.9809 B( 12-C , 20-H ) :   0.9865

Dispersion correction           -0.051164629
FINAL SINGLE POINT ENERGY      -859.923062933732

DIPOLE MOMENT
-------------
                                X             Y             Z
Electronic contribution:      0.01538      -5.61668       0.07767
Nuclear contribution   :     -0.01604       5.87054      -0.08359
                        -----------------------------------------
Total Dipole Moment    :     -0.00066       0.25386      -0.00592
                        -----------------------------------------
Magnitude (a.u.)       :      0.25393
Magnitude (Debye)      :      0.64544

Rotational constants in cm-1:     0.053022     0.019180     0.014085
Rotational constants in MHz :  1589.572171   575.005644   422.259985

                             ****ORCA TERMINATED NORMALLY****
TOTAL RUN TIME: 0 days 0 hours 8 minutes 50 seconds 44 msec
