                         Program Version 4.2.0 -  RELEASE  -
|  1> # ORCA input file
|  2> # SCF done        -28.180967491553          0.000240487973
|  3> ! B3LYP/G D3BJ Opt RIJCOSX def2-SVP def2/J
|  4> * xyz 0 1
|  5>    C       -1.33699        -0.13485        -0.10727
|  6>    S       -0.58482         1.40697        -0.01388
|  7>    C        0.95956         0.70590         0.14928
|  8>    C        0.91407        -0.66645         0.13414
|  9>    C       -0.43269        -1.15244        -0.01769
| 10>    O       -0.76301        -2.44597        -0.06548
| 11>    C        2.03089        -1.60862         0.25332
| 12>    O        1.86467        -2.80841         0.21304
| 13>    O        3.26251        -1.10554         0.41335
| 14>    H       -2.39753        -0.21498        -0.22308
| 15>    H        1.80877         1.35601         0.24354
| 16>    H        0.06354        -2.97050         0.01651
| 17>    H        3.27484        -0.14092         0.43403
| 18> *
| 19>
| 20>                          ****END OF INPUT****
 Total Charge           Charge          ....    0
 Multiplicity           Mult            ....    1
 Number of Electrons    NEL             ....   74
Dispersion correction           -0.025645593
FINAL SINGLE POINT ENERGY      -816.410210323739
Dispersion correction            ... done
Dispersion correction           -0.025603426
FINAL SINGLE POINT ENERGY      -816.411459634590
Dispersion correction            ... done
Dispersion correction           -0.025609290
FINAL SINGLE POINT ENERGY      -816.411562497556
Dispersion correction            ... done
FINAL SINGLE POINT ENERGY      -816.411544850775
FINAL SINGLE POINT ENERGY      -816.411576999456
Dispersion correction            ... done
Dispersion correction           -0.025621453
FINAL SINGLE POINT ENERGY      -816.411578213067
Dispersion correction            ... done
Dispersion correction           -0.025622148
FINAL SINGLE POINT ENERGY      -816.411580595314
Dispersion correction            ... done
                    ***********************HURRAY********************

CARTESIAN COORDINATES (ANGSTROEM)
---------------------------------
  C     -1.359005   -0.133195   -0.105069
  S     -0.595240    1.418831   -0.019956
  C      0.962240    0.725193    0.141959
  C      0.912808   -0.658081    0.135455
  C     -0.441668   -1.157406   -0.011045
  O     -0.749473   -2.456423   -0.046637
  C      2.032320   -1.610359    0.243936
  O      1.857155   -2.814948    0.185372
  O      3.273999   -1.133841    0.415575
  H     -2.435372   -0.223657   -0.228436
  H      1.830916    1.377387    0.228866
  H      0.105385   -2.944744    0.020041
  H      3.269745   -0.168558    0.469749

 Multiplicity           Mult            ....    1
 Number of Electrons    NEL             ....   74
 Basis Dimension        Dim             ....  150

ORBITAL ENERGIES
----------------

  NO   OCC          E(Eh)            E(eV)
   0   2.0000     -88.900006     -2419.0921
   1   2.0000     -19.200229      -522.4648
   2   2.0000     -19.157789      -521.3099
   3   2.0000     -19.142480      -520.8934
   4   2.0000     -10.342400      -281.4310
   5   2.0000     -10.267053      -279.3807
   6   2.0000     -10.248510      -278.8761
   7   2.0000     -10.224021      -278.2098
   8   2.0000     -10.214828      -277.9596
   9   2.0000      -7.994738      -217.5479
  10   2.0000      -5.962747      -162.2546
  11   2.0000      -5.958665      -162.1435
  12   2.0000      -5.956318      -162.0797
  13   2.0000      -1.114696       -30.3324
  14   2.0000      -1.056685       -28.7539
  15   2.0000      -1.025761       -27.9124
  16   2.0000      -0.898347       -24.4453
  17   2.0000      -0.769880       -20.9495
  18   2.0000      -0.736311       -20.0360
  19   2.0000      -0.651963       -17.7408
  20   2.0000      -0.625612       -17.0238
  21   2.0000      -0.587677       -15.9915
  22   2.0000      -0.574496       -15.6328
  23   2.0000      -0.497715       -13.5435
  24   2.0000      -0.476590       -12.9687
  25   2.0000      -0.474694       -12.9171
  26   2.0000      -0.470642       -12.8068
  27   2.0000      -0.429167       -11.6782
  28   2.0000      -0.423902       -11.5350
  29   2.0000      -0.408132       -11.1058
  30   2.0000      -0.384204       -10.4547
  31   2.0000      -0.365678        -9.9506
  32   2.0000      -0.363443        -9.8898
  33   2.0000      -0.341063        -9.2808
  34   2.0000      -0.301626        -8.2077
  35   2.0000      -0.275315        -7.4917
  36   2.0000      -0.232616        -6.3298
  37   0.0000      -0.067502        -1.8368
  38   0.0000       0.005503         0.1497
  39   0.0000       0.009477         0.2579
  40   0.0000       0.032150         0.8748
  41   0.0000       0.088529         2.4090

MULLIKEN ATOMIC CHARGES
-----------------------
   0 C :   -0.178689
   1 S :    0.137480
   2 C :   -0.138652
   3 C :   -0.079754
   4 C :    0.187411
   5 O :   -0.181739
   6 C :    0.215578
   7 O :   -0.247664
   8 O :   -0.137073
   9 H :    0.029601
  10 H :    0.026718
  11 H :    0.192515
  12 H :    0.174268
Sum of atomic charges:    0.0000000

LOEWDIN ATOMIC CHARGES
----------------------
   0 C :   -0.241646
   1 S :    0.471654
   2 C :   -0.191726
   3 C :   -0.158913
   4 C :    0.033406
   5 O :   -0.045195
   6 C :    0.098337
   7 O :   -0.170127
   8 O :   -0.013314
   9 H :    0.031379
  10 H :    0.021597
  11 H :    0.070546
  12 H :    0.094002

  Mayer bond orders larger than 0.100000
B(  0-C ,  1-S ) :   1.1261 B(  0-C ,  4-C ) :   1.5056 B(  0-C ,  9-H ) :   0.9660
B(  1-S ,  2-C ) :   1.2414 B(  1-S ,  3-C ) :   0.1046 B(  2-C ,  3-C ) :   1.4319
B(  2-C , 10-H ) :   0.9627 B(  3-C ,  4-C ) :   1.1677 B(  3-C ,  6-C ) :   0.9667
B(  4-C ,  5-O ) :   1.3110 B(  5-O , 11-H ) :   0.8917 B(  6-C ,  7-O ) :   1.9596
B(  6-C ,  8-O ) :   1.2711 B(  7-O , 11-H ) :   0.1356 B(  8-O , 12-H ) :   0.9558

Dispersion correction           -0.025622122
FINAL SINGLE POINT ENERGY      -816.411579275571

DIPOLE MOMENT
-------------
                                X             Y             Z
Electronic contribution:     -0.39822       1.11383      -0.05131
Nuclear contribution   :      0.61323       0.45697       0.11343
                        -----------------------------------------
Total Dipole Moment    :      0.21501       1.57080       0.06211
                        -----------------------------------------
Magnitude (a.u.)       :      1.58666
Magnitude (Debye)      :      4.03298

Rotational constants in cm-1:     0.083127     0.038480     0.026307
Rotational constants in MHz :  2492.098840  1153.588016   788.670088

                             ****ORCA TERMINATED NORMALLY****
TOTAL RUN TIME: 0 days 0 hours 5 minutes 55 seconds 406 msec
