                         Program Version 4.2.0 -  RELEASE  -
|  1> # ORCA input file
|  2> # SCF done        -35.008038322459          0.000397404531
|  3> ! B3LYP/G D3BJ Opt RIJCOSX def2-SVP def2/J
|  4> * xyz 0 1
|  5>    C        0.55530        -1.03203        -0.00010
|  6>    O        1.81631        -0.59633        -0.01291
|  7>    C        1.79512         0.73694         0.00333
|  8>    C        0.50870         1.19255         0.02721
|  9>    C       -0.31886         0.02448         0.02510
| 10>    C       -1.72519        -0.02070         0.04512
| 11>    N       -2.86877        -0.05770         0.06048
| 12>    C        0.04611         2.60742         0.05101
| 13>    F        1.08024         3.46244         0.04495
| 14>    F       -0.71525         2.91464        -1.00933
| 15>    F       -0.68170         2.88936         1.14155
| 16>    H        0.37942        -2.08961        -0.01020
| 17>    H        2.72791         1.26568        -0.00368
| 18> *
| 19>
| 20>                          ****END OF INPUT****
 Total Charge           Charge          ....    0
 Multiplicity           Mult            ....    1
 Number of Electrons    NEL             ....   80
Dispersion correction           -0.021878726
FINAL SINGLE POINT ENERGY      -658.831157111165
Dispersion correction            ... done
Dispersion correction           -0.021899104
FINAL SINGLE POINT ENERGY      -658.833278901207
Dispersion correction            ... done
Dispersion correction           -0.021882020
FINAL SINGLE POINT ENERGY      -658.833404315866
Dispersion correction            ... done
FINAL SINGLE POINT ENERGY      -658.833421544287
FINAL SINGLE POINT ENERGY      -658.833199781857
FINAL SINGLE POINT ENERGY      -658.833412768318
FINAL SINGLE POINT ENERGY      -658.833461597208
FINAL SINGLE POINT ENERGY      -658.833428419351
Dispersion correction            ... done
Dispersion correction           -0.021918826
FINAL SINGLE POINT ENERGY      -658.833423277199
Dispersion correction            ... done
Dispersion correction           -0.021916999
FINAL SINGLE POINT ENERGY      -658.833430842489
Dispersion correction            ... done
                    ***********************HURRAY********************

CARTESIAN COORDINATES (ANGSTROEM)
---------------------------------
  C      0.543760   -1.037774    0.013608
  O      1.817995   -0.600886    0.025888
  C      1.803439    0.754877    0.027828
  C      0.517517    1.207278    0.015429
  C     -0.320095    0.029164    0.007437
  C     -1.741175   -0.023367   -0.016547
  N     -2.900470   -0.061947   -0.037741
  C      0.049139    2.626137    0.056800
  F      1.070056    3.481297   -0.112699
  F     -0.859959    2.866112   -0.900060
  F     -0.528225    2.908591    1.235631
  H      0.382286   -2.112289    0.008311
  H      2.765072    1.259946    0.038644

 Multiplicity           Mult            ....    1
 Number of Electrons    NEL             ....   80
 Basis Dimension        Dim             ....  164

ORBITAL ENERGIES
----------------

  NO   OCC          E(Eh)            E(eV)
   0   2.0000     -24.736351      -673.1103
   1   2.0000     -24.730863      -672.9610
   2   2.0000     -24.729478      -672.9233
   3   2.0000     -19.256463      -523.9950
   4   2.0000     -14.344281      -390.3277
   5   2.0000     -10.456555      -284.5373
   6   2.0000     -10.296264      -280.1756
   7   2.0000     -10.292688      -280.0783
   8   2.0000     -10.262699      -279.2622
   9   2.0000     -10.247370      -278.8451
  10   2.0000     -10.246384      -278.8183
  11   2.0000      -1.313189       -35.7337
  12   2.0000      -1.222765       -33.2731
  13   2.0000      -1.217783       -33.1376
  14   2.0000      -1.162272       -31.6270
  15   2.0000      -0.914837       -24.8940
  16   2.0000      -0.865800       -23.5596
  17   2.0000      -0.807182       -21.9645
  18   2.0000      -0.734890       -19.9974
  19   2.0000      -0.683113       -18.5884
  20   2.0000      -0.647552       -17.6208
  21   2.0000      -0.621449       -16.9105
  22   2.0000      -0.606078       -16.4922
  23   2.0000      -0.601358       -16.3638
  24   2.0000      -0.556659       -15.1475
  25   2.0000      -0.511551       -13.9200
  26   2.0000      -0.504248       -13.7213
  27   2.0000      -0.486903       -13.2493
  28   2.0000      -0.482143       -13.1198
  29   2.0000      -0.479730       -13.0541
  30   2.0000      -0.449213       -12.2237
  31   2.0000      -0.445259       -12.1161
  32   2.0000      -0.431488       -11.7414
  33   2.0000      -0.422295       -11.4912
  34   2.0000      -0.411334       -11.1930
  35   2.0000      -0.393244       -10.7007
  36   2.0000      -0.374430       -10.1887
  37   2.0000      -0.352025        -9.5791
  38   2.0000      -0.320921        -8.7327
  39   2.0000      -0.284420        -7.7395
  40   0.0000      -0.057795        -1.5727
  41   0.0000      -0.031374        -0.8537
  42   0.0000       0.007740         0.2106
  43   0.0000       0.064524         1.7558
  44   0.0000       0.080120         2.1802

MULLIKEN ATOMIC CHARGES
-----------------------
   0 C :    0.124370
   1 O :   -0.180838
   2 C :    0.100347
   3 C :   -0.076129
   4 C :   -0.105989
   5 C :   -0.136721
   6 N :    0.117184
   7 C :    0.563397
   8 F :   -0.164079
   9 F :   -0.158613
  10 F :   -0.158956
  11 H :    0.037192
  12 H :    0.038835
Sum of atomic charges:   -0.0000000

LOEWDIN ATOMIC CHARGES
----------------------
   0 C :    0.084652
   1 O :    0.033837
   2 C :    0.070099
   3 C :   -0.106407
   4 C :   -0.096442
   5 C :   -0.032409
   6 N :   -0.041354
   7 C :    0.173188
   8 F :   -0.057144
   9 F :   -0.051881
  10 F :   -0.056099
  11 H :    0.040712
  12 H :    0.039248

  Mayer bond orders larger than 0.100000
B(  0-C ,  1-O ) :   1.1700 B(  0-C ,  4-C ) :   1.5124 B(  0-C , 11-H ) :   1.0122
B(  1-O ,  2-C ) :   1.1374 B(  2-C ,  3-C ) :   1.5568 B(  2-C , 12-H ) :   1.0022
B(  3-C ,  4-C ) :   1.2534 B(  3-C ,  7-C ) :   0.9439 B(  4-C ,  5-C ) :   1.1266
B(  5-C ,  6-N ) :   3.0069 B(  7-C ,  8-F ) :   1.1602 B(  7-C ,  9-F ) :   1.1608
B(  7-C , 10-F ) :   1.1781

Dispersion correction           -0.021918616
FINAL SINGLE POINT ENERGY      -658.833428670890

DIPOLE MOMENT
-------------
                                X             Y             Z
Electronic contribution:     -1.54900       7.56560       0.13533
Nuclear contribution   :      3.23558      -8.24902      -0.13255
                        -----------------------------------------
Total Dipole Moment    :      1.68659      -0.68342       0.00278
                        -----------------------------------------
Magnitude (a.u.)       :      1.81979
Magnitude (Debye)      :      4.62554

Rotational constants in cm-1:     0.048574     0.036851     0.023552
Rotational constants in MHz :  1456.197556  1104.769948   706.069754

                             ****ORCA TERMINATED NORMALLY****
TOTAL RUN TIME: 0 days 0 hours 9 minutes 18 seconds 776 msec
