                         Program Version 4.2.0 -  RELEASE  -
|  1> # ORCA input file
|  2> # SCF done        -24.581028451581          0.000813934182
|  3> ! B3LYP/G D3BJ Opt RIJCOSX def2-SVP def2/J
|  4> * xyz 0 1
|  5>    C       -0.24739         1.09585        -0.00641
|  6>    N       -1.01822        -0.00846        -0.16600
|  7>    C       -0.23634        -1.12792        -0.16990
|  8>    C       -0.76316        -2.45364        -0.32967
|  9>    C       -2.04545        -2.77773        -0.49447
| 10>    C        1.08805        -0.71003        -0.00687
| 11>    C        1.05722         0.70215         0.09328
| 12>    C        2.25077        -1.56323         0.04755
| 13>    C        3.50779        -1.14359         0.15419
| 14>    H       -0.67729         2.07816         0.02407
| 15>    H       -2.01879        -0.01260        -0.26646
| 16>    H       -0.02377        -3.24130        -0.31443
| 17>    H       -2.83726        -2.04793        -0.52083
| 18>    H       -2.35106        -3.80241        -0.61149
| 19>    H        1.90009         1.34917         0.22703
| 20>    H        2.05501        -2.62661        -0.00657
| 21>    H        3.76090        -0.09901         0.20737
| 22>    H        4.33145        -1.83562         0.18959
| 23> *
| 24>
| 25>                          ****END OF INPUT****
 Total Charge           Charge          ....    0
 Multiplicity           Mult            ....    1
 Number of Electrons    NEL             ....   64
Dispersion correction           -0.030504170
FINAL SINGLE POINT ENERGY      -364.745473327334
Dispersion correction            ... done
Dispersion correction           -0.030354810
FINAL SINGLE POINT ENERGY      -364.748396080811
Dispersion correction            ... done
Dispersion correction           -0.030334206
FINAL SINGLE POINT ENERGY      -364.748446397014
Dispersion correction            ... done
Dispersion correction           -0.030327429
FINAL SINGLE POINT ENERGY      -364.748454899825
Dispersion correction            ... done
Dispersion correction           -0.030326921
FINAL SINGLE POINT ENERGY      -364.748455810013
Dispersion correction            ... done
                    ***********************HURRAY********************

CARTESIAN COORDINATES (ANGSTROEM)
---------------------------------
  C     -0.259609    1.131916   -0.011064
  N     -1.031904    0.009694   -0.161179
  C     -0.242426   -1.119256   -0.172035
  C     -0.769256   -2.456272   -0.337167
  C     -2.059278   -2.810143   -0.483452
  C      1.089343   -0.691893   -0.014203
  C      1.057840    0.735618    0.084133
  C      2.257801   -1.558625    0.037048
  C      3.535710   -1.166355    0.169673
  H     -0.707596    2.122684    0.018941
  H     -2.036747    0.004959   -0.268676
  H     -0.011608   -3.245161   -0.345042
  H     -2.875741   -2.080634   -0.488183
  H     -2.348434   -3.854860   -0.611704
  H      1.912785    1.393596    0.217091
  H      2.058412   -2.633213   -0.041266
  H      3.814251   -0.112451    0.255573
  H      4.349008   -1.894355    0.201491

 Multiplicity           Mult            ....    1
 Number of Electrons    NEL             ....   64
 Basis Dimension        Dim             ....  171

ORBITAL ENERGIES
----------------

  NO   OCC          E(Eh)            E(eV)
   0   2.0000     -14.377070      -391.2200
   1   2.0000     -10.216974      -278.0180
   2   2.0000     -10.216305      -277.9998
   3   2.0000     -10.200735      -277.5761
   4   2.0000     -10.188599      -277.2459
   5   2.0000     -10.187955      -277.2283
   6   2.0000     -10.182209      -277.0720
   7   2.0000     -10.175641      -276.8933
   8   2.0000     -10.174319      -276.8573
   9   2.0000      -0.975359       -26.5409
  10   2.0000      -0.797214       -21.6933
  11   2.0000      -0.783439       -21.3185
  12   2.0000      -0.736184       -20.0326
  13   2.0000      -0.703149       -19.1337
  14   2.0000      -0.608831       -16.5671
  15   2.0000      -0.604763       -16.4564
  16   2.0000      -0.583531       -15.8787
  17   2.0000      -0.524877       -14.2826
  18   2.0000      -0.508663       -13.8414
  19   2.0000      -0.473068       -12.8728
  20   2.0000      -0.448599       -12.2070
  21   2.0000      -0.434527       -11.8241
  22   2.0000      -0.423186       -11.5155
  23   2.0000      -0.419129       -11.4051
  24   2.0000      -0.407155       -11.0793
  25   2.0000      -0.373406       -10.1609
  26   2.0000      -0.368410       -10.0249
  27   2.0000      -0.343072        -9.3355
  28   2.0000      -0.307841        -8.3768
  29   2.0000      -0.299171        -8.1409
  30   2.0000      -0.229924        -6.2566
  31   2.0000      -0.198410        -5.3990
  32   0.0000      -0.035722        -0.9720
  33   0.0000       0.010868         0.2957
  34   0.0000       0.043447         1.1823
  35   0.0000       0.068014         1.8508
  36   0.0000       0.073549         2.0014

MULLIKEN ATOMIC CHARGES
-----------------------
   0 C :    0.069299
   1 N :   -0.058666
   2 C :   -0.004275
   3 C :    0.027336
   4 C :   -0.059510
   5 C :    0.044450
   6 C :   -0.052313
   7 C :   -0.020854
   8 C :   -0.032376
   9 H :   -0.005372
  10 H :    0.116614
  11 H :   -0.012739
  12 H :   -0.005233
  13 H :    0.019119
  14 H :   -0.025161
  15 H :   -0.019021
  16 H :    0.003859
  17 H :    0.014844
Sum of atomic charges:   -0.0000000

LOEWDIN ATOMIC CHARGES
----------------------
   0 C :   -0.004455
   1 N :    0.084636
   2 C :   -0.019479
   3 C :   -0.028273
   4 C :   -0.078272
   5 C :   -0.061206
   6 C :   -0.070714
   7 C :   -0.024508
   8 C :   -0.063222
   9 H :    0.020370
  10 H :    0.085305
  11 H :    0.034227
  12 H :    0.010870
  13 H :    0.025903
  14 H :    0.023575
  15 H :    0.025115
  16 H :    0.017750
  17 H :    0.022379

  Mayer bond orders larger than 0.100000
B(  0-C ,  1-N ) :   1.2047 B(  0-C ,  6-C ) :   1.4829 B(  0-C ,  9-H ) :   0.9853
B(  1-N ,  2-C ) :   1.2225 B(  1-N , 10-H ) :   0.9328 B(  2-C ,  3-C ) :   1.1511
B(  2-C ,  5-C ) :   1.3523 B(  3-C ,  4-C ) :   1.8774 B(  3-C , 11-H ) :   0.9419
B(  4-C , 12-H ) :   0.9615 B(  4-C , 13-H ) :   0.9387 B(  5-C ,  6-C ) :   1.2877
B(  5-C ,  7-C ) :   1.1158 B(  6-C , 14-H ) :   0.9998 B(  7-C ,  8-C ) :   1.9282
B(  7-C , 15-H ) :   0.9514 B(  8-C , 16-H ) :   0.9502 B(  8-C , 17-H ) :   0.9434

Dispersion correction           -0.030328145
FINAL SINGLE POINT ENERGY      -364.748454746265

DIPOLE MOMENT
-------------
                                X             Y             Z
Electronic contribution:     -1.43265       2.46021       0.08398
Nuclear contribution   :      0.69374      -2.17876      -0.14190
                        -----------------------------------------
Total Dipole Moment    :     -0.73890       0.28145      -0.05792
                        -----------------------------------------
Magnitude (a.u.)       :      0.79281
Magnitude (Debye)      :      2.01516

Rotational constants in cm-1:     0.085021     0.045235     0.029527
Rotational constants in MHz :  2548.866730  1356.119552   885.191730

                             ****ORCA TERMINATED NORMALLY****
TOTAL RUN TIME: 0 days 0 hours 5 minutes 48 seconds 38 msec
