                         Program Version 4.2.0 -  RELEASE  -
|  1> # ORCA input file
|  2> # SCF done        -42.421374907423          0.000749389556
|  3> ! B3LYP/G D3BJ Opt RIJCOSX def2-SVP def2/J
|  4> * xyz 0 1
|  5>    N        2.32265         1.33117         0.23219
|  6>    C        1.15256         0.80567        -0.44326
|  7>    C        1.20037        -0.77317        -0.41278
|  8>    N        0.01817        -1.33987         0.20748
|  9>    C       -1.20059        -0.83811        -0.40179
| 10>    C       -1.23858         0.72936        -0.44266
| 11>    C       -2.50108         1.21587         0.26278
| 12>    S       -3.72836        -0.10869         0.07313
| 13>    C       -2.42634        -1.34225         0.35266
| 14>    N       -0.05488         1.31110         0.16657
| 15>    N        2.36492        -1.11647         0.36527
| 16>    S        3.53913         0.15220         0.14706
| 17>    C        2.73487        -2.43575         0.52658
| 18>    C        3.96337        -2.84779         0.80454
| 19>    H        2.11351         1.58812         1.19277
| 20>    H        1.17474         1.15453        -1.48441
| 21>    H        1.24755        -1.16723        -1.44243
| 22>    H        0.03312        -1.14459         1.20652
| 23>    H       -1.21852        -1.22372        -1.42737
| 24>    H       -1.24998         1.06336        -1.48562
| 25>    H       -2.89709         2.13046        -0.16815
| 26>    H       -2.32298         1.37031         1.32899
| 27>    H       -2.77086        -2.30917        -0.00172
| 28>    H       -2.23315        -1.40164         1.42599
| 29>    H       -0.04557         1.10749         1.16540
| 30>    H        1.89289        -3.11078         0.45645
| 31>    H        4.78701        -2.15599         0.85237
| 32>    H        4.16870        -3.88309         1.00175
| 33> *
| 34>
| 35>                          ****END OF INPUT****
 Total Charge           Charge          ....    0
 Multiplicity           Mult            ....    1
 Number of Electrons    NEL             ....  122
Dispersion correction           -0.064930990
FINAL SINGLE POINT ENERGY     -1328.033776972585
Dispersion correction            ... done
Dispersion correction           -0.064341622
FINAL SINGLE POINT ENERGY     -1328.036781901091
Dispersion correction            ... done
Dispersion correction           -0.064261582
FINAL SINGLE POINT ENERGY     -1328.037059573542
Dispersion correction            ... done
FINAL SINGLE POINT ENERGY     -1328.037124916572
FINAL SINGLE POINT ENERGY     -1328.037141342597
Dispersion correction            ... done
Dispersion correction           -0.064292303
FINAL SINGLE POINT ENERGY     -1328.037151736551
Dispersion correction            ... done
Dispersion correction           -0.064291880
FINAL SINGLE POINT ENERGY     -1328.037156856603
Dispersion correction            ... done
                    ***********************HURRAY********************

CARTESIAN COORDINATES (ANGSTROEM)
---------------------------------
  N      2.332268    1.351867    0.245278
  C      1.146767    0.817813   -0.431023
  C      1.187296   -0.778410   -0.373042
  N      0.008900   -1.344974    0.257333
  C     -1.203930   -0.842893   -0.375959
  C     -1.241874    0.742697   -0.435401
  C     -2.530171    1.230618    0.236039
  S     -3.762771   -0.099241   -0.004454
  C     -2.465878   -1.342158    0.336288
  N     -0.059151    1.349773    0.167254
  N      2.375386   -1.113878    0.387668
  S      3.557420    0.173354    0.118522
  C      2.775093   -2.431593    0.552985
  C      4.028471   -2.870816    0.755791
  H      2.124655    1.541911    1.228117
  H      1.170142    1.125778   -1.489637
  H      1.227644   -1.170574   -1.409275
  H      0.023187   -1.111662    1.252177
  H     -1.211606   -1.223746   -1.409527
  H     -1.257072    1.048103   -1.493436
  H     -2.905687    2.166769   -0.196768
  H     -2.370566    1.395385    1.315938
  H     -2.795100   -2.325615   -0.023055
  H     -2.298894   -1.414561    1.425222
  H     -0.054392    1.135196    1.167745
  H      1.924207   -3.121149    0.535345
  H      4.889556   -2.197663    0.772588
  H      4.211678   -3.929002    0.945596

 Multiplicity           Mult            ....    1
 Number of Electrons    NEL             ....  122
 Basis Dimension        Dim             ....  274

ORBITAL ENERGIES
----------------

  NO   OCC          E(Eh)            E(eV)
   0   2.0000     -88.890412     -2418.8311
   1   2.0000     -88.838557     -2417.4200
   2   2.0000     -14.359708      -390.7475
   3   2.0000     -14.354830      -390.6148
   4   2.0000     -14.337996      -390.1567
   5   2.0000     -14.334499      -390.0616
   6   2.0000     -10.259007      -279.1618
   7   2.0000     -10.257211      -279.1129
   8   2.0000     -10.233276      -278.4616
   9   2.0000     -10.232453      -278.4392
  10   2.0000     -10.223789      -278.2034
  11   2.0000     -10.223719      -278.2015
  12   2.0000     -10.220544      -278.1151
  13   2.0000     -10.166877      -276.6548
  14   2.0000      -7.981180      -217.1790
  15   2.0000      -7.934136      -215.8988
  16   2.0000      -5.952764      -161.9830
  17   2.0000      -5.947495      -161.8396
  18   2.0000      -5.937035      -161.5549
  19   2.0000      -5.903606      -160.6453
  20   2.0000      -5.899846      -160.5430
  21   2.0000      -5.892195      -160.3348
  22   2.0000      -0.997455       -27.1421
  23   2.0000      -0.938536       -25.5389
  24   2.0000      -0.924228       -25.1495
  25   2.0000      -0.870106       -23.6768
  26   2.0000      -0.836682       -22.7673
  27   2.0000      -0.750961       -20.4347
  28   2.0000      -0.738029       -20.0828
  29   2.0000      -0.723018       -19.6743
  30   2.0000      -0.683043       -18.5866
  31   2.0000      -0.663861       -18.0646
  32   2.0000      -0.615497       -16.7485
  33   2.0000      -0.602231       -16.3875
  34   2.0000      -0.584905       -15.9161
  35   2.0000      -0.568009       -15.4563
  36   2.0000      -0.536525       -14.5996
  37   2.0000      -0.508994       -13.8504
  38   2.0000      -0.505078       -13.7439
  39   2.0000      -0.492149       -13.3921
  40   2.0000      -0.482573       -13.1315
  41   2.0000      -0.469850       -12.7853
  42   2.0000      -0.453485       -12.3400
  43   2.0000      -0.446830       -12.1589
  44   2.0000      -0.423209       -11.5161
  45   2.0000      -0.419863       -11.4251
  46   2.0000      -0.409326       -11.1383
  47   2.0000      -0.393612       -10.7107
  48   2.0000      -0.388825       -10.5805
  49   2.0000      -0.387088       -10.5332
  50   2.0000      -0.373776       -10.1710
  51   2.0000      -0.359495        -9.7824
  52   2.0000      -0.351822        -9.5736
  53   2.0000      -0.341471        -9.2919
  54   2.0000      -0.322205        -8.7676
  55   2.0000      -0.293931        -7.9983
  56   2.0000      -0.278200        -7.5702
  57   2.0000      -0.251854        -6.8533
  58   2.0000      -0.232366        -6.3230
  59   2.0000      -0.226507        -6.1636
  60   2.0000      -0.199236        -5.4215
  61   0.0000      -0.011359        -0.3091
  62   0.0000       0.022204         0.6042
  63   0.0000       0.023238         0.6323
  64   0.0000       0.029659         0.8071
  65   0.0000       0.040149         1.0925

MULLIKEN ATOMIC CHARGES
-----------------------
   0 N :   -0.286346
   1 C :    0.143339
   2 C :    0.211204
   3 N :   -0.182141
   4 C :    0.033559
   5 C :    0.026670
   6 C :    0.010841
   7 S :   -0.082906
   8 C :    0.009831
   9 N :   -0.178841
  10 N :   -0.425673
  11 S :    0.262924
  12 C :    0.105613
  13 C :   -0.098645
  14 H :    0.129254
  15 H :   -0.006386
  16 H :   -0.018832
  17 H :    0.082445
  18 H :   -0.005707
  19 H :   -0.004895
  20 H :    0.047494
  21 H :    0.027060
  22 H :    0.046930
  23 H :    0.028211
  24 H :    0.078250
  25 H :    0.015722
  26 H :    0.014338
  27 H :    0.016686
Sum of atomic charges:    0.0000000

LOEWDIN ATOMIC CHARGES
----------------------
   0 N :   -0.213595
   1 C :    0.035833
   2 C :    0.035946
   3 N :   -0.091958
   4 C :   -0.009117
   5 C :   -0.007570
   6 C :   -0.122008
   7 S :    0.203476
   8 C :   -0.121950
   9 N :   -0.089459
  10 N :   -0.206138
  11 S :    0.383732
  12 C :    0.001181
  13 C :   -0.148295
  14 H :    0.049441
  15 H :    0.015970
  16 H :    0.001072
  17 H :    0.043126
  18 H :    0.020838
  19 H :    0.021547
  20 H :    0.030134
  21 H :    0.015618
  22 H :    0.029871
  23 H :    0.015731
  24 H :    0.039692
  25 H :    0.027458
  26 H :    0.013602
  27 H :    0.025825

  Mayer bond orders larger than 0.100000
B(  0-N ,  1-C ) :   1.0305 B(  0-N , 11-S ) :   1.0470 B(  0-N , 14-H ) :   0.9234
B(  1-C ,  2-C ) :   0.9278 B(  1-C ,  9-N ) :   1.0893 B(  1-C , 15-H ) :   0.8976
B(  2-C ,  3-N ) :   1.0797 B(  2-C , 10-N ) :   0.9517 B(  2-C , 16-H ) :   0.8949
B(  3-N ,  4-C ) :   1.0683 B(  3-N , 17-H ) :   0.8972 B(  4-C ,  5-C ) :   0.9770
B(  4-C ,  8-C ) :   1.0375 B(  4-C , 18-H ) :   0.8976 B(  5-C ,  6-C ) :   1.0362
B(  5-C ,  9-N ) :   1.0625 B(  5-C , 19-H ) :   0.8974 B(  6-C ,  7-S ) :   1.0203
B(  6-C , 20-H ) :   0.9445 B(  6-C , 21-H ) :   0.9264 B(  7-S ,  8-C ) :   1.0190
B(  8-C , 22-H ) :   0.9448 B(  8-C , 23-H ) :   0.9270 B(  9-N , 24-H ) :   0.9012
B( 10-N , 11-S ) :   0.8816 B( 10-N , 12-C ) :   1.0658 B( 12-C , 13-C ) :   1.8927
B( 12-C , 25-H ) :   0.9539 B( 13-C , 26-H ) :   0.9516 B( 13-C , 27-H ) :   0.9494

Dispersion correction           -0.064288761
FINAL SINGLE POINT ENERGY     -1328.037158678189

DIPOLE MOMENT
-------------
                                X             Y             Z
Electronic contribution:      1.65157       3.78123      -0.75231
Nuclear contribution   :     -2.10315      -3.70812       1.07954
                        -----------------------------------------
Total Dipole Moment    :     -0.45158       0.07311       0.32723
                        -----------------------------------------
Magnitude (a.u.)       :      0.56245
Magnitude (Debye)      :      1.42963

Rotational constants in cm-1:     0.044403     0.010276     0.008631
Rotational constants in MHz :  1331.154167   308.071471   258.752299

                             ****ORCA TERMINATED NORMALLY****
TOTAL RUN TIME: 0 days 0 hours 19 minutes 10 seconds 447 msec
