                         Program Version 4.2.0 -  RELEASE  -
|  1> # ORCA input file
|  2> # SCF done        -34.811707074044          0.000675603251
|  3> ! B3LYP/G D3BJ Opt RIJCOSX def2-SVP def2/J
|  4> * xyz 0 1
|  5>    C       -1.53618        -1.28089        -0.14719
|  6>    S       -2.81703        -0.19657         0.16878
|  7>    C       -1.74469         1.17693         0.05880
|  8>    C       -0.45450         0.78485        -0.21538
|  9>    C       -0.35016        -0.63287        -0.33461
| 10>    O        0.78425        -1.32610        -0.66852
| 11>    C        1.80568        -1.34168         0.31123
| 12>    C        2.19550         0.05541         0.80730
| 13>    C        2.07544         1.07399        -0.32785
| 14>    C        0.69704         1.73815        -0.34584
| 15>    C       -2.34853         2.46866         0.26892
| 16>    C       -1.84543         3.67158         0.00423
| 17>    H       -1.71385        -2.33569        -0.20719
| 18>    H        2.64974        -1.81526        -0.19671
| 19>    H        1.50401        -1.97657         1.15732
| 20>    H        3.21680         0.01074         1.18678
| 21>    H        1.54601         0.35372         1.63307
| 22>    H        2.25726         0.57088        -1.27911
| 23>    H        2.82848         1.85593        -0.21444
| 24>    H        0.58775         2.30290        -1.27708
| 25>    H        0.63670         2.45206         0.48204
| 26>    H       -3.34903         2.40752         0.67997
| 27>    H       -0.87975         3.82900        -0.43616
| 28>    H       -2.41796         4.55785         0.21836
| 29> *
| 30>
| 31>                          ****END OF INPUT****
 Total Charge           Charge          ....    0
 Multiplicity           Mult            ....    1
 Number of Electrons    NEL             ....   96
Dispersion correction           -0.050242329
FINAL SINGLE POINT ENERGY      -861.263068366642
Dispersion correction            ... done
Dispersion correction           -0.049860376
FINAL SINGLE POINT ENERGY      -861.266104926741
Dispersion correction            ... done
Dispersion correction           -0.049786087
FINAL SINGLE POINT ENERGY      -861.266376221086
Dispersion correction            ... done
FINAL SINGLE POINT ENERGY      -861.266353771801
FINAL SINGLE POINT ENERGY      -861.266350700946
FINAL SINGLE POINT ENERGY      -861.266368820218
FINAL SINGLE POINT ENERGY      -861.266319219554
Dispersion correction            ... done
Dispersion correction           -0.049798210
FINAL SINGLE POINT ENERGY      -861.266283336266
Dispersion correction            ... done
Dispersion correction           -0.049798228
FINAL SINGLE POINT ENERGY      -861.266260034032
Dispersion correction            ... done
                    ***********************HURRAY********************

CARTESIAN COORDINATES (ANGSTROEM)
---------------------------------
  C     -1.567131   -1.312251   -0.104363
  S     -2.833051   -0.205276    0.260531
  C     -1.760932    1.172092    0.099984
  C     -0.470392    0.774930   -0.226639
  C     -0.380648   -0.656571   -0.341615
  O      0.754527   -1.315784   -0.708299
  C      1.816020   -1.357884    0.244149
  C      2.177422    0.012732    0.821509
  C      2.100076    1.116029   -0.239865
  C      0.690455    1.724998   -0.388610
  C     -2.335022    2.492284    0.315334
  C     -1.855750    3.687269   -0.075569
  H     -1.736787   -2.385602   -0.153526
  H      2.668372   -1.768451   -0.319011
  H      1.566140   -2.069863    1.052229
  H      3.193889   -0.059070    1.243082
  H      1.514591    0.263729    1.666784
  H      2.445129    0.709882   -1.204630
  H      2.792943    1.932092    0.017908
  H      0.617629    2.236894   -1.365097
  H      0.566156    2.521690    0.364825
  H     -3.291428    2.485619    0.851164
  H     -0.938322    3.805946   -0.650875
  H     -2.406338    4.599105    0.167321

 Multiplicity           Mult            ....    1
 Number of Electrons    NEL             ....   96
 Basis Dimension        Dim             ....  232

ORBITAL ENERGIES
----------------

  NO   OCC          E(Eh)            E(eV)
   0   2.0000     -88.868125     -2418.2246
   1   2.0000     -19.148312      -521.0521
   2   2.0000     -10.240782      -278.6659
   3   2.0000     -10.239237      -278.6238
   4   2.0000     -10.213228      -277.9161
   5   2.0000     -10.203112      -277.6408
   6   2.0000     -10.202902      -277.6351
   7   2.0000     -10.195306      -277.4284
   8   2.0000     -10.194853      -277.4160
   9   2.0000     -10.190995      -277.3111
  10   2.0000     -10.190236      -277.2904
  11   2.0000     -10.187992      -277.2294
  12   2.0000      -7.963304      -216.6925
  13   2.0000      -5.931348      -161.4002
  14   2.0000      -5.927560      -161.2971
  15   2.0000      -5.924450      -161.2125
  16   2.0000      -1.045570       -28.4514
  17   2.0000      -0.876182       -23.8421
  18   2.0000      -0.804304       -21.8862
  19   2.0000      -0.777358       -21.1530
  20   2.0000      -0.760564       -20.6960
  21   2.0000      -0.706404       -19.2222
  22   2.0000      -0.688220       -18.7274
  23   2.0000      -0.651512       -17.7285
  24   2.0000      -0.597324       -16.2540
  25   2.0000      -0.585727       -15.9385
  26   2.0000      -0.549157       -14.9433
  27   2.0000      -0.524304       -14.2670
  28   2.0000      -0.497051       -13.5255
  29   2.0000      -0.482774       -13.1369
  30   2.0000      -0.468497       -12.7484
  31   2.0000      -0.456393       -12.4191
  32   2.0000      -0.443612       -12.0713
  33   2.0000      -0.429863       -11.6972
  34   2.0000      -0.420961       -11.4549
  35   2.0000      -0.416687       -11.3386
  36   2.0000      -0.393311       -10.7025
  37   2.0000      -0.378829       -10.3085
  38   2.0000      -0.370463       -10.0808
  39   2.0000      -0.357105        -9.7173
  40   2.0000      -0.352773        -9.5994
  41   2.0000      -0.335665        -9.1339
  42   2.0000      -0.333678        -9.0798
  43   2.0000      -0.326310        -8.8793
  44   2.0000      -0.296356        -8.0642
  45   2.0000      -0.279046        -7.5932
  46   2.0000      -0.233886        -6.3644
  47   2.0000      -0.213863        -5.8195
  48   0.0000      -0.040598        -1.1047
  49   0.0000       0.028826         0.7844
  50   0.0000       0.036519         0.9937
  51   0.0000       0.054367         1.4794
  52   0.0000       0.068856         1.8737

MULLIKEN ATOMIC CHARGES
-----------------------
   0 C :   -0.128511
   1 S :    0.101361
   2 C :   -0.169318
   3 C :   -0.042886
   4 C :    0.155881
   5 O :   -0.340254
   6 C :    0.259014
   7 C :   -0.055199
   8 C :    0.036333
   9 C :    0.083344
  10 C :    0.026302
  11 C :   -0.036247
  12 H :    0.012510
  13 H :    0.009327
  14 H :   -0.003484
  15 H :    0.004194
  16 H :    0.018723
  17 H :    0.006166
  18 H :   -0.002147
  19 H :    0.023633
  20 H :    0.015662
  21 H :   -0.010336
  22 H :    0.015605
  23 H :    0.020326
Sum of atomic charges:   -0.0000000

LOEWDIN ATOMIC CHARGES
----------------------
   0 C :   -0.219864
   1 S :    0.424530
   2 C :   -0.182306
   3 C :   -0.070756
   4 C :   -0.001366
   5 O :   -0.130505
   6 C :    0.092002
   7 C :   -0.054818
   8 C :   -0.028508
   9 C :   -0.025193
  10 C :   -0.041707
  11 C :   -0.057372
  12 H :    0.026954
  13 H :    0.019704
  14 H :    0.009720
  15 H :    0.029153
  16 H :    0.024006
  17 H :    0.023052
  18 H :    0.024462
  19 H :    0.033140
  20 H :    0.031999
  21 H :    0.027622
  22 H :    0.020541
  23 H :    0.025511

  Mayer bond orders larger than 0.100000
B(  0-C ,  1-S ) :   1.1340 B(  0-C ,  4-C ) :   1.5372 B(  0-C , 12-H ) :   0.9636
B(  1-S ,  2-C ) :   1.1268 B(  2-C ,  3-C ) :   1.5055 B(  2-C , 10-C ) :   1.1148
B(  3-C ,  4-C ) :   1.2179 B(  3-C ,  9-C ) :   1.0812 B(  4-C ,  5-O ) :   1.1035
B(  5-O ,  6-C ) :   0.9599 B(  6-C ,  7-C ) :   1.0831 B(  6-C , 13-H ) :   0.9488
B(  6-C , 14-H ) :   0.9438 B(  7-C ,  8-C ) :   1.0740 B(  7-C , 15-H ) :   0.9305
B(  7-C , 16-H ) :   0.9425 B(  8-C ,  9-C ) :   1.0834 B(  8-C , 17-H ) :   0.9349
B(  8-C , 18-H ) :   0.9353 B(  9-C , 19-H ) :   0.9068 B(  9-C , 20-H ) :   0.9119
B( 10-C , 11-C ) :   1.9125 B( 10-C , 21-H ) :   0.9415 B( 11-C , 22-H ) :   0.9513
B( 11-C , 23-H ) :   0.9410

Dispersion correction           -0.049798666
FINAL SINGLE POINT ENERGY      -861.266261072715

DIPOLE MOMENT
-------------
                                X             Y             Z
Electronic contribution:    -11.77777      -6.52906      -1.16041
Nuclear contribution   :     12.31377       6.71778       1.55158
                        -----------------------------------------
Total Dipole Moment    :      0.53599       0.18872       0.39117
                        -----------------------------------------
Magnitude (a.u.)       :      0.68987
Magnitude (Debye)      :      1.75351

Rotational constants in cm-1:     0.041430     0.023992     0.016209
Rotational constants in MHz :  1242.028690   719.256302   485.948401

                             ****ORCA TERMINATED NORMALLY****
TOTAL RUN TIME: 0 days 0 hours 18 minutes 0 seconds 392 msec
