                         Program Version 4.2.0 -  RELEASE  -
|  1> # ORCA input file
|  2> # SCF done        -40.945217696881          0.000602347030
|  3> ! B3LYP/G D3BJ Opt RIJCOSX def2-SVP def2/J
|  4> * xyz 0 1
|  5>    C       -0.62698         1.15191        -0.14714
|  6>    S       -2.00991         0.17432        -0.40114
|  7>    C       -1.11257        -1.27776        -0.32031
|  8>    C        0.21734        -1.02535        -0.10109
|  9>    C        0.49844         0.38575        -0.00266
| 10>    N        1.76668         0.83522         0.20527
| 11>    C        2.68394        -0.08009         0.31286
| 12>    O        3.95828         0.26626         0.50686
| 13>    C        4.22318         1.66313         0.59831
| 14>    C        5.71702         1.84914         0.79127
| 15>    C        2.40622        -1.50346         0.22938
| 16>    C        3.53799        -2.47620         0.35457
| 17>    N        3.07016        -3.80526         0.69580
| 18>    N        1.20730        -1.94928         0.02137
| 19>    H       -0.71398         2.21823        -0.11864
| 20>    H       -1.59799        -2.22536        -0.43342
| 21>    H        3.65527         2.07791         1.43881
| 22>    H        3.87233         2.15251        -0.31742
| 23>    H        6.04123         1.35468         1.70285
| 24>    H        5.94821         2.90796         0.85906
| 25>    H        6.25867         1.41956        -0.04705
| 26>    H        4.22276        -2.12318         1.13511
| 27>    H        4.09530        -2.43281        -0.59965
| 28>    H        2.15361        -3.95011         0.28478
| 29>    H        3.70339        -4.51554         0.34842
| 30> *
| 31>
| 32>                          ****END OF INPUT****
 Total Charge           Charge          ....    0
 Multiplicity           Mult            ....    1
 Number of Electrons    NEL             ....  110
Dispersion correction           -0.048772186
FINAL SINGLE POINT ENERGY      -986.738620937764
Dispersion correction            ... done
Dispersion correction           -0.048613886
FINAL SINGLE POINT ENERGY      -986.741241080051
Dispersion correction            ... done
Dispersion correction           -0.048620487
FINAL SINGLE POINT ENERGY      -986.741425084936
Dispersion correction            ... done
FINAL SINGLE POINT ENERGY      -986.741409742740
FINAL SINGLE POINT ENERGY      -986.741313637541
FINAL SINGLE POINT ENERGY      -986.741365853809
FINAL SINGLE POINT ENERGY      -986.741387100762
FINAL SINGLE POINT ENERGY      -986.741363894912
FINAL SINGLE POINT ENERGY      -986.741342013845
FINAL SINGLE POINT ENERGY      -986.741318219489
FINAL SINGLE POINT ENERGY      -986.741300844396
Dispersion correction            ... done
Dispersion correction           -0.048664665
FINAL SINGLE POINT ENERGY      -986.741299302050
Dispersion correction            ... done
Dispersion correction           -0.048666768
FINAL SINGLE POINT ENERGY      -986.741313094519
Dispersion correction            ... done
                    ***********************HURRAY********************

CARTESIAN COORDINATES (ANGSTROEM)
---------------------------------
  C     -0.705170    1.150276   -0.172407
  S     -2.071156    0.138865   -0.444431
  C     -1.157601   -1.312198   -0.322067
  C      0.176242   -1.032430   -0.075912
  C      0.439227    0.392662    0.011381
  N      1.708454    0.858641    0.244958
  C      2.625419   -0.046021    0.389415
  O      3.907125    0.283632    0.594710
  C      4.258016    1.670483    0.584059
  C      5.759071    1.760841    0.744963
  C      2.376809   -1.489234    0.319195
  C      3.538740   -2.434934    0.476822
  N      3.114667   -3.814906    0.556621
  N      1.184854   -1.949325    0.077708
  H     -0.798888    2.233926   -0.161649
  H     -1.621320   -2.289425   -0.434965
  H      3.716901    2.186702    1.393902
  H      3.910467    2.118987   -0.360952
  H      6.079846    1.320148    1.701437
  H      6.080373    2.813164    0.721287
  H      6.274123    1.224412   -0.065944
  H      4.095656   -2.126283    1.382956
  H      4.236719   -2.205079   -0.359430
  H      2.238709   -3.925240    0.045927
  H      3.808608   -4.435487    0.148618

 Multiplicity           Mult            ....    1
 Number of Electrons    NEL             ....  110
 Basis Dimension        Dim             ....  255

ORBITAL ENERGIES
----------------

  NO   OCC          E(Eh)            E(eV)
   0   2.0000     -88.887748     -2418.7586
   1   2.0000     -19.179301      -521.8953
   2   2.0000     -14.337772      -390.1506
   3   2.0000     -14.330096      -389.9417
   4   2.0000     -14.293277      -388.9398
   5   2.0000     -10.289344      -279.9873
   6   2.0000     -10.247943      -278.8607
   7   2.0000     -10.241888      -278.6959
   8   2.0000     -10.227360      -278.3006
   9   2.0000     -10.224469      -278.2219
  10   2.0000     -10.214929      -277.9623
  11   2.0000     -10.214222      -277.9431
  12   2.0000     -10.211777      -277.8766
  13   2.0000     -10.192451      -277.3507
  14   2.0000      -7.982339      -217.2105
  15   2.0000      -5.950114      -161.9108
  16   2.0000      -5.946083      -161.8011
  17   2.0000      -5.944422      -161.7560
  18   2.0000      -1.083769       -29.4908
  19   2.0000      -0.971164       -26.4267
  20   2.0000      -0.908951       -24.7338
  21   2.0000      -0.877741       -23.8846
  22   2.0000      -0.859646       -23.3922
  23   2.0000      -0.785396       -21.3717
  24   2.0000      -0.742968       -20.2172
  25   2.0000      -0.723297       -19.6819
  26   2.0000      -0.693234       -18.8639
  27   2.0000      -0.651651       -17.7323
  28   2.0000      -0.602084       -16.3835
  29   2.0000      -0.598028       -16.2732
  30   2.0000      -0.578673       -15.7465
  31   2.0000      -0.554106       -15.0780
  32   2.0000      -0.536138       -14.5891
  33   2.0000      -0.499044       -13.5797
  34   2.0000      -0.493018       -13.4157
  35   2.0000      -0.462804       -12.5935
  36   2.0000      -0.453535       -12.3413
  37   2.0000      -0.450310       -12.2536
  38   2.0000      -0.432173       -11.7600
  39   2.0000      -0.421893       -11.4803
  40   2.0000      -0.412477       -11.2241
  41   2.0000      -0.409306       -11.1378
  42   2.0000      -0.400616       -10.9013
  43   2.0000      -0.399176       -10.8621
  44   2.0000      -0.383561       -10.4372
  45   2.0000      -0.358624        -9.7587
  46   2.0000      -0.358084        -9.7440
  47   2.0000      -0.353086        -9.6080
  48   2.0000      -0.343304        -9.3418
  49   2.0000      -0.315281        -8.5792
  50   2.0000      -0.312286        -8.4977
  51   2.0000      -0.254510        -6.9256
  52   2.0000      -0.245663        -6.6848
  53   2.0000      -0.224822        -6.1177
  54   2.0000      -0.223463        -6.0807
  55   0.0000      -0.070688        -1.9235
  56   0.0000       0.006909         0.1880
  57   0.0000       0.016881         0.4594
  58   0.0000       0.048432         1.3179
  59   0.0000       0.053977         1.4688

MULLIKEN ATOMIC CHARGES
-----------------------
   0 C :   -0.167041
   1 S :    0.129681
   2 C :   -0.143808
   3 C :    0.057751
   4 C :    0.086684
   5 N :   -0.073467
   6 C :    0.126857
   7 O :   -0.308717
   8 C :    0.191132
   9 C :    0.011161
  10 C :   -0.169334
  11 C :    0.199043
  12 N :   -0.205708
  13 N :   -0.051794
  14 H :    0.016977
  15 H :    0.015579
  16 H :    0.015998
  17 H :    0.012639
  18 H :    0.022633
  19 H :    0.016026
  20 H :    0.022303
  21 H :    0.010080
  22 H :    0.003963
  23 H :    0.093459
  24 H :    0.087903
Sum of atomic charges:   -0.0000000

LOEWDIN ATOMIC CHARGES
----------------------
   0 C :   -0.217793
   1 S :    0.476530
   2 C :   -0.202791
   3 C :   -0.057735
   4 C :   -0.046021
   5 N :   -0.105297
   6 C :    0.047520
   7 O :   -0.085276
   8 C :    0.092911
   9 C :   -0.060618
  10 C :   -0.009591
  11 C :    0.014512
  12 N :   -0.117943
  13 N :   -0.058813
  14 H :    0.027681
  15 H :    0.028795
  16 H :    0.018316
  17 H :    0.016833
  18 H :    0.028688
  19 H :    0.031717
  20 H :    0.028182
  21 H :    0.027502
  22 H :    0.019547
  23 H :    0.048284
  24 H :    0.054860

  Mayer bond orders larger than 0.100000
B(  0-C ,  1-S ) :   1.1791 B(  0-C ,  2-C ) :   0.1182 B(  0-C ,  4-C ) :   1.4151
B(  0-C , 14-H ) :   0.9699 B(  1-S ,  2-C ) :   1.2007 B(  2-C ,  3-C ) :   1.4075
B(  2-C , 15-H ) :   0.9702 B(  3-C ,  4-C ) :   1.1910 B(  3-C , 13-N ) :   1.3008
B(  4-C ,  5-N ) :   1.3018 B(  5-N ,  6-C ) :   1.6452 B(  6-C ,  7-O ) :   1.2311
B(  6-C , 10-C ) :   1.0828 B(  7-O ,  8-C ) :   0.8931 B(  8-C ,  9-C ) :   1.1005
B(  8-C , 16-H ) :   0.9526 B(  8-C , 17-H ) :   0.9516 B(  9-C , 18-H ) :   0.9674
B(  9-C , 19-H ) :   0.9603 B(  9-C , 20-H ) :   0.9673 B( 10-C , 11-C ) :   1.0144
B( 10-C , 13-N ) :   1.7528 B( 11-C , 12-N ) :   1.1207 B( 11-C , 21-H ) :   0.9048
B( 11-C , 22-H ) :   0.9064 B( 12-N , 23-H ) :   0.9447 B( 12-N , 24-H ) :   0.9625

Dispersion correction           -0.048666435
FINAL SINGLE POINT ENERGY      -986.741321176106

DIPOLE MOMENT
-------------
                                X             Y             Z
Electronic contribution:    -19.24522      -0.44682      -2.51513
Nuclear contribution   :     19.71612       0.97311       2.05774
                        -----------------------------------------
Total Dipole Moment    :      0.47090       0.52629      -0.45739
                        -----------------------------------------
Magnitude (a.u.)       :      0.84138
Magnitude (Debye)      :      2.13862

Rotational constants in cm-1:     0.031248     0.013478     0.009474
Rotational constants in MHz :   936.785124   404.054544   284.038311

                             ****ORCA TERMINATED NORMALLY****
TOTAL RUN TIME: 0 days 0 hours 26 minutes 13 seconds 199 msec
