                         Program Version 4.2.0 -  RELEASE  -
|  1> # ORCA input file
|  2> # SCF done        -27.692635250941          0.000762644144
|  3> ! B3LYP/G D3BJ Opt RIJCOSX def2-SVP def2/J
|  4> * xyz 0 1
|  5>    C       -1.31929        -0.15365         0.13596
|  6>    S       -0.52401         1.36791         0.08643
|  7>    C        1.03135         0.63086        -0.08829
|  8>    C        0.91104        -0.74859        -0.10465
|  9>    C       -0.44440        -1.19226         0.02507
| 10>    O       -0.82933        -2.48644         0.03790
| 11>    C        1.94083        -1.68896        -0.23036
| 12>    N        2.69291        -2.55321        -0.32604
| 13>    C        2.19742         1.46483        -0.19035
| 14>    C        3.44846         1.03350        -0.33423
| 15>    H       -2.38253        -0.21112         0.24326
| 16>    H       -0.05825        -3.06247        -0.05260
| 17>    H        1.99121         2.52595        -0.14233
| 18>    H        3.69336        -0.01252        -0.38660
| 19>    H        4.26873         1.72570        -0.40442
| 20> *
| 21>
| 22>                          ****END OF INPUT****
 Total Charge           Charge          ....    0
 Multiplicity           Mult            ....    1
 Number of Electrons    NEL             ....   78
Dispersion correction           -0.032519805
FINAL SINGLE POINT ENERGY      -797.496638920904
Dispersion correction            ... done
Dispersion correction           -0.032226071
FINAL SINGLE POINT ENERGY      -797.499151673313
Dispersion correction            ... done
Dispersion correction           -0.032197062
FINAL SINGLE POINT ENERGY      -797.499237465229
Dispersion correction            ... done
FINAL SINGLE POINT ENERGY      -797.499235197858
FINAL SINGLE POINT ENERGY      -797.499259168705
FINAL SINGLE POINT ENERGY      -797.499265449744
Dispersion correction            ... done
Dispersion correction           -0.032205319
FINAL SINGLE POINT ENERGY      -797.499264084275
Dispersion correction            ... done
Dispersion correction           -0.032201466
FINAL SINGLE POINT ENERGY      -797.499263209558
Dispersion correction            ... done
                    ***********************HURRAY********************

CARTESIAN COORDINATES (ANGSTROEM)
---------------------------------
  C     -1.350658   -0.152540    0.150568
  S     -0.525207    1.363367    0.071911
  C      1.028773    0.619454   -0.116678
  C      0.889758   -0.770546   -0.123694
  C     -0.475885   -1.206800    0.038308
  O     -0.860652   -2.496187    0.079753
  C      1.930440   -1.721840   -0.286216
  N      2.726560   -2.560515   -0.415136
  C      2.209381    1.461813   -0.217429
  C      3.488292    1.054142   -0.293676
  H     -2.428405   -0.206007    0.283007
  H     -0.089981   -3.073765   -0.027800
  H      2.003030    2.537916   -0.219946
  H      3.778906    0.001997   -0.291876
  H      4.293146    1.789041   -0.362345

 Multiplicity           Mult            ....    1
 Number of Electrons    NEL             ....   78
 Basis Dimension        Dim             ....  169

ORBITAL ENERGIES
----------------

  NO   OCC          E(Eh)            E(eV)
   0   2.0000     -88.899885     -2419.0889
   1   2.0000     -19.186502      -522.0913
   2   2.0000     -14.342458      -390.2781
   3   2.0000     -10.279337      -279.7150
   4   2.0000     -10.254076      -279.0276
   5   2.0000     -10.243775      -278.7473
   6   2.0000     -10.241003      -278.6719
   7   2.0000     -10.223428      -278.1936
   8   2.0000     -10.223093      -278.1845
   9   2.0000     -10.208615      -277.7905
  10   2.0000      -7.994790      -217.5493
  11   2.0000      -5.962802      -162.2561
  12   2.0000      -5.958847      -162.1485
  13   2.0000      -5.956158      -162.0753
  14   2.0000      -1.075855       -29.2755
  15   2.0000      -0.918277       -24.9876
  16   2.0000      -0.901105       -24.5203
  17   2.0000      -0.803650       -21.8684
  18   2.0000      -0.775902       -21.1134
  19   2.0000      -0.732530       -19.9332
  20   2.0000      -0.651071       -17.7165
  21   2.0000      -0.604250       -16.4425
  22   2.0000      -0.594908       -16.1883
  23   2.0000      -0.572887       -15.5891
  24   2.0000      -0.489825       -13.3288
  25   2.0000      -0.485655       -13.2153
  26   2.0000      -0.469675       -12.7805
  27   2.0000      -0.451252       -12.2792
  28   2.0000      -0.417096       -11.3497
  29   2.0000      -0.398980       -10.8568
  30   2.0000      -0.390171       -10.6171
  31   2.0000      -0.388729       -10.5778
  32   2.0000      -0.382644       -10.4123
  33   2.0000      -0.371247       -10.1021
  34   2.0000      -0.367462        -9.9992
  35   2.0000      -0.345255        -9.3949
  36   2.0000      -0.315230        -8.5778
  37   2.0000      -0.261450        -7.1144
  38   2.0000      -0.231827        -6.3083
  39   0.0000      -0.080808        -2.1989
  40   0.0000      -0.009366        -0.2549
  41   0.0000       0.010942         0.2978
  42   0.0000       0.026141         0.7113
  43   0.0000       0.031559         0.8588

MULLIKEN ATOMIC CHARGES
-----------------------
   0 C :   -0.169437
   1 S :    0.139519
   2 C :   -0.078887
   3 C :   -0.085326
   4 C :    0.211010
   5 O :   -0.169374
   6 C :   -0.229864
   7 N :    0.076320
   8 C :    0.027871
   9 C :   -0.022770
  10 H :    0.032205
  11 H :    0.191156
  12 H :   -0.003904
  13 H :    0.045715
  14 H :    0.035766
Sum of atomic charges:   -0.0000000

LOEWDIN ATOMIC CHARGES
----------------------
   0 C :   -0.233393
   1 S :    0.471916
   2 C :   -0.144366
   3 C :   -0.145415
   4 C :    0.034417
   5 O :   -0.036277
   6 C :   -0.037317
   7 N :   -0.072305
   8 C :   -0.050027
   9 C :   -0.019475
  10 H :    0.033777
  11 H :    0.100189
  12 H :    0.032187
  13 H :    0.033118
  14 H :    0.032970

  Mayer bond orders larger than 0.100000
B(  0-C ,  1-S ) :   1.1213 B(  0-C ,  4-C ) :   1.5056 B(  0-C , 10-H ) :   0.9650
B(  1-S ,  2-C ) :   1.1707 B(  2-C ,  3-C ) :   1.4325 B(  2-C ,  8-C ) :   1.1366
B(  3-C ,  4-C ) :   1.1801 B(  3-C ,  6-C ) :   1.1511 B(  4-C ,  5-O ) :   1.2709
B(  5-O , 11-H ) :   0.9485 B(  6-C ,  7-N ) :   2.9362 B(  8-C ,  9-C ) :   1.9070
B(  8-C , 12-H ) :   0.9408 B(  9-C , 13-H ) :   0.9487 B(  9-C , 14-H ) :   0.9407

Dispersion correction           -0.032200722
FINAL SINGLE POINT ENERGY      -797.499263551972

DIPOLE MOMENT
-------------
                                X             Y             Z
Electronic contribution:     -4.21916      -1.22671       0.28170
Nuclear contribution   :      3.76445       2.12145      -0.17964
                        -----------------------------------------
Total Dipole Moment    :     -0.45471       0.89474       0.10206
                        -----------------------------------------
Magnitude (a.u.)       :      1.00883
Magnitude (Debye)      :      2.56424

Rotational constants in cm-1:     0.046429     0.042840     0.022292
Rotational constants in MHz :  1391.894665  1284.311727   668.285091

                             ****ORCA TERMINATED NORMALLY****
TOTAL RUN TIME: 0 days 0 hours 8 minutes 29 seconds 734 msec
