                         Program Version 4.2.0 -  RELEASE  -
|  1> # ORCA input file
|  2> # SCF done        -24.905918943678          0.000405698247
|  3> ! B3LYP/G D3BJ Opt RIJCOSX def2-SVP def2/J
|  4> * xyz 0 1
|  5>    C       -0.90839        -1.30772         0.13424
|  6>    S       -1.75751         0.01319         1.04121
|  7>    C       -1.22687         1.19646        -0.29331
|  8>    N        0.07002         0.81142        -0.69155
|  9>    C        0.14177        -0.65374        -0.80516
| 10>    N        1.47534        -1.04580        -0.42232
| 11>    C        1.84072        -0.08472         0.61044
| 12>    C        1.17737         1.23155         0.16831
| 13>    H       -1.64739        -1.87333        -0.43207
| 14>    H       -0.41895        -1.96657         0.84707
| 15>    H       -1.26729         2.21132         0.09186
| 16>    H       -1.93017         1.07431        -1.11938
| 17>    H       -0.06990        -0.95391        -1.83650
| 18>    H        2.10316        -0.95825        -1.21487
| 19>    H        2.92108        -0.01188         0.71666
| 20>    H        1.41180        -0.42294         1.55751
| 21>    H        1.86367         1.84056        -0.42946
| 22>    H        0.82737         1.81939         1.01743
| 23> *
| 24>
| 25>                          ****END OF INPUT****
 Total Charge           Charge          ....    0
 Multiplicity           Mult            ....    1
 Number of Electrons    NEL             ....   70
Dispersion correction           -0.034848116
FINAL SINGLE POINT ENERGY      -703.919471693934
Dispersion correction            ... done
Dispersion correction           -0.034477069
FINAL SINGLE POINT ENERGY      -703.921530052653
Dispersion correction            ... done
Dispersion correction           -0.034433937
FINAL SINGLE POINT ENERGY      -703.921702675253
Dispersion correction            ... done
FINAL SINGLE POINT ENERGY      -703.921746689829
FINAL SINGLE POINT ENERGY      -703.921750283062
FINAL SINGLE POINT ENERGY      -703.921744357584
FINAL SINGLE POINT ENERGY      -703.921732623704
FINAL SINGLE POINT ENERGY      -703.921712465531
FINAL SINGLE POINT ENERGY      -703.921690493542
Dispersion correction            ... done
Dispersion correction           -0.034458070
FINAL SINGLE POINT ENERGY      -703.921685442229
Dispersion correction            ... done
Dispersion correction           -0.034450666
FINAL SINGLE POINT ENERGY      -703.921692707164
Dispersion correction            ... done
                    ***********************HURRAY********************

CARTESIAN COORDINATES (ANGSTROEM)
---------------------------------
  C     -0.955400   -1.339897    0.091528
  S     -1.724470   -0.032045    1.112686
  C     -1.241117    1.180614   -0.230444
  N      0.056468    0.797443   -0.691000
  C      0.153955   -0.682866   -0.799234
  N      1.493236   -1.049458   -0.374495
  C      1.842374   -0.042500    0.633410
  C      1.207442    1.256267    0.107058
  H     -1.716827   -1.827051   -0.537501
  H     -0.498323   -2.098575    0.739305
  H     -1.260716    2.200773    0.173780
  H     -1.987200    1.101909   -1.037663
  H     -0.001409   -1.011480   -1.839157
  H      2.126475   -0.966359   -1.169205
  H      2.930611    0.013954    0.780961
  H      1.379151   -0.322511    1.592697
  H      1.916034    1.815357   -0.532309
  H      0.885546    1.925764    0.919693

 Multiplicity           Mult            ....    1
 Number of Electrons    NEL             ....   70
 Basis Dimension        Dim             ....  166

ORBITAL ENERGIES
----------------

  NO   OCC          E(Eh)            E(eV)
   0   2.0000     -88.818244     -2416.8673
   1   2.0000     -14.323198      -389.7540
   2   2.0000     -14.318225      -389.6187
   3   2.0000     -10.245880      -278.8046
   4   2.0000     -10.235282      -278.5162
   5   2.0000     -10.213374      -277.9200
   6   2.0000     -10.212068      -277.8845
   7   2.0000     -10.204466      -277.6776
   8   2.0000      -7.913755      -215.3442
   9   2.0000      -5.882870      -160.0810
  10   2.0000      -5.879666      -159.9938
  11   2.0000      -5.872043      -159.7864
  12   2.0000      -0.967269       -26.3207
  13   2.0000      -0.873417       -23.7669
  14   2.0000      -0.782619       -21.2962
  15   2.0000      -0.724628       -19.7181
  16   2.0000      -0.701690       -19.0939
  17   2.0000      -0.613164       -16.6850
  18   2.0000      -0.590264       -16.0619
  19   2.0000      -0.565922       -15.3995
  20   2.0000      -0.531871       -14.4729
  21   2.0000      -0.486219       -13.2307
  22   2.0000      -0.460510       -12.5311
  23   2.0000      -0.435374       -11.8471
  24   2.0000      -0.430361       -11.7107
  25   2.0000      -0.422208       -11.4889
  26   2.0000      -0.389064       -10.5870
  27   2.0000      -0.383595       -10.4381
  28   2.0000      -0.366335        -9.9685
  29   2.0000      -0.357132        -9.7180
  30   2.0000      -0.352602        -9.5948
  31   2.0000      -0.318252        -8.6601
  32   2.0000      -0.246482        -6.7071
  33   2.0000      -0.224656        -6.1132
  34   2.0000      -0.212645        -5.7864
  35   0.0000       0.033716         0.9175
  36   0.0000       0.045410         1.2357
  37   0.0000       0.069119         1.8808
  38   0.0000       0.079535         2.1643
  39   0.0000       0.097596         2.6557

MULLIKEN ATOMIC CHARGES
-----------------------
   0 C :    0.000391
   1 S :   -0.140323
   2 C :    0.070051
   3 N :   -0.353167
   4 C :    0.118887
   5 N :   -0.234369
   6 C :    0.113553
   7 C :    0.129185
   8 H :    0.037331
   9 H :    0.043898
  10 H :    0.039172
  11 H :    0.046886
  12 H :   -0.000513
  13 H :    0.102599
  14 H :    0.009590
  15 H :    0.006026
  16 H :    0.005730
  17 H :    0.005071
Sum of atomic charges:    0.0000000

LOEWDIN ATOMIC CHARGES
----------------------
   0 C :   -0.145080
   1 S :    0.139137
   2 C :   -0.059449
   3 N :   -0.146455
   4 C :    0.061010
   5 N :   -0.100750
   6 C :    0.017102
   7 C :    0.021388
   8 H :    0.016728
   9 H :    0.027033
  10 H :    0.018381
  11 H :    0.012725
  12 H :    0.014833
  13 H :    0.057819
  14 H :    0.019641
  15 H :    0.017416
  16 H :    0.010300
  17 H :    0.018221

  Mayer bond orders larger than 0.100000
B(  0-C ,  1-S ) :   1.0235 B(  0-C ,  4-C ) :   0.9783 B(  0-C ,  8-H ) :   0.9466
B(  0-C ,  9-H ) :   0.9409 B(  1-S ,  2-C ) :   0.9522 B(  2-C ,  3-N ) :   1.0622
B(  2-C , 10-H ) :   0.9581 B(  2-C , 11-H ) :   0.9505 B(  3-N ,  4-C ) :   0.9964
B(  3-N ,  7-C ) :   1.0032 B(  4-C ,  5-N ) :   1.1155 B(  4-C , 12-H ) :   0.9299
B(  5-N ,  6-C ) :   1.0450 B(  5-N , 13-H ) :   0.9467 B(  6-C ,  7-C ) :   1.0953
B(  6-C , 14-H ) :   0.9520 B(  6-C , 15-H ) :   0.9247 B(  7-C , 16-H ) :   0.9441
B(  7-C , 17-H ) :   0.9315

Dispersion correction           -0.034450683
FINAL SINGLE POINT ENERGY      -703.921694878941

DIPOLE MOMENT
-------------
                                X             Y             Z
Electronic contribution:     -4.32302      -0.46665       1.66165
Nuclear contribution   :      4.86982       0.72635      -2.14668
                        -----------------------------------------
Total Dipole Moment    :      0.54680       0.25970      -0.48503
                        -----------------------------------------
Magnitude (a.u.)       :      0.77568
Magnitude (Debye)      :      1.97163

Rotational constants in cm-1:     0.099996     0.054169     0.046439
Rotational constants in MHz :  2997.818568  1623.945153  1392.212156

                             ****ORCA TERMINATED NORMALLY****
TOTAL RUN TIME: 0 days 0 hours 10 minutes 26 seconds 309 msec
