                         Program Version 4.2.0 -  RELEASE  -
|  1> # ORCA input file
|  2> # SCF done        -32.636537494922          0.000457477530
|  3> ! B3LYP/G D3BJ Opt RIJCOSX def2-SVP def2/J
|  4> * xyz 0 1
|  5>    C       -1.17829        -0.29652        -0.27453
|  6>    O       -0.94446        -1.51546        -0.82193
|  7>    C        0.18759        -1.94700        -0.27719
|  8>    C        0.70249        -1.01898         0.62731
|  9>    C       -0.20537         0.06199         0.61926
| 10>    C        1.94369        -1.52212         1.21008
| 11>    S        2.90372        -0.79904         2.30674
| 12>    C        2.12214        -2.82565         0.57579
| 13>    C        1.07387        -3.07490        -0.30933
| 14>    O        1.20967        -4.25689        -0.90009
| 15>    C        2.35336        -4.79067        -0.40292
| 16>    C        2.95663        -3.96202         0.50447
| 17>    H       -2.06311         0.21379        -0.59841
| 18>    H       -0.15566         0.96927         1.18453
| 19>    H        2.63047        -5.75883        -0.76912
| 20>    H        3.86516        -4.14770         1.03857
| 21> *
| 22>
| 23>                          ****END OF INPUT****
 Total Charge           Charge          ....    0
 Multiplicity           Mult            ....    1
 Number of Electrons    NEL             ....   90
Dispersion correction           -0.034064694
FINAL SINGLE POINT ENERGY      -893.467343043507
Dispersion correction            ... done
Dispersion correction           -0.034220276
FINAL SINGLE POINT ENERGY      -893.470494122904
Dispersion correction            ... done
Dispersion correction           -0.034223877
FINAL SINGLE POINT ENERGY      -893.470858331407
Dispersion correction            ... done
FINAL SINGLE POINT ENERGY      -893.470932628962
Dispersion correction            ... done
Dispersion correction           -0.034191320
FINAL SINGLE POINT ENERGY      -893.470954160211
Dispersion correction            ... done
Dispersion correction           -0.034195002
FINAL SINGLE POINT ENERGY      -893.470969700512
Dispersion correction            ... done
                    ***********************HURRAY********************

CARTESIAN COORDINATES (ANGSTROEM)
---------------------------------
  C     -1.205266   -0.277506   -0.276610
  O     -0.940302   -1.521479   -0.821620
  C      0.199282   -1.927799   -0.261320
  C      0.697358   -0.999286    0.634612
  C     -0.229524    0.087259    0.619125
  C      1.960243   -1.507138    1.228861
  S      2.929156   -0.769386    2.314332
  C      2.136643   -2.838617    0.588726
  C      1.097803   -3.068620   -0.295263
  O      1.214978   -4.245144   -0.912058
  C      2.368548   -4.819091   -0.412098
  C      2.969700   -3.997020    0.509365
  H     -2.113611    0.201070   -0.628093
  H     -0.186046    1.014219    1.185872
  H      2.614376   -5.797133   -0.812787
  H      3.888563   -4.205059    1.052186

 Multiplicity           Mult            ....    1
 Number of Electrons    NEL             ....   90
 Basis Dimension        Dim             ....  192

ORBITAL ENERGIES
----------------

  NO   OCC          E(Eh)            E(eV)
   0   2.0000     -88.831992     -2417.2414
   1   2.0000     -19.230439      -523.2868
   2   2.0000     -19.230274      -523.2824
   3   2.0000     -10.268824      -279.4289
   4   2.0000     -10.268622      -279.4234
   5   2.0000     -10.266458      -279.3645
   6   2.0000     -10.254912      -279.0504
   7   2.0000     -10.254622      -279.0425
   8   2.0000     -10.212090      -277.8851
   9   2.0000     -10.211806      -277.8774
  10   2.0000     -10.201915      -277.6082
  11   2.0000     -10.201448      -277.5955
  12   2.0000      -7.927326      -215.7135
  13   2.0000      -5.895738      -160.4312
  14   2.0000      -5.894456      -160.3963
  15   2.0000      -5.885287      -160.1468
  16   2.0000      -1.132690       -30.8221
  17   2.0000      -1.127139       -30.6710
  18   2.0000      -0.888030       -24.1645
  19   2.0000      -0.806791       -21.9539
  20   2.0000      -0.794382       -21.6162
  21   2.0000      -0.774611       -21.0782
  22   2.0000      -0.727716       -19.8022
  23   2.0000      -0.671677       -18.2773
  24   2.0000      -0.619040       -16.8449
  25   2.0000      -0.598767       -16.2933
  26   2.0000      -0.576026       -15.6745
  27   2.0000      -0.562262       -15.2999
  28   2.0000      -0.513045       -13.9607
  29   2.0000      -0.511237       -13.9115
  30   2.0000      -0.496888       -13.5210
  31   2.0000      -0.468571       -12.7505
  32   2.0000      -0.454423       -12.3655
  33   2.0000      -0.431735       -11.7481
  34   2.0000      -0.427122       -11.6226
  35   2.0000      -0.419619       -11.4184
  36   2.0000      -0.411581       -11.1997
  37   2.0000      -0.387494       -10.5443
  38   2.0000      -0.374835       -10.1998
  39   2.0000      -0.362479        -9.8635
  40   2.0000      -0.301030        -8.1914
  41   2.0000      -0.290212        -7.8971
  42   2.0000      -0.276437        -7.5222
  43   2.0000      -0.228506        -6.2180
  44   2.0000      -0.210214        -5.7202
  45   0.0000      -0.116137        -3.1602
  46   0.0000      -0.020556        -0.5593
  47   0.0000       0.022216         0.6045
  48   0.0000       0.076910         2.0928
  49   0.0000       0.082119         2.2346

MULLIKEN ATOMIC CHARGES
-----------------------
   0 C :    0.141587
   1 O :   -0.189959
   2 C :    0.118356
   3 C :    0.006251
   4 C :   -0.033649
   5 C :   -0.010702
   6 S :   -0.096937
   7 C :    0.002988
   8 C :    0.117855
   9 O :   -0.188398
  10 C :    0.141428
  11 C :   -0.033790
  12 H :    0.011613
  13 H :    0.001564
  14 H :    0.011412
  15 H :    0.000383
Sum of atomic charges:   -0.0000000

LOEWDIN ATOMIC CHARGES
----------------------
   0 C :    0.039282
   1 O :    0.020365
   2 C :    0.024682
   3 C :   -0.094899
   4 C :   -0.040917
   5 C :   -0.124014
   6 S :    0.095627
   7 C :   -0.094281
   8 C :    0.024361
   9 O :    0.021137
  10 C :    0.039040
  11 C :   -0.041151
  12 H :    0.025665
  13 H :    0.039816
  14 H :    0.025801
  15 H :    0.039487

  Mayer bond orders larger than 0.100000
B(  0-C ,  1-O ) :   1.0671 B(  0-C ,  4-C ) :   1.5236 B(  0-C , 12-H ) :   1.0034
B(  1-O ,  2-C ) :   1.2098 B(  2-C ,  3-C ) :   1.4556 B(  2-C ,  8-C ) :   1.0794
B(  3-C ,  4-C ) :   1.2322 B(  3-C ,  5-C ) :   1.0208 B(  4-C , 13-H ) :   1.0013
B(  5-C ,  6-S ) :   1.7384 B(  5-C ,  7-C ) :   1.0211 B(  7-C ,  8-C ) :   1.4569
B(  7-C , 11-C ) :   1.2326 B(  8-C ,  9-O ) :   1.2077 B(  9-O , 10-C ) :   1.0708
B( 10-C , 11-C ) :   1.5229 B( 10-C , 14-H ) :   1.0038 B( 11-C , 15-H ) :   1.0026

Dispersion correction           -0.034198889
FINAL SINGLE POINT ENERGY      -893.470969222685

DIPOLE MOMENT
-------------
                                X             Y             Z
Electronic contribution:      0.56871       0.43513       0.60228
Nuclear contribution   :     -0.87907      -0.67661      -0.94916
                        -----------------------------------------
Total Dipole Moment    :     -0.31036      -0.24148      -0.34688
                        -----------------------------------------
Magnitude (a.u.)       :      0.52437
Magnitude (Debye)      :      1.33284

Rotational constants in cm-1:     0.036881     0.030322     0.016641
Rotational constants in MHz :  1105.664198   909.027468   498.891240

                             ****ORCA TERMINATED NORMALLY****
TOTAL RUN TIME: 0 days 0 hours 8 minutes 58 seconds 209 msec
