                         Program Version 4.2.0 -  RELEASE  -
|  1> # ORCA input file
|  2> # SCF done        -50.894023256724          0.000806830905
|  3> ! B3LYP/G D3BJ Opt RIJCOSX def2-SVP def2/J
|  4> * xyz 0 1
|  5>    C       -0.10239         1.56221        -0.00427
|  6>    C        1.11069         0.89234        -0.00020
|  7>    C        2.49426         1.43358        -0.00171
|  8>    O        2.86008         2.57763        -0.00649
|  9>    N        3.33867         0.31825         0.00359
| 10>    C        2.63422        -0.88581         0.00863
| 11>    O        3.10341        -1.99153         0.01400
| 12>    C        1.19448        -0.50228         0.00593
| 13>    C        0.07004        -1.31177         0.00826
| 14>    C       -1.14413        -0.64335         0.00398
| 15>    C       -1.22798         0.75345        -0.00207
| 16>    C       -2.66971         1.13247        -0.00562
| 17>    O       -3.17428         2.22023        -0.01091
| 18>    N       -3.35087        -0.07508        -0.00147
| 19>    C       -2.53001        -1.19232         0.00434
| 20>    O       -2.90056        -2.33276         0.00850
| 21>    C        4.73187         0.48322         0.00298
| 22>    C        5.62564        -0.48997         0.00763
| 23>    H       -0.16651         2.63862        -0.00896
| 24>    H        0.13569        -2.38809         0.01296
| 25>    H       -4.35941        -0.13573        -0.00276
| 26>    H        5.00007         1.53166        -0.00206
| 27>    H        5.35186        -1.52892         0.01245
| 28>    H        6.67409        -0.25289         0.00634
| 29> *
| 30>
| 31>                          ****END OF INPUT****
 Total Charge           Charge          ....    0
 Multiplicity           Mult            ....    1
 Number of Electrons    NEL             ....  124
Dispersion correction           -0.055381962
FINAL SINGLE POINT ENERGY      -870.754781228598
Dispersion correction            ... done
Dispersion correction           -0.055160852
FINAL SINGLE POINT ENERGY      -870.757322878185
Dispersion correction            ... done
Dispersion correction           -0.055147546
FINAL SINGLE POINT ENERGY      -870.757416154364
Dispersion correction            ... done
FINAL SINGLE POINT ENERGY      -870.757442314741
Dispersion correction            ... done
Dispersion correction           -0.055155087
FINAL SINGLE POINT ENERGY      -870.757443040473
Dispersion correction            ... done
Dispersion correction           -0.055157297
FINAL SINGLE POINT ENERGY      -870.757439360421
Dispersion correction            ... done
                    ***********************HURRAY********************

CARTESIAN COORDINATES (ANGSTROEM)
---------------------------------
  C     -0.110510    1.571453   -0.002314
  C      1.107575    0.895186    0.003422
  C      2.495875    1.446586    0.002293
  O      2.851953    2.597933   -0.001462
  N      3.358351    0.322416    0.006117
  C      2.637149   -0.890191    0.012368
  O      3.108276   -1.999849    0.018831
  C      1.191155   -0.503931    0.009606
  C      0.062665   -1.322526    0.011216
  C     -1.157264   -0.647701    0.005667
  C     -1.239437    0.753497   -0.001683
  C     -2.689322    1.139308   -0.010017
  O     -3.178456    2.239774   -0.021646
  N     -3.383714   -0.075120   -0.002991
  C     -2.554758   -1.202078    0.005125
  O     -2.914823   -2.352326    0.010158
  C      4.756115    0.478409    0.003282
  C      5.662479   -0.503486    0.001107
  H     -0.175936    2.661304   -0.007543
  H      0.130126   -2.412272    0.015910
  H     -4.396954   -0.132387   -0.006801
  H      5.033606    1.534758    0.002219
  H      5.386047   -1.557042    0.001870
  H      6.719022   -0.228553   -0.001666

 Multiplicity           Mult            ....    1
 Number of Electrons    NEL             ....  124
 Basis Dimension        Dim             ....  282

ORBITAL ENERGIES
----------------

  NO   OCC          E(Eh)            E(eV)
   0   2.0000     -19.160065      -521.3719
   1   2.0000     -19.158643      -521.3332
   2   2.0000     -19.154987      -521.2337
   3   2.0000     -19.154634      -521.2241
   4   2.0000     -14.409391      -392.0995
   5   2.0000     -14.399070      -391.8186
   6   2.0000     -10.336074      -281.2589
   7   2.0000     -10.336042      -281.2580
   8   2.0000     -10.335880      -281.2536
   9   2.0000     -10.335476      -281.2426
  10   2.0000     -10.253092      -279.0008
  11   2.0000     -10.252791      -278.9926
  12   2.0000     -10.249815      -278.9117
  13   2.0000     -10.249419      -278.9009
  14   2.0000     -10.249128      -278.8929
  15   2.0000     -10.248438      -278.8742
  16   2.0000     -10.245027      -278.7814
  17   2.0000     -10.197296      -277.4825
  18   2.0000      -1.091088       -29.6900
  19   2.0000      -1.085723       -29.5440
  20   2.0000      -1.071995       -29.1705
  21   2.0000      -1.068090       -29.0642
  22   2.0000      -0.984135       -26.7797
  23   2.0000      -0.973947       -26.5024
  24   2.0000      -0.909728       -24.7550
  25   2.0000      -0.837603       -22.7923
  26   2.0000      -0.805413       -21.9164
  27   2.0000      -0.775376       -21.0991
  28   2.0000      -0.715056       -19.4577
  29   2.0000      -0.707876       -19.2623
  30   2.0000      -0.676398       -18.4057
  31   2.0000      -0.644195       -17.5294
  32   2.0000      -0.628041       -17.0899
  33   2.0000      -0.616401       -16.7731
  34   2.0000      -0.573164       -15.5966
  35   2.0000      -0.558387       -15.1945
  36   2.0000      -0.527640       -14.3578
  37   2.0000      -0.514137       -13.9904
  38   2.0000      -0.508562       -13.8387
  39   2.0000      -0.496359       -13.5066
  40   2.0000      -0.491109       -13.3637
  41   2.0000      -0.488468       -13.2919
  42   2.0000      -0.486601       -13.2411
  43   2.0000      -0.475386       -12.9359
  44   2.0000      -0.465175       -12.6581
  45   2.0000      -0.461225       -12.5506
  46   2.0000      -0.449473       -12.2308
  47   2.0000      -0.441974       -12.0267
  48   2.0000      -0.430392       -11.7116
  49   2.0000      -0.425840       -11.5877
  50   2.0000      -0.416951       -11.3458
  51   2.0000      -0.412168       -11.2157
  52   2.0000      -0.400940       -10.9101
  53   2.0000      -0.357822        -9.7368
  54   2.0000      -0.320108        -8.7106
  55   2.0000      -0.319911        -8.7052
  56   2.0000      -0.314126        -8.5478
  57   2.0000      -0.313149        -8.5212
  58   2.0000      -0.311425        -8.4743
  59   2.0000      -0.299118        -8.1394
  60   2.0000      -0.292241        -7.9523
  61   2.0000      -0.258515        -7.0345
  62   0.0000      -0.128727        -3.5028
  63   0.0000      -0.089233        -2.4282
  64   0.0000      -0.068307        -1.8587
  65   0.0000      -0.011075        -0.3014
  66   0.0000       0.042345         1.1523

MULLIKEN ATOMIC CHARGES
-----------------------
   0 C :   -0.070430
   1 C :    0.016180
   2 C :    0.208346
   3 O :   -0.152412
   4 N :   -0.258734
   5 C :    0.230869
   6 O :   -0.151672
   7 C :   -0.001535
   8 C :   -0.072636
   9 C :   -0.008902
  10 C :   -0.014639
  11 C :    0.187691
  12 O :   -0.142885
  13 N :   -0.156004
  14 C :    0.187152
  15 O :   -0.142377
  16 C :    0.065236
  17 C :   -0.031628
  18 H :    0.022989
  19 H :    0.023158
  20 H :    0.139894
  21 H :    0.032937
  22 H :    0.057540
  23 H :    0.031863
Sum of atomic charges:   -0.0000000

LOEWDIN ATOMIC CHARGES
----------------------
   0 C :    0.040571
   1 C :   -0.035560
   2 C :    0.096535
   3 O :   -0.134341
   4 N :   -0.021655
   5 C :    0.098240
   6 O :   -0.130638
   7 C :   -0.032633
   8 C :    0.039442
   9 C :   -0.036720
  10 C :   -0.038283
  11 C :    0.085521
  12 O :   -0.141115
  13 N :   -0.001979
  14 C :    0.086357
  15 O :   -0.141283
  16 C :    0.023350
  17 C :   -0.060449
  18 H :    0.053050
  19 H :    0.052895
  20 H :    0.097703
  21 H :    0.034527
  22 H :    0.032458
  23 H :    0.034008

  Mayer bond orders larger than 0.100000
B(  0-C ,  1-C ) :   1.3405 B(  0-C , 10-C ) :   1.3296 B(  0-C , 18-H ) :   1.0216
B(  1-C ,  2-C ) :   0.8877 B(  1-C ,  7-C ) :   1.3768 B(  2-C ,  3-O ) :   2.1885
B(  2-C ,  4-N ) :   1.0218 B(  4-N ,  5-C ) :   1.0216 B(  4-N , 16-C ) :   1.0041
B(  5-C ,  6-O ) :   2.1757 B(  5-C ,  7-C ) :   0.8958 B(  7-C ,  8-C ) :   1.3368
B(  8-C ,  9-C ) :   1.3333 B(  8-C , 19-H ) :   1.0213 B(  9-C , 10-C ) :   1.3796
B(  9-C , 14-C ) :   0.8709 B( 10-C , 11-C ) :   0.8747 B( 11-C , 12-O ) :   2.2398
B( 11-C , 13-N ) :   1.0728 B( 13-N , 14-C ) :   1.0740 B( 13-N , 20-H ) :   0.9134
B( 14-C , 15-O ) :   2.2403 B( 16-C , 17-C ) :   1.9357 B( 16-C , 21-H ) :   0.9606
B( 17-C , 22-H ) :   0.9416 B( 17-C , 23-H ) :   0.9420

Dispersion correction           -0.055156564
FINAL SINGLE POINT ENERGY      -870.757439335346

DIPOLE MOMENT
-------------
                                X             Y             Z
Electronic contribution:     -8.89898       0.71671       0.01042
Nuclear contribution   :      8.79405      -0.72176      -0.01082
                        -----------------------------------------
Total Dipole Moment    :     -0.10492      -0.00504      -0.00040
                        -----------------------------------------
Magnitude (a.u.)       :      0.10505
Magnitude (Debye)      :      0.26701

Rotational constants in cm-1:     0.033338     0.008448     0.006740
Rotational constants in MHz :   999.449285   253.265108   202.062496

                             ****ORCA TERMINATED NORMALLY****
TOTAL RUN TIME: 0 days 0 hours 16 minutes 2 seconds 903 msec
