                         Program Version 4.2.0 -  RELEASE  -
|  1> # ORCA input file
|  2> # SCF done        -25.509376232834          0.000635448447
|  3> ! B3LYP/G D3BJ Opt RIJCOSX def2-SVP def2/J
|  4> * xyz 0 1
|  5>    C        1.65473        -0.88970         0.00180
|  6>    S        2.36467         0.68167         0.00457
|  7>    C        0.83292         1.47104         0.00706
|  8>    C       -0.16562         0.55185         0.00642
|  9>    C        0.30192        -0.79619         0.00331
| 10>    S       -1.06253        -1.88027         0.00210
| 11>    C       -2.16393        -0.47553         0.00716
| 12>    S       -3.77772        -0.57621         0.00690
| 13>    O       -1.51119         0.69032         0.00795
| 14>    H        2.27122        -1.76376        -0.00066
| 15>    H        0.76452         2.53844         0.00903
| 16> *
| 17>
| 18>                          ****END OF INPUT****
 Total Charge           Charge          ....    0
 Multiplicity           Mult            ....    1
 Number of Electrons    NEL             ....   88
Dispersion correction           -0.029762686
FINAL SINGLE POINT ENERGY     -1461.001287231011
Dispersion correction            ... done
Dispersion correction           -0.029675330
FINAL SINGLE POINT ENERGY     -1461.003258390611
Dispersion correction            ... done
Dispersion correction           -0.029650412
FINAL SINGLE POINT ENERGY     -1461.003409565283
Dispersion correction            ... done
Dispersion correction           -0.029634528
FINAL SINGLE POINT ENERGY     -1461.003341860895
Dispersion correction            ... done
Dispersion correction           -0.029647792
FINAL SINGLE POINT ENERGY     -1461.003456723674
Dispersion correction            ... done
                    ***********************HURRAY********************

CARTESIAN COORDINATES (ANGSTROEM)
---------------------------------
  C      1.674750   -0.898716    0.001857
  S      2.382983    0.691521    0.004180
  C      0.838346    1.483782    0.007216
  C     -0.151873    0.543552    0.006215
  C      0.308482   -0.807864    0.003112
  S     -1.080140   -1.881740    0.002191
  C     -2.196965   -0.479704    0.006317
  S     -3.815844   -0.575974    0.007583
  O     -1.505802    0.695472    0.007839
  H      2.303412   -1.786281   -0.000353
  H      0.751642    2.567612    0.009483

 Multiplicity           Mult            ....    1
 Number of Electrons    NEL             ....   88
 Basis Dimension        Dim             ....  148

ORBITAL ENERGIES
----------------

  NO   OCC          E(Eh)            E(eV)
   0   2.0000     -88.902334     -2419.1555
   1   2.0000     -88.899611     -2419.0814
   2   2.0000     -88.820538     -2416.9297
   3   2.0000     -19.231464      -523.3147
   4   2.0000     -10.329280      -281.0740
   5   2.0000     -10.280600      -279.7494
   6   2.0000     -10.246318      -278.8165
   7   2.0000     -10.242938      -278.7245
   8   2.0000     -10.238631      -278.6073
   9   2.0000      -7.996838      -217.6050
  10   2.0000      -7.994740      -217.5479
  11   2.0000      -7.917415      -215.4438
  12   2.0000      -5.965211      -162.3216
  13   2.0000      -5.963513      -162.2754
  14   2.0000      -5.961013      -162.2074
  15   2.0000      -5.959504      -162.1663
  16   2.0000      -5.957769      -162.1191
  17   2.0000      -5.954315      -162.0252
  18   2.0000      -5.885867      -160.1626
  19   2.0000      -5.882853      -160.0806
  20   2.0000      -5.876709      -159.9134
  21   2.0000      -1.134713       -30.8771
  22   2.0000      -0.911855       -24.8128
  23   2.0000      -0.846347       -23.0303
  24   2.0000      -0.798317       -21.7233
  25   2.0000      -0.745851       -20.2956
  26   2.0000      -0.713682       -19.4203
  27   2.0000      -0.640755       -17.4358
  28   2.0000      -0.607850       -16.5404
  29   2.0000      -0.561771       -15.2866
  30   2.0000      -0.523253       -14.2385
  31   2.0000      -0.496146       -13.5008
  32   2.0000      -0.491199       -13.3662
  33   2.0000      -0.435303       -11.8452
  34   2.0000      -0.423559       -11.5256
  35   2.0000      -0.402336       -10.9481
  36   2.0000      -0.399620       -10.8742
  37   2.0000      -0.373928       -10.1751
  38   2.0000      -0.370218       -10.0741
  39   2.0000      -0.348018        -9.4700
  40   2.0000      -0.302744        -8.2381
  41   2.0000      -0.257228        -6.9995
  42   2.0000      -0.239679        -6.5220
  43   2.0000      -0.235120        -6.3979
  44   0.0000      -0.067927        -1.8484
  45   0.0000      -0.033869        -0.9216
  46   0.0000      -0.001119        -0.0304
  47   0.0000       0.007144         0.1944
  48   0.0000       0.041454         1.1280

MULLIKEN ATOMIC CHARGES
-----------------------
   0 C :   -0.172391
   1 S :    0.115964
   2 C :   -0.166415
   3 C :    0.241859
   4 C :   -0.000601
   5 S :    0.146348
   6 C :    0.048349
   7 S :   -0.122377
   8 O :   -0.177819
   9 H :    0.042863
  10 H :    0.044221
Sum of atomic charges:    0.0000000

LOEWDIN ATOMIC CHARGES
----------------------
   0 C :   -0.205891
   1 S :    0.453007
   2 C :   -0.211199
   3 C :   -0.009918
   4 C :   -0.220504
   5 S :    0.378616
   6 C :   -0.236293
   7 S :    0.008829
   8 O :   -0.028731
   9 H :    0.033313
  10 H :    0.038772

  Mayer bond orders larger than 0.100000
B(  0-C ,  1-S ) :   1.1693 B(  0-C ,  4-C ) :   1.5489 B(  0-C ,  9-H ) :   0.9763
B(  1-S ,  2-C ) :   1.1410 B(  2-C ,  3-C ) :   1.5472 B(  2-C , 10-H ) :   0.9753
B(  3-C ,  4-C ) :   1.2311 B(  3-C ,  8-O ) :   1.0559 B(  4-C ,  5-S ) :   0.9962
B(  5-S ,  6-C ) :   1.0511 B(  5-S ,  7-S ) :   0.1373 B(  6-C ,  7-S ) :   1.7719
B(  6-C ,  8-O ) :   1.0666

Dispersion correction           -0.029649475
FINAL SINGLE POINT ENERGY     -1461.003458186346

DIPOLE MOMENT
-------------
                                X             Y             Z
Electronic contribution:     -2.47149      -1.27524      -0.00050
Nuclear contribution   :      3.90967       1.27716      -0.00082
                        -----------------------------------------
Total Dipole Moment    :      1.43819       0.00192      -0.00132
                        -----------------------------------------
Magnitude (a.u.)       :      1.43819
Magnitude (Debye)      :      3.65558

Rotational constants in cm-1:     0.106137     0.020728     0.017341
Rotational constants in MHz :  3181.892692   621.395712   519.869721

                             ****ORCA TERMINATED NORMALLY****
TOTAL RUN TIME: 0 days 0 hours 3 minutes 36 seconds 627 msec
