                         Program Version 4.2.0 -  RELEASE  -
|  1> # ORCA input file
|  2> # SCF done        -35.710892592997          0.000484813506
|  3> ! B3LYP/G D3BJ Opt RIJCOSX def2-SVP def2/J
|  4> * xyz 0 1
|  5>    C       -1.67381        -1.39867         0.47202
|  6>    S       -2.88716        -0.18891         0.52259
|  7>    C       -1.76245         1.04455         0.04769
|  8>    C       -0.50798         0.50857        -0.14818
|  9>    C       -0.46163        -0.89952         0.09454
| 10>    O        0.61543        -1.72586        -0.01407
| 11>    C        1.87123        -1.12075        -0.25892
| 12>    C        2.17981        -0.00843         0.74522
| 13>    C        1.67622         1.35109         0.23721
| 14>    O        0.54752         1.25839        -0.60967
| 15>    C       -2.23517         2.39869        -0.08896
| 16>    C       -1.53667         3.42353        -0.57021
| 17>    H       -1.90922        -2.41791         0.69711
| 18>    H        1.91334        -0.73162        -1.28481
| 19>    H        2.58469        -1.94226        -0.16221
| 20>    H        3.25317         0.05425         0.92173
| 21>    H        1.69604        -0.26349         1.69113
| 22>    H        2.43511         1.82876        -0.38839
| 23>    H        1.45394         2.01222         1.08747
| 24>    H       -3.25667         2.54355         0.23920
| 25>    H       -0.52770         3.30686        -0.92238
| 26>    H       -1.96625         4.40850        -0.62790
| 27> *
| 28>
| 29>                          ****END OF INPUT****
 Total Charge           Charge          ....    0
 Multiplicity           Mult            ....    1
 Number of Electrons    NEL             ....   96
Dispersion correction           -0.044871378
FINAL SINGLE POINT ENERGY      -897.122228298420
Dispersion correction            ... done
Dispersion correction           -0.044559925
FINAL SINGLE POINT ENERGY      -897.124740650751
Dispersion correction            ... done
Dispersion correction           -0.044507253
FINAL SINGLE POINT ENERGY      -897.124990970451
Dispersion correction            ... done
FINAL SINGLE POINT ENERGY      -897.125015151056
FINAL SINGLE POINT ENERGY      -897.125093464132
FINAL SINGLE POINT ENERGY      -897.125141178351
FINAL SINGLE POINT ENERGY      -897.125164267807
FINAL SINGLE POINT ENERGY      -897.125146708185
Dispersion correction            ... done
Dispersion correction           -0.044685805
FINAL SINGLE POINT ENERGY      -897.125116404622
Dispersion correction            ... done
Dispersion correction           -0.044691764
FINAL SINGLE POINT ENERGY      -897.125105638181
Dispersion correction            ... done
                    ***********************HURRAY********************

CARTESIAN COORDINATES (ANGSTROEM)
---------------------------------
  C     -1.669240   -1.430734    0.438509
  S     -2.872506   -0.195042    0.565298
  C     -1.757750    1.048815    0.058641
  C     -0.519880    0.494596   -0.222619
  C     -0.464477   -0.926323    0.005088
  O      0.616150   -1.723370   -0.176921
  C      1.926544   -1.155930   -0.212814
  C      2.106673    0.012317    0.752638
  C      1.664908    1.346666    0.146617
  O      0.533729    1.211609   -0.712376
  C     -2.216317    2.426852   -0.011908
  C     -1.554880    3.477143   -0.527396
  H     -1.893379   -2.467819    0.676013
  H      2.174771   -0.848933   -1.245110
  H      2.594133   -1.985319    0.061092
  H      3.165665    0.094546    1.046860
  H      1.549515   -0.213566    1.676653
  H      2.455482    1.756321   -0.500364
  H      1.453068    2.086279    0.938994
  H     -3.212172    2.595891    0.413406
  H     -0.569240    3.366484   -0.980318
  H     -2.009005    4.471057   -0.509771

 Multiplicity           Mult            ....    1
 Number of Electrons    NEL             ....   96
 Basis Dimension        Dim             ....  222

ORBITAL ENERGIES
----------------

  NO   OCC          E(Eh)            E(eV)
   0   2.0000     -88.868808     -2418.2432
   1   2.0000     -19.161171      -521.4020
   2   2.0000     -19.160932      -521.3955
   3   2.0000     -10.252134      -278.9747
   4   2.0000     -10.252006      -278.9713
   5   2.0000     -10.246998      -278.8350
   6   2.0000     -10.242172      -278.7037
   7   2.0000     -10.212317      -277.8913
   8   2.0000     -10.205149      -277.6962
   9   2.0000     -10.200982      -277.5828
  10   2.0000     -10.198620      -277.5186
  11   2.0000     -10.180526      -277.0262
  12   2.0000      -7.963669      -216.7024
  13   2.0000      -5.931827      -161.4132
  14   2.0000      -5.928097      -161.3117
  15   2.0000      -5.924597      -161.2165
  16   2.0000      -1.066964       -29.0336
  17   2.0000      -1.044687       -28.4274
  18   2.0000      -0.875617       -23.8267
  19   2.0000      -0.795280       -21.6407
  20   2.0000      -0.777623       -21.1602
  21   2.0000      -0.727649       -19.8003
  22   2.0000      -0.719841       -19.5879
  23   2.0000      -0.674386       -18.3510
  24   2.0000      -0.618964       -16.8429
  25   2.0000      -0.597414       -16.2565
  26   2.0000      -0.572600       -15.5812
  27   2.0000      -0.538249       -14.6465
  28   2.0000      -0.521692       -14.1960
  29   2.0000      -0.496069       -13.4987
  30   2.0000      -0.483457       -13.1555
  31   2.0000      -0.462803       -12.5935
  32   2.0000      -0.457961       -12.4617
  33   2.0000      -0.448636       -12.2080
  34   2.0000      -0.434037       -11.8107
  35   2.0000      -0.427569       -11.6347
  36   2.0000      -0.404355       -11.0031
  37   2.0000      -0.386228       -10.5098
  38   2.0000      -0.377992       -10.2857
  39   2.0000      -0.365887        -9.9563
  40   2.0000      -0.358575        -9.7573
  41   2.0000      -0.346797        -9.4368
  42   2.0000      -0.333012        -9.0617
  43   2.0000      -0.324071        -8.8184
  44   2.0000      -0.290383        -7.9017
  45   2.0000      -0.287284        -7.8174
  46   2.0000      -0.221356        -6.0234
  47   2.0000      -0.206312        -5.6140
  48   0.0000      -0.038070        -1.0359
  49   0.0000       0.033844         0.9209
  50   0.0000       0.038786         1.0554
  51   0.0000       0.048356         1.3158
  52   0.0000       0.080868         2.2005

MULLIKEN ATOMIC CHARGES
-----------------------
   0 C :   -0.164255
   1 S :    0.104252
   2 C :   -0.152873
   3 C :    0.113283
   4 C :    0.215319
   5 O :   -0.322054
   6 C :    0.254960
   7 C :   -0.115735
   8 C :    0.265977
   9 O :   -0.345139
  10 C :    0.022256
  11 C :   -0.028332
  12 H :    0.013597
  13 H :    0.014712
  14 H :    0.013750
  15 H :    0.019027
  16 H :    0.040971
  17 H :    0.015196
  18 H :    0.010485
  19 H :   -0.019786
  20 H :    0.027744
  21 H :    0.016646
Sum of atomic charges:    0.0000000

LOEWDIN ATOMIC CHARGES
----------------------
   0 C :   -0.229515
   1 S :    0.425902
   2 C :   -0.200187
   3 C :   -0.024242
   4 C :   -0.007308
   5 O :   -0.110446
   6 C :    0.095998
   7 C :   -0.071053
   8 C :    0.092220
   9 O :   -0.121332
  10 C :   -0.043864
  11 C :   -0.053977
  12 H :    0.026054
  13 H :    0.016053
  14 H :    0.024399
  15 H :    0.037823
  16 H :    0.034469
  17 H :    0.021125
  18 H :    0.015679
  19 H :    0.026071
  20 H :    0.022923
  21 H :    0.023207

  Mayer bond orders larger than 0.100000
B(  0-C ,  1-S ) :   1.1218 B(  0-C ,  4-C ) :   1.5244 B(  0-C , 12-H ) :   0.9632
B(  1-S ,  2-C ) :   1.1286 B(  2-C ,  3-C ) :   1.4761 B(  2-C , 10-C ) :   1.1185
B(  3-C ,  4-C ) :   1.1822 B(  3-C ,  9-O ) :   1.1028 B(  4-C ,  5-O ) :   1.1216
B(  5-O ,  6-C ) :   0.9502 B(  6-C ,  7-C ) :   1.0653 B(  6-C , 13-H ) :   0.9504
B(  6-C , 14-H ) :   0.9495 B(  7-C ,  8-C ) :   1.0831 B(  7-C , 15-H ) :   0.9277
B(  7-C , 16-H ) :   0.9357 B(  8-C ,  9-O ) :   0.9483 B(  8-C , 17-H ) :   0.9490
B(  8-C , 18-H ) :   0.9458 B( 10-C , 11-C ) :   1.9265 B( 10-C , 19-H ) :   0.9420
B( 11-C , 20-H ) :   0.9416 B( 11-C , 21-H ) :   0.9404

Dispersion correction           -0.044690621
FINAL SINGLE POINT ENERGY      -897.125103897974

DIPOLE MOMENT
-------------
                                X             Y             Z
Electronic contribution:     -9.52383      -5.17447      -0.42307
Nuclear contribution   :     10.49030       5.31617       0.90409
                        -----------------------------------------
Total Dipole Moment    :      0.96647       0.14170       0.48102
                        -----------------------------------------
Magnitude (a.u.)       :      1.08882
Magnitude (Debye)      :      2.76755

Rotational constants in cm-1:     0.040868     0.026176     0.016968
Rotational constants in MHz :  1225.177205   784.749189   508.697197

                             ****ORCA TERMINATED NORMALLY****
TOTAL RUN TIME: 0 days 0 hours 16 minutes 51 seconds 402 msec
