                         Program Version 4.2.0 -  RELEASE  -
|  1> # ORCA input file
|  2> # SCF done        -40.445324946480          0.000584620977
|  3> ! B3LYP/G D3BJ Opt RIJCOSX def2-SVP def2/J
|  4> * xyz 0 1
|  5>    C       -1.65339         1.24429        -0.00133
|  6>    S       -2.69764        -0.10095         0.02367
|  7>    C       -1.38852        -1.22559         0.16872
|  8>    C       -0.16813        -0.55059         0.19572
|  9>    C       -0.33488         0.87278         0.09802
| 10>    C        0.80373         1.73441         0.11169
| 11>    C        0.62877         3.12674         0.01277
| 12>    N        0.48445         4.26300        -0.06661
| 13>    C        2.05162         1.17521         0.22168
| 14>    C        2.22321        -0.21462         0.31623
| 15>    C        1.15491        -1.08126         0.30404
| 16>    O        1.26565        -2.42937         0.38811
| 17>    C        2.54747        -3.00508         0.48678
| 18>    C       -1.64160        -2.63564         0.24519
| 19>    C       -2.85418        -3.18754         0.23858
| 20>    H       -2.04757         2.23728        -0.08607
| 21>    H        2.92448         1.81098         0.23563
| 22>    H        3.23052        -0.58884         0.39931
| 23>    H        2.38232        -4.08036         0.53255
| 24>    H        3.06412        -2.67954         1.39461
| 25>    H        3.16036        -2.76999        -0.38856
| 26>    H       -0.76028        -3.25469         0.31558
| 27>    H       -3.74925        -2.59019         0.17588
| 28>    H       -2.98672        -4.25274         0.30194
| 29> *
| 30>
| 31>                          ****END OF INPUT****
 Total Charge           Charge          ....    0
 Multiplicity           Mult            ....    1
 Number of Electrons    NEL             ....  112
Dispersion correction           -0.055516314
FINAL SINGLE POINT ENERGY      -990.322571809245
Dispersion correction            ... done
Dispersion correction           -0.055139246
FINAL SINGLE POINT ENERGY      -990.326327222335
Dispersion correction            ... done
Dispersion correction           -0.055091378
FINAL SINGLE POINT ENERGY      -990.326452430950
Dispersion correction            ... done
FINAL SINGLE POINT ENERGY      -990.326445734395
FINAL SINGLE POINT ENERGY      -990.326454190776
FINAL SINGLE POINT ENERGY      -990.326460819673
Dispersion correction            ... done
Dispersion correction           -0.055100583
FINAL SINGLE POINT ENERGY      -990.326459366413
Dispersion correction            ... done
Dispersion correction           -0.055100794
FINAL SINGLE POINT ENERGY      -990.326459414103
Dispersion correction            ... done
                    ***********************HURRAY********************

CARTESIAN COORDINATES (ANGSTROEM)
---------------------------------
  C     -1.660678    1.270334    0.010667
  S     -2.702449   -0.086099    0.022364
  C     -1.402427   -1.230951    0.143424
  C     -0.170881   -0.550574    0.166413
  C     -0.331008    0.890013    0.091601
  C      0.823745    1.753250    0.110766
  C      0.649504    3.168641    0.032738
  N      0.479643    4.316649   -0.031581
  C      2.075351    1.181982    0.206229
  C      2.247600   -0.224115    0.283410
  C      1.163470   -1.085200    0.262935
  O      1.273732   -2.428234    0.329867
  C      2.552676   -3.003979    0.512436
  C     -1.676214   -2.656934    0.220492
  C     -2.891738   -3.231395    0.252215
  H     -2.052406    2.283166   -0.058173
  H      2.958152    1.822956    0.223431
  H      3.260174   -0.613841    0.360839
  H      2.399262   -4.088429    0.582594
  H      3.023787   -2.639231    1.441641
  H      3.220041   -2.783250   -0.338236
  H     -0.784641   -3.282602    0.260982
  H     -3.816916   -2.647915    0.225078
  H     -2.998328   -4.316540    0.311997

 Multiplicity           Mult            ....    1
 Number of Electrons    NEL             ....  112
 Basis Dimension        Dim             ....  259

ORBITAL ENERGIES
----------------

  NO   OCC          E(Eh)            E(eV)
   0   2.0000     -88.893674     -2418.9198
   1   2.0000     -19.195125      -522.3259
   2   2.0000     -14.320073      -389.6690
   3   2.0000     -10.279825      -279.7282
   4   2.0000     -10.267488      -279.3925
   5   2.0000     -10.234843      -278.5042
   6   2.0000     -10.228949      -278.3439
   7   2.0000     -10.223857      -278.2053
   8   2.0000     -10.221284      -278.1353
   9   2.0000     -10.220402      -278.1113
  10   2.0000     -10.219943      -278.0988
  11   2.0000     -10.218628      -278.0630
  12   2.0000     -10.207035      -277.7475
  13   2.0000     -10.205990      -277.7191
  14   2.0000     -10.196184      -277.4523
  15   2.0000      -7.988463      -217.3771
  16   2.0000      -5.956167      -162.0755
  17   2.0000      -5.952115      -161.9653
  18   2.0000      -5.950628      -161.9248
  19   2.0000      -1.090103       -29.6632
  20   2.0000      -0.909728       -24.7550
  21   2.0000      -0.889246       -24.1976
  22   2.0000      -0.848779       -23.0964
  23   2.0000      -0.801470       -21.8091
  24   2.0000      -0.779328       -21.2066
  25   2.0000      -0.753927       -20.5154
  26   2.0000      -0.726294       -19.7635
  27   2.0000      -0.707998       -19.2656
  28   2.0000      -0.640442       -17.4273
  29   2.0000      -0.623714       -16.9721
  30   2.0000      -0.599859       -16.3230
  31   2.0000      -0.581760       -15.8305
  32   2.0000      -0.549657       -14.9569
  33   2.0000      -0.521669       -14.1953
  34   2.0000      -0.514386       -13.9972
  35   2.0000      -0.496994       -13.5239
  36   2.0000      -0.491812       -13.3829
  37   2.0000      -0.472023       -12.8444
  38   2.0000      -0.442142       -12.0313
  39   2.0000      -0.438830       -11.9412
  40   2.0000      -0.430189       -11.7061
  41   2.0000      -0.429300       -11.6819
  42   2.0000      -0.403282       -10.9739
  43   2.0000      -0.400321       -10.8933
  44   2.0000      -0.382484       -10.4079
  45   2.0000      -0.378979       -10.3126
  46   2.0000      -0.377877       -10.2826
  47   2.0000      -0.364489        -9.9182
  48   2.0000      -0.352420        -9.5898
  49   2.0000      -0.342123        -9.3096
  50   2.0000      -0.330487        -8.9930
  51   2.0000      -0.324774        -8.8376
  52   2.0000      -0.310119        -8.4388
  53   2.0000      -0.269229        -7.3261
  54   2.0000      -0.259751        -7.0682
  55   2.0000      -0.206374        -5.6157
  56   0.0000      -0.085858        -2.3363
  57   0.0000      -0.033097        -0.9006
  58   0.0000       0.005770         0.1570
  59   0.0000       0.029165         0.7936
  60   0.0000       0.038535         1.0486

MULLIKEN ATOMIC CHARGES
-----------------------
   0 C :   -0.131535
   1 S :    0.147538
   2 C :   -0.181382
   3 C :    0.114220
   4 C :    0.095807
   5 C :   -0.061331
   6 C :   -0.172145
   7 N :    0.058738
   8 C :    0.031324
   9 C :   -0.117483
  10 C :    0.206140
  11 O :   -0.307407
  12 C :    0.176635
  13 C :    0.024477
  14 C :   -0.040026
  15 H :    0.037789
  16 H :   -0.012475
  17 H :   -0.029709
  18 H :    0.044672
  19 H :    0.029291
  20 H :    0.034569
  21 H :    0.003423
  22 H :    0.019871
  23 H :    0.028999
Sum of atomic charges:   -0.0000000

LOEWDIN ATOMIC CHARGES
----------------------
   0 C :   -0.192726
   1 S :    0.495566
   2 C :   -0.172453
   3 C :   -0.060310
   4 C :   -0.034035
   5 C :   -0.086604
   6 C :   -0.026912
   7 N :   -0.080095
   8 C :    0.018870
   9 C :   -0.097625
  10 C :    0.076486
  11 O :   -0.078219
  12 C :    0.083924
  13 C :   -0.041920
  14 C :   -0.054580
  15 H :    0.034706
  16 H :    0.038675
  17 H :    0.029468
  18 H :    0.030781
  19 H :    0.019090
  20 H :    0.019289
  21 H :    0.033671
  22 H :    0.016610
  23 H :    0.028344

  Mayer bond orders larger than 0.100000
B(  0-C ,  1-S ) :   1.1810 B(  0-C ,  2-C ) :   0.1030 B(  0-C ,  4-C ) :   1.4486
B(  0-C , 15-H ) :   0.9471 B(  1-S ,  2-C ) :   1.1633 B(  2-C ,  3-C ) :   1.3503
B(  2-C , 13-C ) :   1.1582 B(  3-C ,  4-C ) :   1.2022 B(  3-C , 10-C ) :   1.1709
B(  4-C ,  5-C ) :   1.1740 B(  5-C ,  6-C ) :   1.0948 B(  5-C ,  8-C ) :   1.5115
B(  6-C ,  7-N ) :   2.9903 B(  8-C ,  9-C ) :   1.1863 B(  8-C , 16-H ) :   0.9898
B(  9-C , 10-C ) :   1.4050 B(  9-C , 17-H ) :   0.9871 B( 10-C , 11-O ) :   1.1762
B( 11-O , 12-C ) :   0.9462 B( 12-C , 18-H ) :   0.9752 B( 12-C , 19-H ) :   0.9656
B( 12-C , 20-H ) :   0.9663 B( 13-C , 14-C ) :   1.8715 B( 13-C , 21-H ) :   0.9456
B( 14-C , 22-H ) :   0.9519 B( 14-C , 23-H ) :   0.9480

Dispersion correction           -0.055100639
FINAL SINGLE POINT ENERGY      -990.326459942436

DIPOLE MOMENT
-------------
                                X             Y             Z
Electronic contribution:     -5.76933      11.44393      -1.21855
Nuclear contribution   :      6.46497     -13.61581       1.41237
                        -----------------------------------------
Total Dipole Moment    :      0.69565      -2.17187       0.19382
                        -----------------------------------------
Magnitude (a.u.)       :      2.28878
Magnitude (Debye)      :      5.81762

Rotational constants in cm-1:     0.023560     0.016549     0.009741
Rotational constants in MHz :   706.314628   496.112064   292.014279

                             ****ORCA TERMINATED NORMALLY****
TOTAL RUN TIME: 0 days 0 hours 18 minutes 41 seconds 86 msec
