                         Program Version 4.2.0 -  RELEASE  -
|  1> # ORCA input file
|  2> # SCF done        -28.469696695004          0.000640792401
|  3> ! B3LYP/G D3BJ Opt RIJCOSX def2-SVP def2/J
|  4> * xyz 0 1
|  5>    C        1.33852         0.69626        -0.19561
|  6>    C        0.07141         1.21346        -0.15238
|  7>    C       -0.28828         2.62628        -0.27206
|  8>    O        0.55976         3.47903        -0.42331
|  9>    C       -1.76129         2.93604        -0.19455
| 10>    S       -1.10655        -0.04574         0.07617
| 11>    C        0.12187        -1.23009         0.10929
| 12>    C        1.38418        -0.71059        -0.04595
| 13>    C        2.57625        -1.53761        -0.04645
| 14>    C        3.81804        -1.09371        -0.19648
| 15>    H        2.19799         1.32641        -0.33132
| 16>    H       -2.28941         2.41865        -0.99278
| 17>    H       -1.91630         4.00729        -0.28813
| 18>    H       -2.16247         2.59002         0.75558
| 19>    H       -0.14537        -2.26071         0.24288
| 20>    H        2.39330        -2.59586         0.09039
| 21>    H        4.04478        -0.05099        -0.33539
| 22>    H        4.65777        -1.76662        -0.18512
| 23> *
| 24>
| 25>                          ****END OF INPUT****
 Total Charge           Charge          ....    0
 Multiplicity           Mult            ....    1
 Number of Electrons    NEL             ....   80
Dispersion correction           -0.035410975
FINAL SINGLE POINT ENERGY      -782.699887320438
Dispersion correction            ... done
Dispersion correction           -0.035102286
FINAL SINGLE POINT ENERGY      -782.702617504553
Dispersion correction            ... done
Dispersion correction           -0.035047766
FINAL SINGLE POINT ENERGY      -782.702662278948
Dispersion correction            ... done
FINAL SINGLE POINT ENERGY      -782.702536089978
FINAL SINGLE POINT ENERGY      -782.702565375535
FINAL SINGLE POINT ENERGY      -782.702588223429
FINAL SINGLE POINT ENERGY      -782.702578663537
FINAL SINGLE POINT ENERGY      -782.702523951736
FINAL SINGLE POINT ENERGY      -782.702522024457
FINAL SINGLE POINT ENERGY      -782.702475646401
Dispersion correction            ... done
Dispersion correction           -0.035024768
FINAL SINGLE POINT ENERGY      -782.702465519880
Dispersion correction            ... done
Dispersion correction           -0.035027031
FINAL SINGLE POINT ENERGY      -782.702469144346
Dispersion correction            ... done
                    ***********************HURRAY********************

CARTESIAN COORDINATES (ANGSTROEM)
---------------------------------
  C      1.328742    0.689487   -0.137685
  C      0.049648    1.195217   -0.089113
  C     -0.311146    2.628526   -0.208507
  O      0.561406    3.472925   -0.274270
  C     -1.784871    2.985577   -0.242384
  S     -1.122043   -0.086037    0.105326
  C      0.119217   -1.275347    0.113014
  C      1.388259   -0.735124   -0.029896
  C      2.602269   -1.552597   -0.070272
  C      3.854414   -1.101071   -0.232339
  H      2.186945    1.348994   -0.261988
  H     -2.343008    2.336406   -0.934394
  H     -1.898593    4.035137   -0.542151
  H     -2.225087    2.847279    0.759598
  H     -0.134445   -2.328991    0.227060
  H      2.440660   -2.630419    0.043463
  H      4.080287   -0.038640   -0.357183
  H      4.701548   -1.789801   -0.253498

 Multiplicity           Mult            ....    1
 Number of Electrons    NEL             ....   80
 Basis Dimension        Dim             ....  184

ORBITAL ENERGIES
----------------

  NO   OCC          E(Eh)            E(eV)
   0   2.0000     -88.889889     -2418.8169
   1   2.0000     -19.122755      -520.3566
   2   2.0000     -10.282181      -279.7924
   3   2.0000     -10.229323      -278.3540
   4   2.0000     -10.221363      -278.1374
   5   2.0000     -10.212791      -277.9042
   6   2.0000     -10.207112      -277.7496
   7   2.0000     -10.205929      -277.7174
   8   2.0000     -10.197387      -277.4850
   9   2.0000     -10.194998      -277.4200
  10   2.0000      -7.984694      -217.2746
  11   2.0000      -5.952727      -161.9819
  12   2.0000      -5.948601      -161.8697
  13   2.0000      -5.946303      -161.8071
  14   2.0000      -1.030941       -28.0533
  15   2.0000      -0.894793       -24.3486
  16   2.0000      -0.797283       -21.6952
  17   2.0000      -0.757138       -20.6028
  18   2.0000      -0.738348       -20.0915
  19   2.0000      -0.714421       -19.4404
  20   2.0000      -0.623386       -16.9632
  21   2.0000      -0.593962       -16.1625
  22   2.0000      -0.546747       -14.8777
  23   2.0000      -0.533769       -14.5246
  24   2.0000      -0.490583       -13.3494
  25   2.0000      -0.455377       -12.3915
  26   2.0000      -0.452012       -12.2999
  27   2.0000      -0.451751       -12.2928
  28   2.0000      -0.442446       -12.0396
  29   2.0000      -0.413247       -11.2450
  30   2.0000      -0.402118       -10.9422
  31   2.0000      -0.397953       -10.8288
  32   2.0000      -0.395788       -10.7699
  33   2.0000      -0.369945       -10.0667
  34   2.0000      -0.365030        -9.9330
  35   2.0000      -0.354562        -9.6481
  36   2.0000      -0.315340        -8.5808
  37   2.0000      -0.260935        -7.1004
  38   2.0000      -0.258375        -7.0307
  39   2.0000      -0.236560        -6.4371
  40   0.0000      -0.068341        -1.8596
  41   0.0000      -0.033941        -0.9236
  42   0.0000       0.025566         0.6957
  43   0.0000       0.044716         1.2168
  44   0.0000       0.065209         1.7744

MULLIKEN ATOMIC CHARGES
-----------------------
   0 C :    0.017022
   1 C :   -0.132790
   2 C :    0.032866
   3 O :   -0.194202
   4 C :    0.028370
   5 S :    0.123046
   6 C :   -0.120826
   7 C :    0.095987
   8 C :    0.002939
   9 C :   -0.023199
  10 H :    0.002771
  11 H :    0.033693
  12 H :    0.032013
  13 H :    0.042080
  14 H :    0.028198
  15 H :   -0.014255
  16 H :    0.019458
  17 H :    0.026829
Sum of atomic charges:   -0.0000000

LOEWDIN ATOMIC CHARGES
----------------------
   0 C :   -0.004047
   1 C :   -0.222546
   2 C :    0.063571
   3 O :   -0.154802
   4 C :   -0.082169
   5 S :    0.442125
   6 C :   -0.175386
   7 C :   -0.064148
   8 C :   -0.024830
   9 C :   -0.043098
  10 H :    0.037785
  11 H :    0.033679
  12 H :    0.040139
  13 H :    0.045319
  14 H :    0.027116
  15 H :    0.029615
  16 H :    0.023539
  17 H :    0.028138

  Mayer bond orders larger than 0.100000
B(  0-C ,  1-C ) :   1.5187 B(  0-C ,  7-C ) :   1.2225 B(  0-C , 10-H ) :   0.9975
B(  1-C ,  2-C ) :   0.9724 B(  1-C ,  5-S ) :   1.1124 B(  2-C ,  3-O ) :   2.1573
B(  2-C ,  4-C ) :   1.0573 B(  4-C , 11-H ) :   0.9492 B(  4-C , 12-H ) :   0.9476
B(  4-C , 13-H ) :   0.9438 B(  5-S ,  6-C ) :   1.1770 B(  6-C ,  7-C ) :   1.4730
B(  6-C , 14-H ) :   0.9679 B(  7-C ,  8-C ) :   1.0919 B(  8-C ,  9-C ) :   1.9309
B(  8-C , 15-H ) :   0.9621 B(  9-C , 16-H ) :   0.9479 B(  9-C , 17-H ) :   0.9462

Dispersion correction           -0.035028137
FINAL SINGLE POINT ENERGY      -782.702457610485

DIPOLE MOMENT
-------------
                                X             Y             Z
Electronic contribution:     -3.62381      -0.10972       0.66563
Nuclear contribution   :      3.13512      -0.86193      -0.59908
                        -----------------------------------------
Total Dipole Moment    :     -0.48869      -0.97165       0.06656
                        -----------------------------------------
Magnitude (a.u.)       :      1.08966
Magnitude (Debye)      :      2.76968

Rotational constants in cm-1:     0.071023     0.025444     0.018812
Rotational constants in MHz :  2129.215751   762.778029   563.984236

                             ****ORCA TERMINATED NORMALLY****
TOTAL RUN TIME: 0 days 0 hours 12 minutes 37 seconds 881 msec
