                         Program Version 4.2.0 -  RELEASE  -
|  1> # ORCA input file
|  2> # SCF done        -39.257658255846          0.000335086099
|  3> ! B3LYP/G D3BJ Opt RIJCOSX def2-SVP def2/J
|  4> * xyz 0 1
|  5>    C       -1.54522        -1.23048         0.16266
|  6>    S       -2.70822         0.01085         0.25701
|  7>    C       -1.52324         1.23513         0.17250
|  8>    C       -0.25370         0.71423         0.07335
|  9>    C       -0.26695        -0.72715         0.06763
| 10>    C        0.95191        -1.43772        -0.02866
| 11>    C        2.11448        -0.73037        -0.11387
| 12>    C        3.43805        -1.42788        -0.21905
| 13>    F        3.34146        -2.76493        -0.20886
| 14>    F        4.09509        -1.10550        -1.35058
| 15>    F        4.26777        -1.10150         0.79122
| 16>    C        2.13603         0.69178        -0.10894
| 17>    C        0.98176         1.40202        -0.01761
| 18>    H       -1.85038        -2.25725         0.18111
| 19>    H       -1.81422         2.26585         0.19947
| 20>    H        0.94617        -2.51665        -0.03326
| 21>    H        3.09060         1.18988        -0.17929
| 22>    H        0.98801         2.48079        -0.01302
| 23> *
| 24>
| 25>                          ****END OF INPUT****
 Total Charge           Charge          ....    0
 Multiplicity           Mult            ....    1
 Number of Electrons    NEL             ....  102
Dispersion correction           -0.039309224
FINAL SINGLE POINT ENERGY     -1043.136412515656
Dispersion correction            ... done
Dispersion correction           -0.039195902
FINAL SINGLE POINT ENERGY     -1043.138832958447
Dispersion correction            ... done
Dispersion correction           -0.039167293
FINAL SINGLE POINT ENERGY     -1043.138847924027
Dispersion correction            ... done
FINAL SINGLE POINT ENERGY     -1043.138726999925
FINAL SINGLE POINT ENERGY     -1043.138764382911
FINAL SINGLE POINT ENERGY     -1043.138745175289
FINAL SINGLE POINT ENERGY     -1043.138668409840
FINAL SINGLE POINT ENERGY     -1043.138616896784
FINAL SINGLE POINT ENERGY     -1043.138370981339
FINAL SINGLE POINT ENERGY     -1043.138638757250
FINAL SINGLE POINT ENERGY     -1043.138627445401
FINAL SINGLE POINT ENERGY     -1043.138646169975
FINAL SINGLE POINT ENERGY     -1043.138668543819
Dispersion correction            ... done
Dispersion correction           -0.039165729
FINAL SINGLE POINT ENERGY     -1043.138686655004
Dispersion correction            ... done
Dispersion correction           -0.039166130
FINAL SINGLE POINT ENERGY     -1043.138690755588
Dispersion correction            ... done
                    ***********************HURRAY********************

CARTESIAN COORDINATES (ANGSTROEM)
---------------------------------
  C     -1.568320   -1.242172    0.109014
  S     -2.730530    0.012830    0.191139
  C     -1.547137    1.252524    0.159148
  C     -0.263860    0.722992    0.086779
  C     -0.274952   -0.731207    0.056371
  C      0.961950   -1.442712   -0.024409
  C      2.139106   -0.739191   -0.068317
  C      3.458009   -1.445285   -0.238466
  F      3.399907   -2.752928    0.064556
  F      3.892637   -1.350548   -1.511852
  F      4.416967   -0.900494    0.534443
  C      2.152967    0.697073   -0.028351
  C      0.988686    1.411812    0.044586
  H     -1.880141   -2.284648    0.094424
  H     -1.839817    2.300248    0.194012
  H      0.964026   -2.533661   -0.055952
  H      3.114132    1.212862   -0.051851
  H      1.005770    2.503607    0.076537

 Multiplicity           Mult            ....    1
 Number of Electrons    NEL             ....  102
 Basis Dimension        Dim             ....  211

ORBITAL ENERGIES
----------------

  NO   OCC          E(Eh)            E(eV)
   0   2.0000     -88.899137     -2419.0685
   1   2.0000     -24.716787      -672.5780
   2   2.0000     -24.713152      -672.4791
   3   2.0000     -24.709194      -672.3713
   4   2.0000     -10.429477      -283.8005
   5   2.0000     -10.226412      -278.2748
   6   2.0000     -10.224686      -278.2278
   7   2.0000     -10.216584      -278.0074
   8   2.0000     -10.215968      -277.9906
   9   2.0000     -10.214727      -277.9569
  10   2.0000     -10.213504      -277.9236
  11   2.0000     -10.209287      -277.8088
  12   2.0000     -10.207744      -277.7668
  13   2.0000      -7.993736      -217.5206
  14   2.0000      -5.961366      -162.2170
  15   2.0000      -5.957208      -162.1039
  16   2.0000      -5.956291      -162.0789
  17   2.0000      -1.292514       -35.1711
  18   2.0000      -1.202275       -32.7156
  19   2.0000      -1.196678       -32.5633
  20   2.0000      -0.905265       -24.6335
  21   2.0000      -0.850973       -23.1562
  22   2.0000      -0.781259       -21.2591
  23   2.0000      -0.762160       -20.7394
  24   2.0000      -0.719406       -19.5760
  25   2.0000      -0.687658       -18.7121
  26   2.0000      -0.637057       -17.3352
  27   2.0000      -0.609259       -16.5788
  28   2.0000      -0.588298       -16.0084
  29   2.0000      -0.585585       -15.9346
  30   2.0000      -0.583509       -15.8781
  31   2.0000      -0.550408       -14.9774
  32   2.0000      -0.519179       -14.1276
  33   2.0000      -0.487058       -13.2535
  34   2.0000      -0.467222       -12.7137
  35   2.0000      -0.463900       -12.6234
  36   2.0000      -0.458584       -12.4787
  37   2.0000      -0.444872       -12.1056
  38   2.0000      -0.429169       -11.6783
  39   2.0000      -0.425222       -11.5709
  40   2.0000      -0.420767       -11.4497
  41   2.0000      -0.415541       -11.3074
  42   2.0000      -0.413599       -11.2546
  43   2.0000      -0.403863       -10.9897
  44   2.0000      -0.376520       -10.2456
  45   2.0000      -0.368656       -10.0316
  46   2.0000      -0.355665        -9.6781
  47   2.0000      -0.352148        -9.5824
  48   2.0000      -0.302779        -8.2390
  49   2.0000      -0.266342        -7.2475
  50   2.0000      -0.222349        -6.0504
  51   0.0000      -0.075061        -2.0425
  52   0.0000      -0.004910        -0.1336
  53   0.0000       0.009093         0.2474
  54   0.0000       0.038426         1.0456
  55   0.0000       0.061911         1.6847

MULLIKEN ATOMIC CHARGES
-----------------------
   0 C :   -0.135934
   1 S :    0.150404
   2 C :   -0.139283
   3 C :    0.097919
   4 C :    0.097641
   5 C :   -0.020837
   6 C :   -0.098611
   7 C :    0.539670
   8 F :   -0.169517
   9 F :   -0.176681
  10 F :   -0.178255
  11 C :    0.021832
  12 C :    0.002055
  13 H :    0.024923
  14 H :    0.022698
  15 H :   -0.012698
  16 H :   -0.006686
  17 H :   -0.018641
Sum of atomic charges:    0.0000000

LOEWDIN ATOMIC CHARGES
----------------------
   0 C :   -0.203018
   1 S :    0.496235
   2 C :   -0.208037
   3 C :   -0.048448
   4 C :   -0.051399
   5 C :    0.002963
   6 C :   -0.086915
   7 C :    0.175235
   8 F :   -0.061325
   9 F :   -0.071958
  10 F :   -0.067399
  11 C :   -0.018507
  12 C :   -0.011234
  13 H :    0.027780
  14 H :    0.027193
  15 H :    0.033853
  16 H :    0.032730
  17 H :    0.032252

  Mayer bond orders larger than 0.100000
B(  0-C ,  1-S ) :   1.2169 B(  0-C ,  2-C ) :   0.1161 B(  0-C ,  4-C ) :   1.3999
B(  0-C , 13-H ) :   0.9654 B(  1-S ,  2-C ) :   1.2070 B(  2-C ,  3-C ) :   1.4084
B(  2-C , 14-H ) :   0.9651 B(  3-C ,  4-C ) :   1.2020 B(  3-C , 12-C ) :   1.1742
B(  4-C ,  5-C ) :   1.1636 B(  5-C ,  6-C ) :   1.5451 B(  5-C , 15-H ) :   0.9993
B(  6-C ,  7-C ) :   0.9604 B(  6-C , 11-C ) :   1.1858 B(  7-C ,  8-F ) :   1.1396
B(  7-C ,  9-F ) :   1.1525 B(  7-C , 10-F ) :   1.1275 B( 11-C , 12-C ) :   1.5511
B( 11-C , 16-H ) :   0.9852 B( 12-C , 17-H ) :   0.9958

Dispersion correction           -0.039165974
FINAL SINGLE POINT ENERGY     -1043.138680373605

DIPOLE MOMENT
-------------
                                X             Y             Z
Electronic contribution:     10.32870      -6.35002      -1.05791
Nuclear contribution   :    -11.43548       6.79977       1.17274
                        -----------------------------------------
Total Dipole Moment    :     -1.10678       0.44975       0.11483
                        -----------------------------------------
Magnitude (a.u.)       :      1.20017
Magnitude (Debye)      :      3.05060

Rotational constants in cm-1:     0.066179     0.012113     0.010824
Rotational constants in MHz :  1983.991991   363.151128   324.481189

                             ****ORCA TERMINATED NORMALLY****
TOTAL RUN TIME: 0 days 0 hours 17 minutes 43 seconds 595 msec
