                         Program Version 4.2.0 -  RELEASE  -
|  1> # ORCA input file
|  2> # SCF done        -33.828835534253          0.000857205807
|  3> ! B3LYP/G D3BJ Opt RIJCOSX def2-SVP def2/J
|  4> * xyz 0 1
|  5>    C       -0.34777         0.87449         0.11373
|  6>    O       -1.07739        -0.25774        -0.02043
|  7>    C       -0.25562        -1.28538        -0.07929
|  8>    C        1.05163        -0.85173         0.01644
|  9>    N        2.20081        -1.65265        -0.00696
| 10>    O        2.05578        -2.85389        -0.11557
| 11>    O        3.28415        -1.08997         0.08204
| 12>    C        0.99767         0.58224         0.14425
| 13>    N        2.08029         1.38718         0.26374
| 14>    C        2.05559         2.75732         0.39187
| 15>    C        3.15143         3.49846         0.49889
| 16>    H       -0.88724         1.79591         0.17423
| 17>    H       -0.65421        -2.27453        -0.18722
| 18>    H        2.98145         0.91836         0.25270
| 19>    H        1.06751         3.19218         0.40389
| 20>    H        4.13365         3.05879         0.49392
| 21>    H        3.09173         4.56455         0.60396
| 22> *
| 23>
| 24>                          ****END OF INPUT****
 Total Charge           Charge          ....    0
 Multiplicity           Mult            ....    1
 Number of Electrons    NEL             ....   80
Dispersion correction           -0.028654382
FINAL SINGLE POINT ENERGY      -566.884405247332
Dispersion correction            ... done
Dispersion correction           -0.028560690
FINAL SINGLE POINT ENERGY      -566.887148775510
Dispersion correction            ... done
Dispersion correction           -0.028551680
FINAL SINGLE POINT ENERGY      -566.886839151508
Dispersion correction            ... done
FINAL SINGLE POINT ENERGY      -566.887427067838
FINAL SINGLE POINT ENERGY      -566.887445763924
Dispersion correction            ... done
Dispersion correction           -0.028563483
FINAL SINGLE POINT ENERGY      -566.887463675733
Dispersion correction            ... done
Dispersion correction           -0.028564860
FINAL SINGLE POINT ENERGY      -566.887462614794
Dispersion correction            ... done
                    ***********************HURRAY********************

CARTESIAN COORDINATES (ANGSTROEM)
---------------------------------
  C     -0.345949    0.889799    0.102490
  O     -1.083814   -0.262460   -0.046189
  C     -0.259221   -1.303941   -0.096705
  C      1.036373   -0.857789    0.016151
  N      2.200304   -1.685819    0.004754
  O      2.048488   -2.888428   -0.132210
  O      3.291238   -1.126743    0.137133
  C      0.995990    0.582201    0.150219
  N      2.096163    1.383349    0.285438
  C      2.076778    2.759225    0.421669
  C      3.165415    3.540126    0.475021
  H     -0.908691    1.813658    0.160810
  H     -0.677728   -2.298394   -0.215370
  H      2.982933    0.885795    0.263231
  H      1.075650    3.193268    0.497314
  H      4.173587    3.122257    0.402440
  H      3.061943    4.617486    0.603995

 Multiplicity           Mult            ....    1
 Number of Electrons    NEL             ....   80
 Basis Dimension        Dim             ....  184

ORBITAL ENERGIES
----------------

  NO   OCC          E(Eh)            E(eV)
   0   2.0000     -19.238864      -523.5161
   1   2.0000     -19.172736      -521.7167
   2   2.0000     -19.170806      -521.6642
   3   2.0000     -14.574380      -396.5890
   4   2.0000     -14.373590      -391.1253
   5   2.0000     -10.283523      -279.8289
   6   2.0000     -10.263992      -279.2974
   7   2.0000     -10.255416      -279.0641
   8   2.0000     -10.254930      -279.0508
   9   2.0000     -10.238857      -278.6135
  10   2.0000     -10.183211      -277.0992
  11   2.0000      -1.231991       -33.5242
  12   2.0000      -1.142808       -31.0974
  13   2.0000      -1.057372       -28.7726
  14   2.0000      -0.964632       -26.2490
  15   2.0000      -0.855301       -23.2739
  16   2.0000      -0.789168       -21.4744
  17   2.0000      -0.749124       -20.3847
  18   2.0000      -0.728632       -19.8271
  19   2.0000      -0.636385       -17.3169
  20   2.0000      -0.622133       -16.9291
  21   2.0000      -0.588926       -16.0255
  22   2.0000      -0.564937       -15.3727
  23   2.0000      -0.554315       -15.0837
  24   2.0000      -0.535206       -14.5637
  25   2.0000      -0.520241       -14.1565
  26   2.0000      -0.502408       -13.6712
  27   2.0000      -0.490423       -13.3451
  28   2.0000      -0.479396       -13.0450
  29   2.0000      -0.466928       -12.7057
  30   2.0000      -0.432429       -11.7670
  31   2.0000      -0.409411       -11.1406
  32   2.0000      -0.405141       -11.0244
  33   2.0000      -0.385495       -10.4899
  34   2.0000      -0.322699        -8.7811
  35   2.0000      -0.322415        -8.7734
  36   2.0000      -0.313152        -8.5213
  37   2.0000      -0.307279        -8.3615
  38   2.0000      -0.274705        -7.4751
  39   2.0000      -0.212057        -5.7704
  40   0.0000      -0.094470        -2.5707
  41   0.0000      -0.019195        -0.5223
  42   0.0000       0.024523         0.6673
  43   0.0000       0.056377         1.5341
  44   0.0000       0.073076         1.9885

MULLIKEN ATOMIC CHARGES
-----------------------
   0 C :   -0.039850
   1 O :   -0.177387
   2 C :    0.086405
   3 C :    0.115745
   4 N :    0.264642
   5 O :   -0.244794
   6 O :   -0.275599
   7 C :    0.113227
   8 N :   -0.042897
   9 C :    0.056633
  10 C :   -0.072660
  11 H :    0.006936
  12 H :    0.028912
  13 H :    0.129662
  14 H :    0.006265
  15 H :    0.017097
  16 H :    0.027664
Sum of atomic charges:   -0.0000000

LOEWDIN ATOMIC CHARGES
----------------------
   0 C :   -0.023325
   1 O :    0.034958
   2 C :    0.076648
   3 C :   -0.093662
   4 N :    0.285090
   5 O :   -0.204299
   6 O :   -0.225380
   7 C :   -0.004459
   8 N :    0.026101
   9 C :    0.024170
  10 C :   -0.117302
  11 H :    0.024082
  12 H :    0.039124
  13 H :    0.077981
  14 H :    0.026585
  15 H :    0.023444
  16 H :    0.030242

  Mayer bond orders larger than 0.100000
B(  0-C ,  1-O ) :   1.0622 B(  0-C ,  7-C ) :   1.4154 B(  0-C , 11-H ) :   1.0251
B(  1-O ,  2-C ) :   1.2328 B(  2-C ,  3-C ) :   1.4061 B(  2-C , 12-H ) :   1.0084
B(  3-C ,  4-N ) :   0.9443 B(  3-C ,  7-C ) :   1.2415 B(  4-N ,  5-O ) :   1.5355
B(  4-N ,  6-O ) :   1.4529 B(  5-O ,  6-O ) :   0.2661 B(  7-C ,  8-N ) :   1.2174
B(  8-N ,  9-C ) :   1.1132 B(  8-N , 13-H ) :   0.8835 B(  9-C , 10-C ) :   1.9002
B(  9-C , 14-H ) :   0.9607 B( 10-C , 15-H ) :   0.9582 B( 10-C , 16-H ) :   0.9486

Dispersion correction           -0.028564868
FINAL SINGLE POINT ENERGY      -566.887460921820

DIPOLE MOMENT
-------------
                                X             Y             Z
Electronic contribution:     -2.07129      -9.51779      -0.91226
Nuclear contribution   :      1.14787      10.34244       0.94482
                        -----------------------------------------
Total Dipole Moment    :     -0.92342       0.82464       0.03256
                        -----------------------------------------
Magnitude (a.u.)       :      1.23847
Magnitude (Debye)      :      3.14794

Rotational constants in cm-1:     0.055870     0.029123     0.019148
Rotational constants in MHz :  1674.941779   873.088996   574.036732

                             ****ORCA TERMINATED NORMALLY****
TOTAL RUN TIME: 0 days 0 hours 7 minutes 19 seconds 313 msec
