                         Program Version 4.2.0 -  RELEASE  -
|  1> # ORCA input file
|  2> # SCF done        -20.358264752077          0.000214143927
|  3> ! B3LYP/G D3BJ Opt RIJCOSX def2-SVP def2/J
|  4> * xyz 0 1
|  5>    C       -0.70514        -1.24913        -0.00168
|  6>    C       -1.12146         0.05488        -0.00271
|  7>    C       -2.48685         0.64737         0.00101
|  8>    N       -0.00298         0.83851        -0.00655
|  9>    C        1.11756         0.06015        -0.00822
| 10>    C        2.48579         0.64994        -0.01466
| 11>    C        0.70596        -1.24634        -0.00537
| 12>    H       -1.33758        -2.11514         0.00157
| 13>    H       -3.23010        -0.14452        -0.00746
| 14>    H       -2.64147         1.27751        -0.87613
| 15>    H       -2.64410         1.26049         0.88976
| 16>    H       -0.00658         1.84521        -0.00763
| 17>    H        2.43261         1.73649         0.01624
| 18>    H        3.02921         0.35643        -0.91268
| 19>    H        3.05746         0.30714         0.84719
| 20>    H        1.34241        -2.10930        -0.00540
| 21> *
| 22>
| 23>                          ****END OF INPUT****
 Total Charge           Charge          ....    0
 Multiplicity           Mult            ....    1
 Number of Electrons    NEL             ....   52
Dispersion correction           -0.023049558
FINAL SINGLE POINT ENERGY      -288.623292645453
Dispersion correction            ... done
Dispersion correction           -0.022951606
FINAL SINGLE POINT ENERGY      -288.625761459806
Dispersion correction            ... done
Dispersion correction           -0.022938183
FINAL SINGLE POINT ENERGY      -288.625846612180
Dispersion correction            ... done
FINAL SINGLE POINT ENERGY      -288.625876681097
FINAL SINGLE POINT ENERGY      -288.625883777427
FINAL SINGLE POINT ENERGY      -288.625887724925
FINAL SINGLE POINT ENERGY      -288.625873245763
FINAL SINGLE POINT ENERGY      -288.625909239442
FINAL SINGLE POINT ENERGY      -288.626149853363
FINAL SINGLE POINT ENERGY      -288.626597674945
FINAL SINGLE POINT ENERGY      -288.626829658414
FINAL SINGLE POINT ENERGY      -288.626990000477
FINAL SINGLE POINT ENERGY      -288.627083383190
FINAL SINGLE POINT ENERGY      -288.627081518196
Dispersion correction            ... done
Dispersion correction           -0.022957989
FINAL SINGLE POINT ENERGY      -288.627075771609
Dispersion correction            ... done
Dispersion correction           -0.022958238
FINAL SINGLE POINT ENERGY      -288.627073533003
Dispersion correction            ... done
                    ***********************HURRAY********************

CARTESIAN COORDINATES (ANGSTROEM)
---------------------------------
  C     -0.713985   -1.258607    0.095247
  C     -1.136845    0.054276   -0.015032
  C     -2.505615    0.647221   -0.082417
  N     -0.000519    0.834642   -0.062889
  C      1.136371    0.057805    0.015932
  C      2.504408    0.655327   -0.013507
  C      0.714669   -1.256372    0.114667
  H     -1.368800   -2.125529    0.162786
  H     -3.260860   -0.130219    0.097824
  H     -2.720911    1.101109   -1.067150
  H     -2.655310    1.435068    0.676291
  H     -0.000901    1.841573   -0.159743
  H      2.623874    1.456785    0.736168
  H      2.753139    1.093112   -0.997719
  H      3.256028   -0.115237    0.206574
  H      1.369995   -2.121265    0.200250

 Multiplicity           Mult            ....    1
 Number of Electrons    NEL             ....   52
 Basis Dimension        Dim             ....  143

ORBITAL ENERGIES
----------------

  NO   OCC          E(Eh)            E(eV)
   0   2.0000     -14.357645      -390.6914
   1   2.0000     -10.198632      -277.5189
   2   2.0000     -10.198570      -277.5172
   3   2.0000     -10.190327      -277.2929
   4   2.0000     -10.190293      -277.2920
   5   2.0000     -10.155442      -276.3436
   6   2.0000     -10.155212      -276.3374
   7   2.0000      -0.956443       -26.0261
   8   2.0000      -0.763432       -20.7740
   9   2.0000      -0.752189       -20.4681
  10   2.0000      -0.712647       -19.3921
  11   2.0000      -0.628287       -17.0965
  12   2.0000      -0.572783       -15.5862
  13   2.0000      -0.554214       -15.0809
  14   2.0000      -0.482225       -13.1220
  15   2.0000      -0.435464       -11.8496
  16   2.0000      -0.423530       -11.5248
  17   2.0000      -0.418284       -11.3821
  18   2.0000      -0.412411       -11.2223
  19   2.0000      -0.401686       -10.9304
  20   2.0000      -0.381507       -10.3813
  21   2.0000      -0.363085        -9.8801
  22   2.0000      -0.362382        -9.8609
  23   2.0000      -0.351996        -9.5783
  24   2.0000      -0.234969        -6.3938
  25   2.0000      -0.192074        -5.2266
  26   0.0000       0.038434         1.0458
  27   0.0000       0.050621         1.3775
  28   0.0000       0.074534         2.0282
  29   0.0000       0.086700         2.3592
  30   0.0000       0.096095         2.6149

MULLIKEN ATOMIC CHARGES
-----------------------
   0 C :   -0.047506
   1 C :   -0.069032
   2 C :    0.114416
   3 N :   -0.079563
   4 C :   -0.068905
   5 C :    0.114879
   6 C :   -0.048023
   7 H :   -0.044252
   8 H :    0.010280
   9 H :    0.014918
  10 H :    0.011945
  11 H :    0.098249
  12 H :    0.011588
  13 H :    0.015350
  14 H :    0.010042
  15 H :   -0.044385
Sum of atomic charges:    0.0000000

LOEWDIN ATOMIC CHARGES
----------------------
   0 C :   -0.093548
   1 C :   -0.033415
   2 C :   -0.055884
   3 N :    0.067020
   4 C :   -0.033408
   5 C :   -0.055862
   6 C :   -0.093596
   7 H :    0.016979
   8 H :    0.038034
   9 H :    0.027998
  10 H :    0.027352
  11 H :    0.077979
  12 H :    0.027334
  13 H :    0.028104
  14 H :    0.037962
  15 H :    0.016951

  Mayer bond orders larger than 0.100000
B(  0-C ,  1-C ) :   1.5306 B(  0-C ,  6-C ) :   1.2451 B(  0-C ,  7-H ) :   1.0011
B(  1-C ,  2-C ) :   1.1019 B(  1-C ,  3-N ) :   1.1981 B(  1-C ,  4-C ) :   0.1103
B(  2-C ,  8-H ) :   0.9451 B(  2-C ,  9-H ) :   0.9448 B(  2-C , 10-H ) :   0.9460
B(  3-N ,  4-C ) :   1.1979 B(  3-N , 11-H ) :   0.9442 B(  4-C ,  5-C ) :   1.1023
B(  4-C ,  6-C ) :   1.5305 B(  5-C , 12-H ) :   0.9458 B(  5-C , 13-H ) :   0.9448
B(  5-C , 14-H ) :   0.9448 B(  6-C , 15-H ) :   1.0011

Dispersion correction           -0.022958108
FINAL SINGLE POINT ENERGY      -288.627071966709

DIPOLE MOMENT
-------------
                                X             Y             Z
Electronic contribution:      0.00144      -1.39014       0.09509
Nuclear contribution   :     -0.00147       2.20689      -0.16748
                        -----------------------------------------
Total Dipole Moment    :     -0.00003       0.81676      -0.07239
                        -----------------------------------------
Magnitude (a.u.)       :      0.81996
Magnitude (Debye)      :      2.08417

Rotational constants in cm-1:     0.208512     0.067003     0.051698
Rotational constants in MHz :  6251.025581  2008.695907  1549.874452

                             ****ORCA TERMINATED NORMALLY****
TOTAL RUN TIME: 0 days 0 hours 8 minutes 47 seconds 328 msec
