                         Program Version 4.2.0 -  RELEASE  -
|  1> # ORCA input file
|  2> # SCF done        -27.479221220089          0.000515199595
|  3> ! B3LYP/G D3BJ Opt RIJCOSX def2-SVP def2/J
|  4> * xyz 0 1
|  5>    C       -1.52966        -1.22017         0.16032
|  6>    S       -2.71090         0.01222         0.24211
|  7>    C       -1.53673         1.24573         0.15393
|  8>    C       -0.26629         0.72959         0.06746
|  9>    C       -0.25621        -0.70887         0.07079
| 10>    C        0.97662        -1.40390        -0.01301
| 11>    C        2.13004        -0.69033        -0.09554
| 12>    C        2.13127         0.72510        -0.09966
| 13>    C        0.96838         1.43533        -0.02041
| 14>    O        0.91449         2.79482        -0.02075
| 15>    H       -1.82918        -2.24855         0.18349
| 16>    H       -1.82646         2.27636         0.17065
| 17>    H        0.97683        -2.48278        -0.01059
| 18>    H        3.08024        -1.19896        -0.16190
| 19>    H        3.07623         1.24774        -0.16802
| 20>    H        1.80849         3.15293        -0.08431
| 21> *
| 22>
| 23>                          ****END OF INPUT****
 Total Charge           Charge          ....    0
 Multiplicity           Mult            ....    1
 Number of Electrons    NEL             ....   78
Dispersion correction           -0.034814864
FINAL SINGLE POINT ENERGY      -781.509379733006
Dispersion correction            ... done
Dispersion correction           -0.034724408
FINAL SINGLE POINT ENERGY      -781.511688260483
Dispersion correction            ... done
Dispersion correction           -0.034714737
FINAL SINGLE POINT ENERGY      -781.511760110798
Dispersion correction            ... done
FINAL SINGLE POINT ENERGY      -781.511763985646
Dispersion correction            ... done
Dispersion correction           -0.034715725
FINAL SINGLE POINT ENERGY      -781.511769080862
Dispersion correction            ... done
Dispersion correction           -0.034715988
FINAL SINGLE POINT ENERGY      -781.511768926323
Dispersion correction            ... done
                    ***********************HURRAY********************

CARTESIAN COORDINATES (ANGSTROEM)
---------------------------------
  C     -1.551666   -1.230287    0.162046
  S     -2.721189    0.023161    0.255246
  C     -1.545278    1.265835    0.161835
  C     -0.267666    0.732967    0.063480
  C     -0.261425   -0.719485    0.064075
  C      0.983835   -1.421455   -0.021383
  C      2.147033   -0.699850   -0.090065
  C      2.151617    0.732171   -0.092262
  C      0.975949    1.443201   -0.026608
  O      0.894730    2.797395   -0.038496
  H     -1.857398   -2.274510    0.181915
  H     -1.829980    2.315002    0.181425
  H      0.993163   -2.513289   -0.027593
  H      3.105966   -1.220141   -0.150032
  H      3.104295    1.266679   -0.154214
  H      1.785174    3.168865   -0.094810

 Multiplicity           Mult            ....    1
 Number of Electrons    NEL             ....   78
 Basis Dimension        Dim             ....  174

ORBITAL ENERGIES
----------------

  NO   OCC          E(Eh)            E(eV)
   0   2.0000     -88.882051     -2418.6036
   1   2.0000     -19.171246      -521.6761
   2   2.0000     -10.253231      -279.0046
   3   2.0000     -10.210342      -277.8375
   4   2.0000     -10.207506      -277.7604
   5   2.0000     -10.197182      -277.4794
   6   2.0000     -10.195637      -277.4374
   7   2.0000     -10.190852      -277.3072
   8   2.0000     -10.185209      -277.1536
   9   2.0000     -10.183707      -277.1128
  10   2.0000      -7.976670      -217.0562
  11   2.0000      -5.944393      -161.7551
  12   2.0000      -5.940248      -161.6424
  13   2.0000      -5.939051      -161.6098
  14   2.0000      -1.057559       -28.7776
  15   2.0000      -0.886324       -24.1181
  16   2.0000      -0.820596       -22.3295
  17   2.0000      -0.751909       -20.4605
  18   2.0000      -0.731101       -19.8943
  19   2.0000      -0.691833       -18.8257
  20   2.0000      -0.625721       -17.0267
  21   2.0000      -0.591033       -16.0828
  22   2.0000      -0.572244       -15.5715
  23   2.0000      -0.531007       -14.4494
  24   2.0000      -0.504668       -13.7327
  25   2.0000      -0.471297       -12.8246
  26   2.0000      -0.450491       -12.2585
  27   2.0000      -0.426402       -11.6030
  28   2.0000      -0.423666       -11.5285
  29   2.0000      -0.410620       -11.1735
  30   2.0000      -0.391158       -10.6440
  31   2.0000      -0.379109       -10.3161
  32   2.0000      -0.363889        -9.9019
  33   2.0000      -0.353092        -9.6081
  34   2.0000      -0.346273        -9.4226
  35   2.0000      -0.323921        -8.8143
  36   2.0000      -0.262928        -7.1546
  37   2.0000      -0.249455        -6.7880
  38   2.0000      -0.194992        -5.3060
  39   0.0000      -0.050774        -1.3816
  40   0.0000       0.022263         0.6058
  41   0.0000       0.037301         1.0150
  42   0.0000       0.042241         1.1494
  43   0.0000       0.053525         1.4565

MULLIKEN ATOMIC CHARGES
-----------------------
   0 C :   -0.151531
   1 S :    0.133035
   2 C :   -0.149171
   3 C :    0.056571
   4 C :    0.104798
   5 C :   -0.012997
   6 C :    0.025654
   7 C :   -0.096016
   8 C :    0.161911
   9 O :   -0.187620
  10 H :    0.015289
  11 H :    0.023950
  12 H :   -0.033105
  13 H :   -0.021819
  14 H :   -0.047423
  15 H :    0.178475
Sum of atomic charges:   -0.0000000

LOEWDIN ATOMIC CHARGES
----------------------
   0 C :   -0.215291
   1 S :    0.478789
   2 C :   -0.199511
   3 C :   -0.069661
   4 C :   -0.045058
   5 C :   -0.048760
   6 C :   -0.022385
   7 C :   -0.106631
   8 C :    0.056836
   9 O :   -0.047410
  10 H :    0.023510
  11 H :    0.028292
  12 H :    0.025678
  13 H :    0.026504
  14 H :    0.020408
  15 H :    0.094690

  Mayer bond orders larger than 0.100000
B(  0-C ,  1-S ) :   1.1988 B(  0-C ,  2-C ) :   0.1168 B(  0-C ,  4-C ) :   1.4081
B(  0-C , 10-H ) :   0.9633 B(  1-S ,  2-C ) :   1.2043 B(  2-C ,  3-C ) :   1.4087
B(  2-C , 11-H ) :   0.9683 B(  3-C ,  4-C ) :   1.2218 B(  3-C ,  8-C ) :   1.1749
B(  4-C ,  5-C ) :   1.1687 B(  5-C ,  6-C ) :   1.5478 B(  5-C , 12-H ) :   0.9958
B(  6-C ,  7-C ) :   1.1782 B(  6-C , 13-H ) :   0.9782 B(  7-C ,  8-C ) :   1.4714
B(  7-C , 14-H ) :   0.9803 B(  8-C ,  9-O ) :   1.2391 B(  9-O , 15-H ) :   0.9602

Dispersion correction           -0.034715953
FINAL SINGLE POINT ENERGY      -781.511769735104

DIPOLE MOMENT
-------------
                                X             Y             Z
Electronic contribution:     -5.97591       1.24891       0.41971
Nuclear contribution   :      6.41001      -1.03778      -0.44715
                        -----------------------------------------
Total Dipole Moment    :      0.43411       0.21113      -0.02744
                        -----------------------------------------
Magnitude (a.u.)       :      0.48350
Magnitude (Debye)      :      1.22897

Rotational constants in cm-1:     0.070324     0.035096     0.023413
Rotational constants in MHz :  2108.271747  1052.144560   701.896318

                             ****ORCA TERMINATED NORMALLY****
TOTAL RUN TIME: 0 days 0 hours 5 minutes 35 seconds 205 msec
