                         Program Version 4.2.0 -  RELEASE  -
|  1> # ORCA input file
|  2> # SCF done        -20.153328707409          0.000212868365
|  3> ! B3LYP/G D3BJ Opt RIJCOSX def2-SVP def2/J
|  4> * xyz 0 1
|  5>    C        0.06700         1.19276        -0.06158
|  6>    C        1.33902         0.71562        -0.02521
|  7>    C        2.56848         1.56913        -0.01228
|  8>    C        3.05655         1.79983         1.41879
|  9>    C        1.36234        -0.70321         0.04379
| 10>    C        0.12443        -1.25319         0.05273
| 11>    S       -1.11164        -0.05958        -0.01867
| 12>    H       -0.25559         2.21374        -0.11557
| 13>    H        2.35136         2.53095        -0.48093
| 14>    H        3.35520         1.07687        -0.58824
| 15>    H        2.29194         2.31032         2.00017
| 16>    H        3.95750         2.40900         1.41862
| 17>    H        3.27848         0.85144         1.90292
| 18>    H        2.27073        -1.27825         0.07890
| 19>    H       -0.14767        -2.28903         0.09424
| 20> *
| 21>
| 22>                          ****END OF INPUT****
 Total Charge           Charge          ....    0
 Multiplicity           Mult            ....    1
 Number of Electrons    NEL             ....   60
Dispersion correction           -0.025963335
FINAL SINGLE POINT ENERGY      -631.383780521771
Dispersion correction            ... done
Dispersion correction           -0.025760972
FINAL SINGLE POINT ENERGY      -631.386139533910
Dispersion correction            ... done
Dispersion correction           -0.025717585
FINAL SINGLE POINT ENERGY      -631.386216384433
Dispersion correction            ... done
FINAL SINGLE POINT ENERGY      -631.386210034041
Dispersion correction            ... done
Dispersion correction           -0.025694807
FINAL SINGLE POINT ENERGY      -631.386242967285
Dispersion correction            ... done
Dispersion correction           -0.025695252
FINAL SINGLE POINT ENERGY      -631.386245595762
Dispersion correction            ... done
                    ***********************HURRAY********************

CARTESIAN COORDINATES (ANGSTROEM)
---------------------------------
  C      0.041042    1.190951   -0.070214
  C      1.328205    0.707401   -0.019119
  C      2.566490    1.566879    0.011007
  C      3.092649    1.829002    1.430177
  C      1.344073   -0.726911    0.041080
  C      0.091210   -1.283999    0.028918
  S     -1.140545   -0.073094   -0.051431
  H     -0.276230    2.231518   -0.124647
  H      2.349885    2.527621   -0.483658
  H      3.354171    1.081558   -0.590157
  H      2.332176    2.341527    2.040043
  H      3.996315    2.459127    1.410049
  H      3.348836    0.887362    1.941129
  H      2.262623   -1.314867    0.083969
  H     -0.182768   -2.337675    0.060534

 Multiplicity           Mult            ....    1
 Number of Electrons    NEL             ....   60
 Basis Dimension        Dim             ....  142

ORBITAL ENERGIES
----------------

  NO   OCC          E(Eh)            E(eV)
   0   2.0000     -88.867856     -2418.2173
   1   2.0000     -10.207758      -277.7672
   2   2.0000     -10.203130      -277.6413
   3   2.0000     -10.192850      -277.3616
   4   2.0000     -10.191986      -277.3380
   5   2.0000     -10.188048      -277.2309
   6   2.0000     -10.182598      -277.0826
   7   2.0000      -7.962978      -216.6836
   8   2.0000      -5.931054      -161.3922
   9   2.0000      -5.926913      -161.2795
  10   2.0000      -5.924544      -161.2150
  11   2.0000      -0.872839       -23.7512
  12   2.0000      -0.778242       -21.1770
  13   2.0000      -0.718000       -19.5378
  14   2.0000      -0.701953       -19.1011
  15   2.0000      -0.615450       -16.7472
  16   2.0000      -0.560907       -15.2631
  17   2.0000      -0.534141       -14.5347
  18   2.0000      -0.491350       -13.3703
  19   2.0000      -0.444980       -12.1085
  20   2.0000      -0.424884       -11.5617
  21   2.0000      -0.402441       -10.9510
  22   2.0000      -0.390978       -10.6391
  23   2.0000      -0.386571       -10.5191
  24   2.0000      -0.363127        -9.8812
  25   2.0000      -0.358892        -9.7659
  26   2.0000      -0.341047        -9.2804
  27   2.0000      -0.332909        -9.0589
  28   2.0000      -0.246011        -6.6943
  29   2.0000      -0.233331        -6.3493
  30   0.0000      -0.013010        -0.3540
  31   0.0000       0.044485         1.2105
  32   0.0000       0.055004         1.4967
  33   0.0000       0.071190         1.9372
  34   0.0000       0.089101         2.4246

MULLIKEN ATOMIC CHARGES
-----------------------
   0 C :   -0.130934
   1 C :   -0.039068
   2 C :    0.079654
   3 C :    0.010929
   4 C :    0.027148
   5 C :   -0.096787
   6 S :    0.087710
   7 H :    0.014843
   8 H :   -0.004565
   9 H :    0.003601
  10 H :    0.013168
  11 H :    0.014203
  12 H :    0.009877
  13 H :   -0.017961
  14 H :    0.028182
Sum of atomic charges:   -0.0000000

LOEWDIN ATOMIC CHARGES
----------------------
   0 C :   -0.205215
   1 C :   -0.063690
   2 C :   -0.027557
   3 C :   -0.051501
   4 C :   -0.069706
   5 C :   -0.194385
   6 S :    0.418876
   7 H :    0.021013
   8 H :    0.026368
   9 H :    0.027514
  10 H :    0.023459
  11 H :    0.022428
  12 H :    0.022155
  13 H :    0.026310
  14 H :    0.023932

  Mayer bond orders larger than 0.100000
B(  0-C ,  1-C ) :   1.5718 B(  0-C ,  6-S ) :   1.1513 B(  0-C ,  7-H ) :   0.9666
B(  1-C ,  2-C ) :   1.0616 B(  1-C ,  4-C ) :   1.2702 B(  2-C ,  3-C ) :   1.1044
B(  2-C ,  8-H ) :   0.9287 B(  2-C ,  9-H ) :   0.9273 B(  3-C , 10-H ) :   0.9686
B(  3-C , 11-H ) :   0.9648 B(  3-C , 12-H ) :   0.9692 B(  4-C ,  5-C ) :   1.5548
B(  4-C , 13-H ) :   0.9932 B(  5-C ,  6-S ) :   1.1767 B(  5-C , 14-H ) :   0.9673

Dispersion correction           -0.025693703
FINAL SINGLE POINT ENERGY      -631.386247492737

DIPOLE MOMENT
-------------
                                X             Y             Z
Electronic contribution:    -10.39230      -4.33479      -2.72812
Nuclear contribution   :     10.66345       4.39039       2.75105
                        -----------------------------------------
Total Dipole Moment    :      0.27115       0.05560       0.02293
                        -----------------------------------------
Magnitude (a.u.)       :      0.27774
Magnitude (Debye)      :      0.70595

Rotational constants in cm-1:     0.181803     0.046186     0.040233
Rotational constants in MHz :  5450.311930  1384.635959  1206.160438

                             ****ORCA TERMINATED NORMALLY****
TOTAL RUN TIME: 0 days 0 hours 3 minutes 29 seconds 734 msec
