                         Program Version 4.2.0 -  RELEASE  -
|  1> # ORCA input file
|  2> # SCF done        -53.829881538865          0.000675431783
|  3> ! B3LYP/G D3BJ Opt RIJCOSX def2-SVP def2/J
|  4> * xyz 0 1
|  5>    C        1.68332        -1.46493        -1.42417
|  6>    S        2.78693        -0.16395        -1.56697
|  7>    C        1.54366         0.99449        -1.18194
|  8>    C        0.34666         0.36098        -0.94474
|  9>    C        0.43303        -1.04769        -1.08410
| 10>    C       -0.71620        -1.97185        -0.82353
| 11>    C       -2.05325        -1.22621        -0.79339
| 12>    C       -2.55185        -0.94479        -2.20213
| 13>    F       -1.64350        -0.41183        -3.02728
| 14>    F       -2.96944        -2.07614        -2.79588
| 15>    F       -3.60535        -0.10692        -2.21498
| 16>    C       -1.93261         0.05162         0.05614
| 17>    O       -1.56197        -0.39444         1.34465
| 18>    C       -1.70575         0.55560         2.36999
| 19>    C       -0.93243         1.03626        -0.56380
| 20>    C        1.92090         2.38534        -1.15040
| 21>    C        1.11614         3.44182        -1.22845
| 22>    H        2.01899        -2.46831        -1.59551
| 23>    H       -0.57601        -2.43452         0.15647
| 24>    H       -0.74530        -2.76634        -1.57306
| 25>    H       -2.81281        -1.86815        -0.33431
| 26>    H       -2.91902         0.54456         0.11453
| 27>    H       -1.55300         0.01596         3.30204
| 28>    H       -2.70947         0.99637         2.36441
| 29>    H       -0.96409         1.35796         2.29887
| 30>    H       -0.72865         1.84114         0.14558
| 31>    H       -1.39375         1.48828        -1.44648
| 32>    H        2.99023         2.54602        -1.07798
| 33>    H        0.05260         3.36328        -1.35536
| 34>    H        1.51783         4.43969        -1.19283
| 35> *
| 36>
| 37>                          ****END OF INPUT****
 Total Charge           Charge          ....    0
 Multiplicity           Mult            ....    1
 Number of Electrons    NEL             ....  136
Dispersion correction           -0.065132438
FINAL SINGLE POINT ENERGY     -1237.357708089685
Dispersion correction            ... done
Dispersion correction           -0.064669743
FINAL SINGLE POINT ENERGY     -1237.361178417899
Dispersion correction            ... done
Dispersion correction           -0.064616215
FINAL SINGLE POINT ENERGY     -1237.361423668223
Dispersion correction            ... done
FINAL SINGLE POINT ENERGY     -1237.361371147317
FINAL SINGLE POINT ENERGY     -1237.361527154585
FINAL SINGLE POINT ENERGY     -1237.361554137026
Dispersion correction            ... done
Dispersion correction           -0.064566380
FINAL SINGLE POINT ENERGY     -1237.361563755763
Dispersion correction            ... done
Dispersion correction           -0.064558776
FINAL SINGLE POINT ENERGY     -1237.361565939899
Dispersion correction            ... done
                    ***********************HURRAY********************

CARTESIAN COORDINATES (ANGSTROEM)
---------------------------------
  C      1.707178   -1.469296   -1.439840
  S      2.812867   -0.153212   -1.549406
  C      1.568552    1.008546   -1.151209
  C      0.354229    0.368110   -0.938464
  C      0.440688   -1.053913   -1.099482
  C     -0.723533   -1.975697   -0.838620
  C     -2.076005   -1.243109   -0.817374
  C     -2.649648   -1.055017   -2.208649
  F     -1.806728   -0.434377   -3.054791
  F     -2.946610   -2.245651   -2.761857
  F     -3.789323   -0.333164   -2.179795
  C     -1.971369    0.061295   -0.009587
  O     -1.628076   -0.373778    1.292320
  C     -1.645966    0.603321    2.298628
  C     -0.946658    1.038687   -0.598393
  C      1.953235    2.410527   -1.104851
  C      1.161587    3.497639   -1.075924
  H      2.042034   -2.488423   -1.628228
  H     -0.596017   -2.433111    0.154211
  H     -0.749951   -2.800120   -1.567073
  H     -2.810218   -1.876597   -0.298504
  H     -2.960344    0.557203    0.016030
  H     -1.566798    0.076135    3.260490
  H     -2.588984    1.186382    2.290015
  H     -0.801191    1.313877    2.224185
  H     -0.782336    1.864973    0.109495
  H     -1.383140    1.504127   -1.498638
  H      3.036741    2.580645   -1.104489
  H      0.072752    3.443735   -1.110826
  H      1.608872    4.493565   -1.033986

 Multiplicity           Mult            ....    1
 Number of Electrons    NEL             ....  136
 Basis Dimension        Dim             ....  307

ORBITAL ENERGIES
----------------

  NO   OCC          E(Eh)            E(eV)
   0   2.0000     -88.869629     -2418.2656
   1   2.0000     -24.719596      -672.6544
   2   2.0000     -24.719288      -672.6460
   3   2.0000     -24.717785      -672.6051
   4   2.0000     -19.146012      -520.9895
   5   2.0000     -10.429884      -283.8116
   6   2.0000     -10.254848      -279.0486
   7   2.0000     -10.241378      -278.6821
   8   2.0000     -10.218143      -278.0498
   9   2.0000     -10.214016      -277.9375
  10   2.0000     -10.207763      -277.7674
  11   2.0000     -10.205084      -277.6944
  12   2.0000     -10.204020      -277.6655
  13   2.0000     -10.199383      -277.5393
  14   2.0000     -10.196831      -277.4699
  15   2.0000     -10.196582      -277.4631
  16   2.0000     -10.189789      -277.2782
  17   2.0000      -7.964856      -216.7348
  18   2.0000      -5.932844      -161.4409
  19   2.0000      -5.928993      -161.3361
  20   2.0000      -5.926198      -161.2600
  21   2.0000      -1.297177       -35.2980
  22   2.0000      -1.205490       -32.8030
  23   2.0000      -1.204362       -32.7724
  24   2.0000      -1.040801       -28.3216
  25   2.0000      -0.885789       -24.1035
  26   2.0000      -0.837794       -22.7975
  27   2.0000      -0.787192       -21.4206
  28   2.0000      -0.767219       -20.8771
  29   2.0000      -0.745927       -20.2977
  30   2.0000      -0.715028       -19.4569
  31   2.0000      -0.687589       -18.7103
  32   2.0000      -0.676458       -18.4074
  33   2.0000      -0.641801       -17.4643
  34   2.0000      -0.612053       -16.6548
  35   2.0000      -0.595882       -16.2148
  36   2.0000      -0.592048       -16.1104
  37   2.0000      -0.587889       -15.9973
  38   2.0000      -0.561638       -15.2829
  39   2.0000      -0.546581       -14.8732
  40   2.0000      -0.509088       -13.8530
  41   2.0000      -0.497812       -13.5462
  42   2.0000      -0.492137       -13.3917
  43   2.0000      -0.473468       -12.8837
  44   2.0000      -0.471851       -12.8397
  45   2.0000      -0.468603       -12.7513
  46   2.0000      -0.461539       -12.5591
  47   2.0000      -0.456280       -12.4160
  48   2.0000      -0.452119       -12.3028
  49   2.0000      -0.433538       -11.7972
  50   2.0000      -0.427630       -11.6364
  51   2.0000      -0.420109       -11.4317
  52   2.0000      -0.418473       -11.3872
  53   2.0000      -0.411344       -11.1932
  54   2.0000      -0.409489       -11.1427
  55   2.0000      -0.404756       -11.0140
  56   2.0000      -0.394106       -10.7242
  57   2.0000      -0.377427       -10.2703
  58   2.0000      -0.370257       -10.0752
  59   2.0000      -0.362994        -9.8776
  60   2.0000      -0.351491        -9.5646
  61   2.0000      -0.347315        -9.4509
  62   2.0000      -0.340224        -9.2580
  63   2.0000      -0.317982        -8.6527
  64   2.0000      -0.299508        -8.1500
  65   2.0000      -0.271544        -7.3891
  66   2.0000      -0.243057        -6.6139
  67   2.0000      -0.215953        -5.8764
  68   0.0000      -0.043774        -1.1912
  69   0.0000       0.020790         0.5657
  70   0.0000       0.033898         0.9224
  71   0.0000       0.047239         1.2854
  72   0.0000       0.066188         1.8011

MULLIKEN ATOMIC CHARGES
-----------------------
   0 C :   -0.133866
   1 S :    0.102623
   2 C :   -0.168243
   3 C :   -0.011832
   4 C :   -0.050813
   5 C :    0.172660
   6 C :   -0.135389
   7 C :    0.517684
   8 F :   -0.170716
   9 F :   -0.173531
  10 F :   -0.177014
  11 C :    0.147291
  12 O :   -0.384157
  13 C :    0.189687
  14 C :    0.114279
  15 C :    0.032371
  16 C :   -0.046194
  17 H :    0.010606
  18 H :    0.028383
  19 H :    0.015174
  20 H :    0.025685
  21 H :   -0.012079
  22 H :    0.022797
  23 H :   -0.002947
  24 H :    0.020385
  25 H :    0.009465
  26 H :    0.029667
  27 H :   -0.008178
  28 H :    0.016821
  29 H :    0.019379
Sum of atomic charges:    0.0000000

LOEWDIN ATOMIC CHARGES
----------------------
   0 C :   -0.198368
   1 S :    0.430527
   2 C :   -0.183613
   3 C :   -0.053206
   4 C :   -0.060745
   5 C :   -0.011898
   6 C :   -0.068477
   7 C :    0.173500
   8 F :   -0.060658
   9 F :   -0.065481
  10 F :   -0.069663
  11 C :    0.078407
  12 O :   -0.165454
  13 C :    0.070378
  14 C :   -0.038078
  15 C :   -0.040039
  16 C :   -0.062448
  17 H :    0.022531
  18 H :    0.042600
  19 H :    0.032316
  20 H :    0.045219
  21 H :    0.008002
  22 H :    0.023527
  23 H :    0.004917
  24 H :    0.007809
  25 H :    0.030280
  26 H :    0.034505
  27 H :    0.028578
  28 H :    0.019338
  29 H :    0.025692

  Mayer bond orders larger than 0.100000
B(  0-C ,  1-S ) :   1.1527 B(  0-C ,  4-C ) :   1.5380 B(  0-C , 17-H ) :   0.9671
B(  1-S ,  2-C ) :   1.1265 B(  2-C ,  3-C ) :   1.5030 B(  2-C , 15-C ) :   1.1168
B(  3-C ,  4-C ) :   1.2962 B(  3-C , 14-C ) :   1.0461 B(  4-C ,  5-C ) :   1.0337
B(  5-C ,  6-C ) :   1.0388 B(  5-C , 18-H ) :   0.8971 B(  5-C , 19-H ) :   0.9189
B(  6-C ,  7-C ) :   0.9770 B(  6-C , 11-C ) :   1.0018 B(  6-C , 20-H ) :   0.8897
B(  7-C ,  8-F ) :   1.1257 B(  7-C ,  9-F ) :   1.1293 B(  7-C , 10-F ) :   1.1207
B( 11-C , 12-O ) :   1.0266 B( 11-C , 14-C ) :   1.0304 B( 11-C , 21-H ) :   0.9196
B( 12-O , 13-C ) :   0.9915 B( 13-C , 22-H ) :   0.9771 B( 13-C , 23-H ) :   0.9599
B( 13-C , 24-H ) :   0.9627 B( 14-C , 25-H ) :   0.8940 B( 14-C , 26-H ) :   0.8928
B( 15-C , 16-C ) :   1.9042 B( 15-C , 27-H ) :   0.9445 B( 16-C , 28-H ) :   0.9527
B( 16-C , 29-H ) :   0.9411

Dispersion correction           -0.064552067
FINAL SINGLE POINT ENERGY     -1237.361563815854

DIPOLE MOMENT
-------------
                                X             Y             Z
Electronic contribution:     -5.83939     -10.78158     -16.82848
Nuclear contribution   :      5.79995      10.98518      17.65754
                        -----------------------------------------
Total Dipole Moment    :     -0.03944       0.20360       0.82906
                        -----------------------------------------
Magnitude (a.u.)       :      0.85460
Magnitude (Debye)      :      2.17223

Rotational constants in cm-1:     0.019315     0.010632     0.009299
Rotational constants in MHz :   579.044947   318.753450   278.773486

                             ****ORCA TERMINATED NORMALLY****
TOTAL RUN TIME: 0 days 0 hours 24 minutes 28 seconds 570 msec
