                         Program Version 4.2.0 -  RELEASE  -
|  1> # ORCA input file
|  2> # SCF done        -21.194655129600          0.000507345513
|  3> ! B3LYP/G D3BJ Opt RIJCOSX def2-SVP def2/J
|  4> * xyz 0 1
|  5>    C        1.22216         0.30188        -0.06783
|  6>    C        0.76318        -0.93042         0.22559
|  7>    C       -0.69040        -0.91652         0.18387
|  8>    C       -1.13272         0.32663        -0.13672
|  9>    C        0.08166         1.16610        -0.30901
| 10>    S        0.20023         2.74848        -0.68025
| 11>    C       -2.51450         0.70407        -0.26570
| 12>    C       -2.99828         1.89610        -0.61333
| 13>    H        2.23843         0.64127        -0.12401
| 14>    H        1.34740        -1.80279         0.45659
| 15>    H       -1.30300        -1.77790         0.37968
| 16>    H       -3.20388        -0.10482        -0.04833
| 17>    H       -2.36477         2.73339        -0.84512
| 18>    H       -4.05993         2.06359        -0.67578
| 19> *
| 20>
| 21>                          ****END OF INPUT****
 Total Charge           Charge          ....    0
 Multiplicity           Mult            ....    1
 Number of Electrons    NEL             ....   64
Dispersion correction           -0.027976451
FINAL SINGLE POINT ENERGY      -668.192074193526
Dispersion correction            ... done
Dispersion correction           -0.027654915
FINAL SINGLE POINT ENERGY      -668.195006907798
Dispersion correction            ... done
Dispersion correction           -0.027689216
FINAL SINGLE POINT ENERGY      -668.195123632162
Dispersion correction            ... done
FINAL SINGLE POINT ENERGY      -668.195150142184
FINAL SINGLE POINT ENERGY      -668.195153235031
FINAL SINGLE POINT ENERGY      -668.195151843333
FINAL SINGLE POINT ENERGY      -668.195115484966
FINAL SINGLE POINT ENERGY      -668.195042551285
FINAL SINGLE POINT ENERGY      -668.194989493607
Dispersion correction            ... done
Dispersion correction           -0.027724758
FINAL SINGLE POINT ENERGY      -668.194981394865
Dispersion correction            ... done
Dispersion correction           -0.027723349
FINAL SINGLE POINT ENERGY      -668.194975014361
Dispersion correction            ... done
                    ***********************HURRAY********************

CARTESIAN COORDINATES (ANGSTROEM)
---------------------------------
  C      1.260007    0.292828   -0.044478
  C      0.781041   -0.932340    0.274181
  C     -0.693370   -0.914393    0.182109
  C     -1.129228    0.324925   -0.186237
  C      0.112716    1.163275   -0.374062
  S      0.253353    2.707271   -0.888816
  C     -2.524735    0.700241   -0.337272
  C     -3.044248    1.925013   -0.532459
  H      2.291218    0.638000   -0.085225
  H      1.369763   -1.804094    0.562209
  H     -1.335415   -1.769968    0.397425
  H     -3.214037   -0.148440   -0.249945
  H     -2.415450    2.810890   -0.620256
  H     -4.126035    2.055851   -0.617524

 Multiplicity           Mult            ....    1
 Number of Electrons    NEL             ....   64
 Basis Dimension        Dim             ....  146

ORBITAL ENERGIES
----------------

  NO   OCC          E(Eh)            E(eV)
   0   2.0000     -88.842202     -2417.5192
   1   2.0000     -10.258286      -279.1421
   2   2.0000     -10.216353      -278.0011
   3   2.0000     -10.209995      -277.8281
   4   2.0000     -10.208833      -277.7965
   5   2.0000     -10.199899      -277.5534
   6   2.0000     -10.199718      -277.5484
   7   2.0000     -10.186638      -277.1925
   8   2.0000      -7.937525      -215.9910
   9   2.0000      -5.906475      -160.7234
  10   2.0000      -5.904407      -160.6671
  11   2.0000      -5.895141      -160.4150
  12   2.0000      -0.884451       -24.0671
  13   2.0000      -0.780301       -21.2331
  14   2.0000      -0.777138       -21.1470
  15   2.0000      -0.709103       -19.2957
  16   2.0000      -0.647155       -17.6100
  17   2.0000      -0.593999       -16.1635
  18   2.0000      -0.557730       -15.1766
  19   2.0000      -0.506650       -13.7866
  20   2.0000      -0.494757       -13.4630
  21   2.0000      -0.454094       -12.3565
  22   2.0000      -0.422689       -11.5020
  23   2.0000      -0.410320       -11.1654
  24   2.0000      -0.401101       -10.9145
  25   2.0000      -0.384718       -10.4687
  26   2.0000      -0.377720       -10.2783
  27   2.0000      -0.363200        -9.8832
  28   2.0000      -0.306527        -8.3410
  29   2.0000      -0.293209        -7.9786
  30   2.0000      -0.231873        -6.3096
  31   2.0000      -0.221926        -6.0389
  32   0.0000      -0.131953        -3.5906
  33   0.0000      -0.017506        -0.4764
  34   0.0000       0.046782         1.2730
  35   0.0000       0.065998         1.7959
  36   0.0000       0.083621         2.2755

MULLIKEN ATOMIC CHARGES
-----------------------
   0 C :    0.029776
   1 C :    0.051448
   2 C :   -0.041826
   3 C :    0.082953
   4 C :   -0.044458
   5 S :   -0.056501
   6 C :   -0.013527
   7 C :   -0.015945
   8 H :   -0.009745
   9 H :    0.000755
  10 H :   -0.007769
  11 H :   -0.018526
  12 H :    0.021207
  13 H :    0.022158
Sum of atomic charges:    0.0000000

LOEWDIN ATOMIC CHARGES
----------------------
   0 C :   -0.058270
   1 C :    0.009769
   2 C :   -0.007918
   3 C :   -0.051734
   4 C :   -0.120305
   5 S :    0.147836
   6 C :   -0.032306
   7 C :   -0.037506
   8 H :    0.028346
   9 H :    0.029429
  10 H :    0.026166
  11 H :    0.029258
  12 H :    0.012275
  13 H :    0.024960

  Mayer bond orders larger than 0.100000
B(  0-C ,  1-C ) :   1.6578 B(  0-C ,  4-C ) :   1.0611 B(  0-C ,  8-H ) :   1.0088
B(  1-C ,  2-C ) :   1.0241 B(  1-C ,  5-S ) :   0.1201 B(  1-C ,  9-H ) :   0.9942
B(  2-C ,  3-C ) :   1.6356 B(  2-C ,  7-C ) :   0.1121 B(  2-C , 10-H ) :   0.9944
B(  3-C ,  4-C ) :   0.9981 B(  3-C ,  6-C ) :   1.1413 B(  4-C ,  5-S ) :   1.7276
B(  6-C ,  7-C ) :   1.8910 B(  6-C , 11-H ) :   0.9523 B(  7-C , 12-H ) :   0.9388
B(  7-C , 13-H ) :   0.9427

Dispersion correction           -0.027723485
FINAL SINGLE POINT ENERGY      -668.194981369287

DIPOLE MOMENT
-------------
                                X             Y             Z
Electronic contribution:      4.11409       3.13721      -1.10601
Nuclear contribution   :     -4.12354      -3.87577       1.34523
                        -----------------------------------------
Total Dipole Moment    :     -0.00945      -0.73857       0.23922
                        -----------------------------------------
Magnitude (a.u.)       :      0.77640
Magnitude (Debye)      :      1.97345

Rotational constants in cm-1:     0.074990     0.062032     0.034016
Rotational constants in MHz :  2248.133041  1859.679581  1019.769721

                             ****ORCA TERMINATED NORMALLY****
TOTAL RUN TIME: 0 days 0 hours 7 minutes 11 seconds 658 msec
