                         Program Version 4.2.0 -  RELEASE  -
|  1> # ORCA input file
|  2> # SCF done        -33.853982360530          0.000443472520
|  3> ! B3LYP/G D3BJ Opt RIJCOSX def2-SVP def2/J
|  4> * xyz 0 1
|  5>    C       -0.92476         1.32359         0.14427
|  6>    C        0.30811         0.61255         0.13555
|  7>    C        1.55878         1.13157         0.10773
|  8>    S        2.81379        -0.09592         0.20843
|  9>    F        4.10426         1.26961         0.03808
| 10>    C        1.52597        -1.37374         0.08390
| 11>    C        0.28445        -0.84825         0.14551
| 12>    C       -0.98743        -1.50589         0.16895
| 13>    C       -2.12541        -0.78247         0.18430
| 14>    C       -2.11639         0.65819         0.18200
| 15>    C       -3.35555         1.42055         0.22110
| 16>    C       -4.57341         0.94559         0.46029
| 17>    H       -0.89394         2.40339         0.13300
| 18>    H        1.86792         2.15657         0.12003
| 19>    H        3.13010        -0.26404        -1.09093
| 20>    H        1.77211        -2.41842         0.12090
| 21>    H       -1.00654        -2.58564         0.16194
| 22>    H       -3.07925        -1.28557         0.18512
| 23>    H       -3.23090         2.48404         0.05704
| 24>    H       -4.77145        -0.09445         0.65510
| 25>    H       -5.43012         1.59694         0.48061
| 26> *
| 27>
| 28>                          ****END OF INPUT****
 Total Charge           Charge          ....    0
 Multiplicity           Mult            ....    1
 Number of Electrons    NEL             ....   94
Dispersion correction           -0.045273075
FINAL SINGLE POINT ENERGY      -883.950029018551
Dispersion correction            ... done
Dispersion correction           -0.045002794
FINAL SINGLE POINT ENERGY      -883.954472954375
Dispersion correction            ... done
Dispersion correction           -0.044901745
FINAL SINGLE POINT ENERGY      -883.955644497217
Dispersion correction            ... done
FINAL SINGLE POINT ENERGY      -883.956185088012
FINAL SINGLE POINT ENERGY      -883.956361177161
FINAL SINGLE POINT ENERGY      -883.956438861046
FINAL SINGLE POINT ENERGY      -883.956487637548
FINAL SINGLE POINT ENERGY      -883.956521287087
Dispersion correction            ... done
Dispersion correction           -0.044889939
FINAL SINGLE POINT ENERGY      -883.956533590868
Dispersion correction            ... done
Dispersion correction           -0.044887418
FINAL SINGLE POINT ENERGY      -883.956533943820
Dispersion correction            ... done
                    ***********************HURRAY********************

CARTESIAN COORDINATES (ANGSTROEM)
---------------------------------
  C     -0.933916    1.342108    0.195188
  C      0.310566    0.628288    0.126130
  C      1.567862    1.158551    0.060407
  S      2.825416   -0.068040    0.150310
  F      4.061591    1.310528   -0.058810
  C      1.541139   -1.373917    0.027221
  C      0.289713   -0.848696    0.131463
  C     -0.989021   -1.514265    0.216619
  C     -2.136184   -0.788631    0.259836
  C     -2.130462    0.669839    0.251927
  C     -3.379485    1.434515    0.308750
  C     -4.629859    0.947249    0.353613
  H     -0.917340    2.434750    0.195642
  H      1.902296    2.190302    0.048503
  H      3.381050   -0.449165   -1.026987
  H      1.805772   -2.433320    0.061744
  H     -1.016301   -2.606454    0.231065
  H     -3.095010   -1.305844    0.310254
  H     -3.247377    2.522631    0.312495
  H     -4.851451   -0.123038    0.352765
  H     -5.488660    1.620810    0.394784

 Multiplicity           Mult            ....    1
 Number of Electrons    NEL             ....   94
 Basis Dimension        Dim             ....  217

ORBITAL ENERGIES
----------------

  NO   OCC          E(Eh)            E(eV)
   0   2.0000     -88.962454     -2420.7915
   1   2.0000     -24.553019      -668.1216
   2   2.0000     -10.222801      -278.1766
   3   2.0000     -10.220750      -278.1207
   4   2.0000     -10.219131      -278.0767
   5   2.0000     -10.217208      -278.0244
   6   2.0000     -10.213343      -277.9192
   7   2.0000     -10.210755      -277.8488
   8   2.0000     -10.210727      -277.8480
   9   2.0000     -10.210275      -277.8357
  10   2.0000     -10.208056      -277.7753
  11   2.0000     -10.203909      -277.6625
  12   2.0000      -8.042369      -218.8440
  13   2.0000      -6.011358      -163.5774
  14   2.0000      -6.007791      -163.4803
  15   2.0000      -6.004992      -163.4042
  16   2.0000      -1.028331       -27.9823
  17   2.0000      -0.897989       -24.4355
  18   2.0000      -0.849749       -23.1229
  19   2.0000      -0.794739       -21.6260
  20   2.0000      -0.773885       -21.0585
  21   2.0000      -0.743429       -20.2297
  22   2.0000      -0.710206       -19.3257
  23   2.0000      -0.644439       -17.5361
  24   2.0000      -0.613787       -16.7020
  25   2.0000      -0.592769       -16.1301
  26   2.0000      -0.560001       -15.2384
  27   2.0000      -0.524411       -14.2700
  28   2.0000      -0.510136       -13.8815
  29   2.0000      -0.488315       -13.2877
  30   2.0000      -0.473907       -12.8957
  31   2.0000      -0.449955       -12.2439
  32   2.0000      -0.441975       -12.0268
  33   2.0000      -0.439055       -11.9473
  34   2.0000      -0.420518       -11.4429
  35   2.0000      -0.412811       -11.2332
  36   2.0000      -0.396655       -10.7935
  37   2.0000      -0.384127       -10.4526
  38   2.0000      -0.380067       -10.3422
  39   2.0000      -0.352318        -9.5871
  40   2.0000      -0.337380        -9.1806
  41   2.0000      -0.308752        -8.4016
  42   2.0000      -0.291217        -7.9244
  43   2.0000      -0.288501        -7.8505
  44   2.0000      -0.270391        -7.3577
  45   2.0000      -0.250974        -6.8294
  46   2.0000      -0.217973        -5.9313
  47   0.0000      -0.100708        -2.7404
  48   0.0000      -0.033984        -0.9247
  49   0.0000      -0.004360        -0.1186
  50   0.0000       0.027040         0.7358
  51   0.0000       0.048352         1.3157

MULLIKEN ATOMIC CHARGES
-----------------------
   0 C :   -0.073242
   1 C :    0.154176
   2 C :   -0.186189
   3 S :    0.488762
   4 F :   -0.519165
   5 C :   -0.207836
   6 C :    0.104048
   7 C :    0.018169
   8 C :    0.005172
   9 C :    0.110632
  10 C :   -0.012297
  11 C :   -0.017057
  12 H :   -0.022810
  13 H :    0.049688
  14 H :    0.096427
  15 H :    0.012410
  16 H :   -0.018948
  17 H :   -0.023682
  18 H :   -0.006361
  19 H :    0.018310
  20 H :    0.029793
Sum of atomic charges:   -0.0000000

LOEWDIN ATOMIC CHARGES
----------------------
   0 C :   -0.014910
   1 C :   -0.025797
   2 C :   -0.173295
   3 S :    0.837018
   4 F :   -0.516766
   5 C :   -0.199009
   6 C :   -0.051606
   7 C :   -0.007806
   8 C :   -0.013423
   9 C :   -0.013224
  10 C :   -0.021626
  11 C :   -0.036816
  12 H :    0.031094
  13 H :    0.036163
  14 H :    0.005424
  15 H :    0.019944
  16 H :    0.032607
  17 H :    0.028690
  18 H :    0.031550
  19 H :    0.021740
  20 H :    0.030049

  Mayer bond orders larger than 0.100000
B(  0-C ,  1-C ) :   1.1177 B(  0-C ,  9-C ) :   1.5216 B(  0-C , 12-H ) :   1.0049
B(  1-C ,  2-C ) :   1.4520 B(  1-C ,  6-C ) :   1.0983 B(  2-C ,  3-S ) :   1.0282
B(  2-C , 13-H ) :   0.9945 B(  3-S ,  4-F ) :   0.4953 B(  3-S ,  5-C ) :   0.9033
B(  3-S , 14-H ) :   0.8652 B(  5-C ,  6-C ) :   1.5723 B(  5-C , 15-H ) :   0.9449
B(  6-C ,  7-C ) :   1.1067 B(  7-C ,  8-C ) :   1.6356 B(  7-C , 16-H ) :   0.9908
B(  8-C ,  9-C ) :   1.1030 B(  8-C , 17-H ) :   0.9803 B(  9-C , 10-C ) :   1.0949
B( 10-C , 11-C ) :   1.9005 B( 10-C , 18-H ) :   0.9644 B( 11-C , 19-H ) :   0.9473
B( 11-C , 20-H ) :   0.9454

Dispersion correction           -0.044887810
FINAL SINGLE POINT ENERGY      -883.956535912185

DIPOLE MOMENT
-------------
                                X             Y             Z
Electronic contribution:     14.35142       0.39450       0.12964
Nuclear contribution   :    -15.91132      -1.32313      -0.27831
                        -----------------------------------------
Total Dipole Moment    :     -1.55991      -0.92863      -0.14868
                        -----------------------------------------
Magnitude (a.u.)       :      1.82147
Magnitude (Debye)      :      4.62981

Rotational constants in cm-1:     0.081613     0.013481     0.011595
Rotational constants in MHz :  2446.698965   404.150582   347.622198

                             ****ORCA TERMINATED NORMALLY****
TOTAL RUN TIME: 0 days 0 hours 13 minutes 59 seconds 114 msec
