                         Program Version 4.2.0 -  RELEASE  -
|  1> # ORCA input file
|  2> # SCF done        -29.560894116717          0.000625633311
|  3> ! B3LYP/G D3BJ Opt RIJCOSX def2-SVP def2/J
|  4> * xyz 0 1
|  5>    C        2.27399         0.08353         0.12824
|  6>    S        1.52021        -1.44163         0.44864
|  7>    C       -0.01706        -0.75547         0.16117
|  8>    C        0.06514         0.58601        -0.16535
|  9>    C        1.38457         1.06910        -0.18414
| 10>    C       -1.30991         1.07666        -0.39193
| 11>    O       -1.65918         2.19178        -0.68944
| 12>    C       -2.18632        -0.14494        -0.16104
| 13>    C       -1.38900        -1.19543         0.16365
| 14>    C       -3.61793        -0.17388        -0.27018
| 15>    C       -4.37998         0.86218        -0.62244
| 16>    H        3.34170         0.15136         0.19315
| 17>    H        1.66429         2.08086        -0.41265
| 18>    H       -1.70844        -2.19750         0.38687
| 19>    H       -4.07187        -1.13235        -0.04357
| 20>    H       -3.95388         1.82172        -0.85607
| 21>    H       -5.45069         0.77172        -0.68895
| 22> *
| 23>
| 24>                          ****END OF INPUT****
 Total Charge           Charge          ....    0
 Multiplicity           Mult            ....    1
 Number of Electrons    NEL             ....   84
Dispersion correction           -0.036948605
FINAL SINGLE POINT ENERGY      -819.543305905872
Dispersion correction            ... done
Dispersion correction           -0.036789651
FINAL SINGLE POINT ENERGY      -819.546420003835
Dispersion correction            ... done
Dispersion correction           -0.036776684
FINAL SINGLE POINT ENERGY      -819.546515554365
Dispersion correction            ... done
FINAL SINGLE POINT ENERGY      -819.546475288006
Dispersion correction            ... done
Dispersion correction           -0.036779354
FINAL SINGLE POINT ENERGY      -819.546529338369
Dispersion correction            ... done
Dispersion correction           -0.036781040
FINAL SINGLE POINT ENERGY      -819.546528220979
Dispersion correction            ... done
                    ***********************HURRAY********************

CARTESIAN COORDINATES (ANGSTROEM)
---------------------------------
  C      2.321780    0.091390    0.155499
  S      1.541553   -1.436926    0.487483
  C     -0.001209   -0.758269    0.162621
  C      0.092409    0.578524   -0.180089
  C      1.420006    1.074906   -0.188290
  C     -1.298483    1.064584   -0.428354
  O     -1.650502    2.176698   -0.747646
  C     -2.201783   -0.160460   -0.187208
  C     -1.398397   -1.208554    0.152897
  C     -3.644855   -0.175605   -0.294806
  C     -4.426511    0.879208   -0.591723
  H      3.405058    0.168397    0.236430
  H      1.706860    2.095955   -0.439296
  H     -1.736745   -2.216794    0.392946
  H     -4.113674   -1.147565   -0.099380
  H     -3.997751    1.862253   -0.790494
  H     -5.512117    0.765976   -0.644631

 Multiplicity           Mult            ....    1
 Number of Electrons    NEL             ....   84
 Basis Dimension        Dim             ....  188

ORBITAL ENERGIES
----------------

  NO   OCC          E(Eh)            E(eV)
   0   2.0000     -88.897303     -2419.0186
   1   2.0000     -19.143913      -520.9324
   2   2.0000     -10.288606      -279.9672
   3   2.0000     -10.231560      -278.4149
   4   2.0000     -10.226496      -278.2771
   5   2.0000     -10.223380      -278.1923
   6   2.0000     -10.213377      -277.9201
   7   2.0000     -10.208829      -277.7964
   8   2.0000     -10.201472      -277.5962
   9   2.0000     -10.196154      -277.4515
  10   2.0000     -10.189506      -277.2706
  11   2.0000      -7.991537      -217.4608
  12   2.0000      -5.959512      -162.1666
  13   2.0000      -5.955458      -162.0563
  14   2.0000      -5.953292      -161.9973
  15   2.0000      -1.045903       -28.4605
  16   2.0000      -0.907775       -24.7018
  17   2.0000      -0.840838       -22.8804
  18   2.0000      -0.774331       -21.0706
  19   2.0000      -0.753673       -20.5085
  20   2.0000      -0.701957       -19.1012
  21   2.0000      -0.652946       -17.7676
  22   2.0000      -0.613155       -16.6848
  23   2.0000      -0.559085       -15.2135
  24   2.0000      -0.551540       -15.0082
  25   2.0000      -0.528470       -14.3804
  26   2.0000      -0.488585       -13.2951
  27   2.0000      -0.475329       -12.9344
  28   2.0000      -0.448816       -12.2129
  29   2.0000      -0.440497       -11.9865
  30   2.0000      -0.432254       -11.7622
  31   2.0000      -0.420064       -11.4305
  32   2.0000      -0.401774       -10.9328
  33   2.0000      -0.396636       -10.7930
  34   2.0000      -0.388075       -10.5601
  35   2.0000      -0.373284       -10.1576
  36   2.0000      -0.364147        -9.9090
  37   2.0000      -0.339735        -9.2447
  38   2.0000      -0.285131        -7.7588
  39   2.0000      -0.274124        -7.4593
  40   2.0000      -0.262796        -7.1510
  41   2.0000      -0.214363        -5.8331
  42   0.0000      -0.105730        -2.8771
  43   0.0000      -0.019035        -0.5180
  44   0.0000      -0.001413        -0.0384
  45   0.0000       0.028057         0.7635
  46   0.0000       0.072048         1.9605

MULLIKEN ATOMIC CHARGES
-----------------------
   0 C :   -0.107665
   1 S :    0.149762
   2 C :   -0.084594
   3 C :   -0.036945
   4 C :    0.055300
   5 C :    0.168248
   6 O :   -0.136407
   7 C :   -0.015356
   8 C :   -0.026556
   9 C :   -0.030302
  10 C :   -0.005356
  11 H :    0.037435
  12 H :   -0.001467
  13 H :   -0.010336
  14 H :   -0.021866
  15 H :    0.042472
  16 H :    0.023633
Sum of atomic charges:   -0.0000000

LOEWDIN ATOMIC CHARGES
----------------------
   0 C :   -0.189510
   1 S :    0.456678
   2 C :   -0.178816
   3 C :   -0.111421
   4 C :   -0.029337
   5 C :    0.103373
   6 O :   -0.109992
   7 C :   -0.054320
   8 C :   -0.004734
   9 C :   -0.034220
  10 C :   -0.026298
  11 H :    0.027094
  12 H :    0.039385
  13 H :    0.029914
  14 H :    0.027915
  15 H :    0.028808
  16 H :    0.025483

  Mayer bond orders larger than 0.100000
B(  0-C ,  1-S ) :   1.1492 B(  0-C ,  4-C ) :   1.5248 B(  0-C , 11-H ) :   0.9648
B(  1-S ,  2-C ) :   1.1475 B(  2-C ,  3-C ) :   1.4728 B(  2-C ,  8-C ) :   1.0319
B(  3-C ,  4-C ) :   1.2861 B(  3-C ,  5-C ) :   0.9486 B(  4-C , 12-H ) :   0.9958
B(  5-C ,  6-O ) :   2.1916 B(  5-C ,  7-C ) :   0.9108 B(  7-C ,  8-C ) :   1.6274
B(  7-C ,  9-C ) :   1.1441 B(  8-C , 10-C ) :   0.1153 B(  8-C , 13-H ) :   1.0112
B(  9-C , 10-C ) :   1.8780 B(  9-C , 14-H ) :   0.9587 B( 10-C , 15-H ) :   0.9363
B( 10-C , 16-H ) :   0.9423

Dispersion correction           -0.036781727
FINAL SINGLE POINT ENERGY      -819.546521683015

DIPOLE MOMENT
-------------
                                X             Y             Z
Electronic contribution:      6.78595      -2.09595       1.04973
Nuclear contribution   :     -6.32402       1.26724      -0.78466
                        -----------------------------------------
Total Dipole Moment    :      0.46193      -0.82871       0.26507
                        -----------------------------------------
Magnitude (a.u.)       :      0.98509
Magnitude (Debye)      :      2.50390

Rotational constants in cm-1:     0.084292     0.021668     0.017238
Rotational constants in MHz :  2527.005530   649.583243   516.791690

                             ****ORCA TERMINATED NORMALLY****
TOTAL RUN TIME: 0 days 0 hours 6 minutes 38 seconds 239 msec
