                         Program Version 4.2.0 -  RELEASE  -
|  1> # ORCA input file
|  2> # SCF done        -29.743400900355          0.000556356273
|  3> ! B3LYP/G D3BJ Opt RIJCOSX def2-SVP def2/J
|  4> * xyz 0 1
|  5>    C       -1.53030        -1.22492         0.16810
|  6>    S       -2.70409         0.01370         0.25920
|  7>    C       -1.51997         1.24233         0.16743
|  8>    C       -0.25075         0.72195         0.07004
|  9>    C       -0.25687        -0.71554         0.07047
| 10>    C        0.97417        -1.40572        -0.02493
| 11>    C        2.15289        -0.72539        -0.11748
| 12>    C        3.43935        -1.49106        -0.21874
| 13>    C        2.15898         0.70760        -0.11837
| 14>    C        3.43941         1.48896        -0.22014
| 15>    C        0.98630         1.39937        -0.02617
| 16>    H       -1.83614        -2.25161         0.19129
| 17>    H       -1.81698         2.27160         0.19003
| 18>    H        0.96101        -2.48644        -0.02340
| 19>    H        3.24269        -2.56021        -0.19961
| 20>    H        4.10075        -1.25109         0.61328
| 21>    H        3.95824        -1.25641        -1.14781
| 22>    H        4.31267         0.85062        -0.28851
| 23>    H        3.55235         2.13222         0.65206
| 24>    H        3.41385         2.13017        -1.10077
| 25>    H        0.98919         2.48034        -0.02628
| 26> *
| 27>
| 28>                          ****END OF INPUT****
 Total Charge           Charge          ....    0
 Multiplicity           Mult            ....    1
 Number of Electrons    NEL             ....   86
Dispersion correction           -0.044324058
FINAL SINGLE POINT ENERGY      -784.925663332444
Dispersion correction            ... done
Dispersion correction           -0.044063189
FINAL SINGLE POINT ENERGY      -784.928849515341
Dispersion correction            ... done
Dispersion correction           -0.044023596
FINAL SINGLE POINT ENERGY      -784.928960104915
Dispersion correction            ... done
FINAL SINGLE POINT ENERGY      -784.928950277743
FINAL SINGLE POINT ENERGY      -784.928983812829
FINAL SINGLE POINT ENERGY      -784.928987658595
FINAL SINGLE POINT ENERGY      -784.928993455135
FINAL SINGLE POINT ENERGY      -784.929015089663
FINAL SINGLE POINT ENERGY      -784.928941902153
FINAL SINGLE POINT ENERGY      -784.929094416411
FINAL SINGLE POINT ENERGY      -784.929090996631
Dispersion correction            ... done
Dispersion correction           -0.044017747
FINAL SINGLE POINT ENERGY      -784.929096153460
Dispersion correction            ... done
Dispersion correction           -0.044026400
FINAL SINGLE POINT ENERGY      -784.929101454353
Dispersion correction            ... done
                    ***********************HURRAY********************

CARTESIAN COORDINATES (ANGSTROEM)
---------------------------------
  C     -1.567260   -1.239997    0.175828
  S     -2.733272    0.012827    0.291308
  C     -1.555787    1.255435    0.187078
  C     -0.273748    0.727510    0.068951
  C     -0.280219   -0.723715    0.061936
  C      0.963577   -1.416520   -0.045387
  C      2.154899   -0.733318   -0.127868
  C      3.451191   -1.497410   -0.232445
  C      2.161138    0.719436   -0.116945
  C      3.456212    1.496788   -0.209885
  C      0.975462    1.409974   -0.026969
  H     -1.872775   -2.284345    0.195706
  H     -1.849845    2.302807    0.216853
  H      0.962680   -2.510032   -0.057208
  H      3.269171   -2.581920   -0.214470
  H      4.134984   -1.258714    0.599543
  H      3.992880   -1.260850   -1.164382
  H      4.343964    0.857476   -0.134897
  H      3.524337    2.250187    0.590758
  H      3.524822    2.041020   -1.167030
  H      0.984338    2.503833   -0.020787

 Multiplicity           Mult            ....    1
 Number of Electrons    NEL             ....   86
 Basis Dimension        Dim             ....  208

ORBITAL ENERGIES
----------------

  NO   OCC          E(Eh)            E(eV)
   0   2.0000     -88.879263     -2418.5277
   1   2.0000     -10.205675      -277.7105
   2   2.0000     -10.205550      -277.7071
   3   2.0000     -10.193734      -277.3856
   4   2.0000     -10.193331      -277.3746
   5   2.0000     -10.192427      -277.3500
   6   2.0000     -10.192175      -277.3432
   7   2.0000     -10.187811      -277.2244
   8   2.0000     -10.186253      -277.1820
   9   2.0000     -10.185212      -277.1537
  10   2.0000     -10.184596      -277.1369
  11   2.0000      -7.973854      -216.9796
  12   2.0000      -5.941564      -161.6782
  13   2.0000      -5.937438      -161.5659
  14   2.0000      -5.936257      -161.5338
  15   2.0000      -0.884248       -24.0616
  16   2.0000      -0.831857       -22.6360
  17   2.0000      -0.763551       -20.7773
  18   2.0000      -0.753569       -20.5056
  19   2.0000      -0.718831       -19.5604
  20   2.0000      -0.672723       -18.3057
  21   2.0000      -0.661218       -17.9927
  22   2.0000      -0.594417       -16.1749
  23   2.0000      -0.563729       -15.3398
  24   2.0000      -0.551308       -15.0019
  25   2.0000      -0.508453       -13.8357
  26   2.0000      -0.463488       -12.6121
  27   2.0000      -0.457843       -12.4585
  28   2.0000      -0.430247       -11.7076
  29   2.0000      -0.423011       -11.5107
  30   2.0000      -0.411991       -11.2109
  31   2.0000      -0.405131       -11.0242
  32   2.0000      -0.403948       -10.9920
  33   2.0000      -0.391810       -10.6617
  34   2.0000      -0.383538       -10.4366
  35   2.0000      -0.382796       -10.4164
  36   2.0000      -0.349909        -9.5215
  37   2.0000      -0.346026        -9.4158
  38   2.0000      -0.331870        -9.0306
  39   2.0000      -0.317615        -8.6427
  40   2.0000      -0.278058        -7.5663
  41   2.0000      -0.237171        -6.4537
  42   2.0000      -0.197478        -5.3736
  43   0.0000      -0.052909        -1.4397
  44   0.0000       0.021884         0.5955
  45   0.0000       0.029989         0.8161
  46   0.0000       0.055786         1.5180
  47   0.0000       0.061465         1.6726

MULLIKEN ATOMIC CHARGES
-----------------------
   0 C :   -0.148233
   1 S :    0.128330
   2 C :   -0.148238
   3 C :    0.114513
   4 C :    0.111228
   5 C :   -0.066041
   6 C :   -0.045352
   7 C :    0.061062
   8 C :   -0.061667
   9 C :    0.076102
  10 C :   -0.061351
  11 H :    0.012608
  12 H :    0.012258
  13 H :   -0.045890
  14 H :    0.007461
  15 H :    0.030358
  16 H :    0.025815
  17 H :   -0.002720
  18 H :    0.023250
  19 H :    0.023836
  20 H :   -0.047327
Sum of atomic charges:   -0.0000000

LOEWDIN ATOMIC CHARGES
----------------------
   0 C :   -0.216796
   1 S :    0.473987
   2 C :   -0.217870
   3 C :   -0.051155
   4 C :   -0.051511
   5 C :   -0.032151
   6 C :   -0.028432
   7 C :   -0.048364
   8 C :   -0.028653
   9 C :   -0.048246
  10 C :   -0.027131
  11 H :    0.022487
  12 H :    0.022447
  13 H :    0.022852
  14 H :    0.028132
  15 H :    0.031730
  16 H :    0.031800
  17 H :    0.024611
  18 H :    0.034071
  19 H :    0.035160
  20 H :    0.023031

  Mayer bond orders larger than 0.100000
B(  0-C ,  1-S ) :   1.1997 B(  0-C ,  2-C ) :   0.1211 B(  0-C ,  4-C ) :   1.3984
B(  0-C , 11-H ) :   0.9641 B(  1-S ,  2-C ) :   1.1990 B(  2-C ,  3-C ) :   1.3958
B(  2-C , 12-H ) :   0.9648 B(  3-C ,  4-C ) :   1.2030 B(  3-C , 10-C ) :   1.1637
B(  4-C ,  5-C ) :   1.1638 B(  5-C ,  6-C ) :   1.5503 B(  5-C , 13-H ) :   0.9915
B(  6-C ,  7-C ) :   1.0844 B(  6-C ,  8-C ) :   1.2004 B(  7-C , 14-H ) :   0.9524
B(  7-C , 15-H ) :   0.9446 B(  7-C , 16-H ) :   0.9449 B(  8-C ,  9-C ) :   1.0690
B(  8-C , 10-C ) :   1.5551 B(  9-C , 17-H ) :   0.9481 B(  9-C , 18-H ) :   0.9567
B(  9-C , 19-H ) :   0.9536 B( 10-C , 20-H ) :   0.9969

Dispersion correction           -0.044026183
FINAL SINGLE POINT ENERGY      -784.929100874128

DIPOLE MOMENT
-------------
                                X             Y             Z
Electronic contribution:    -16.73908       0.00144       1.35442
Nuclear contribution   :     17.05730       0.02951      -1.38011
                        -----------------------------------------
Total Dipole Moment    :      0.31822       0.03095      -0.02570
                        -----------------------------------------
Magnitude (a.u.)       :      0.32076
Magnitude (Debye)      :      0.81530

Rotational constants in cm-1:     0.079909     0.020743     0.016571
Rotational constants in MHz :  2395.601090   621.853381   496.776327

                             ****ORCA TERMINATED NORMALLY****
TOTAL RUN TIME: 0 days 0 hours 16 minutes 32 seconds 672 msec
