                         Program Version 4.2.0 -  RELEASE  -
|  1> # ORCA input file
|  2> # SCF done        -23.085638814564          0.000216766051
|  3> ! B3LYP/G D3BJ Opt RIJCOSX def2-SVP def2/J
|  4> * xyz 0 1
|  5>    C       -1.15450        -0.02418        -0.00003
|  6>    O       -0.36035         1.05593        -0.00123
|  7>    C        0.91507         0.64290        -0.00089
|  8>    C        0.95820        -0.72009         0.00062
|  9>    C       -0.39354        -1.15579         0.00070
| 10>    F       -0.82945        -2.41294         0.00172
| 11>    F        2.04620        -1.48603         0.00145
| 12>    H       -2.21543         0.12080         0.00006
| 13>    H        1.69163         1.38016        -0.00174
| 14> *
| 15>
| 16>                          ****END OF INPUT****
 Total Charge           Charge          ....    0
 Multiplicity           Mult            ....    1
 Number of Electrons    NEL             ....   52
Dispersion correction           -0.011658906
FINAL SINGLE POINT ENERGY      -428.162007734354
Dispersion correction            ... done
Dispersion correction           -0.011707405
FINAL SINGLE POINT ENERGY      -428.162945922856
Dispersion correction            ... done
Dispersion correction           -0.011721676
FINAL SINGLE POINT ENERGY      -428.163033487195
Dispersion correction            ... done
FINAL SINGLE POINT ENERGY      -428.163070429777
Dispersion correction            ... done
Dispersion correction           -0.011728467
FINAL SINGLE POINT ENERGY      -428.163079711277
Dispersion correction            ... done
Dispersion correction           -0.011727494
FINAL SINGLE POINT ENERGY      -428.163081656772
Dispersion correction            ... done
                    ***********************HURRAY********************

CARTESIAN COORDINATES (ANGSTROEM)
---------------------------------
  C     -1.169830   -0.032382   -0.000021
  O     -0.361393    1.058146   -0.001166
  C      0.930877    0.643546   -0.000883
  C      0.964050   -0.721540    0.000576
  C     -0.399513   -1.160875    0.000778
  F     -0.807848   -2.422064    0.001783
  F      2.037155   -1.500572    0.001398
  H     -2.243038    0.135087   -0.000064
  H      1.707370    1.401414   -0.001741

 Multiplicity           Mult            ....    1
 Number of Electrons    NEL             ....   52
 Basis Dimension        Dim             ....  108

ORBITAL ENERGIES
----------------

  NO   OCC          E(Eh)            E(eV)
   0   2.0000     -24.718595      -672.6272
   1   2.0000     -24.718213      -672.6168
   2   2.0000     -19.222704      -523.0764
   3   2.0000     -10.284599      -279.8582
   4   2.0000     -10.284160      -279.8462
   5   2.0000     -10.256163      -279.0844
   6   2.0000     -10.255693      -279.0716
   7   2.0000      -1.233394       -33.5623
   8   2.0000      -1.224858       -33.3301
   9   2.0000      -1.126682       -30.6586
  10   2.0000      -0.816213       -22.2103
  11   2.0000      -0.765448       -20.8289
  12   2.0000      -0.630277       -17.1507
  13   2.0000      -0.619810       -16.8659
  14   2.0000      -0.586330       -15.9548
  15   2.0000      -0.535922       -14.5832
  16   2.0000      -0.513720       -13.9790
  17   2.0000      -0.510361       -13.8876
  18   2.0000      -0.470900       -12.8138
  19   2.0000      -0.464201       -12.6316
  20   2.0000      -0.453986       -12.3536
  21   2.0000      -0.438987       -11.9454
  22   2.0000      -0.434446       -11.8219
  23   2.0000      -0.360439        -9.8080
  24   2.0000      -0.280069        -7.6211
  25   2.0000      -0.249526        -6.7900
  26   0.0000      -0.008843        -0.2406
  27   0.0000       0.052714         1.4344
  28   0.0000       0.068504         1.8641
  29   0.0000       0.089894         2.4461
  30   0.0000       0.098155         2.6709

MULLIKEN ATOMIC CHARGES
-----------------------
   0 C :    0.050312
   1 O :   -0.206836
   2 C :    0.054408
   3 C :    0.194410
   4 C :    0.195868
   5 F :   -0.172125
   6 F :   -0.172753
   7 H :    0.029149
   8 H :    0.027567
Sum of atomic charges:    0.0000000

LOEWDIN ATOMIC CHARGES
----------------------
   0 C :    0.000259
   1 O :    0.011927
   2 C :    0.001374
   3 C :    0.005444
   4 C :    0.005601
   5 F :   -0.042942
   6 F :   -0.043331
   7 H :    0.031021
   8 H :    0.030648

  Mayer bond orders larger than 0.100000
B(  0-C ,  1-O ) :   1.1186 B(  0-C ,  2-C ) :   0.1232 B(  0-C ,  4-C ) :   1.4895
B(  0-C ,  7-H ) :   1.0029 B(  1-O ,  2-C ) :   1.1203 B(  2-C ,  3-C ) :   1.4937
B(  2-C ,  8-H ) :   1.0026 B(  3-C ,  4-C ) :   1.1822 B(  3-C ,  6-F ) :   1.1303
B(  4-C ,  5-F ) :   1.1313

Dispersion correction           -0.011727123
FINAL SINGLE POINT ENERGY      -428.163081713821

DIPOLE MOMENT
-------------
                                X             Y             Z
Electronic contribution:      1.48839      -4.60468       0.00420
Nuclear contribution   :     -1.65455       5.11771      -0.00467
                        -----------------------------------------
Total Dipole Moment    :     -0.16616       0.51303      -0.00048
                        -----------------------------------------
Magnitude (a.u.)       :      0.53927
Magnitude (Debye)      :      1.37071

Rotational constants in cm-1:     0.124691     0.109079     0.058182
Rotational constants in MHz :  3738.127700  3270.092202  1744.240703

                             ****ORCA TERMINATED NORMALLY****
TOTAL RUN TIME: 0 days 0 hours 2 minutes 8 seconds 215 msec
