                         Program Version 4.2.0 -  RELEASE  -
|  1> # ORCA input file
|  2> # SCF done        -31.861849945749          0.000436366985
|  3> ! B3LYP/G D3BJ Opt RIJCOSX def2-SVP def2/J
|  4> * xyz 0 1
|  5>    C       -1.53095        -1.23436         0.15692
|  6>    S       -2.70400         0.00000         0.24064
|  7>    C       -1.53095         1.23436         0.15692
|  8>    C       -0.25838         0.71991         0.06916
|  9>    C       -0.25838        -0.71991         0.06916
| 10>    C        0.98685        -1.39236        -0.01701
| 11>    F        0.98458        -2.74144        -0.01715
| 12>    C        2.15754        -0.70761        -0.09825
| 13>    C        2.15754         0.70761        -0.09825
| 14>    C        0.98685         1.39236        -0.01701
| 15>    F        0.98458         2.74144        -0.01715
| 16>    H       -1.82148        -2.26517         0.17665
| 17>    H       -1.82148         2.26517         0.17665
| 18>    H        3.09067        -1.24279        -0.16344
| 19>    H        3.09067         1.24279        -0.16344
| 20> *
| 21>
| 22>                          ****END OF INPUT****
 Total Charge           Charge          ....    0
 Multiplicity           Mult            ....    1
 Number of Electrons    NEL             ....   86
Dispersion correction           -0.033259922
FINAL SINGLE POINT ENERGY      -904.658911512879
Dispersion correction            ... done
Dispersion correction           -0.033201763
FINAL SINGLE POINT ENERGY      -904.660809417435
Dispersion correction            ... done
Dispersion correction           -0.033196298
FINAL SINGLE POINT ENERGY      -904.660898409645
Dispersion correction            ... done
Dispersion correction           -0.033196431
FINAL SINGLE POINT ENERGY      -904.660891550114
Dispersion correction            ... done
Dispersion correction           -0.033197543
FINAL SINGLE POINT ENERGY      -904.660906725767
Dispersion correction            ... done
                    ***********************HURRAY********************

CARTESIAN COORDINATES (ANGSTROEM)
---------------------------------
  C     -1.540943   -1.250451    0.160605
  S     -2.709442   -0.000003    0.251260
  C     -1.540946    1.250451    0.160604
  C     -0.258556    0.725404    0.064259
  C     -0.258555   -0.725401    0.064260
  C      0.992953   -1.406608   -0.023442
  F      0.974897   -2.747767   -0.028890
  C      2.169342   -0.716555   -0.094659
  C      2.169342    0.716554   -0.094659
  C      0.992953    1.406610   -0.023442
  F      0.974903    2.747768   -0.028893
  H     -1.834802   -2.297319    0.179128
  H     -1.834807    2.297319    0.179129
  H      3.108659   -1.267598   -0.155432
  H      3.108661    1.267596   -0.155428

 Multiplicity           Mult            ....    1
 Number of Electrons    NEL             ....   86
 Basis Dimension        Dim             ....  178

ORBITAL ENERGIES
----------------

  NO   OCC          E(Eh)            E(eV)
   0   2.0000     -88.899710     -2419.0841
   1   2.0000     -24.703771      -672.2238
   2   2.0000     -24.703754      -672.2233
   3   2.0000     -10.278448      -279.6908
   4   2.0000     -10.278360      -279.6884
   5   2.0000     -10.227262      -278.2980
   6   2.0000     -10.227182      -278.2958
   7   2.0000     -10.216930      -278.0168
   8   2.0000     -10.216751      -278.0119
   9   2.0000     -10.204885      -277.6890
  10   2.0000     -10.204658      -277.6829
  11   2.0000      -7.994239      -217.5343
  12   2.0000      -5.961945      -162.2328
  13   2.0000      -5.957741      -162.1184
  14   2.0000      -5.956689      -162.0898
  15   2.0000      -1.212841       -33.0031
  16   2.0000      -1.212674       -32.9985
  17   2.0000      -0.906948       -24.6793
  18   2.0000      -0.843639       -22.9566
  19   2.0000      -0.767408       -20.8822
  20   2.0000      -0.753090       -20.4926
  21   2.0000      -0.714209       -19.4346
  22   2.0000      -0.632343       -17.2069
  23   2.0000      -0.613268       -16.6879
  24   2.0000      -0.592367       -16.1191
  25   2.0000      -0.555442       -15.1144
  26   2.0000      -0.543464       -14.7884
  27   2.0000      -0.517976       -14.0948
  28   2.0000      -0.481159       -13.0930
  29   2.0000      -0.480570       -13.0770
  30   2.0000      -0.469859       -12.7855
  31   2.0000      -0.451187       -12.2774
  32   2.0000      -0.445955       -12.1351
  33   2.0000      -0.420989       -11.4557
  34   2.0000      -0.414690       -11.2843
  35   2.0000      -0.405315       -11.0292
  36   2.0000      -0.388797       -10.5797
  37   2.0000      -0.368745       -10.0341
  38   2.0000      -0.362712        -9.8699
  39   2.0000      -0.340207        -9.2575
  40   2.0000      -0.285123        -7.7586
  41   2.0000      -0.268069        -7.2945
  42   2.0000      -0.212877        -5.7927
  43   0.0000      -0.067751        -1.8436
  44   0.0000       0.003281         0.0893
  45   0.0000       0.025941         0.7059
  46   0.0000       0.034912         0.9500
  47   0.0000       0.067964         1.8494

MULLIKEN ATOMIC CHARGES
-----------------------
   0 C :   -0.148790
   1 S :    0.155076
   2 C :   -0.148782
   3 C :    0.038434
   4 C :    0.038446
   5 C :    0.273701
   6 F :   -0.193895
   7 C :   -0.071261
   8 C :   -0.071252
   9 C :    0.273732
  10 F :   -0.193899
  11 H :    0.031319
  12 H :    0.031318
  13 H :   -0.007074
  14 H :   -0.007074
Sum of atomic charges:    0.0000000

LOEWDIN ATOMIC CHARGES
----------------------
   0 C :   -0.199853
   1 S :    0.499829
   2 C :   -0.199850
   3 C :   -0.071540
   4 C :   -0.071540
   5 C :    0.076611
   6 F :   -0.064450
   7 C :   -0.060015
   8 C :   -0.060015
   9 C :    0.076612
  10 F :   -0.064450
  11 H :    0.031355
  12 H :    0.031354
  13 H :    0.037975
  14 H :    0.037975

  Mayer bond orders larger than 0.100000
B(  0-C ,  1-S ) :   1.2122 B(  0-C ,  2-C ) :   0.1171 B(  0-C ,  4-C ) :   1.3972
B(  0-C , 11-H ) :   0.9706 B(  1-S ,  2-C ) :   1.2122 B(  2-C ,  3-C ) :   1.3973
B(  2-C , 12-H ) :   0.9706 B(  3-C ,  4-C ) :   1.2072 B(  3-C ,  9-C ) :   1.1378
B(  4-C ,  5-C ) :   1.1378 B(  5-C ,  6-F ) :   1.1251 B(  5-C ,  7-C ) :   1.5289
B(  7-C ,  8-C ) :   1.1307 B(  7-C , 13-H ) :   0.9854 B(  8-C ,  9-C ) :   1.5289
B(  8-C , 14-H ) :   0.9854 B(  9-C , 10-F ) :   1.1251

Dispersion correction           -0.033197507
FINAL SINGLE POINT ENERGY      -904.660907418145

DIPOLE MOMENT
-------------
                                X             Y             Z
Electronic contribution:     -1.08400       0.00001       0.03758
Nuclear contribution   :      0.82167      -0.00000      -0.01447
                        -----------------------------------------
Total Dipole Moment    :     -0.26233       0.00001       0.02311
                        -----------------------------------------
Magnitude (a.u.)       :      0.26335
Magnitude (Debye)      :      0.66938

Rotational constants in cm-1:     0.041033     0.034093     0.018622
Rotational constants in MHz :  1230.140271  1022.092381   558.264041

                             ****ORCA TERMINATED NORMALLY****
TOTAL RUN TIME: 0 days 0 hours 4 minutes 26 seconds 244 msec
