                         Program Version 4.2.0 -  RELEASE  -
|  1> # ORCA input file
|  2> # SCF done        -27.573396668192          0.000673480482
|  3> ! B3LYP/G D3BJ Opt RIJCOSX def2-SVP def2/J
|  4> * xyz 0 1
|  5>    C       -1.93402        -0.53959        -0.01428
|  6>    N       -1.49486         0.76493         0.14926
|  7>    C       -0.14658         0.67627         0.05368
|  8>    N        1.02240         1.35414         0.08081
|  9>    C        2.00437         0.37946        -0.12283
| 10>    N        1.50548        -0.82645        -0.26793
| 11>    C        0.16404        -0.67357        -0.16238
| 12>    N       -0.98489        -1.40573        -0.19863
| 13>    C        3.39741         0.73121        -0.15866
| 14>    C        4.36853        -0.15330        -0.36633
| 15>    H       -2.97655        -0.78346         0.01396
| 16>    H       -2.06851         1.57725         0.30176
| 17>    H        1.18371         2.33850         0.21322
| 18>    H        3.61830         1.78061        -0.00525
| 19>    H        4.12899        -1.19011        -0.51953
| 20>    H        5.40450         0.13561        -0.38984
| 21> *
| 22>
| 23>                          ****END OF INPUT****
 Total Charge           Charge          ....    0
 Multiplicity           Mult            ....    1
 Number of Electrons    NEL             ....   70
Dispersion correction           -0.026828733
FINAL SINGLE POINT ENERGY      -450.908882420346
Dispersion correction            ... done
Dispersion correction           -0.026852662
FINAL SINGLE POINT ENERGY      -450.911427910099
Dispersion correction            ... done
Dispersion correction           -0.026846661
FINAL SINGLE POINT ENERGY      -450.911592609123
Dispersion correction            ... done
FINAL SINGLE POINT ENERGY      -450.911627264365
Dispersion correction            ... done
Dispersion correction           -0.026836669
FINAL SINGLE POINT ENERGY      -450.911628658168
Dispersion correction            ... done
Dispersion correction           -0.026836452
FINAL SINGLE POINT ENERGY      -450.911626154315
Dispersion correction            ... done
                    ***********************HURRAY********************

CARTESIAN COORDINATES (ANGSTROEM)
---------------------------------
  C     -1.967628   -0.552214   -0.013095
  N     -1.520690    0.768091    0.150722
  C     -0.160858    0.681813    0.047816
  N      1.023411    1.356751    0.069755
  C      2.009356    0.369097   -0.140865
  N      1.491571   -0.836939   -0.290151
  C      0.143040   -0.657513   -0.174218
  N     -1.002424   -1.414967   -0.208453
  C      3.416916    0.728538   -0.171843
  C      4.408857   -0.154929   -0.355235
  H     -3.032179   -0.781995    0.030955
  H     -2.100093    1.577045    0.331455
  H      1.200497    2.339681    0.228416
  H      3.650345    1.789654   -0.029067
  H      4.180155   -1.214438   -0.497038
  H      5.452043    0.168093   -0.372125

 Multiplicity           Mult            ....    1
 Number of Electrons    NEL             ....   70
 Basis Dimension        Dim             ....  170

ORBITAL ENERGIES
----------------

  NO   OCC          E(Eh)            E(eV)
   0   2.0000     -14.398393      -391.8002
   1   2.0000     -14.396023      -391.7357
   2   2.0000     -14.306746      -389.3063
   3   2.0000     -14.303224      -389.2105
   4   2.0000     -10.249212      -278.8953
   5   2.0000     -10.246197      -278.8132
   6   2.0000     -10.246191      -278.8130
   7   2.0000     -10.210030      -277.8290
   8   2.0000     -10.199444      -277.5410
   9   2.0000     -10.185410      -277.1591
  10   2.0000      -1.033276       -28.1169
  11   2.0000      -0.983328       -26.7577
  12   2.0000      -0.891428       -24.2570
  13   2.0000      -0.850783       -23.1510
  14   2.0000      -0.783869       -21.3302
  15   2.0000      -0.718324       -19.5466
  16   2.0000      -0.641105       -17.4454
  17   2.0000      -0.635681       -17.2978
  18   2.0000      -0.596295       -16.2260
  19   2.0000      -0.588109       -16.0033
  20   2.0000      -0.550379       -14.9766
  21   2.0000      -0.502958       -13.6862
  22   2.0000      -0.472349       -12.8533
  23   2.0000      -0.471859       -12.8399
  24   2.0000      -0.450015       -12.2455
  25   2.0000      -0.429093       -11.6762
  26   2.0000      -0.418255       -11.3813
  27   2.0000      -0.397867       -10.8265
  28   2.0000      -0.365335        -9.9413
  29   2.0000      -0.328546        -8.9402
  30   2.0000      -0.293546        -7.9878
  31   2.0000      -0.288926        -7.8621
  32   2.0000      -0.255007        -6.9391
  33   2.0000      -0.252479        -6.8703
  34   2.0000      -0.198968        -5.4142
  35   0.0000      -0.032805        -0.8927
  36   0.0000       0.029325         0.7980
  37   0.0000       0.031792         0.8651
  38   0.0000       0.044364         1.2072
  39   0.0000       0.082323         2.2401

MULLIKEN ATOMIC CHARGES
-----------------------
   0 C :    0.099319
   1 N :   -0.099398
   2 C :    0.049500
   3 N :   -0.081730
   4 C :    0.027097
   5 N :   -0.088602
   6 C :   -0.073542
   7 N :   -0.110042
   8 C :   -0.005480
   9 C :   -0.005937
  10 H :    0.011028
  11 H :    0.127969
  12 H :    0.120630
  13 H :   -0.032365
  14 H :    0.044813
  15 H :    0.016741
Sum of atomic charges:   -0.0000000

LOEWDIN ATOMIC CHARGES
----------------------
   0 C :    0.021564
   1 N :    0.039614
   2 C :   -0.022551
   3 N :    0.045962
   4 C :    0.011318
   5 N :   -0.113643
   6 C :   -0.061980
   7 N :   -0.112344
   8 C :   -0.056027
   9 C :   -0.026540
  10 H :    0.016922
  11 H :    0.088555
  12 H :    0.086676
  13 H :    0.022678
  14 H :    0.035262
  15 H :    0.024535

  Mayer bond orders larger than 0.100000
B(  0-C ,  1-N ) :   1.1206 B(  0-C ,  7-N ) :   1.6851 B(  0-C , 10-H ) :   0.9762
B(  1-N ,  2-C ) :   1.2151 B(  1-N , 11-H ) :   0.9352 B(  2-C ,  3-N ) :   1.2102
B(  2-C ,  6-C ) :   1.2899 B(  3-N ,  4-C ) :   1.1083 B(  3-N , 12-H ) :   0.9263
B(  4-C ,  5-N ) :   1.6521 B(  4-C ,  8-C ) :   1.0952 B(  5-N ,  6-C ) :   1.3708
B(  6-C ,  7-N ) :   1.3623 B(  8-C ,  9-C ) :   1.9298 B(  8-C , 13-H ) :   0.9394
B(  9-C , 14-H ) :   0.9474 B(  9-C , 15-H ) :   0.9380

Dispersion correction           -0.026837178
FINAL SINGLE POINT ENERGY      -450.911624136935

DIPOLE MOMENT
-------------
                                X             Y             Z
Electronic contribution:     -5.09863      -0.76650       0.16777
Nuclear contribution   :      4.40845       3.33800       0.29580
                        -----------------------------------------
Total Dipole Moment    :     -0.69018       2.57150       0.46357
                        -----------------------------------------
Magnitude (a.u.)       :      2.70257
Magnitude (Debye)      :      6.86939

Rotational constants in cm-1:     0.159693     0.029910     0.025192
Rotational constants in MHz :  4787.461451   896.690151   755.246925

                             ****ORCA TERMINATED NORMALLY****
TOTAL RUN TIME: 0 days 0 hours 5 minutes 1 seconds 104 msec
