                         Program Version 4.2.0 -  RELEASE  -
|  1> # ORCA input file
|  2> # SCF done        -48.281244837309          0.000347331767
|  3> ! B3LYP/G D3BJ Opt RIJCOSX def2-SVP def2/J
|  4> * xyz 0 1
|  5>    C        0.51434         0.89186        -1.00459
|  6>    C       -0.46292         1.87123        -0.94745
|  7>    O       -0.26657         3.06040        -1.62415
|  8>    C        0.02352         4.18002        -0.80468
|  9>    C        1.45133         4.15219        -0.25456
| 10>    C        2.48260         4.26024        -1.37078
| 11>    C       -1.64919         1.62853        -0.23299
| 12>    C       -1.79979         0.40543         0.40371
| 13>    C       -0.81522        -0.57856         0.34544
| 14>    C        0.34962        -0.32864        -0.37109
| 15>    O       -1.09618        -1.73362         1.00684
| 16>    C       -0.17540        -2.80281         0.93514
| 17>    C       -0.78996        -4.00193         1.65145
| 18>    C       -2.00321        -4.53965         0.90322
| 19>    C       -2.70728         2.63691        -0.21270
| 20>    C       -3.59349         2.79898         0.76014
| 21>    H        1.41586         1.08801        -1.56504
| 22>    H       -0.69242         4.24011         0.02659
| 23>    H       -0.11257         5.04863        -1.45496
| 24>    H        1.59478         3.21876         0.29540
| 25>    H        1.56765         4.97996         0.44741
| 26>    H        2.30426         3.48927        -2.11627
| 27>    H        3.48951         4.14196        -0.97731
| 28>    H        2.41270         5.22938        -1.86000
| 29>    H       -2.70915         0.18023         0.93781
| 30>    H        1.13347        -1.06570        -0.44335
| 31>    H        0.77036        -2.51794         1.41869
| 32>    H        0.02842        -3.05874        -0.11386
| 33>    H       -1.08553        -3.68937         2.65390
| 34>    H       -0.02856        -4.77861         1.74264
| 35>    H       -2.74157        -3.75165         0.78239
| 36>    H       -2.45585        -5.36137         1.45235
| 37>    H       -1.71575        -4.89922        -0.08263
| 38>    H       -2.72438         3.29018        -1.07633
| 39>    H       -3.58713         2.18926         1.64800
| 40>    H       -4.35375         3.55966         0.70957
| 41> *
| 42>
| 43>                          ****END OF INPUT****
 Total Charge           Charge          ....    0
 Multiplicity           Mult            ....    1
 Number of Electrons    NEL             ....  120
Dispersion correction           -0.063884276
FINAL SINGLE POINT ENERGY      -695.508325318712
Dispersion correction            ... done
Dispersion correction           -0.063508168
FINAL SINGLE POINT ENERGY      -695.512061443532
Dispersion correction            ... done
Dispersion correction           -0.063473142
FINAL SINGLE POINT ENERGY      -695.512300579711
Dispersion correction            ... done
FINAL SINGLE POINT ENERGY      -695.511644200608
FINAL SINGLE POINT ENERGY      -695.511757195547
FINAL SINGLE POINT ENERGY      -695.511814843600
FINAL SINGLE POINT ENERGY      -695.511763325223
FINAL SINGLE POINT ENERGY      -695.511741976742
FINAL SINGLE POINT ENERGY      -695.511735695363
FINAL SINGLE POINT ENERGY      -695.511742645268
Dispersion correction            ... done
Dispersion correction           -0.063637793
FINAL SINGLE POINT ENERGY      -695.511754475115
Dispersion correction            ... done
Dispersion correction           -0.063620523
FINAL SINGLE POINT ENERGY      -695.511765460845
Dispersion correction            ... done
                    ***********************HURRAY********************

CARTESIAN COORDINATES (ANGSTROEM)
---------------------------------
  C      0.469740    0.959601   -1.197457
  C     -0.503682    1.947723   -1.054764
  O     -0.316159    3.165630   -1.662003
  C      0.021609    4.261182   -0.803727
  C      1.366406    4.101058   -0.103971
  C      2.561244    4.014825   -1.049390
  C     -1.684219    1.674721   -0.320621
  C     -1.812303    0.418243    0.286914
  C     -0.818589   -0.561930    0.171223
  C      0.322809   -0.295849   -0.601309
  O     -1.051316   -1.734599    0.818408
  C     -0.161984   -2.819843    0.625926
  C     -0.567842   -3.954747    1.549673
  C     -2.001041   -4.441543    1.343462
  C     -2.757393    2.682392   -0.269747
  C     -3.745617    2.756110    0.634025
  H      1.358280    1.186101   -1.789334
  H     -0.773032    4.410816   -0.051227
  H      0.028193    5.141661   -1.465446
  H      1.328459    3.205542    0.540079
  H      1.486849    4.959213    0.580673
  H      2.447887    3.182071   -1.759438
  H      3.497850    3.859550   -0.490541
  H      2.671177    4.935998   -1.645613
  H     -2.715688    0.162020    0.841713
  H      1.100169   -1.045691   -0.744437
  H      0.875875   -2.509579    0.848224
  H     -0.197215   -3.143225   -0.433857
  H     -0.428610   -3.618701    2.592142
  H      0.145641   -4.781347    1.387265
  H     -2.717272   -3.626874    1.523355
  H     -2.242766   -5.266359    2.031031
  H     -2.155419   -4.806643    0.314199
  H     -2.718193    3.426957   -1.071958
  H     -3.827846    2.058494    1.473022
  H     -4.513452    3.530410    0.561457

 Multiplicity           Mult            ....    1
 Number of Electrons    NEL             ....  120
 Basis Dimension        Dim             ....  324

ORBITAL ENERGIES
----------------

  NO   OCC          E(Eh)            E(eV)
   0   2.0000     -19.160303      -521.3783
   1   2.0000     -19.142955      -520.9063
   2   2.0000     -10.246023      -278.8084
   3   2.0000     -10.243471      -278.7390
   4   2.0000     -10.234390      -278.4919
   5   2.0000     -10.233672      -278.4724
   6   2.0000     -10.196155      -277.4515
   7   2.0000     -10.192830      -277.3610
   8   2.0000     -10.191542      -277.3260
   9   2.0000     -10.190222      -277.2900
  10   2.0000     -10.188525      -277.2439
  11   2.0000     -10.186043      -277.1763
  12   2.0000     -10.185273      -277.1554
  13   2.0000     -10.184934      -277.1461
  14   2.0000     -10.179632      -277.0019
  15   2.0000     -10.179189      -276.9898
  16   2.0000      -1.056457       -28.7477
  17   2.0000      -1.036886       -28.2151
  18   2.0000      -0.848021       -23.0758
  19   2.0000      -0.791802       -21.5460
  20   2.0000      -0.779435       -21.2095
  21   2.0000      -0.774785       -21.0830
  22   2.0000      -0.732525       -19.9330
  23   2.0000      -0.717670       -19.5288
  24   2.0000      -0.687886       -18.7183
  25   2.0000      -0.664784       -18.0897
  26   2.0000      -0.630207       -17.1488
  27   2.0000      -0.609407       -16.5828
  28   2.0000      -0.591791       -16.1034
  29   2.0000      -0.570821       -15.5328
  30   2.0000      -0.550401       -14.9772
  31   2.0000      -0.527347       -14.3499
  32   2.0000      -0.505618       -13.7586
  33   2.0000      -0.497311       -13.5325
  34   2.0000      -0.482995       -13.1430
  35   2.0000      -0.475959       -12.9515
  36   2.0000      -0.455171       -12.3858
  37   2.0000      -0.453153       -12.3309
  38   2.0000      -0.438907       -11.9433
  39   2.0000      -0.433008       -11.7827
  40   2.0000      -0.428757       -11.6671
  41   2.0000      -0.423271       -11.5178
  42   2.0000      -0.414538       -11.2801
  43   2.0000      -0.408230       -11.1085
  44   2.0000      -0.389034       -10.5861
  45   2.0000      -0.383106       -10.4248
  46   2.0000      -0.377952       -10.2846
  47   2.0000      -0.367175        -9.9913
  48   2.0000      -0.362581        -9.8663
  49   2.0000      -0.355712        -9.6794
  50   2.0000      -0.348588        -9.4855
  51   2.0000      -0.344842        -9.3836
  52   2.0000      -0.340928        -9.2771
  53   2.0000      -0.330690        -8.9985
  54   2.0000      -0.325146        -8.8477
  55   2.0000      -0.316843        -8.6217
  56   2.0000      -0.289392        -7.8748
  57   2.0000      -0.272582        -7.4173
  58   2.0000      -0.234969        -6.3938
  59   2.0000      -0.212950        -5.7947
  60   0.0000      -0.038370        -1.0441
  61   0.0000       0.004369         0.1189
  62   0.0000       0.046594         1.2679
  63   0.0000       0.054413         1.4807
  64   0.0000       0.061997         1.6870

MULLIKEN ATOMIC CHARGES
-----------------------
   0 C :   -0.013863
   1 C :    0.143837
   2 O :   -0.353281
   3 C :    0.230428
   4 C :   -0.046629
   5 C :    0.005955
   6 C :    0.055550
   7 C :   -0.082731
   8 C :    0.255831
   9 C :   -0.093427
  10 O :   -0.319911
  11 C :    0.180350
  12 C :    0.002193
  13 C :   -0.008578
  14 C :   -0.028974
  15 C :   -0.027626
  16 H :   -0.028390
  17 H :    0.007181
  18 H :    0.001876
  19 H :    0.020058
  20 H :    0.004105
  21 H :    0.016895
  22 H :    0.010418
  23 H :    0.003626
  24 H :   -0.034987
  25 H :   -0.025137
  26 H :    0.009896
  27 H :    0.001239
  28 H :    0.010883
  29 H :    0.003651
  30 H :    0.029134
  31 H :    0.013173
  32 H :    0.005009
  33 H :    0.011703
  34 H :    0.017233
  35 H :    0.023310
Sum of atomic charges:   -0.0000000

LOEWDIN ATOMIC CHARGES
----------------------
   0 C :   -0.033759
   1 C :    0.030685
   2 O :   -0.136879
   3 C :    0.089992
   4 C :   -0.056112
   5 C :   -0.055604
   6 C :   -0.040820
   7 C :   -0.033001
   8 C :    0.046770
   9 C :   -0.072678
  10 O :   -0.104124
  11 C :    0.086034
  12 C :   -0.044121
  13 C :   -0.056531
  14 C :   -0.020794
  15 C :   -0.049565
  16 H :    0.029470
  17 H :    0.009301
  18 H :    0.018150
  19 H :    0.025806
  20 H :    0.026779
  21 H :    0.020684
  22 H :    0.023557
  23 H :    0.021089
  24 H :    0.029233
  25 H :    0.026721
  26 H :    0.009918
  27 H :    0.008420
  28 H :    0.025487
  29 H :    0.026809
  30 H :    0.026367
  31 H :    0.023534
  32 H :    0.021153
  33 H :    0.031561
  34 H :    0.020850
  35 H :    0.025620

  Mayer bond orders larger than 0.100000
B(  0-C ,  1-C ) :   1.3948 B(  0-C ,  9-C ) :   1.3057 B(  0-C , 16-H ) :   0.9859
B(  1-C ,  2-O ) :   1.0871 B(  1-C ,  6-C ) :   1.3159 B(  2-O ,  3-C ) :   0.9444
B(  3-C ,  4-C ) :   1.0854 B(  3-C , 17-H ) :   0.9366 B(  3-C , 18-H ) :   0.9493
B(  4-C ,  5-C ) :   1.0941 B(  4-C , 19-H ) :   0.9371 B(  4-C , 20-H ) :   0.9356
B(  5-C , 21-H ) :   0.9708 B(  5-C , 22-H ) :   0.9677 B(  5-C , 23-H ) :   0.9675
B(  6-C ,  7-C ) :   1.3426 B(  6-C , 14-C ) :   1.0640 B(  7-C ,  8-C ) :   1.3373
B(  7-C , 24-H ) :   0.9898 B(  8-C ,  9-C ) :   1.3023 B(  8-C , 10-O ) :   1.1146
B(  9-C , 25-H ) :   0.9884 B( 10-O , 11-C ) :   0.9549 B( 11-C , 12-C ) :   1.0779
B( 11-C , 26-H ) :   0.9385 B( 11-C , 27-H ) :   0.9417 B( 12-C , 13-C ) :   1.1032
B( 12-C , 28-H ) :   0.9427 B( 12-C , 29-H ) :   0.9349 B( 13-C , 30-H ) :   0.9707
B( 13-C , 31-H ) :   0.9687 B( 13-C , 32-H ) :   0.9703 B( 14-C , 15-C ) :   1.9327
B( 14-C , 33-H ) :   0.9521 B( 15-C , 34-H ) :   0.9464 B( 15-C , 35-H ) :   0.9467

Dispersion correction           -0.063616869
FINAL SINGLE POINT ENERGY      -695.511768225047

DIPOLE MOMENT
-------------
                                X             Y             Z
Electronic contribution:     -4.61329       3.08840      -4.32405
Nuclear contribution   :      5.12277      -3.34163       4.71020
                        -----------------------------------------
Total Dipole Moment    :      0.50948      -0.25322       0.38615
                        -----------------------------------------
Magnitude (a.u.)       :      0.68761
Magnitude (Debye)      :      1.74776

Rotational constants in cm-1:     0.029337     0.008372     0.006908
Rotational constants in MHz :   879.495998   250.999495   207.090069

                             ****ORCA TERMINATED NORMALLY****
TOTAL RUN TIME: 0 days 0 hours 36 minutes 53 seconds 758 msec
