                         Program Version 4.2.0 -  RELEASE  -
|  1> # ORCA input file
|  2> # SCF done        -37.140060719167          0.000924887879
|  3> ! B3LYP/G D3BJ Opt RIJCOSX def2-SVP def2/J
|  4> * xyz 0 1
|  5>    C       -1.57495         1.22469        -0.04238
|  6>    S       -2.70457        -0.04359        -0.12284
|  7>    C       -1.48319        -1.26964        -0.05964
|  8>    C       -0.21824        -0.68960        -0.01590
|  9>    C       -0.28469         0.75037         0.00735
| 10>    C        0.91588         1.50168         0.06220
| 11>    F        0.82031         2.84680         0.10543
| 12>    C        2.13178         0.89722         0.05845
| 13>    C        2.20585        -0.50996        -0.02259
| 14>    C        1.07565        -1.26825        -0.06590
| 15>    F        1.21171        -2.60393        -0.19241
| 16>    C       -1.92983        -2.64087        -0.01679
| 17>    C       -1.33704        -3.64305         0.62484
| 18>    H       -1.89619         2.24652        -0.03398
| 19>    H        3.03314         1.48611         0.09779
| 20>    H        3.16739        -0.99519        -0.06466
| 21>    H       -2.87946        -2.81136        -0.50986
| 22>    H       -0.42247        -3.52133         1.17734
| 23>    H       -1.76335        -4.63078         0.61461
| 24> *
| 25>
| 26>                          ****END OF INPUT****
 Total Charge           Charge          ....    0
 Multiplicity           Mult            ....    1
 Number of Electrons    NEL             ....  100
Dispersion correction           -0.043339192
FINAL SINGLE POINT ENERGY      -982.009866380746
Dispersion correction            ... done
Dispersion correction           -0.043168953
FINAL SINGLE POINT ENERGY      -982.012663674169
Dispersion correction            ... done
Dispersion correction           -0.042985311
FINAL SINGLE POINT ENERGY      -982.012795071466
Dispersion correction            ... done
FINAL SINGLE POINT ENERGY      -982.013073125416
FINAL SINGLE POINT ENERGY      -982.013162155084
FINAL SINGLE POINT ENERGY      -982.013291645748
FINAL SINGLE POINT ENERGY      -982.013342245672
FINAL SINGLE POINT ENERGY      -982.013370910258
FINAL SINGLE POINT ENERGY      -982.013391462754
FINAL SINGLE POINT ENERGY      -982.013396419037
Dispersion correction            ... done
Dispersion correction           -0.042866482
FINAL SINGLE POINT ENERGY      -982.013396951011
Dispersion correction            ... done
Dispersion correction           -0.042862697
FINAL SINGLE POINT ENERGY      -982.013396320440
Dispersion correction            ... done
                    ***********************HURRAY********************

CARTESIAN COORDINATES (ANGSTROEM)
---------------------------------
  C     -1.572363    1.245414   -0.101066
  S     -2.683890   -0.044300   -0.082635
  C     -1.465522   -1.279868    0.038737
  C     -0.188939   -0.677693    0.047405
  C     -0.268048    0.773362   -0.025963
  C      0.927457    1.551572   -0.023696
  F      0.799105    2.885589   -0.079528
  C      2.156912    0.962287    0.030307
  C      2.248896   -0.460760    0.083327
  C      1.123048   -1.240244    0.088198
  F      1.267613   -2.576474    0.116789
  C     -1.982366   -2.638484    0.132496
  C     -1.362627   -3.801032    0.402023
  H     -1.896850    2.280608   -0.173585
  H      3.054721    1.581352    0.025557
  H      3.222592   -0.951277    0.115955
  H     -3.065694   -2.686939   -0.031727
  H     -0.296062   -3.876025    0.600884
  H     -1.950252   -4.721250    0.437584

 Multiplicity           Mult            ....    1
 Number of Electrons    NEL             ....  100
 Basis Dimension        Dim             ....  216

ORBITAL ENERGIES
----------------

  NO   OCC          E(Eh)            E(eV)
   0   2.0000     -88.897440     -2419.0223
   1   2.0000     -24.707196      -672.3170
   2   2.0000     -24.706253      -672.2913
   3   2.0000     -10.281883      -279.7843
   4   2.0000     -10.280079      -279.7352
   5   2.0000     -10.237435      -278.5748
   6   2.0000     -10.227589      -278.3069
   7   2.0000     -10.221738      -278.1476
   8   2.0000     -10.219134      -278.0768
   9   2.0000     -10.209972      -277.8275
  10   2.0000     -10.206519      -277.7335
  11   2.0000     -10.206228      -277.7256
  12   2.0000     -10.189921      -277.2818
  13   2.0000      -7.992228      -217.4796
  14   2.0000      -5.959837      -162.1754
  15   2.0000      -5.955845      -162.0668
  16   2.0000      -5.954556      -162.0317
  17   2.0000      -1.216391       -33.0997
  18   2.0000      -1.215246       -33.0685
  19   2.0000      -0.908922       -24.7330
  20   2.0000      -0.847490       -23.0614
  21   2.0000      -0.792583       -21.5673
  22   2.0000      -0.758339       -20.6354
  23   2.0000      -0.752900       -20.4875
  24   2.0000      -0.707306       -19.2468
  25   2.0000      -0.636814       -17.3286
  26   2.0000      -0.630801       -17.1650
  27   2.0000      -0.599552       -16.3146
  28   2.0000      -0.575976       -15.6731
  29   2.0000      -0.550877       -14.9901
  30   2.0000      -0.531773       -14.4703
  31   2.0000      -0.514968       -14.0130
  32   2.0000      -0.484443       -13.1824
  33   2.0000      -0.482093       -13.1184
  34   2.0000      -0.472821       -12.8661
  35   2.0000      -0.467741       -12.7279
  36   2.0000      -0.452822       -12.3219
  37   2.0000      -0.445065       -12.1108
  38   2.0000      -0.418007       -11.3745
  39   2.0000      -0.411156       -11.1881
  40   2.0000      -0.405076       -11.0227
  41   2.0000      -0.398088       -10.8325
  42   2.0000      -0.370228       -10.0744
  43   2.0000      -0.366099        -9.9621
  44   2.0000      -0.355641        -9.6775
  45   2.0000      -0.345722        -9.4076
  46   2.0000      -0.315760        -8.5923
  47   2.0000      -0.269963        -7.3461
  48   2.0000      -0.264854        -7.2070
  49   2.0000      -0.204456        -5.5635
  50   0.0000      -0.077445        -2.1074
  51   0.0000      -0.018588        -0.5058
  52   0.0000       0.012654         0.3443
  53   0.0000       0.018958         0.5159
  54   0.0000       0.060911         1.6575

MULLIKEN ATOMIC CHARGES
-----------------------
   0 C :   -0.126999
   1 S :    0.154892
   2 C :   -0.188860
   3 C :    0.092760
   4 C :    0.005392
   5 C :    0.274191
   6 F :   -0.192521
   7 C :   -0.066138
   8 C :   -0.061811
   9 C :    0.237912
  10 F :   -0.190685
  11 C :    0.036857
  12 C :   -0.038251
  13 H :    0.031060
  14 H :   -0.006438
  15 H :   -0.006018
  16 H :   -0.009707
  17 H :    0.033447
  18 H :    0.020916
Sum of atomic charges:   -0.0000000

LOEWDIN ATOMIC CHARGES
----------------------
   0 C :   -0.199808
   1 S :    0.503951
   2 C :   -0.176385
   3 C :   -0.067247
   4 C :   -0.069243
   5 C :    0.078381
   6 F :   -0.063065
   7 C :   -0.058323
   8 C :   -0.056592
   9 C :    0.079129
  10 F :   -0.054769
  11 C :   -0.056105
  12 C :   -0.042789
  13 H :    0.031926
  14 H :    0.038771
  15 H :    0.038611
  16 H :    0.027185
  17 H :    0.020040
  18 H :    0.026334

  Mayer bond orders larger than 0.100000
B(  0-C ,  1-S ) :   1.1974 B(  0-C ,  2-C ) :   0.1122 B(  0-C ,  4-C ) :   1.3887
B(  0-C , 13-H ) :   0.9723 B(  1-S ,  2-C ) :   1.1872 B(  2-C ,  3-C ) :   1.3250
B(  2-C , 11-C ) :   1.1295 B(  3-C ,  4-C ) :   1.2022 B(  3-C ,  9-C ) :   1.1494
B(  4-C ,  5-C ) :   1.1440 B(  5-C ,  6-F ) :   1.1237 B(  5-C ,  7-C ) :   1.5170
B(  7-C ,  8-C ) :   1.1430 B(  7-C , 14-H ) :   0.9890 B(  8-C ,  9-C ) :   1.5249
B(  8-C , 15-H ) :   0.9814 B(  9-C , 10-F ) :   1.0812 B( 11-C , 12-C ) :   1.9253
B( 11-C , 16-H ) :   0.9335 B( 12-C , 17-H ) :   0.9450 B( 12-C , 18-H ) :   0.9371

Dispersion correction           -0.042866327
FINAL SINGLE POINT ENERGY      -982.013397663713

DIPOLE MOMENT
-------------
                                X             Y             Z
Electronic contribution:      1.53144       6.84089      -0.74623
Nuclear contribution   :     -1.71185      -6.78826       0.74651
                        -----------------------------------------
Total Dipole Moment    :     -0.18041       0.05263       0.00028
                        -----------------------------------------
Magnitude (a.u.)       :      0.18793
Magnitude (Debye)      :      0.47769

Rotational constants in cm-1:     0.034194     0.022244     0.013496
Rotational constants in MHz :  1025.111939   666.853196   404.602328

                             ****ORCA TERMINATED NORMALLY****
TOTAL RUN TIME: 0 days 0 hours 16 minutes 39 seconds 677 msec
