                         Program Version 4.2.0 -  RELEASE  -
|  1> # ORCA input file
|  2> # SCF done        -43.877896245124          0.000936661372
|  3> ! B3LYP/G D3BJ Opt RIJCOSX def2-SVP def2/J
|  4> * xyz 0 1
|  5>    C       -3.25767         0.80661        -0.13090
|  6>    C       -2.18030         1.63422        -0.06009
|  7>    C       -0.94544         0.89986        -0.12562
|  8>    C       -1.18655        -0.48376        -0.27238
|  9>    S       -2.87812        -0.86760        -0.30655
| 10>    N       -0.26381        -1.42515        -0.36053
| 11>    C        0.97851        -1.01333        -0.29492
| 12>    C        1.37025         0.32703        -0.12256
| 13>    C        0.40257         1.30932        -0.02289
| 14>    C        0.78581         2.74722         0.17537
| 15>    C        1.05980         3.43553        -1.16364
| 16>    C        2.85922         0.51211        -0.11253
| 17>    C        3.49094        -0.84976         0.16351
| 18>    S        2.31170        -2.13692        -0.40323
| 19>    C       -2.34580         3.08311         0.01844
| 20>    C       -3.24838         3.67903         0.78438
| 21>    H       -4.28829         1.10372        -0.12643
| 22>    H        1.68451         2.80382         0.79290
| 23>    H       -0.01405         3.26559         0.70491
| 24>    H        1.91397         2.98120        -1.65947
| 25>    H        1.27266         4.49042        -1.00792
| 26>    H        0.20160         3.34661        -1.82603
| 27>    H        3.17942         1.23391         0.64054
| 28>    H        3.17843         0.88316        -1.09142
| 29>    H        3.64780        -1.01041         1.23080
| 30>    H        4.43182        -0.99627        -0.36112
| 31>    H       -1.71149         3.67505        -0.62645
| 32>    H       -3.88991         3.12017         1.44343
| 33>    H       -3.36442         4.74886         0.79477
| 34> *
| 35>
| 36>                          ****END OF INPUT****
 Total Charge           Charge          ....    0
 Multiplicity           Mult            ....    1
 Number of Electrons    NEL             ....  130
Dispersion correction           -0.071578155
FINAL SINGLE POINT ENERGY     -1353.781442137722
Dispersion correction            ... done
Dispersion correction           -0.071020430
FINAL SINGLE POINT ENERGY     -1353.785749227373
Dispersion correction            ... done
Dispersion correction           -0.070930358
FINAL SINGLE POINT ENERGY     -1353.786022302660
Dispersion correction            ... done
FINAL SINGLE POINT ENERGY     -1353.786095338594
FINAL SINGLE POINT ENERGY     -1353.786090812208
Dispersion correction            ... done
Dispersion correction           -0.070931560
FINAL SINGLE POINT ENERGY     -1353.786120121456
Dispersion correction            ... done
Dispersion correction           -0.070937486
FINAL SINGLE POINT ENERGY     -1353.786124253837
Dispersion correction            ... done
                    ***********************HURRAY********************

CARTESIAN COORDINATES (ANGSTROEM)
---------------------------------
  C     -3.288310    0.814750   -0.204722
  C     -2.202812    1.645423   -0.064831
  C     -0.951199    0.903195   -0.130524
  C     -1.185804   -0.488000   -0.316662
  S     -2.897174   -0.862172   -0.417754
  N     -0.261347   -1.441938   -0.392519
  C      0.986167   -1.030230   -0.281976
  C      1.381760    0.320864   -0.099066
  C      0.408474    1.315669   -0.015172
  C      0.814885    2.763737    0.121810
  C      1.059097    3.427033   -1.241097
  C      2.881479    0.498316   -0.093041
  C      3.511122   -0.868451    0.228642
  S      2.349597   -2.164238   -0.374854
  C     -2.374934    3.098204    0.106983
  C     -3.302654    3.664151    0.892688
  H     -4.328665    1.134977   -0.233928
  H      1.733907    2.827222    0.723523
  H      0.048413    3.320316    0.677482
  H      1.833970    2.890259   -1.809767
  H      1.387767    4.471535   -1.120182
  H      0.144191    3.421722   -1.853737
  H      3.217268    1.254520    0.632536
  H      3.216314    0.844597   -1.087546
  H      3.641193   -1.001110    1.313807
  H      4.484354   -1.013256   -0.258049
  H     -1.721930    3.748111   -0.484129
  H     -3.958149    3.059179    1.525269
  H     -3.432199    4.748963    0.931187

 Multiplicity           Mult            ....    1
 Number of Electrons    NEL             ....  130
 Basis Dimension        Dim             ....  297

ORBITAL ENERGIES
----------------

  NO   OCC          E(Eh)            E(eV)
   0   2.0000     -88.868726     -2418.2410
   1   2.0000     -88.844571     -2417.5837
   2   2.0000     -14.326306      -389.8386
   3   2.0000     -10.247705      -278.8542
   4   2.0000     -10.246333      -278.8169
   5   2.0000     -10.225210      -278.2421
   6   2.0000     -10.217552      -278.0337
   7   2.0000     -10.215790      -277.9858
   8   2.0000     -10.212530      -277.8971
   9   2.0000     -10.205974      -277.7187
  10   2.0000     -10.204423      -277.6765
  11   2.0000     -10.204365      -277.6749
  12   2.0000     -10.203199      -277.6432
  13   2.0000     -10.202083      -277.6128
  14   2.0000     -10.195437      -277.4319
  15   2.0000     -10.193289      -277.3735
  16   2.0000      -7.964590      -216.7275
  17   2.0000      -7.940462      -216.0709
  18   2.0000      -5.932708      -161.4372
  19   2.0000      -5.928911      -161.3339
  20   2.0000      -5.925359      -161.2372
  21   2.0000      -5.909466      -160.8047
  22   2.0000      -5.905799      -160.7050
  23   2.0000      -5.899257      -160.5269
  24   2.0000      -0.957409       -26.0524
  25   2.0000      -0.872133       -23.7319
  26   2.0000      -0.849975       -23.1290
  27   2.0000      -0.814512       -22.1640
  28   2.0000      -0.785781       -21.3822
  29   2.0000      -0.752896       -20.4873
  30   2.0000      -0.731749       -19.9119
  31   2.0000      -0.721153       -19.6236
  32   2.0000      -0.696699       -18.9581
  33   2.0000      -0.652714       -17.7612
  34   2.0000      -0.620752       -16.8915
  35   2.0000      -0.600227       -16.3330
  36   2.0000      -0.591728       -16.1017
  37   2.0000      -0.571592       -15.5538
  38   2.0000      -0.537610       -14.6291
  39   2.0000      -0.521280       -14.1847
  40   2.0000      -0.487325       -13.2608
  41   2.0000      -0.482823       -13.1383
  42   2.0000      -0.465756       -12.6739
  43   2.0000      -0.450582       -12.2610
  44   2.0000      -0.441812       -12.0223
  45   2.0000      -0.439372       -11.9559
  46   2.0000      -0.427595       -11.6354
  47   2.0000      -0.422568       -11.4987
  48   2.0000      -0.413199       -11.2437
  49   2.0000      -0.400174       -10.8893
  50   2.0000      -0.393105       -10.6969
  51   2.0000      -0.388157       -10.5623
  52   2.0000      -0.373823       -10.1722
  53   2.0000      -0.372578       -10.1384
  54   2.0000      -0.365024        -9.9328
  55   2.0000      -0.362977        -9.8771
  56   2.0000      -0.352043        -9.5796
  57   2.0000      -0.346181        -9.4201
  58   2.0000      -0.329005        -8.9527
  59   2.0000      -0.301142        -8.1945
  60   2.0000      -0.285176        -7.7600
  61   2.0000      -0.270733        -7.3670
  62   2.0000      -0.263226        -7.1627
  63   2.0000      -0.226570        -6.1653
  64   2.0000      -0.208341        -5.6692
  65   0.0000      -0.046268        -1.2590
  66   0.0000      -0.021941        -0.5970
  67   0.0000      -0.012110        -0.3295
  68   0.0000       0.028976         0.7885
  69   0.0000       0.036796         1.0013

MULLIKEN ATOMIC CHARGES
-----------------------
   0 C :   -0.127316
   1 C :    0.065230
   2 C :    0.086881
   3 C :   -0.159773
   4 S :    0.118589
   5 N :   -0.052100
   6 C :   -0.104098
   7 C :   -0.098306
   8 C :   -0.074265
   9 C :    0.060725
  10 C :    0.018809
  11 C :    0.123760
  12 C :   -0.068036
  13 S :    0.001882
  14 C :   -0.038313
  15 C :   -0.032973
  16 H :    0.020578
  17 H :   -0.007973
  18 H :    0.012421
  19 H :    0.008759
  20 H :    0.019332
  21 H :    0.022777
  22 H :    0.020158
  23 H :    0.026186
  24 H :    0.059296
  25 H :    0.043767
  26 H :    0.009894
  27 H :    0.021203
  28 H :    0.022905
Sum of atomic charges:   -0.0000000

LOEWDIN ATOMIC CHARGES
----------------------
   0 C :   -0.170453
   1 C :   -0.066880
   2 C :   -0.069029
   3 C :   -0.128135
   4 S :    0.411161
   5 N :   -0.113408
   6 C :   -0.119770
   7 C :   -0.075282
   8 C :    0.006878
   9 C :   -0.029130
  10 C :   -0.047082
  11 C :   -0.032342
  12 C :   -0.113037
  13 S :    0.274947
  14 C :   -0.025549
  15 C :   -0.049026
  16 H :    0.025179
  17 H :    0.026637
  18 H :    0.030265
  19 H :    0.023807
  20 H :    0.026471
  21 H :    0.024137
  22 H :    0.031421
  23 H :    0.033737
  24 H :    0.022939
  25 H :    0.024581
  26 H :    0.028815
  27 H :    0.023212
  28 H :    0.024935

  Mayer bond orders larger than 0.100000
B(  0-C ,  1-C ) :   1.5612 B(  0-C ,  4-S ) :   1.1206 B(  0-C , 16-H ) :   0.9616
B(  1-C ,  2-C ) :   1.1624 B(  1-C , 14-C ) :   1.0393 B(  2-C ,  3-C ) :   1.2160
B(  2-C ,  8-C ) :   1.2978 B(  3-C ,  4-S ) :   1.0980 B(  3-C ,  5-N ) :   1.4913
B(  5-N ,  6-C ) :   1.5685 B(  6-C ,  7-C ) :   1.2341 B(  6-C , 13-S ) :   1.0364
B(  7-C ,  8-C ) :   1.5124 B(  7-C , 11-C ) :   1.0546 B(  8-C ,  9-C ) :   1.0937
B(  9-C , 10-C ) :   1.1077 B(  9-C , 17-H ) :   0.9042 B(  9-C , 18-H ) :   0.9086
B( 10-C , 19-H ) :   0.9604 B( 10-C , 20-H ) :   0.9629 B( 10-C , 21-H ) :   0.9633
B( 11-C , 12-C ) :   1.0396 B( 11-C , 22-H ) :   0.9214 B( 11-C , 23-H ) :   0.9085
B( 12-C , 13-S ) :   1.0002 B( 12-C , 24-H ) :   0.9494 B( 12-C , 25-H ) :   0.9500
B( 14-C , 15-C ) :   1.9629 B( 14-C , 26-H ) :   0.9404 B( 15-C , 27-H ) :   0.9548
B( 15-C , 28-H ) :   0.9457

Dispersion correction           -0.070936558
FINAL SINGLE POINT ENERGY     -1353.786129329512

DIPOLE MOMENT
-------------
                                X             Y             Z
Electronic contribution:     -7.31512     -21.29644      -1.04661
Nuclear contribution   :      7.95905      22.76247       1.25758
                        -----------------------------------------
Total Dipole Moment    :      0.64393       1.46603       0.21097
                        -----------------------------------------
Magnitude (a.u.)       :      1.61505
Magnitude (Debye)      :      4.10514

Rotational constants in cm-1:     0.023183     0.011053     0.007822
Rotational constants in MHz :   694.994505   331.355675   234.491043

                             ****ORCA TERMINATED NORMALLY****
TOTAL RUN TIME: 0 days 0 hours 20 minutes 7 seconds 479 msec
