                         Program Version 4.2.0 -  RELEASE  -
|  1> # ORCA input file
|  2> # SCF done        -28.688350172077          0.000211762673
|  3> ! B3LYP/G D3BJ Opt RIJCOSX def2-SVP def2/J
|  4> * xyz 0 1
|  5>    C       -1.52477         1.28538        -0.10897
|  6>    C       -0.25112         0.76614        -0.03857
|  7>    C       -0.25106        -0.67039        -0.06742
|  8>    C        0.98400        -1.35511        -0.00323
|  9>    C        2.14282        -0.64459         0.08496
| 10>    C        2.13942         0.76987         0.11390
| 11>    C        0.97453         1.46954         0.05389
| 12>    C       -1.53559        -1.20337        -0.15930
| 13>    S       -2.71256         0.06681        -0.20866
| 14>    C       -1.91277        -2.58378        -0.20952
| 15>    C       -3.16277        -3.03660        -0.29921
| 16>    H       -1.81783         2.31634        -0.10697
| 17>    H        1.00031        -2.43432        -0.02460
| 18>    H        3.09009        -1.16117         0.13419
| 19>    H        3.08339         1.28984         0.18461
| 20>    H        0.96045         2.54907         0.07500
| 21>    H       -1.08900        -3.28461        -0.16892
| 22>    H       -4.00373        -2.36423        -0.34175
| 23>    H       -3.38073        -4.08894        -0.33199
| 24> *
| 25>
| 26>                          ****END OF INPUT****
 Total Charge           Charge          ....    0
 Multiplicity           Mult            ....    1
 Number of Electrons    NEL             ....   84
Dispersion correction           -0.042478621
FINAL SINGLE POINT ENERGY      -783.697078550742
Dispersion correction            ... done
Dispersion correction           -0.042208716
FINAL SINGLE POINT ENERGY      -783.700320215545
Dispersion correction            ... done
Dispersion correction           -0.042163492
FINAL SINGLE POINT ENERGY      -783.700412545416
Dispersion correction            ... done
FINAL SINGLE POINT ENERGY      -783.700404610851
Dispersion correction            ... done
Dispersion correction           -0.042145634
FINAL SINGLE POINT ENERGY      -783.700416472301
Dispersion correction            ... done
Dispersion correction           -0.042152049
FINAL SINGLE POINT ENERGY      -783.700413935334
Dispersion correction            ... done
                    ***********************HURRAY********************

CARTESIAN COORDINATES (ANGSTROEM)
---------------------------------
  C     -1.530398    1.325808   -0.136818
  C     -0.249118    0.793659   -0.045119
  C     -0.258266   -0.657699   -0.085651
  C      0.983474   -1.358860   -0.012021
  C      2.157540   -0.654213    0.089612
  C      2.163756    0.777269    0.135692
  C      0.994216    1.490079    0.073977
  C     -1.555901   -1.187556   -0.197157
  S     -2.718075    0.098396   -0.266569
  C     -1.939093   -2.583606   -0.240386
  C     -3.186386   -3.086983   -0.260953
  H     -1.820291    2.374957   -0.132062
  H      0.996462   -2.450783   -0.041391
  H      3.107855   -1.190725    0.141086
  H      3.117307    1.302652    0.226898
  H      0.995969    2.582047    0.116631
  H     -1.094725   -3.280966   -0.251452
  H     -4.070698   -2.443431   -0.240537
  H     -3.360549   -4.164165   -0.296340

 Multiplicity           Mult            ....    1
 Number of Electrons    NEL             ....   84
 Basis Dimension        Dim             ....  198

ORBITAL ENERGIES
----------------

  NO   OCC          E(Eh)            E(eV)
   0   2.0000     -88.884178     -2418.6614
   1   2.0000     -10.218802      -278.0677
   2   2.0000     -10.215805      -277.9862
   3   2.0000     -10.204860      -277.6883
   4   2.0000     -10.201554      -277.5984
   5   2.0000     -10.201383      -277.5937
   6   2.0000     -10.196728      -277.4671
   7   2.0000     -10.196475      -277.4602
   8   2.0000     -10.194223      -277.3989
   9   2.0000     -10.193527      -277.3800
  10   2.0000     -10.189117      -277.2600
  11   2.0000      -7.978820      -217.1147
  12   2.0000      -5.946526      -161.8132
  13   2.0000      -5.942513      -161.7040
  14   2.0000      -5.941036      -161.6638
  15   2.0000      -0.893672       -24.3181
  16   2.0000      -0.828932       -22.5564
  17   2.0000      -0.787808       -21.4374
  18   2.0000      -0.749734       -20.4013
  19   2.0000      -0.732390       -19.9293
  20   2.0000      -0.691041       -18.8042
  21   2.0000      -0.616260       -16.7693
  22   2.0000      -0.608722       -16.5642
  23   2.0000      -0.579683       -15.7740
  24   2.0000      -0.540067       -14.6960
  25   2.0000      -0.507305       -13.8045
  26   2.0000      -0.484474       -13.1832
  27   2.0000      -0.466561       -12.6958
  28   2.0000      -0.447876       -12.1873
  29   2.0000      -0.431463       -11.7407
  30   2.0000      -0.425502       -11.5785
  31   2.0000      -0.410375       -11.1669
  32   2.0000      -0.408764       -11.1230
  33   2.0000      -0.373354       -10.1595
  34   2.0000      -0.365697        -9.9511
  35   2.0000      -0.352064        -9.5802
  36   2.0000      -0.344387        -9.3712
  37   2.0000      -0.337239        -9.1767
  38   2.0000      -0.312174        -8.4947
  39   2.0000      -0.268268        -7.2999
  40   2.0000      -0.252779        -6.8785
  41   2.0000      -0.197163        -5.3651
  42   0.0000      -0.071299        -1.9401
  43   0.0000      -0.009760        -0.2656
  44   0.0000       0.019169         0.5216
  45   0.0000       0.040053         1.0899
  46   0.0000       0.063995         1.7414

MULLIKEN ATOMIC CHARGES
-----------------------
   0 C :   -0.130605
   1 C :    0.088510
   2 C :    0.120759
   3 C :   -0.032143
   4 C :    0.021159
   5 C :    0.021055
   6 C :   -0.005862
   7 C :   -0.150043
   8 S :    0.138839
   9 C :    0.009182
  10 C :   -0.043251
  11 H :    0.017772
  12 H :   -0.023318
  13 H :   -0.019743
  14 H :   -0.018762
  15 H :   -0.026349
  16 H :   -0.007930
  17 H :    0.016275
  18 H :    0.024452
Sum of atomic charges:   -0.0000000

LOEWDIN ATOMIC CHARGES
----------------------
   0 C :   -0.201007
   1 C :   -0.050879
   2 C :   -0.042200
   3 C :   -0.022304
   4 C :   -0.028731
   5 C :   -0.031449
   6 C :   -0.019074
   7 C :   -0.193373
   8 S :    0.479774
   9 C :   -0.039694
  10 C :   -0.062136
  11 H :    0.025255
  12 H :    0.026520
  13 H :    0.026817
  14 H :    0.026846
  15 H :    0.028004
  16 H :    0.033507
  17 H :    0.017351
  18 H :    0.026773

  Mayer bond orders larger than 0.100000
B(  0-C ,  1-C ) :   1.4005 B(  0-C ,  7-C ) :   0.1103 B(  0-C ,  8-S ) :   1.1945
B(  0-C , 11-H ) :   0.9648 B(  1-C ,  2-C ) :   1.1942 B(  1-C ,  6-C ) :   1.1817
B(  2-C ,  3-C ) :   1.2076 B(  2-C ,  7-C ) :   1.3384 B(  3-C ,  4-C ) :   1.5490
B(  3-C , 12-H ) :   0.9845 B(  4-C ,  5-C ) :   1.1972 B(  4-C , 13-H ) :   0.9784
B(  5-C ,  6-C ) :   1.5488 B(  5-C , 14-H ) :   0.9811 B(  6-C , 15-H ) :   0.9929
B(  7-C ,  8-S ) :   1.1507 B(  7-C ,  9-C ) :   1.1615 B(  9-C , 10-C ) :   1.8897
B(  9-C , 16-H ) :   0.9478 B( 10-C , 17-H ) :   0.9546 B( 10-C , 18-H ) :   0.9456

Dispersion correction           -0.042153532
FINAL SINGLE POINT ENERGY      -783.700408545432

DIPOLE MOMENT
-------------
                                X             Y             Z
Electronic contribution:     -3.49077       3.86450      -0.34391
Nuclear contribution   :      3.60406      -3.74724       0.36169
                        -----------------------------------------
Total Dipole Moment    :      0.11329       0.11726       0.01777
                        -----------------------------------------
Magnitude (a.u.)       :      0.16401
Magnitude (Debye)      :      0.41689

Rotational constants in cm-1:     0.063867     0.026318     0.018643
Rotational constants in MHz :  1914.681684   788.989421   558.896181

                             ****ORCA TERMINATED NORMALLY****
TOTAL RUN TIME: 0 days 0 hours 7 minutes 42 seconds 355 msec
