                         Program Version 4.2.0 -  RELEASE  -
|  1> # ORCA input file
|  2> # SCF done        -47.848661324953          0.000931994275
|  3> ! B3LYP/G D3BJ Opt RIJCOSX def2-SVP def2/J
|  4> * xyz 0 1
|  5>    C       -0.61220         0.90793         0.38546
|  6>    C       -0.41982         0.55731        -0.90686
|  7>    C        0.58881        -0.42972        -1.07966
|  8>    C        1.15449        -0.79705         0.12637
|  9>    S        0.44373         0.06854         1.45239
| 10>    C        2.19916        -1.72972         0.33140
| 11>    C        2.64760        -2.68182        -0.56297
| 12>    C        2.17343        -3.00077        -1.91500
| 13>    O        2.40093        -4.10284        -2.37476
| 14>    N        1.57222        -2.03994        -2.72295
| 15>    C        0.92256        -0.84012        -2.44978
| 16>    O        0.55759        -0.13914        -3.37367
| 17>    C        1.53326        -2.41334        -4.14444
| 18>    C        0.23317        -3.12504        -4.49362
| 19>    C        3.67651        -3.48681        -0.00357
| 20>    C        3.99991        -3.13758         1.26318
| 21>    S        3.04707        -1.82808         1.84187
| 22>    H       -1.30931         1.61611         0.78649
| 23>    H       -0.96171         0.96777        -1.73906
| 24>    H        2.38274        -3.06950        -4.33543
| 25>    H        1.63201        -1.49524        -4.72480
| 26>    H        0.13509        -4.03365        -3.90511
| 27>    H        0.23531        -3.38824        -5.54750
| 28>    H       -0.61622        -2.47524        -4.29711
| 29>    H        4.13727        -4.28612        -0.55425
| 30>    H        4.74110        -3.57119         1.90430
| 31> *
| 32>
| 33>                          ****END OF INPUT****
 Total Charge           Charge          ....    0
 Multiplicity           Mult            ....    1
 Number of Electrons    NEL             ....  136
Dispersion correction           -0.067744612
FINAL SINGLE POINT ENERGY     -1463.651647951055
Dispersion correction            ... done
Dispersion correction           -0.067280988
FINAL SINGLE POINT ENERGY     -1463.655355294181
Dispersion correction            ... done
Dispersion correction           -0.067170386
FINAL SINGLE POINT ENERGY     -1463.655531325654
Dispersion correction            ... done
FINAL SINGLE POINT ENERGY     -1463.655586894139
FINAL SINGLE POINT ENERGY     -1463.655622908342
FINAL SINGLE POINT ENERGY     -1463.655655068585
FINAL SINGLE POINT ENERGY     -1463.655685646320
Dispersion correction            ... done
Dispersion correction           -0.067214076
FINAL SINGLE POINT ENERGY     -1463.655723223126
Dispersion correction            ... done
Dispersion correction           -0.067217458
FINAL SINGLE POINT ENERGY     -1463.655719627985
Dispersion correction            ... done
                    ***********************HURRAY********************

CARTESIAN COORDINATES (ANGSTROEM)
---------------------------------
  C     -0.602329    0.969339    0.415212
  C     -0.436705    0.595097   -0.887667
  C      0.570245   -0.412019   -1.064845
  C      1.167246   -0.769872    0.138404
  S      0.472513    0.114647    1.471118
  C      2.210972   -1.730138    0.349510
  C      2.674916   -2.684308   -0.546339
  C      2.216841   -2.991649   -1.922124
  O      2.494438   -4.083603   -2.390658
  N      1.582055   -2.038198   -2.743820
  C      0.853110   -0.869554   -2.447638
  O      0.362169   -0.239935   -3.371877
  C      1.533976   -2.416325   -4.178476
  C      0.237110   -3.130368   -4.543734
  C      3.698889   -3.511971    0.023309
  C      4.008612   -3.172257    1.309040
  S      3.048178   -1.846293    1.875651
  H     -1.296987    1.699858    0.826749
  H     -0.995670    1.001798   -1.727620
  H      2.394346   -3.067019   -4.363392
  H      1.641672   -1.491134   -4.754854
  H      0.110656   -4.036647   -3.934927
  H      0.258685   -3.433398   -5.602480
  H     -0.627880   -2.467294   -4.396318
  H      4.165705   -4.320218   -0.536463
  H      4.751938   -3.622028    1.965158

 Multiplicity           Mult            ....    1
 Number of Electrons    NEL             ....  136
 Basis Dimension        Dim             ....  291

ORBITAL ENERGIES
----------------

  NO   OCC          E(Eh)            E(eV)
   0   2.0000     -88.898123     -2419.0409
   1   2.0000     -88.898043     -2419.0387
   2   2.0000     -19.121000      -520.3089
   3   2.0000     -19.118200      -520.2327
   4   2.0000     -14.383414      -391.3926
   5   2.0000     -10.312730      -280.6236
   6   2.0000     -10.311809      -280.5986
   7   2.0000     -10.254350      -279.0350
   8   2.0000     -10.253715      -279.0178
   9   2.0000     -10.233446      -278.4662
  10   2.0000     -10.232951      -278.4528
  11   2.0000     -10.222955      -278.1807
  12   2.0000     -10.222572      -278.1703
  13   2.0000     -10.217077      -278.0208
  14   2.0000     -10.211976      -277.8820
  15   2.0000     -10.210667      -277.8464
  16   2.0000     -10.176742      -276.9232
  17   2.0000      -7.993231      -217.5069
  18   2.0000      -7.993162      -217.5050
  19   2.0000      -5.961442      -162.2191
  20   2.0000      -5.961349      -162.2166
  21   2.0000      -5.957188      -162.1033
  22   2.0000      -5.957123      -162.1016
  23   2.0000      -5.954450      -162.0288
  24   2.0000      -5.954416      -162.0279
  25   2.0000      -1.058514       -28.8036
  26   2.0000      -1.039912       -28.2975
  27   2.0000      -0.928374       -25.2623
  28   2.0000      -0.917289       -24.9607
  29   2.0000      -0.892484       -24.2857
  30   2.0000      -0.790477       -21.5100
  31   2.0000      -0.778452       -21.1828
  32   2.0000      -0.762171       -20.7397
  33   2.0000      -0.742707       -20.2101
  34   2.0000      -0.719478       -19.5780
  35   2.0000      -0.660047       -17.9608
  36   2.0000      -0.652370       -17.7519
  37   2.0000      -0.619287       -16.8517
  38   2.0000      -0.591542       -16.0967
  39   2.0000      -0.590227       -16.0609
  40   2.0000      -0.569169       -15.4879
  41   2.0000      -0.560037       -15.2394
  42   2.0000      -0.490808       -13.3556
  43   2.0000      -0.487303       -13.2602
  44   2.0000      -0.472391       -12.8544
  45   2.0000      -0.468124       -12.7383
  46   2.0000      -0.463231       -12.6051
  47   2.0000      -0.435336       -11.8461
  48   2.0000      -0.431854       -11.7514
  49   2.0000      -0.427587       -11.6352
  50   2.0000      -0.427343       -11.6286
  51   2.0000      -0.423419       -11.5218
  52   2.0000      -0.418163       -11.3788
  53   2.0000      -0.411852       -11.2071
  54   2.0000      -0.388446       -10.5701
  55   2.0000      -0.383516       -10.4360
  56   2.0000      -0.380377       -10.3506
  57   2.0000      -0.378396       -10.2967
  58   2.0000      -0.368792       -10.0353
  59   2.0000      -0.365561        -9.9474
  60   2.0000      -0.344490        -9.3741
  61   2.0000      -0.304623        -8.2892
  62   2.0000      -0.294536        -8.0147
  63   2.0000      -0.281445        -7.6585
  64   2.0000      -0.275854        -7.5064
  65   2.0000      -0.270749        -7.3675
  66   2.0000      -0.263403        -7.1676
  67   2.0000      -0.233315        -6.3488
  68   0.0000      -0.087118        -2.3706
  69   0.0000      -0.045975        -1.2510
  70   0.0000      -0.013593        -0.3699
  71   0.0000      -0.004800        -0.1306
  72   0.0000      -0.000942        -0.0256

MULLIKEN ATOMIC CHARGES
-----------------------
   0 C :   -0.056882
   1 C :    0.039809
   2 C :    0.002360
   3 C :   -0.111387
   4 S :    0.133091
   5 C :   -0.101675
   6 C :    0.012100
   7 C :    0.176122
   8 O :   -0.227640
   9 N :   -0.286472
  10 C :    0.182412
  11 O :   -0.231294
  12 C :    0.146486
  13 C :   -0.003873
  14 C :    0.035719
  15 C :   -0.055646
  16 S :    0.130574
  17 H :    0.040731
  18 H :    0.010711
  19 H :    0.024136
  20 H :    0.026428
  21 H :    0.021027
  22 H :    0.015555
  23 H :    0.026149
  24 H :    0.010283
  25 H :    0.041175
Sum of atomic charges:   -0.0000000

LOEWDIN ATOMIC CHARGES
----------------------
   0 C :   -0.175858
   1 C :   -0.025820
   2 C :   -0.093420
   3 C :   -0.174787
   4 S :    0.440826
   5 C :   -0.175899
   6 C :   -0.090393
   7 C :    0.094424
   8 O :   -0.181953
   9 N :   -0.034699
  10 C :    0.095597
  11 O :   -0.187276
  12 C :    0.051943
  13 C :   -0.057770
  14 C :   -0.027920
  15 C :   -0.174302
  16 S :    0.439190
  17 H :    0.031572
  18 H :    0.041655
  19 H :    0.024843
  20 H :    0.026562
  21 H :    0.025341
  22 H :    0.029647
  23 H :    0.024979
  24 H :    0.041756
  25 H :    0.031765

  Mayer bond orders larger than 0.100000
B(  0-C ,  1-C ) :   1.5512 B(  0-C ,  4-S ) :   1.1247 B(  0-C , 17-H ) :   0.9682
B(  1-C ,  2-C ) :   1.2640 B(  1-C , 18-H ) :   0.9917 B(  2-C ,  3-C ) :   1.4597
B(  2-C , 10-C ) :   0.9738 B(  3-C ,  4-S ) :   1.1489 B(  3-C ,  5-C ) :   1.1863
B(  5-C ,  6-C ) :   1.4722 B(  5-C , 16-S ) :   1.1433 B(  6-C ,  7-C ) :   0.9695
B(  6-C , 14-C ) :   1.2596 B(  7-C ,  8-O ) :   2.0601 B(  7-C ,  9-N ) :   1.0465
B(  9-N , 10-C ) :   1.0570 B(  9-N , 12-C ) :   0.9225 B( 10-C , 11-O ) :   2.0571
B( 12-C , 13-C ) :   1.1370 B( 12-C , 19-H ) :   0.9329 B( 12-C , 20-H ) :   0.9299
B( 13-C , 21-H ) :   0.9660 B( 13-C , 22-H ) :   0.9648 B( 13-C , 23-H ) :   0.9633
B( 14-C , 15-C ) :   1.5531 B( 14-C , 24-H ) :   0.9935 B( 15-C , 16-S ) :   1.1271
B( 15-C , 25-H ) :   0.9678

Dispersion correction           -0.067218566
FINAL SINGLE POINT ENERGY     -1463.655718550883

DIPOLE MOMENT
-------------
                                X             Y             Z
Electronic contribution:      3.51865       5.60747      15.87887
Nuclear contribution   :     -3.37118      -5.27510     -14.72710
                        -----------------------------------------
Total Dipole Moment    :      0.14747       0.33237       1.15177
                        -----------------------------------------
Magnitude (a.u.)       :      1.20781
Magnitude (Debye)      :      3.07000

Rotational constants in cm-1:     0.017300     0.013229     0.007767
Rotational constants in MHz :   518.654755   396.597034   232.850330

                             ****ORCA TERMINATED NORMALLY****
TOTAL RUN TIME: 0 days 0 hours 23 minutes 49 seconds 619 msec
