                         Program Version 4.2.0 -  RELEASE  -
|  1> # ORCA input file
|  2> # SCF done        -23.960699729136          0.000586755920
|  3> ! B3LYP/G D3BJ Opt RIJCOSX def2-SVP def2/J
|  4> * xyz 0 2
|  5>    C       -0.58991        -1.43790         1.15382
|  6>    S       -0.49313         0.26538         0.94023
|  7>    C        0.99201         0.11469         0.07860
|  8>    C        1.40043        -1.17739        -0.04328
|  9>    C        0.48124        -2.10647         0.58403
| 10>    C        0.68253        -3.47856         0.59191
| 11>    S        2.03995        -4.24911        -0.13798
| 12>    C        2.93911        -2.91792        -0.79092
| 13>    C        2.58922        -1.62571        -0.70328
| 14>    H       -1.41873        -1.86294         1.68126
| 15>    H        1.48020         0.99499        -0.29032
| 16>    H       -0.00750        -4.15642         1.06118
| 17>    H        3.83764        -3.23947        -1.29118
| 18>    H        3.22601        -0.87414        -1.14859
| 19> *
| 20>
| 21>                          ****END OF INPUT****
 Total Charge           Charge          ....    0
 Multiplicity           Mult            ....    2
 Number of Electrons    NEL             ....   79
Dispersion correction           -0.034534040
FINAL SINGLE POINT ENERGY     -1065.701121909197
Dispersion correction            ... done
Dispersion correction           -0.034396948
FINAL SINGLE POINT ENERGY     -1065.703579839274
Dispersion correction            ... done
Dispersion correction           -0.034369148
FINAL SINGLE POINT ENERGY     -1065.703684977725
Dispersion correction            ... done
FINAL SINGLE POINT ENERGY     -1065.703698445285
Dispersion correction            ... done
Dispersion correction           -0.034364218
FINAL SINGLE POINT ENERGY     -1065.703700741442
Dispersion correction            ... done
Dispersion correction           -0.034366724
FINAL SINGLE POINT ENERGY     -1065.703702253987
Dispersion correction            ... done
                    ***********************HURRAY********************

CARTESIAN COORDINATES (ANGSTROEM)
---------------------------------
  C     -0.611335   -1.430296    1.164855
  S     -0.509546    0.285375    0.944458
  C      0.989340    0.138216    0.082858
  C      1.399609   -1.166405   -0.038593
  C      0.471410   -2.102874    0.594196
  C      0.686070   -3.496879    0.601708
  S      2.056211   -4.271381   -0.134385
  C      2.948118   -2.928379   -0.801369
  C      2.597177   -1.625381   -0.709388
  H     -1.457007   -1.869960    1.689988
  H      1.496641    1.024091   -0.295819
  H     -0.017981   -4.185935    1.068801
  H      3.859802   -3.242635   -1.314681
  H      3.250562   -0.878526   -1.167149

 Multiplicity           Mult            ....    2
 Number of Electrons    NEL             ....   79
 Basis Dimension        Dim             ....  159

ORBITAL ENERGIES
----------------
                 SPIN UP ORBITALS
  NO   OCC          E(Eh)            E(eV)
   0   1.0000     -88.875415     -2418.4230
   1   1.0000     -88.874198     -2418.3899
   2   1.0000     -10.224999      -278.2364
   3   1.0000     -10.214984      -277.9639
   4   1.0000     -10.211175      -277.8602
   5   1.0000     -10.208560      -277.7890
   6   1.0000     -10.208078      -277.7759
   7   1.0000     -10.207088      -277.7490
   8   1.0000     -10.205175      -277.6969
   9   1.0000      -7.970051      -216.8761
  10   1.0000      -7.969048      -216.8488
  11   1.0000      -5.938382      -161.5916
  12   1.0000      -5.936976      -161.5533
  13   1.0000      -5.934017      -161.4728
  14   1.0000      -5.932950      -161.4438
  15   1.0000      -5.931836      -161.4135
  16   1.0000      -5.931318      -161.3994
  17   1.0000      -0.888522       -24.1779
  18   1.0000      -0.842118       -22.9152
  19   1.0000      -0.776199       -21.1214
  20   1.0000      -0.749873       -20.4051
  21   1.0000      -0.706813       -19.2334
  22   1.0000      -0.635622       -17.2962
  23   1.0000      -0.591425       -16.0935
  24   1.0000      -0.576838       -15.6966
  25   1.0000      -0.514984       -14.0134
  26   1.0000      -0.487933       -13.2773
  27   1.0000      -0.472652       -12.8615
  28   1.0000      -0.439854       -11.9690
  29   1.0000      -0.414596       -11.2817
  30   1.0000      -0.409172       -11.1341
  31   1.0000      -0.402519       -10.9531
  32   1.0000      -0.360129        -9.7996
  33   1.0000      -0.356611        -9.7039
  34   1.0000      -0.354553        -9.6479
  35   1.0000      -0.339172        -9.2293
  36   1.0000      -0.310788        -8.4570
  37   1.0000      -0.274884        -7.4800
  38   1.0000      -0.228929        -6.2295
  39   1.0000      -0.153358        -4.1731
  40   0.0000      -0.034500        -0.9388
  41   0.0000       0.005264         0.1432
  42   0.0000       0.038328         1.0430
  43   0.0000       0.055719         1.5162
  44   0.0000       0.064601         1.7579

                 SPIN DOWN ORBITALS
  NO   OCC          E(Eh)            E(eV)
   0   1.0000     -88.874590     -2418.4005
   1   1.0000     -88.873423     -2418.3688
   2   1.0000     -10.225554      -278.2515
   3   1.0000     -10.211863      -277.8789
   4   1.0000     -10.210328      -277.8371
   5   1.0000     -10.206081      -277.7216
   6   1.0000     -10.205947      -277.7179
   7   1.0000     -10.204460      -277.6775
   8   1.0000     -10.203521      -277.6519
   9   1.0000      -7.969252      -216.8544
  10   1.0000      -7.968297      -216.8284
  11   1.0000      -5.938031      -161.5820
  12   1.0000      -5.936574      -161.5424
  13   1.0000      -5.933687      -161.4638
  14   1.0000      -5.932582      -161.4338
  15   1.0000      -5.928918      -161.3341
  16   1.0000      -5.928707      -161.3283
  17   1.0000      -0.885195       -24.0874
  18   1.0000      -0.837463       -22.7885
  19   1.0000      -0.769576       -20.9412
  20   1.0000      -0.746891       -20.3239
  21   1.0000      -0.702584       -19.1183
  22   1.0000      -0.625360       -17.0169
  23   1.0000      -0.589574       -16.0431
  24   1.0000      -0.573119       -15.5954
  25   1.0000      -0.512532       -13.9467
  26   1.0000      -0.485266       -13.2048
  27   1.0000      -0.470345       -12.7987
  28   1.0000      -0.436470       -11.8770
  29   1.0000      -0.413725       -11.2580
  30   1.0000      -0.400330       -10.8935
  31   1.0000      -0.399421       -10.8688
  32   1.0000      -0.356587        -9.7032
  33   1.0000      -0.354436        -9.6447
  34   1.0000      -0.342275        -9.3138
  35   1.0000      -0.335910        -9.1406
  36   1.0000      -0.290824        -7.9137
  37   1.0000      -0.263182        -7.1616
  38   1.0000      -0.214960        -5.8494
  39   0.0000      -0.071177        -1.9368
  40   0.0000      -0.031471        -0.8564
  41   0.0000       0.021609         0.5880
  42   0.0000       0.043176         1.1749
  43   0.0000       0.057971         1.5775

MULLIKEN ATOMIC CHARGES AND SPIN POPULATIONS
--------------------------------------------
   0 C :   -0.154462    0.327520
   1 S :    0.103406    0.119364
   2 C :   -0.136485   -0.052039
   3 C :    0.063852    0.049159
   4 C :    0.154287   -0.167540
   5 C :   -0.150235    0.606257
   6 S :    0.090440    0.124133
   7 C :   -0.099504   -0.042745
   8 C :    0.057746    0.079969
   9 H :    0.015291   -0.014983
  10 H :    0.013900    0.001902
  11 H :    0.020504   -0.028082
  12 H :    0.039139    0.000899
  13 H :   -0.017879   -0.003814
Sum of atomic charges         :   -0.0000000

LOEWDIN ATOMIC CHARGES AND SPIN POPULATIONS
-------------------------------------------
   0 C :   -0.214761    0.273089
   1 S :    0.426964    0.126781
   2 C :   -0.195650   -0.037404
   3 C :   -0.059140    0.037729
   4 C :   -0.063070   -0.079792
   5 C :   -0.215327    0.502383
   6 S :    0.409572    0.141134
   7 C :   -0.175176   -0.025644
   8 C :   -0.047656    0.061720
   9 H :    0.021604    0.000110
  10 H :    0.023579   -0.000306
  11 H :    0.023162    0.000670
  12 H :    0.030759   -0.000559
  13 H :    0.035140    0.000092

  Mayer bond orders larger than 0.100000
B(  0-C ,  1-S ) :   1.1653 B(  0-C ,  4-C ) :   1.3971 B(  0-C ,  9-H ) :   0.9634
B(  1-S ,  2-C ) :   1.1332 B(  2-C ,  3-C ) :   1.5377 B(  2-C , 10-H ) :   0.9615
B(  3-C ,  4-C ) :   1.1390 B(  3-C ,  8-C ) :   1.1216 B(  4-C ,  5-C ) :   1.3006
B(  5-C ,  6-S ) :   1.1399 B(  5-C , 11-H ) :   0.9422 B(  6-S ,  7-C ) :   1.0876
B(  7-C ,  8-C ) :   1.7109 B(  7-C , 12-H ) :   0.9372 B(  8-C , 13-H ) :   0.9694

Dispersion correction           -0.034367683
FINAL SINGLE POINT ENERGY     -1065.703702309920

DIPOLE MOMENT
-------------
                                X             Y             Z
Electronic contribution:     -1.62569      -0.18585       1.00125
Nuclear contribution   :      1.85018       0.25084      -1.15052
                        -----------------------------------------
Total Dipole Moment    :      0.22450       0.06500      -0.14928
                        -----------------------------------------
Magnitude (a.u.)       :      0.27732
Magnitude (Debye)      :      0.70489

Rotational constants in cm-1:     0.107907     0.027762     0.022081
Rotational constants in MHz :  3234.964150   832.271182   661.970039

                             ****ORCA TERMINATED NORMALLY****
TOTAL RUN TIME: 0 days 0 hours 5 minutes 43 seconds 338 msec
