                         Program Version 4.2.0 -  RELEASE  -
|  1> # ORCA input file
|  2> # SCF done        -26.655818317961          0.000462054371
|  3> ! B3LYP/G D3BJ Opt RIJCOSX def2-SVP def2/J
|  4> * xyz 0 1
|  5>    C       -1.51152        -1.23994         0.16615
|  6>    S       -2.68750        -0.00365         0.25434
|  7>    C       -1.50676         1.22604         0.16662
|  8>    C       -0.23562         0.71137         0.07281
|  9>    C       -0.23787        -0.72912         0.07214
| 10>    C        0.98642        -1.43354        -0.01980
| 11>    C        2.14711        -0.72398        -0.10616
| 12>    S        3.72636        -1.51042        -0.22709
| 13>    C        2.15400         0.69839        -0.10445
| 14>    C        0.99836         1.40365        -0.01767
| 15>    H       -1.81397        -2.26750         0.18821
| 16>    H       -1.80405         2.25525         0.18858
| 17>    H        0.97645        -2.51385        -0.02023
| 18>    H        3.26792        -2.76071        -0.20167
| 19>    H        3.10711         1.20017        -0.17482
| 20>    H        1.00071         2.48303        -0.01661
| 21> *
| 22>
| 23>                          ****END OF INPUT****
 Total Charge           Charge          ....    0
 Multiplicity           Mult            ....    1
 Number of Electrons    NEL             ....   86
Dispersion correction           -0.038597628
FINAL SINGLE POINT ENERGY     -1104.426823745560
Dispersion correction            ... done
Dispersion correction           -0.038435791
FINAL SINGLE POINT ENERGY     -1104.429595148177
Dispersion correction            ... done
Dispersion correction           -0.038399205
FINAL SINGLE POINT ENERGY     -1104.429705351379
Dispersion correction            ... done
FINAL SINGLE POINT ENERGY     -1104.429653455261
Dispersion correction            ... done
Dispersion correction           -0.038389846
FINAL SINGLE POINT ENERGY     -1104.429686051460
Dispersion correction            ... done
Dispersion correction           -0.038392976
FINAL SINGLE POINT ENERGY     -1104.429684943520
Dispersion correction            ... done
                    ***********************HURRAY********************

CARTESIAN COORDINATES (ANGSTROEM)
---------------------------------
  C     -1.544851   -1.247206    0.168307
  S     -2.710768    0.008831    0.275075
  C     -1.530999    1.247508    0.174890
  C     -0.250670    0.717911    0.064817
  C     -0.255316   -0.736131    0.061496
  C      0.983201   -1.446455   -0.027045
  C      2.164893   -0.746168   -0.097109
  S      3.770959   -1.504040   -0.171032
  C      2.165058    0.695128   -0.103335
  C      0.999221    1.406224   -0.029825
  H     -1.855088   -2.289961    0.191139
  H     -1.822860    2.295667    0.201900
  H      0.974087   -2.539102   -0.026886
  H      3.344726   -2.784830   -0.245440
  H      3.120921    1.219107   -0.175322
  H      1.014636    2.498707   -0.041280

 Multiplicity           Mult            ....    1
 Number of Electrons    NEL             ....   86
 Basis Dimension        Dim             ....  178

ORBITAL ENERGIES
----------------

  NO   OCC          E(Eh)            E(eV)
   0   2.0000     -88.885886     -2418.7079
   1   2.0000     -88.853854     -2417.8363
   2   2.0000     -10.225730      -278.2563
   3   2.0000     -10.214325      -277.9459
   4   2.0000     -10.211322      -277.8642
   5   2.0000     -10.202818      -277.6328
   6   2.0000     -10.201332      -277.5924
   7   2.0000     -10.201087      -277.5857
   8   2.0000     -10.199701      -277.5480
   9   2.0000     -10.196944      -277.4729
  10   2.0000      -7.980496      -217.1603
  11   2.0000      -7.948239      -216.2826
  12   2.0000      -5.948220      -161.8593
  13   2.0000      -5.944073      -161.7464
  14   2.0000      -5.942872      -161.7138
  15   2.0000      -5.917465      -161.0224
  16   2.0000      -5.913583      -160.9168
  17   2.0000      -5.907299      -160.7458
  18   2.0000      -0.892568       -24.2880
  19   2.0000      -0.842535       -22.9265
  20   2.0000      -0.778605       -21.1869
  21   2.0000      -0.756139       -20.5756
  22   2.0000      -0.715312       -19.4646
  23   2.0000      -0.685685       -18.6584
  24   2.0000      -0.618239       -16.8231
  25   2.0000      -0.577438       -15.7129
  26   2.0000      -0.566928       -15.4269
  27   2.0000      -0.514148       -13.9907
  28   2.0000      -0.481823       -13.1111
  29   2.0000      -0.473945       -12.8967
  30   2.0000      -0.436324       -11.8730
  31   2.0000      -0.417140       -11.3510
  32   2.0000      -0.413089       -11.2407
  33   2.0000      -0.408093       -11.1048
  34   2.0000      -0.391785       -10.6610
  35   2.0000      -0.358186        -9.7468
  36   2.0000      -0.355921        -9.6851
  37   2.0000      -0.352230        -9.5847
  38   2.0000      -0.338442        -9.2095
  39   2.0000      -0.297989        -8.1087
  40   2.0000      -0.276752        -7.5308
  41   2.0000      -0.232607        -6.3296
  42   2.0000      -0.201322        -5.4782
  43   0.0000      -0.060608        -1.6492
  44   0.0000       0.014633         0.3982
  45   0.0000       0.016997         0.4625
  46   0.0000       0.021287         0.5792
  47   0.0000       0.048576         1.3218

MULLIKEN ATOMIC CHARGES
-----------------------
   0 C :   -0.152537
   1 S :    0.135094
   2 C :   -0.141838
   3 C :    0.092563
   4 C :    0.100519
   5 C :   -0.030090
   6 C :   -0.051603
   7 S :    0.013848
   8 C :    0.028966
   9 C :   -0.003017
  10 H :    0.015605
  11 H :    0.017471
  12 H :   -0.041160
  13 H :    0.056605
  14 H :   -0.018107
  15 H :   -0.022319
Sum of atomic charges:   -0.0000000

LOEWDIN ATOMIC CHARGES
----------------------
   0 C :   -0.219069
   1 S :    0.479107
   2 C :   -0.209510
   3 C :   -0.055833
   4 C :   -0.045921
   5 C :   -0.061155
   6 C :   -0.153068
   7 S :    0.217053
   8 C :   -0.045192
   9 C :   -0.011538
  10 H :    0.023258
  11 H :    0.024831
  12 H :    0.022866
  13 H :   -0.023171
  14 H :    0.026558
  15 H :    0.030783

  Mayer bond orders larger than 0.100000
B(  0-C ,  1-S ) :   1.1939 B(  0-C ,  2-C ) :   0.1165 B(  0-C ,  4-C ) :   1.4055
B(  0-C , 10-H ) :   0.9644 B(  1-S ,  2-C ) :   1.2085 B(  2-C ,  3-C ) :   1.4081
B(  2-C , 11-H ) :   0.9651 B(  3-C ,  4-C ) :   1.2005 B(  3-C ,  9-C ) :   1.1724
B(  4-C ,  5-C ) :   1.1954 B(  5-C ,  6-C ) :   1.5397 B(  5-C , 12-H ) :   0.9867
B(  6-C ,  7-S ) :   1.0392 B(  6-C ,  8-C ) :   1.1760 B(  7-S , 13-H ) :   0.9531
B(  8-C ,  9-C ) :   1.5888 B(  8-C , 14-H ) :   0.9764 B(  9-C , 15-H ) :   0.9926

Dispersion correction           -0.038393660
FINAL SINGLE POINT ENERGY     -1104.429683280055

DIPOLE MOMENT
-------------
                                X             Y             Z
Electronic contribution:     -2.36552      -0.35987       0.28434
Nuclear contribution   :      2.05113       0.24615      -0.28692
                        -----------------------------------------
Total Dipole Moment    :     -0.31439      -0.11372      -0.00258
                        -----------------------------------------
Magnitude (a.u.)       :      0.33433
Magnitude (Debye)      :      0.84981

Rotational constants in cm-1:     0.103731     0.018162     0.015458
Rotational constants in MHz :  3109.770005   544.484235   463.413767

                             ****ORCA TERMINATED NORMALLY****
TOTAL RUN TIME: 0 days 0 hours 6 minutes 0 seconds 765 msec
