                         Program Version 4.2.0 -  RELEASE  -
|  1> # ORCA input file
|  2> # SCF done        -17.888209533897          0.000472845454
|  3> ! B3LYP/G D3BJ Opt RIJCOSX def2-SVP def2/J
|  4> * xyz 0 1
|  5>    C       -1.26947        -0.08950        -0.00162
|  6>    S       -0.50360         1.45833         0.00051
|  7>    C        1.06798         0.70716         0.00196
|  8>    O        2.20503         1.43117         0.00413
|  9>    C        0.97655        -0.64861         0.00053
| 10>    C       -0.36659        -1.09659        -0.00219
| 11>    H       -2.33948        -0.13802        -0.00256
| 12>    H        2.00936         2.37450         0.00483
| 13>    H        1.83439        -1.29382         0.00101
| 14>    H       -0.64036        -2.13626        -0.00381
| 15> *
| 16>
| 17>                          ****END OF INPUT****
 Total Charge           Charge          ....    0
 Multiplicity           Mult            ....    1
 Number of Electrons    NEL             ....   52
Dispersion correction           -0.017436979
FINAL SINGLE POINT ENERGY      -627.957532118046
Dispersion correction            ... done
Dispersion correction           -0.017400956
FINAL SINGLE POINT ENERGY      -627.958951480526
Dispersion correction            ... done
Dispersion correction           -0.017397429
FINAL SINGLE POINT ENERGY      -627.959000700032
Dispersion correction            ... done
FINAL SINGLE POINT ENERGY      -627.959000536190
Dispersion correction            ... done
Dispersion correction           -0.017397714
FINAL SINGLE POINT ENERGY      -627.958993074583
Dispersion correction            ... done
Dispersion correction           -0.017397955
FINAL SINGLE POINT ENERGY      -627.958996551427
Dispersion correction            ... done
                    ***********************HURRAY********************

CARTESIAN COORDINATES (ANGSTROEM)
---------------------------------
  C     -1.290398   -0.089007   -0.001872
  S     -0.514151    1.471663    0.001124
  C      1.071416    0.721116    0.002054
  O      2.220888    1.431045    0.004379
  C      0.985682   -0.647277    0.000333
  C     -0.371273   -1.101577   -0.001772
  H     -2.376696   -0.153369   -0.003307
  H      2.038439    2.379084    0.004631
  H      1.866617   -1.288228    0.000526
  H     -0.656714   -2.155089   -0.003305

 Multiplicity           Mult            ....    1
 Number of Electrons    NEL             ....   52
 Basis Dimension        Dim             ....  108

ORBITAL ENERGIES
----------------

  NO   OCC          E(Eh)            E(eV)
   0   2.0000     -88.872630     -2418.3472
   1   2.0000     -19.180457      -521.9268
   2   2.0000     -10.268386      -279.4170
   3   2.0000     -10.204907      -277.6896
   4   2.0000     -10.192027      -277.3392
   5   2.0000     -10.180427      -277.0235
   6   2.0000      -7.968460      -216.8328
   7   2.0000      -5.936735      -161.5468
   8   2.0000      -5.932848      -161.4410
   9   2.0000      -5.929168      -161.3409
  10   2.0000      -1.066359       -29.0171
  11   2.0000      -0.866949       -23.5909
  12   2.0000      -0.732408       -19.9298
  13   2.0000      -0.709895       -19.3172
  14   2.0000      -0.602875       -16.4051
  15   2.0000      -0.552685       -15.0393
  16   2.0000      -0.519240       -14.1292
  17   2.0000      -0.472277       -12.8513
  18   2.0000      -0.426057       -11.5936
  19   2.0000      -0.423956       -11.5364
  20   2.0000      -0.400007       -10.8847
  21   2.0000      -0.363055        -9.8792
  22   2.0000      -0.346042        -9.4163
  23   2.0000      -0.345800        -9.4097
  24   2.0000      -0.254570        -6.9272
  25   2.0000      -0.212682        -5.7874
  26   0.0000      -0.003031        -0.0825
  27   0.0000       0.006867         0.1869
  28   0.0000       0.068021         1.8510
  29   0.0000       0.073665         2.0045
  30   0.0000       0.080915         2.2018

MULLIKEN ATOMIC CHARGES
-----------------------
   0 C :   -0.106579
   1 S :    0.035205
   2 C :    0.010602
   3 O :   -0.176930
   4 C :   -0.003005
   5 C :    0.042062
   6 H :    0.029886
   7 H :    0.185639
   8 H :   -0.011000
   9 H :   -0.005880
Sum of atomic charges:    0.0000000

LOEWDIN ATOMIC CHARGES
----------------------
   0 C :   -0.211095
   1 S :    0.358933
   2 C :   -0.103712
   3 O :   -0.050936
   4 C :   -0.118214
   5 C :   -0.055012
   6 H :    0.023679
   7 H :    0.094554
   8 H :    0.031644
   9 H :    0.030161

  Mayer bond orders larger than 0.100000
B(  0-C ,  1-S ) :   1.1017 B(  0-C ,  5-C ) :   1.5985 B(  0-C ,  6-H ) :   0.9715
B(  1-S ,  2-C ) :   1.1205 B(  2-C ,  3-O ) :   1.1778 B(  2-C ,  4-C ) :   1.5319
B(  3-O ,  7-H ) :   0.9577 B(  4-C ,  5-C ) :   1.2300 B(  4-C ,  8-H ) :   0.9965
B(  5-C ,  9-H ) :   0.9906

Dispersion correction           -0.017398104
FINAL SINGLE POINT ENERGY      -627.958996317828

DIPOLE MOMENT
-------------
                                X             Y             Z
Electronic contribution:     -0.07330       3.61845       0.00453
Nuclear contribution   :     -0.05581      -3.23348      -0.00468
                        -----------------------------------------
Total Dipole Moment    :     -0.12911       0.38497      -0.00015
                        -----------------------------------------
Magnitude (a.u.)       :      0.40604
Magnitude (Debye)      :      1.03208

Rotational constants in cm-1:     0.175709     0.108167     0.066951
Rotational constants in MHz :  5267.612145  3242.752336  2007.148077

                             ****ORCA TERMINATED NORMALLY****
TOTAL RUN TIME: 0 days 0 hours 1 minutes 58 seconds 496 msec
