                         Program Version 4.2.0 -  RELEASE  -
|  1> # ORCA input file
|  2> # SCF done        -31.023774989292          0.000892310055
|  3> ! B3LYP/G D3BJ Opt RIJCOSX def2-SVP def2/J
|  4> * xyz 0 1
|  5>    C        1.26365        -1.43829        -0.05647
|  6>    C        2.42493        -0.71756        -0.05838
|  7>    C        2.38601         0.67852        -0.00484
|  8>    C        1.20234         1.38968         0.05908
|  9>    C       -0.02164         0.65275         0.05606
| 10>    C        0.02493        -0.77084        -0.00305
| 11>    C       -1.19965        -1.47144        -0.00759
| 12>    C       -2.37693        -0.77818         0.04105
| 13>    C       -2.31183         0.62385         0.09059
| 14>    N       -1.19998         1.30200         0.09796
| 15>    C        1.28915         2.84195         0.12013
| 16>    C        0.30387         3.70836         0.32715
| 17>    H        1.27481        -2.51826        -0.09689
| 18>    H        3.38058        -1.21941        -0.10161
| 19>    H        3.32136         1.22112        -0.00806
| 20>    H       -1.18483        -2.55227        -0.05188
| 21>    H       -3.33233        -1.27993         0.03946
| 22>    H       -3.22038         1.21305         0.12693
| 23>    H        2.29985         3.21809        -0.00131
| 24>    H       -0.71050         3.38526         0.46762
| 25>    H        0.50111         4.76741         0.36387
| 26> *
| 27>
| 28>                          ****END OF INPUT****
 Total Charge           Charge          ....    0
 Multiplicity           Mult            ....    1
 Number of Electrons    NEL             ....   82
Dispersion correction           -0.044566767
FINAL SINGLE POINT ENERGY      -479.025746931739
Dispersion correction            ... done
Dispersion correction           -0.044013489
FINAL SINGLE POINT ENERGY      -479.029104328298
Dispersion correction            ... done
Dispersion correction           -0.044081609
FINAL SINGLE POINT ENERGY      -479.029412667821
Dispersion correction            ... done
Dispersion correction           -0.044092586
FINAL SINGLE POINT ENERGY      -479.029459652150
Dispersion correction            ... done
Dispersion correction           -0.044091860
FINAL SINGLE POINT ENERGY      -479.029462848092
Dispersion correction            ... done
                    ***********************HURRAY********************

CARTESIAN COORDINATES (ANGSTROEM)
---------------------------------
  C      1.270017   -1.456178   -0.086458
  C      2.436435   -0.725459   -0.073587
  C      2.388456    0.682317    0.015139
  C      1.194776    1.394975    0.095063
  C     -0.036519    0.642560    0.087852
  C      0.019123   -0.790233   -0.007758
  C     -1.208300   -1.501167   -0.022643
  C     -2.397640   -0.813293    0.052197
  C     -2.345926    0.598937    0.148425
  N     -1.227672    1.290270    0.167755
  C      1.293956    2.858812    0.177115
  C      0.327240    3.787570    0.245121
  H      1.285795   -2.546603   -0.162619
  H      3.403905   -1.228480   -0.137018
  H      3.326474    1.243122    0.018719
  H     -1.187183   -2.592144   -0.099030
  H     -3.359271   -1.330292    0.039042
  H     -3.279126    1.171997    0.213905
  H      2.332787    3.211316    0.177445
  H     -0.726591    3.513038    0.251524
  H      0.603786    4.844795    0.299631

 Multiplicity           Mult            ....    1
 Number of Electrons    NEL             ....   82
 Basis Dimension        Dim             ....  213

ORBITAL ENERGIES
----------------

  NO   OCC          E(Eh)            E(eV)
   0   2.0000     -14.323257      -389.7556
   1   2.0000     -10.229805      -278.3672
   2   2.0000     -10.229678      -278.3637
   3   2.0000     -10.213950      -277.9357
   4   2.0000     -10.207407      -277.7577
   5   2.0000     -10.203888      -277.6619
   6   2.0000     -10.202315      -277.6191
   7   2.0000     -10.200747      -277.5764
   8   2.0000     -10.199819      -277.5512
   9   2.0000     -10.197703      -277.4936
  10   2.0000     -10.186322      -277.1839
  11   2.0000     -10.173887      -276.8455
  12   2.0000      -0.941743       -25.6261
  13   2.0000      -0.849489       -23.1158
  14   2.0000      -0.811469       -22.0812
  15   2.0000      -0.768718       -20.9179
  16   2.0000      -0.750046       -20.4098
  17   2.0000      -0.717269       -19.5179
  18   2.0000      -0.644307       -17.5325
  19   2.0000      -0.635662       -17.2973
  20   2.0000      -0.609955       -16.5977
  21   2.0000      -0.557602       -15.1731
  22   2.0000      -0.530156       -14.4263
  23   2.0000      -0.516477       -14.0540
  24   2.0000      -0.500174       -13.6104
  25   2.0000      -0.465715       -12.6728
  26   2.0000      -0.455870       -12.4048
  27   2.0000      -0.440117       -11.9762
  28   2.0000      -0.421056       -11.4575
  29   2.0000      -0.420698       -11.4478
  30   2.0000      -0.408737       -11.1223
  31   2.0000      -0.406868       -11.0714
  32   2.0000      -0.372132       -10.1262
  33   2.0000      -0.360252        -9.8029
  34   2.0000      -0.354729        -9.6527
  35   2.0000      -0.348815        -9.4918
  36   2.0000      -0.326298        -8.8790
  37   2.0000      -0.278873        -7.5885
  38   2.0000      -0.260848        -7.0980
  39   2.0000      -0.253132        -6.8881
  40   2.0000      -0.220982        -6.0132
  41   0.0000      -0.068529        -1.8648
  42   0.0000      -0.027816        -0.7569
  43   0.0000      -0.011038        -0.3004
  44   0.0000       0.052472         1.4278
  45   0.0000       0.056432         1.5356

MULLIKEN ATOMIC CHARGES
-----------------------
   0 C :   -0.037987
   1 C :    0.050617
   2 C :   -0.053362
   3 C :    0.115195
   4 C :   -0.019507
   5 C :    0.079543
   6 C :    0.015177
   7 C :    0.004906
   8 C :    0.047538
   9 N :   -0.083155
  10 C :   -0.045504
  11 C :    0.004883
  12 H :   -0.025905
  13 H :   -0.017974
  14 H :   -0.023851
  15 H :   -0.013268
  16 H :   -0.010263
  17 H :   -0.002619
  18 H :   -0.029551
  19 H :    0.033399
  20 H :    0.011688
Sum of atomic charges:   -0.0000000

LOEWDIN ATOMIC CHARGES
----------------------
   0 C :   -0.021618
   1 C :   -0.022937
   2 C :   -0.014373
   3 C :   -0.016617
   4 C :    0.016578
   5 C :   -0.029726
   6 C :    0.012963
   7 C :   -0.049870
   8 C :    0.025943
   9 N :   -0.066935
  10 C :   -0.032421
  11 C :   -0.032744
  12 H :    0.027036
  13 H :    0.029180
  14 H :    0.026930
  15 H :    0.031254
  16 H :    0.030683
  17 H :    0.019693
  18 H :    0.023291
  19 H :    0.022843
  20 H :    0.020846

  Mayer bond orders larger than 0.100000
B(  0-C ,  1-C ) :   1.4498 B(  0-C ,  5-C ) :   1.2274 B(  0-C , 12-H ) :   0.9950
B(  1-C ,  2-C ) :   1.2488 B(  1-C , 13-H ) :   0.9842 B(  2-C ,  3-C ) :   1.4276
B(  2-C , 14-H ) :   0.9883 B(  3-C ,  4-C ) :   1.1945 B(  3-C , 10-C ) :   1.1032
B(  4-C ,  5-C ) :   1.2224 B(  4-C ,  9-N ) :   1.4398 B(  5-C ,  6-C ) :   1.2666
B(  6-C ,  7-C ) :   1.4954 B(  6-C , 15-H ) :   0.9799 B(  7-C ,  8-C ) :   1.2527
B(  7-C , 16-H ) :   0.9704 B(  8-C ,  9-N ) :   1.6208 B(  8-C , 17-H ) :   0.9694
B( 10-C , 11-C ) :   1.9173 B( 10-C , 18-H ) :   0.9543 B( 11-C , 19-H ) :   0.9237
B( 11-C , 20-H ) :   0.9356

Dispersion correction           -0.044092295
FINAL SINGLE POINT ENERGY      -479.029462664559

DIPOLE MOMENT
-------------
                                X             Y             Z
Electronic contribution:     -1.13647      -2.32992      -0.05549
Nuclear contribution   :      1.12636       1.51691      -0.00785
                        -----------------------------------------
Total Dipole Moment    :     -0.01012      -0.81301      -0.06334
                        -----------------------------------------
Magnitude (a.u.)       :      0.81554
Magnitude (Debye)      :      2.07293

Rotational constants in cm-1:     0.045626     0.034678     0.019703
Rotational constants in MHz :  1367.846216  1039.605783   590.688073

                             ****ORCA TERMINATED NORMALLY****
TOTAL RUN TIME: 0 days 0 hours 9 minutes 29 seconds 305 msec
