                         Program Version 4.2.0 -  RELEASE  -
|  1> # ORCA input file
|  2> # SCF done        -32.657752169772          0.000634170780
|  3> ! B3LYP/G D3BJ Opt RIJCOSX def2-SVP def2/J
|  4> * xyz 0 1
|  5>    C       -1.62127         1.20323        -0.02451
|  6>    C       -2.39602         0.07383        -0.15107
|  7>    C       -3.88037         0.08881        -0.23527
|  8>    C       -1.55572        -1.10133        -0.18638
|  9>    C       -0.26044        -0.64108        -0.07697
| 10>    C       -0.26492         0.82114         0.02675
| 11>    C        0.93516         1.46868         0.14075
| 12>    C        2.10866         0.68486         0.15232
| 13>    C        2.02439        -0.67360         0.05161
| 14>    O        0.88490        -1.34325        -0.06113
| 15>    C       -1.88215        -2.50223        -0.30547
| 16>    C       -3.07559        -3.07424        -0.43967
| 17>    H       -1.98109         2.21342         0.02810
| 18>    H       -4.24761         1.11103        -0.17051
| 19>    H       -4.31542        -0.49141         0.57796
| 20>    H       -4.21375        -0.34274        -1.17864
| 21>    H        0.99817         2.54351         0.21998
| 22>    H        3.07672         1.14827         0.23998
| 23>    H        2.88709        -1.32351         0.05498
| 24>    H       -1.00485        -3.13991        -0.27862
| 25>    H       -3.99639        -2.52274        -0.47789
| 26>    H       -3.16453        -4.14472        -0.51935
| 27> *
| 28>
| 29>                          ****END OF INPUT****
 Total Charge           Charge          ....    0
 Multiplicity           Mult            ....    1
 Number of Electrons    NEL             ....   84
Dispersion correction           -0.042369850
FINAL SINGLE POINT ENERGY      -500.030738360969
Dispersion correction            ... done
Dispersion correction           -0.042217951
FINAL SINGLE POINT ENERGY      -500.034055688240
Dispersion correction            ... done
Dispersion correction           -0.042196972
FINAL SINGLE POINT ENERGY      -500.034273736693
Dispersion correction            ... done
FINAL SINGLE POINT ENERGY      -500.034319989461
Dispersion correction            ... done
Dispersion correction           -0.042202109
FINAL SINGLE POINT ENERGY      -500.034327384254
Dispersion correction            ... done
Dispersion correction           -0.042203080
FINAL SINGLE POINT ENERGY      -500.034328798671
Dispersion correction            ... done
                    ***********************HURRAY********************

CARTESIAN COORDINATES (ANGSTROEM)
---------------------------------
  C     -1.626639    1.231272   -0.040766
  C     -2.398682    0.089445   -0.162985
  C     -3.890080    0.078606   -0.239494
  C     -1.543672   -1.106757   -0.202624
  C     -0.254020   -0.623390   -0.093731
  C     -0.251448    0.838239    0.014095
  C      0.953647    1.480439    0.144776
  C      2.143698    0.688731    0.168116
  C      2.066704   -0.670133    0.058664
  O      0.902240   -1.326011   -0.074774
  C     -1.889874   -2.510339   -0.326649
  C     -3.103815   -3.086133   -0.415885
  H     -2.000502    2.252606    0.012701
  H     -4.294073    1.098351   -0.165508
  H     -4.331447   -0.523815    0.571708
  H     -4.241397   -0.363227   -1.187705
  H      1.015209    2.567770    0.237202
  H      3.124492    1.151870    0.279939
  H      2.920010   -1.347437    0.070645
  H     -1.016190   -3.172514   -0.348384
  H     -4.034926   -2.520575   -0.402913
  H     -3.194266   -4.170978   -0.509478

 Multiplicity           Mult            ....    1
 Number of Electrons    NEL             ....   84
 Basis Dimension        Dim             ....  218

ORBITAL ENERGIES
----------------

  NO   OCC          E(Eh)            E(eV)
   0   2.0000     -19.225442      -523.1509
   1   2.0000     -10.273000      -279.5425
   2   2.0000     -10.246014      -278.8082
   3   2.0000     -10.220451      -278.1126
   4   2.0000     -10.209395      -277.8118
   5   2.0000     -10.199782      -277.5502
   6   2.0000     -10.193649      -277.3833
   7   2.0000     -10.184254      -277.1276
   8   2.0000     -10.183962      -277.1197
   9   2.0000     -10.175934      -276.9012
  10   2.0000     -10.168569      -276.7008
  11   2.0000     -10.167858      -276.6815
  12   2.0000      -1.119101       -30.4523
  13   2.0000      -0.867514       -23.6063
  14   2.0000      -0.822721       -22.3874
  15   2.0000      -0.765593       -20.8328
  16   2.0000      -0.755410       -20.5558
  17   2.0000      -0.705127       -19.1875
  18   2.0000      -0.696801       -18.9609
  19   2.0000      -0.630776       -17.1643
  20   2.0000      -0.618158       -16.8209
  21   2.0000      -0.574648       -15.6370
  22   2.0000      -0.549081       -14.9413
  23   2.0000      -0.517097       -14.0709
  24   2.0000      -0.489756       -13.3270
  25   2.0000      -0.482348       -13.1254
  26   2.0000      -0.476411       -12.9638
  27   2.0000      -0.453052       -12.3282
  28   2.0000      -0.444084       -12.0841
  29   2.0000      -0.423130       -11.5140
  30   2.0000      -0.415382       -11.3031
  31   2.0000      -0.409189       -11.1346
  32   2.0000      -0.402410       -10.9501
  33   2.0000      -0.378306       -10.2942
  34   2.0000      -0.369060       -10.0426
  35   2.0000      -0.356497        -9.7008
  36   2.0000      -0.336635        -9.1603
  37   2.0000      -0.331131        -9.0105
  38   2.0000      -0.327747        -8.9184
  39   2.0000      -0.279374        -7.6022
  40   2.0000      -0.222739        -6.0610
  41   2.0000      -0.188832        -5.1384
  42   0.0000      -0.072553        -1.9743
  43   0.0000      -0.008493        -0.2311
  44   0.0000       0.025018         0.6808
  45   0.0000       0.058601         1.5946
  46   0.0000       0.078366         2.1325

MULLIKEN ATOMIC CHARGES
-----------------------
   0 C :   -0.078008
   1 C :   -0.091365
   2 C :    0.099835
   3 C :   -0.013286
   4 C :    0.090028
   5 C :    0.073184
   6 C :    0.023469
   7 C :   -0.046269
   8 C :    0.175795
   9 O :   -0.186411
  10 C :   -0.002702
  11 C :   -0.058440
  12 H :   -0.047542
  13 H :   -0.003356
  14 H :    0.034116
  15 H :    0.030938
  16 H :   -0.009297
  17 H :    0.002225
  18 H :    0.023401
  19 H :   -0.022837
  20 H :   -0.006456
  21 H :    0.012979
Sum of atomic charges:    0.0000000

LOEWDIN ATOMIC CHARGES
----------------------
   0 C :   -0.094841
   1 C :    0.011675
   2 C :   -0.047614
   3 C :   -0.100965
   4 C :    0.047045
   5 C :   -0.028678
   6 C :    0.015222
   7 C :   -0.086282
   8 C :    0.078268
   9 O :    0.027376
  10 C :   -0.022198
  11 C :   -0.082961
  12 H :    0.017266
  13 H :    0.028542
  14 H :    0.036321
  15 H :    0.036570
  16 H :    0.034652
  17 H :    0.037617
  18 H :    0.030761
  19 H :    0.027238
  20 H :    0.014247
  21 H :    0.020736

  Mayer bond orders larger than 0.100000
B(  0-C ,  1-C ) :   1.5184 B(  0-C ,  5-C ) :   1.1472 B(  0-C , 12-H ) :   1.0138
B(  1-C ,  2-C ) :   1.1133 B(  1-C ,  3-C ) :   1.1413 B(  2-C , 13-H ) :   0.9442
B(  2-C , 14-H ) :   0.9378 B(  2-C , 15-H ) :   0.9373 B(  3-C ,  4-C ) :   1.4676
B(  3-C , 10-C ) :   1.1323 B(  4-C ,  5-C ) :   1.0789 B(  4-C ,  9-O ) :   1.1073
B(  5-C ,  6-C ) :   1.4825 B(  6-C ,  7-C ) :   1.2000 B(  6-C , 16-H ) :   0.9821
B(  7-C ,  8-C ) :   1.5698 B(  7-C , 17-H ) :   0.9655 B(  8-C ,  9-O ) :   1.1631
B(  8-C , 18-H ) :   0.9792 B( 10-C , 11-C ) :   1.8800 B( 10-C , 19-H ) :   0.9502
B( 11-C , 20-H ) :   0.9506 B( 11-C , 21-H ) :   0.9426

Dispersion correction           -0.042202759
FINAL SINGLE POINT ENERGY      -500.034330445391

DIPOLE MOMENT
-------------
                                X             Y             Z
Electronic contribution:      8.78529       1.11124       0.51552
Nuclear contribution   :     -7.95625      -0.61442      -0.41414
                        -----------------------------------------
Total Dipole Moment    :      0.82905       0.49681       0.10138
                        -----------------------------------------
Magnitude (a.u.)       :      0.97181
Magnitude (Debye)      :      2.47015

Rotational constants in cm-1:     0.061521     0.024980     0.017826
Rotational constants in MHz :  1844.355581   748.884801   534.417150

                             ****ORCA TERMINATED NORMALLY****
TOTAL RUN TIME: 0 days 0 hours 9 minutes 20 seconds 668 msec
