                         Program Version 4.2.0 -  RELEASE  -
|  1> # ORCA input file
|  2> # SCF done        -28.462193562662          0.000339469082
|  3> ! B3LYP/G D3BJ Opt RIJCOSX def2-SVP def2/J
|  4> * xyz 0 1
|  5>    C       -0.68842        -1.07493        -0.67429
|  6>    S        0.67958        -0.04146        -0.58277
|  7>    C       -0.33678         1.38441         0.04387
|  8>    O        0.14841         2.44355         0.29640
|  9>    C       -1.69016         0.89351         0.12195
| 10>    C       -1.84581        -0.47797        -0.28512
| 11>    C       -3.19919        -0.96885        -0.20713
| 12>    O       -3.68420        -2.02835        -0.45842
| 13>    S       -4.21590         0.45771         0.41747
| 14>    C       -2.84774         1.49088         0.50982
| 15>    H       -0.56948        -2.08696        -1.01514
| 16>    H       -2.96679         2.50310         0.85010
| 17> *
| 18>
| 19>                          ****END OF INPUT****
 Total Charge           Charge          ....    0
 Multiplicity           Mult            ....    1
 Number of Electrons    NEL             ....   86
Dispersion correction           -0.030966906
FINAL SINGLE POINT ENERGY     -1176.180688357513
Dispersion correction            ... done
Dispersion correction           -0.030941102
FINAL SINGLE POINT ENERGY     -1176.183053266934
Dispersion correction            ... done
Dispersion correction           -0.030946900
FINAL SINGLE POINT ENERGY     -1176.183365001863
Dispersion correction            ... done
FINAL SINGLE POINT ENERGY     -1176.183419078664
Dispersion correction            ... done
Dispersion correction           -0.030965705
FINAL SINGLE POINT ENERGY     -1176.183424183942
Dispersion correction            ... done
Dispersion correction           -0.030963492
FINAL SINGLE POINT ENERGY     -1176.183448716954
Dispersion correction            ... done
                    ***********************HURRAY********************

CARTESIAN COORDINATES (ANGSTROEM)
---------------------------------
  C     -0.681108   -1.082145   -0.676950
  S      0.718847   -0.053260   -0.579773
  C     -0.321545    1.401750    0.047578
  O      0.142837    2.475781    0.295811
  C     -1.695929    0.894170    0.125723
  C     -1.840123   -0.478444   -0.289430
  C     -3.214523   -0.985996   -0.211404
  O     -3.678961   -2.059912   -0.460031
  S     -4.254868    0.468918    0.416271
  C     -2.854988    1.497943    0.513007
  H     -0.586361   -2.110704   -1.029618
  H     -2.949758    2.526540    0.865556

 Multiplicity           Mult            ....    1
 Number of Electrons    NEL             ....   86
 Basis Dimension        Dim             ....  158

ORBITAL ENERGIES
----------------

  NO   OCC          E(Eh)            E(eV)
   0   2.0000     -88.888757     -2418.7860
   1   2.0000     -88.888756     -2418.7860
   2   2.0000     -19.164470      -521.4917
   3   2.0000     -19.164465      -521.4916
   4   2.0000     -10.325216      -280.9634
   5   2.0000     -10.325185      -280.9626
   6   2.0000     -10.269016      -279.4341
   7   2.0000     -10.268982      -279.4332
   8   2.0000     -10.232456      -278.4393
   9   2.0000     -10.232302      -278.4351
  10   2.0000      -7.984774      -217.2767
  11   2.0000      -7.984772      -217.2767
  12   2.0000      -5.952858      -161.9855
  13   2.0000      -5.952857      -161.9855
  14   2.0000      -5.949131      -161.8841
  15   2.0000      -5.949130      -161.8841
  16   2.0000      -5.945358      -161.7814
  17   2.0000      -5.945356      -161.7814
  18   2.0000      -1.075190       -29.2574
  19   2.0000      -1.074326       -29.2339
  20   2.0000      -0.912954       -24.8428
  21   2.0000      -0.852157       -23.1884
  22   2.0000      -0.754537       -20.5320
  23   2.0000      -0.753778       -20.5113
  24   2.0000      -0.673177       -18.3181
  25   2.0000      -0.624595       -16.9961
  26   2.0000      -0.563749       -15.3404
  27   2.0000      -0.563622       -15.3369
  28   2.0000      -0.505849       -13.7648
  29   2.0000      -0.480964       -13.0877
  30   2.0000      -0.468101       -12.7377
  31   2.0000      -0.459252       -12.4969
  32   2.0000      -0.454974       -12.3805
  33   2.0000      -0.443131       -12.0582
  34   2.0000      -0.438223       -11.9246
  35   2.0000      -0.400134       -10.8882
  36   2.0000      -0.386643       -10.5211
  37   2.0000      -0.376190       -10.2366
  38   2.0000      -0.354107        -9.6357
  39   2.0000      -0.290594        -7.9075
  40   2.0000      -0.290231        -7.8976
  41   2.0000      -0.281304        -7.6547
  42   2.0000      -0.245278        -6.6744
  43   0.0000      -0.119169        -3.2428
  44   0.0000      -0.066629        -1.8131
  45   0.0000      -0.023585        -0.6418
  46   0.0000       0.024339         0.6623
  47   0.0000       0.025762         0.7010

MULLIKEN ATOMIC CHARGES
-----------------------
   0 C :   -0.069306
   1 S :    0.031198
   2 C :    0.051621
   3 O :   -0.133627
   4 C :    0.065618
   5 C :    0.065604
   6 C :    0.051623
   7 O :   -0.133626
   8 S :    0.031198
   9 C :   -0.069316
  10 H :    0.054506
  11 H :    0.054508
Sum of atomic charges:   -0.0000000

LOEWDIN ATOMIC CHARGES
----------------------
   0 C :   -0.085466
   1 S :    0.321049
   2 C :   -0.023021
   3 O :   -0.117816
   4 C :   -0.137326
   5 C :   -0.137327
   6 C :   -0.023019
   7 O :   -0.117815
   8 S :    0.321047
   9 C :   -0.085468
  10 H :    0.042580
  11 H :    0.042580

  Mayer bond orders larger than 0.100000
B(  0-C ,  1-S ) :   1.1502 B(  0-C ,  5-C ) :   1.5630 B(  0-C , 10-H ) :   0.9558
B(  1-S ,  2-C ) :   0.9325 B(  1-S ,  3-O ) :   0.1252 B(  2-C ,  3-O ) :   2.1867
B(  2-C ,  4-C ) :   0.9267 B(  4-C ,  5-C ) :   1.1332 B(  4-C ,  9-C ) :   1.5630
B(  5-C ,  6-C ) :   0.9267 B(  6-C ,  7-O ) :   2.1867 B(  6-C ,  8-S ) :   0.9325
B(  7-O ,  8-S ) :   0.1252 B(  8-S ,  9-C ) :   1.1502 B(  9-C , 11-H ) :   0.9558

Dispersion correction           -0.030963175
FINAL SINGLE POINT ENERGY     -1176.183447522058

DIPOLE MOMENT
-------------
                                X             Y             Z
Electronic contribution:      0.00007      -0.00015       0.00045
Nuclear contribution   :     -0.00005       0.00009      -0.00028
                        -----------------------------------------
Total Dipole Moment    :      0.00002      -0.00005       0.00017
                        -----------------------------------------
Magnitude (a.u.)       :      0.00018
Magnitude (Debye)      :      0.00045

Rotational constants in cm-1:     0.063571     0.026872     0.018888
Rotational constants in MHz :  1905.805156   805.598163   566.249982

                             ****ORCA TERMINATED NORMALLY****
TOTAL RUN TIME: 0 days 0 hours 4 minutes 27 seconds 524 msec
