                         Program Version 4.2.0 -  RELEASE  -
|  1> # ORCA input file
|  2> # SCF done        -33.447587199017          0.000898651958
|  3> ! B3LYP/G D3BJ Opt RIJCOSX def2-SVP def2/J
|  4> * xyz 0 1
|  5>    C       -0.23735         1.10891        -0.07902
|  6>    S       -1.41884        -0.12325        -0.06117
|  7>    C       -0.20132        -1.34342         0.14832
|  8>    C       -0.49177        -2.78178         0.26242
|  9>    O        0.37909        -3.59671         0.40569
| 10>    O       -1.78352        -3.14376         0.20394
| 11>    C        1.05258        -0.79411         0.18821
| 12>    C        1.03534         0.61510         0.06291
| 13>    O        2.09544         1.45496         0.04090
| 14>    C        3.29263         1.04380         0.55572
| 15>    C        4.39198         1.75475         0.37587
| 16>    H       -0.52682         2.13259        -0.20163
| 17>    H       -2.38350        -2.39448         0.08910
| 18>    H        1.93047        -1.40654         0.28190
| 19>    H        3.27708         0.13370         1.14174
| 20>    H        4.38338         2.66164        -0.20063
| 21>    H        5.32051         1.44406         0.81310
| 22> *
| 23>
| 24>                          ****END OF INPUT****
 Total Charge           Charge          ....    0
 Multiplicity           Mult            ....    1
 Number of Electrons    NEL             ....   88
Dispersion correction           -0.032377016
FINAL SINGLE POINT ENERGY      -893.733955364482
Dispersion correction            ... done
Dispersion correction           -0.032238441
FINAL SINGLE POINT ENERGY      -893.735869653628
Dispersion correction            ... done
Dispersion correction           -0.032234167
FINAL SINGLE POINT ENERGY      -893.736075992039
Dispersion correction            ... done
FINAL SINGLE POINT ENERGY      -893.736205674012
FINAL SINGLE POINT ENERGY      -893.736245495735
FINAL SINGLE POINT ENERGY      -893.736324687908
FINAL SINGLE POINT ENERGY      -893.736332582269
FINAL SINGLE POINT ENERGY      -893.736348491370
Dispersion correction            ... done
Dispersion correction           -0.032297332
FINAL SINGLE POINT ENERGY      -893.736353952406
Dispersion correction            ... done
Dispersion correction           -0.032306371
FINAL SINGLE POINT ENERGY      -893.736351323367
Dispersion correction            ... done
                    ***********************HURRAY********************

CARTESIAN COORDINATES (ANGSTROEM)
---------------------------------
  C     -0.282001    1.151288   -0.054168
  S     -1.434515   -0.128283   -0.076400
  C     -0.187710   -1.332278    0.101420
  C     -0.435868   -2.793711    0.168786
  O      0.460007   -3.596140    0.190123
  O     -1.725456   -3.197354    0.204844
  C      1.061793   -0.756145    0.146506
  C      1.005860    0.665774    0.059506
  O      2.075482    1.500062    0.037453
  C      3.227294    1.127737    0.677886
  C      4.410309    1.628949    0.327324
  H     -0.587009    2.191714   -0.144023
  H     -2.338138   -2.450498    0.266957
  H      1.969719   -1.352353    0.227749
  H      3.089015    0.431863    1.513443
  H      4.506091    2.317520   -0.514963
  H      5.300506    1.357315    0.894927

 Multiplicity           Mult            ....    1
 Number of Electrons    NEL             ....   88
 Basis Dimension        Dim             ....  188

ORBITAL ENERGIES
----------------

  NO   OCC          E(Eh)            E(eV)
   0   2.0000     -88.906395     -2419.2660
   1   2.0000     -19.196852      -522.3729
   2   2.0000     -19.187782      -522.1261
   3   2.0000     -19.123673      -520.3816
   4   2.0000     -10.330863      -281.1171
   5   2.0000     -10.277476      -279.6643
   6   2.0000     -10.261137      -279.2197
   7   2.0000     -10.241725      -278.6915
   8   2.0000     -10.236595      -278.5519
   9   2.0000     -10.221962      -278.1537
  10   2.0000     -10.192653      -277.3562
  11   2.0000      -8.001232      -217.7246
  12   2.0000      -5.969302      -162.4330
  13   2.0000      -5.965342      -162.3252
  14   2.0000      -5.962632      -162.2515
  15   2.0000      -1.098936       -29.9036
  16   2.0000      -1.096500       -29.8373
  17   2.0000      -1.015942       -27.6452
  18   2.0000      -0.907438       -24.6927
  19   2.0000      -0.792515       -21.5654
  20   2.0000      -0.762912       -20.7599
  21   2.0000      -0.737825       -20.0772
  22   2.0000      -0.658892       -17.9294
  23   2.0000      -0.626245       -17.0410
  24   2.0000      -0.610919       -16.6239
  25   2.0000      -0.572954       -15.5909
  26   2.0000      -0.560455       -15.2508
  27   2.0000      -0.518032       -14.0964
  28   2.0000      -0.479309       -13.0427
  29   2.0000      -0.465308       -12.6617
  30   2.0000      -0.463745       -12.6191
  31   2.0000      -0.456985       -12.4352
  32   2.0000      -0.437964       -11.9176
  33   2.0000      -0.421423       -11.4675
  34   2.0000      -0.417896       -11.3715
  35   2.0000      -0.397337       -10.8121
  36   2.0000      -0.388269       -10.5653
  37   2.0000      -0.377633       -10.2759
  38   2.0000      -0.369414       -10.0523
  39   2.0000      -0.328751        -8.9458
  40   2.0000      -0.288214        -7.8427
  41   2.0000      -0.287186        -7.8147
  42   2.0000      -0.272671        -7.4198
  43   2.0000      -0.239352        -6.5131
  44   0.0000      -0.072682        -1.9778
  45   0.0000      -0.010320        -0.2808
  46   0.0000      -0.001524        -0.0415
  47   0.0000       0.029905         0.8138
  48   0.0000       0.059029         1.6063

MULLIKEN ATOMIC CHARGES
-----------------------
   0 C :   -0.118969
   1 S :    0.103111
   2 C :   -0.196147
   3 C :    0.200807
   4 O :   -0.178437
   5 O :   -0.162531
   6 C :   -0.020932
   7 C :    0.240103
   8 O :   -0.251340
   9 C :    0.117410
  10 C :   -0.049004
  11 H :    0.032758
  12 H :    0.173455
  13 H :    0.019774
  14 H :    0.021892
  15 H :    0.035816
  16 H :    0.032234
Sum of atomic charges:   -0.0000000

LOEWDIN ATOMIC CHARGES
----------------------
   0 C :   -0.201833
   1 S :    0.435445
   2 C :   -0.237305
   3 C :    0.065960
   4 O :   -0.156097
   5 O :   -0.034828
   6 C :   -0.042370
   7 C :    0.011768
   8 O :   -0.053095
   9 C :    0.056853
  10 C :   -0.091617
  11 H :    0.034678
  12 H :    0.077498
  13 H :    0.045672
  14 H :    0.020026
  15 H :    0.033690
  16 H :    0.035555

  Mayer bond orders larger than 0.100000
B(  0-C ,  1-S ) :   1.1494 B(  0-C ,  7-C ) :   1.5082 B(  0-C , 11-H ) :   0.9718
B(  1-S ,  2-C ) :   1.1263 B(  2-C ,  3-C ) :   0.9429 B(  2-C ,  6-C ) :   1.4962
B(  3-C ,  4-O ) :   2.1658 B(  3-C ,  5-O ) :   1.2201 B(  5-O , 12-H ) :   0.9511
B(  6-C ,  7-C ) :   1.2054 B(  6-C , 13-H ) :   1.0016 B(  7-C ,  8-O ) :   1.0939
B(  8-O ,  9-C ) :   1.0310 B(  9-C , 10-C ) :   1.9577 B(  9-C , 14-H ) :   0.9483
B( 10-C , 15-H ) :   0.9564 B( 10-C , 16-H ) :   0.9443

Dispersion correction           -0.032308475
FINAL SINGLE POINT ENERGY      -893.736354778677

DIPOLE MOMENT
-------------
                                X             Y             Z
Electronic contribution:     -8.84145      -3.87053      -1.10103
Nuclear contribution   :      8.44631       5.25146       1.32213
                        -----------------------------------------
Total Dipole Moment    :     -0.39514       1.38093       0.22110
                        -----------------------------------------
Magnitude (a.u.)       :      1.45326
Magnitude (Debye)      :      3.69390

Rotational constants in cm-1:     0.062993     0.018393     0.014356
Rotational constants in MHz :  1888.497131   551.411490   430.394924

                             ****ORCA TERMINATED NORMALLY****
TOTAL RUN TIME: 0 days 0 hours 9 minutes 31 seconds 225 msec
