                         Program Version 4.2.0 -  RELEASE  -
|  1> # ORCA input file
|  2> # SCF done        -33.963991221202          0.000994811213
|  3> ! B3LYP/G D3BJ Opt RIJCOSX def2-SVP def2/J
|  4> * xyz 0 1
|  5>    C       -1.49215         1.26891         0.08996
|  6>    S       -2.67500         0.04661         0.03509
|  7>    C       -1.49292        -1.22240        -0.02384
|  8>    C       -0.20875        -0.68782         0.03188
|  9>    C       -0.21475         0.74974         0.08862
| 10>    C        0.99786         1.47048         0.14127
| 11>    C        2.19498         0.80297         0.16157
| 12>    C        3.48343         1.48347         0.21080
| 13>    C        3.68884         2.75496         0.53089
| 14>    C        2.18961        -0.62220         0.14124
| 15>    C        1.04185        -1.34844         0.08738
| 16>    C       -1.98128        -2.57020        -0.12844
| 17>    C       -1.32106        -3.63477        -0.58073
| 18>    H       -1.78553         2.29921         0.11876
| 19>    H        0.95565         2.54843         0.15746
| 20>    H        4.33519         0.85745        -0.02485
| 21>    H        2.88660         3.42124         0.79988
| 22>    H        4.67875         3.17762         0.54512
| 23>    H        3.14118        -1.13316         0.18624
| 24>    H        1.07927        -2.42522         0.10817
| 25>    H       -3.01880        -2.68555         0.16378
| 26>    H       -0.31142        -3.58400        -0.94544
| 27>    H       -1.79475        -4.60015        -0.61907
| 28> *
| 29>
| 30>                          ****END OF INPUT****
 Total Charge           Charge          ....    0
 Multiplicity           Mult            ....    1
 Number of Electrons    NEL             ....   98
Dispersion correction           -0.051538024
FINAL SINGLE POINT ENERGY      -861.045942101476
Dispersion correction            ... done
Dispersion correction           -0.051198720
FINAL SINGLE POINT ENERGY      -861.049735514845
Dispersion correction            ... done
Dispersion correction           -0.051134566
FINAL SINGLE POINT ENERGY      -861.049816418060
Dispersion correction            ... done
FINAL SINGLE POINT ENERGY      -861.049826772666
FINAL SINGLE POINT ENERGY      -861.049855327379
FINAL SINGLE POINT ENERGY      -861.049866928283
FINAL SINGLE POINT ENERGY      -861.049863887049
Dispersion correction            ... done
Dispersion correction           -0.051124920
FINAL SINGLE POINT ENERGY      -861.049883236499
Dispersion correction            ... done
Dispersion correction           -0.051120388
FINAL SINGLE POINT ENERGY      -861.049895862898
Dispersion correction            ... done
                    ***********************HURRAY********************

CARTESIAN COORDINATES (ANGSTROEM)
---------------------------------
  C     -1.520765    1.282626    0.129500
  S     -2.692470    0.045602    0.040590
  C     -1.517259   -1.230382   -0.041151
  C     -0.220289   -0.688931    0.018656
  C     -0.227436    0.760804    0.116536
  C      0.997557    1.479700    0.204036
  C      2.205881    0.810044    0.209107
  C      3.505982    1.493604    0.310782
  C      3.728101    2.809988    0.433126
  C      2.198742   -0.626994    0.126502
  C      1.040852   -1.356798    0.037952
  C     -2.005023   -2.593507   -0.159135
  C     -1.340514   -3.679532   -0.593454
  H     -1.814982    2.328223    0.196925
  H      0.961926    2.568813    0.281002
  H      4.375772    0.827018    0.284473
  H      2.916270    3.541870    0.473146
  H      4.744193    3.205065    0.503951
  H      3.160012   -1.147322    0.146357
  H      1.084867   -2.444806   -0.001175
  H     -3.052120   -2.728307    0.137060
  H     -0.314522   -3.637657   -0.961108
  H     -1.837976   -4.651942   -0.617938

 Multiplicity           Mult            ....    1
 Number of Electrons    NEL             ....   98
 Basis Dimension        Dim             ....  236

ORBITAL ENERGIES
----------------

  NO   OCC          E(Eh)            E(eV)
   0   2.0000     -88.887032     -2418.7391
   1   2.0000     -10.221115      -278.1307
   2   2.0000     -10.216071      -277.9934
   3   2.0000     -10.206279      -277.7270
   4   2.0000     -10.203420      -277.6492
   5   2.0000     -10.202381      -277.6209
   6   2.0000     -10.200463      -277.5687
   7   2.0000     -10.196494      -277.4607
   8   2.0000     -10.196281      -277.4549
   9   2.0000     -10.196122      -277.4506
  10   2.0000     -10.194254      -277.3998
  11   2.0000     -10.189861      -277.2802
  12   2.0000     -10.188685      -277.2482
  13   2.0000      -7.981766      -217.1949
  14   2.0000      -5.949363      -161.8904
  15   2.0000      -5.945413      -161.7829
  16   2.0000      -5.944141      -161.7483
  17   2.0000      -0.895533       -24.3687
  18   2.0000      -0.839114       -22.8335
  19   2.0000      -0.788650       -21.4603
  20   2.0000      -0.778327       -21.1793
  21   2.0000      -0.744564       -20.2606
  22   2.0000      -0.723005       -19.6740
  23   2.0000      -0.691465       -18.8157
  24   2.0000      -0.633226       -17.2310
  25   2.0000      -0.610775       -16.6200
  26   2.0000      -0.584836       -15.9142
  27   2.0000      -0.553062       -15.0496
  28   2.0000      -0.546509       -14.8713
  29   2.0000      -0.507351       -13.8057
  30   2.0000      -0.478406       -13.0181
  31   2.0000      -0.467535       -12.7223
  32   2.0000      -0.462382       -12.5821
  33   2.0000      -0.451036       -12.2733
  34   2.0000      -0.429661       -11.6917
  35   2.0000      -0.416972       -11.3464
  36   2.0000      -0.412418       -11.2225
  37   2.0000      -0.402689       -10.9577
  38   2.0000      -0.386950       -10.5294
  39   2.0000      -0.373977       -10.1764
  40   2.0000      -0.359792        -9.7904
  41   2.0000      -0.354549        -9.6478
  42   2.0000      -0.349582        -9.5126
  43   2.0000      -0.337562        -9.1855
  44   2.0000      -0.311523        -8.4770
  45   2.0000      -0.297425        -8.0933
  46   2.0000      -0.265188        -7.2161
  47   2.0000      -0.237147        -6.4531
  48   2.0000      -0.196769        -5.3544
  49   0.0000      -0.074998        -2.0408
  50   0.0000      -0.034216        -0.9311
  51   0.0000       0.012767         0.3474
  52   0.0000       0.030609         0.8329
  53   0.0000       0.036757         1.0002

MULLIKEN ATOMIC CHARGES
-----------------------
   0 C :   -0.129003
   1 S :    0.145754
   2 C :   -0.173314
   3 C :    0.131651
   4 C :    0.089905
   5 C :   -0.064020
   6 C :    0.105111
   7 C :   -0.007298
   8 C :   -0.020584
   9 C :   -0.011466
  10 C :   -0.031040
  11 C :    0.032911
  12 C :   -0.044538
  13 H :    0.018795
  14 H :   -0.042282
  15 H :   -0.016155
  16 H :    0.016902
  17 H :    0.020528
  18 H :   -0.030790
  19 H :   -0.028059
  20 H :   -0.008645
  21 H :    0.022334
  22 H :    0.023305
Sum of atomic charges:   -0.0000000

LOEWDIN ATOMIC CHARGES
----------------------
   0 C :   -0.208686
   1 S :    0.487660
   2 C :   -0.192095
   3 C :   -0.042858
   4 C :   -0.046175
   5 C :   -0.007609
   6 C :   -0.033741
   7 C :   -0.022023
   8 C :   -0.046111
   9 C :   -0.019650
  10 C :   -0.019980
  11 C :   -0.044232
  12 C :   -0.057651
  13 H :    0.025222
  14 H :    0.025487
  15 H :    0.026991
  16 H :    0.020221
  17 H :    0.026208
  18 H :    0.025464
  19 H :    0.027909
  20 H :    0.028437
  21 H :    0.020798
  22 H :    0.026415

  Mayer bond orders larger than 0.100000
B(  0-C ,  1-S ) :   1.1990 B(  0-C ,  2-C ) :   0.1131 B(  0-C ,  4-C ) :   1.3711
B(  0-C , 13-H ) :   0.9639 B(  1-S ,  2-C ) :   1.1658 B(  2-C ,  3-C ) :   1.3539
B(  2-C , 11-C ) :   1.1206 B(  3-C ,  4-C ) :   1.1916 B(  3-C , 10-C ) :   1.1949
B(  4-C ,  5-C ) :   1.2018 B(  5-C ,  6-C ) :   1.4783 B(  5-C , 14-H ) :   0.9915
B(  6-C ,  7-C ) :   1.0667 B(  6-C ,  9-C ) :   1.1760 B(  7-C ,  8-C ) :   1.9359
B(  7-C , 15-H ) :   0.9625 B(  8-C , 16-H ) :   0.9431 B(  8-C , 17-H ) :   0.9456
B(  9-C , 10-C ) :   1.5327 B(  9-C , 18-H ) :   0.9826 B( 10-C , 19-H ) :   0.9883
B( 11-C , 12-C ) :   1.9107 B( 11-C , 20-H ) :   0.9412 B( 12-C , 21-H ) :   0.9521
B( 12-C , 22-H ) :   0.9422

Dispersion correction           -0.051117649
FINAL SINGLE POINT ENERGY      -861.049897062872

DIPOLE MOMENT
-------------
                                X             Y             Z
Electronic contribution:     -9.39749       1.15161       0.18499
Nuclear contribution   :      9.35753      -1.04490      -0.15151
                        -----------------------------------------
Total Dipole Moment    :     -0.03995       0.10671       0.03348
                        -----------------------------------------
Magnitude (a.u.)       :      0.11876
Magnitude (Debye)      :      0.30186

Rotational constants in cm-1:     0.049181     0.014995     0.011518
Rotational constants in MHz :  1474.404306   449.542531   345.314916

                             ****ORCA TERMINATED NORMALLY****
TOTAL RUN TIME: 0 days 0 hours 16 minutes 7 seconds 906 msec
