                         Program Version 4.2.0 -  RELEASE  -
|  1> # ORCA input file
|  2> # SCF done        -43.529549944173          0.000423154471
|  3> ! B3LYP/G D3BJ Opt RIJCOSX def2-SVP def2/J
|  4> * xyz 0 1
|  5>    C        0.52834         0.82452        -1.35420
|  6>    S       -0.68709        -0.36926        -1.61939
|  7>    C        0.16010        -1.52241        -0.62665
|  8>    C        1.31997        -0.97137        -0.13245
|  9>    C        1.52495         0.37634        -0.54305
| 10>    S        2.93180         1.27637        -0.00302
| 11>    C        2.61070         2.93869        -0.69144
| 12>    C        3.72824         3.87383        -0.27123
| 13>    S        2.40688        -1.84411         0.94863
| 14>    C        3.84075        -2.07274        -0.18182
| 15>    C        4.92042        -2.86231         0.52881
| 16>    C       -0.32663        -2.84458        -0.40424
| 17>    C       -1.46406        -3.34292        -0.92076
| 18>    C       -1.91681        -4.68555        -0.68787
| 19>    C       -3.03731        -5.18654        -1.20599
| 20>    H        0.40868         1.78404        -1.81334
| 21>    H        1.64797         3.27443        -0.30459
| 22>    H        2.56428         2.84572        -1.77693
| 23>    H        3.77846         3.94399         0.81288
| 24>    H        3.55220         4.86692        -0.67881
| 25>    H        4.68597         3.51054        -0.63758
| 26>    H        4.19541        -1.08304        -0.46609
| 27>    H        3.47065        -2.60216        -1.06054
| 28>    H        5.25426        -2.33016         1.41643
| 29>    H        5.77060        -3.00604        -0.13499
| 30>    H        4.54315        -3.83643         0.83198
| 31>    H        0.29953        -3.45676         0.23201
| 32>    H       -2.08418        -2.71613        -1.54966
| 33>    H       -1.28986        -5.29872        -0.05304
| 34>    H       -3.67617        -4.59555        -1.84179
| 35>    H       -3.35214        -6.19752        -1.01426
| 36> *
| 37>
| 38>                          ****END OF INPUT****
 Total Charge           Charge          ....    0
 Multiplicity           Mult            ....    1
 Number of Electrons    NEL             ....  136
Dispersion correction           -0.068808880
FINAL SINGLE POINT ENERGY     -1660.846999811270
Dispersion correction            ... done
Dispersion correction           -0.068171667
FINAL SINGLE POINT ENERGY     -1660.851566086599
Dispersion correction            ... done
Dispersion correction           -0.068226539
FINAL SINGLE POINT ENERGY     -1660.851677151805
Dispersion correction            ... done
FINAL SINGLE POINT ENERGY     -1660.851455304065
FINAL SINGLE POINT ENERGY     -1660.851419028988
FINAL SINGLE POINT ENERGY     -1660.851528535621
FINAL SINGLE POINT ENERGY     -1660.851403558698
FINAL SINGLE POINT ENERGY     -1660.851549785186
FINAL SINGLE POINT ENERGY     -1660.851466852314
Dispersion correction            ... done
Dispersion correction           -0.067981095
FINAL SINGLE POINT ENERGY     -1660.851415046294
Dispersion correction            ... done
Dispersion correction           -0.067994263
FINAL SINGLE POINT ENERGY     -1660.851458850912
Dispersion correction            ... done
                    ***********************HURRAY********************

CARTESIAN COORDINATES (ANGSTROEM)
---------------------------------
  C      0.388581    1.021475   -1.072727
  S     -0.789475   -0.214536   -1.378063
  C      0.119394   -1.397158   -0.471586
  C      1.280348   -0.829771    0.042928
  C      1.436878    0.558257   -0.311948
  S      2.871627    1.444649    0.202995
  C      2.598882    3.050463   -0.632457
  C      3.843869    3.918705   -0.500451
  S      2.432873   -1.700075    1.067747
  C      3.646433   -2.294387   -0.187480
  C      4.780411   -3.011785    0.532617
  C     -0.313458   -2.767893   -0.329262
  C     -1.365425   -3.345949   -0.957704
  C     -1.747661   -4.731714   -0.784723
  C     -2.778167   -5.319279   -1.420647
  H      0.228053    2.017680   -1.475287
  H      1.721929    3.538128   -0.178501
  H      2.371405    2.858413   -1.692726
  H      4.098253    4.107919    0.553684
  H      3.677041    4.891140   -0.989108
  H      4.710460    3.439022   -0.980085
  H      4.010894   -1.422264   -0.750977
  H      3.116066   -2.964135   -0.880670
  H      5.328908   -2.322540    1.193813
  H      5.494417   -3.431321   -0.193356
  H      4.396875   -3.840472    1.149368
  H      0.308363   -3.363572    0.347607
  H     -1.977008   -2.751362   -1.647435
  H     -1.141349   -5.320062   -0.085310
  H     -3.405120   -4.759094   -2.121212
  H     -3.035236   -6.367392   -1.252034

 Multiplicity           Mult            ....    1
 Number of Electrons    NEL             ....  136
 Basis Dimension        Dim             ....  302

ORBITAL ENERGIES
----------------

  NO   OCC          E(Eh)            E(eV)
   0   2.0000     -88.875191     -2418.4169
   1   2.0000     -88.847065     -2417.6516
   2   2.0000     -88.838339     -2417.4141
   3   2.0000     -10.225648      -278.2540
   4   2.0000     -10.221782      -278.1488
   5   2.0000     -10.220959      -278.1264
   6   2.0000     -10.216083      -277.9938
   7   2.0000     -10.213285      -277.9176
   8   2.0000     -10.212219      -277.8886
   9   2.0000     -10.201759      -277.6040
  10   2.0000     -10.197995      -277.5016
  11   2.0000     -10.197193      -277.4797
  12   2.0000     -10.196147      -277.4513
  13   2.0000     -10.190001      -277.2840
  14   2.0000     -10.189819      -277.2791
  15   2.0000      -7.970115      -216.8779
  16   2.0000      -7.941534      -216.1001
  17   2.0000      -7.932301      -215.8489
  18   2.0000      -5.938248      -161.5879
  19   2.0000      -5.934367      -161.4823
  20   2.0000      -5.931191      -161.3959
  21   2.0000      -5.910674      -160.8376
  22   2.0000      -5.906903      -160.7350
  23   2.0000      -5.901579      -160.5901
  24   2.0000      -5.900373      -160.5573
  25   2.0000      -5.897935      -160.4910
  26   2.0000      -5.890927      -160.3003
  27   2.0000      -0.891847       -24.2684
  28   2.0000      -0.819223       -22.2922
  29   2.0000      -0.804077       -21.8800
  30   2.0000      -0.802111       -21.8265
  31   2.0000      -0.760957       -20.7067
  32   2.0000      -0.752168       -20.4675
  33   2.0000      -0.723286       -19.6816
  34   2.0000      -0.678944       -18.4750
  35   2.0000      -0.673947       -18.3390
  36   2.0000      -0.621626       -16.9153
  37   2.0000      -0.607781       -16.5386
  38   2.0000      -0.594170       -16.1682
  39   2.0000      -0.562168       -15.2974
  40   2.0000      -0.534471       -14.5437
  41   2.0000      -0.519505       -14.1365
  42   2.0000      -0.495077       -13.4717
  43   2.0000      -0.469718       -12.7817
  44   2.0000      -0.466425       -12.6921
  45   2.0000      -0.456928       -12.4336
  46   2.0000      -0.451640       -12.2898
  47   2.0000      -0.439375       -11.9560
  48   2.0000      -0.421405       -11.4670
  49   2.0000      -0.411217       -11.1898
  50   2.0000      -0.406776       -11.0689
  51   2.0000      -0.402567       -10.9544
  52   2.0000      -0.386085       -10.5059
  53   2.0000      -0.383765       -10.4428
  54   2.0000      -0.377978       -10.2853
  55   2.0000      -0.369820       -10.0633
  56   2.0000      -0.361808        -9.8453
  57   2.0000      -0.360796        -9.8178
  58   2.0000      -0.356727        -9.7070
  59   2.0000      -0.344500        -9.3743
  60   2.0000      -0.337496        -9.1837
  61   2.0000      -0.321428        -8.7465
  62   2.0000      -0.319313        -8.6889
  63   2.0000      -0.293598        -7.9892
  64   2.0000      -0.267720        -7.2850
  65   2.0000      -0.229568        -6.2469
  66   2.0000      -0.221689        -6.0325
  67   2.0000      -0.201566        -5.4849
  68   0.0000      -0.066155        -1.8002
  69   0.0000       0.010015         0.2725
  70   0.0000       0.020156         0.5485
  71   0.0000       0.026091         0.7100
  72   0.0000       0.037624         1.0238

MULLIKEN ATOMIC CHARGES
-----------------------
   0 C :   -0.148763
   1 S :    0.109396
   2 C :   -0.089976
   3 C :   -0.053330
   4 C :    0.039362
   5 S :   -0.004065
   6 C :   -0.126373
   7 C :    0.032202
   8 S :   -0.051945
   9 C :   -0.082137
  10 C :    0.005946
  11 C :    0.004668
  12 C :    0.005852
  13 C :    0.003925
  14 C :   -0.029134
  15 H :    0.019031
  16 H :    0.051227
  17 H :    0.052377
  18 H :    0.026268
  19 H :    0.021901
  20 H :    0.024880
  21 H :    0.047606
  22 H :    0.044743
  23 H :    0.030411
  24 H :    0.024512
  25 H :    0.022855
  26 H :   -0.005461
  27 H :   -0.009605
  28 H :   -0.006871
  29 H :    0.016905
  30 H :    0.023596
Sum of atomic charges:   -0.0000000

LOEWDIN ATOMIC CHARGES
----------------------
   0 C :   -0.229674
   1 S :    0.425679
   2 C :   -0.174890
   3 C :   -0.221797
   4 C :   -0.203140
   5 S :    0.292628
   6 C :   -0.131874
   7 C :   -0.065527
   8 S :    0.255611
   9 C :   -0.120809
  10 C :   -0.071101
  11 C :   -0.040744
  12 C :   -0.027647
  13 C :   -0.026963
  14 C :   -0.048998
  15 H :    0.020281
  16 H :    0.019833
  17 H :    0.020459
  18 H :    0.026650
  19 H :    0.030900
  20 H :    0.026391
  21 H :    0.017805
  22 H :    0.018436
  23 H :    0.027554
  24 H :    0.030617
  25 H :    0.024177
  26 H :    0.027844
  27 H :    0.021309
  28 H :    0.029132
  29 H :    0.022438
  30 H :    0.025418

  Mayer bond orders larger than 0.100000
B(  0-C ,  1-S ) :   1.1127 B(  0-C ,  4-C ) :   1.5443 B(  0-C , 15-H ) :   0.9637
B(  1-S ,  2-C ) :   1.1338 B(  2-C ,  3-C ) :   1.5021 B(  2-C , 11-C ) :   1.1532
B(  3-C ,  4-C ) :   1.2481 B(  3-C ,  8-S ) :   1.0508 B(  4-C ,  5-S ) :   1.0218
B(  5-S ,  6-C ) :   0.9992 B(  6-C ,  7-C ) :   1.0923 B(  6-C , 16-H ) :   0.9458
B(  6-C , 17-H ) :   0.9407 B(  7-C , 18-H ) :   0.9679 B(  7-C , 19-H ) :   0.9635
B(  7-C , 20-H ) :   0.9691 B(  8-S ,  9-C ) :   0.9702 B(  9-C , 10-C ) :   1.0912
B(  9-C , 21-H ) :   0.9496 B(  9-C , 22-H ) :   0.9517 B( 10-C , 23-H ) :   0.9702
B( 10-C , 24-H ) :   0.9652 B( 10-C , 25-H ) :   0.9678 B( 11-C , 12-C ) :   1.6572
B( 11-C , 14-C ) :   0.1124 B( 11-C , 26-H ) :   0.9571 B( 12-C , 13-C ) :   1.1388
B( 12-C , 27-H ) :   0.9678 B( 13-C , 14-C ) :   1.8652 B( 13-C , 28-H ) :   0.9698
B( 14-C , 29-H ) :   0.9543 B( 14-C , 30-H ) :   0.9477

Dispersion correction           -0.067992578
FINAL SINGLE POINT ENERGY     -1660.851448222444

DIPOLE MOMENT
-------------
                                X             Y             Z
Electronic contribution:     -9.18027       2.71873       2.77232
Nuclear contribution   :      9.43498      -2.31985      -3.45492
                        -----------------------------------------
Total Dipole Moment    :      0.25471       0.39888      -0.68259
                        -----------------------------------------
Magnitude (a.u.)       :      0.83061
Magnitude (Debye)      :      2.11125

Rotational constants in cm-1:     0.020554     0.007901     0.005933
Rotational constants in MHz :   616.187203   236.869571   177.873550

                             ****ORCA TERMINATED NORMALLY****
TOTAL RUN TIME: 0 days 0 hours 30 minutes 9 seconds 934 msec
