                         Program Version 4.2.0 -  RELEASE  -
|  1> # ORCA input file
|  2> # SCF done        -32.933693805065          0.000505580674
|  3> ! B3LYP/G D3BJ Opt RIJCOSX def2-SVP def2/J
|  4> * xyz 0 1
|  5>    C        3.42681         0.13151         0.00531
|  6>    C        2.51961         1.18238         0.00050
|  7>    C        1.17116         0.89446        -0.00566
|  8>    C        0.72688        -0.43698        -0.00737
|  9>    C        1.63643        -1.48227        -0.00372
| 10>    C        2.98912        -1.18454         0.00289
| 11>    C       -0.72687        -0.43712        -0.00868
| 12>    C       -1.17142         0.89423        -0.00712
| 13>    C       -0.00021         1.83338        -0.00958
| 14>    C       -2.51994         1.18188        -0.00251
| 15>    C       -3.42693         0.13084        -0.00012
| 16>    C       -2.98899        -1.18513        -0.00362
| 17>    C       -1.63623        -1.48259        -0.00801
| 18>    H        4.48651         0.34148         0.01126
| 19>    H        2.86741         2.20572         0.00242
| 20>    H        1.29880        -2.50811        -0.00536
| 21>    H        3.71355        -1.98619         0.00660
| 22>    H       -0.00073         2.48561         0.86749
| 23>    H        0.00018         2.47595        -0.89408
| 24>    H       -2.86794         2.20515         0.00016
| 25>    H       -4.48667         0.34062         0.00488
| 26>    H       -3.71324        -1.98694        -0.00233
| 27>    H       -1.29837        -2.50835        -0.01043
| 28> *
| 29>
| 30>                          ****END OF INPUT****
 Total Charge           Charge          ....    0
 Multiplicity           Mult            ....    1
 Number of Electrons    NEL             ....   88
Dispersion correction           -0.049946391
FINAL SINGLE POINT ENERGY      -501.113972080157
Dispersion correction            ... done
Dispersion correction           -0.049690876
FINAL SINGLE POINT ENERGY      -501.117244574857
Dispersion correction            ... done
Dispersion correction           -0.049658094
FINAL SINGLE POINT ENERGY      -501.117304132744
Dispersion correction            ... done
Dispersion correction           -0.049654987
FINAL SINGLE POINT ENERGY      -501.117308014480
Dispersion correction            ... done
                    ***********************HURRAY********************

CARTESIAN COORDINATES (ANGSTROEM)
---------------------------------
  C      3.463049    0.130515    0.000298
  C      2.546237    1.189569   -0.000935
  C      1.184179    0.903887   -0.002207
  C      0.734369   -0.436016   -0.002078
  C      1.650450   -1.491339   -0.000882
  C      3.017489   -1.198032    0.000288
  C     -0.734370   -0.436159   -0.003322
  C     -1.184440    0.903655   -0.004266
  C     -0.000223    1.845755   -0.004111
  C     -2.546554    1.189069   -0.005401
  C     -3.463158    0.129834   -0.005626
  C     -3.017340   -1.198625   -0.004769
  C     -1.650244   -1.491663   -0.003623
  H      4.535128    0.343553    0.001338
  H      2.899965    2.224040   -0.000878
  H      1.305978   -2.528512   -0.000764
  H      3.745839   -2.012372    0.001294
  H     -0.001057    2.508546    0.879671
  H      0.000484    2.505030   -0.890583
  H     -2.900487    2.223470   -0.006128
  H     -4.535280    0.342663   -0.006537
  H     -3.745527   -2.013110   -0.004978
  H     -1.305566   -2.528767   -0.002882

 Multiplicity           Mult            ....    1
 Number of Electrons    NEL             ....   88
 Basis Dimension        Dim             ....  232

ORBITAL ENERGIES
----------------

  NO   OCC          E(Eh)            E(eV)
   0   2.0000     -10.200040      -277.5572
   1   2.0000     -10.193005      -277.3658
   2   2.0000     -10.192975      -277.3649
   3   2.0000     -10.191502      -277.3249
   4   2.0000     -10.191424      -277.3227
   5   2.0000     -10.191204      -277.3168
   6   2.0000     -10.191201      -277.3167
   7   2.0000     -10.191055      -277.3127
   8   2.0000     -10.191048      -277.3125
   9   2.0000     -10.190669      -277.3022
  10   2.0000     -10.190664      -277.3021
  11   2.0000     -10.190370      -277.2941
  12   2.0000     -10.190369      -277.2940
  13   2.0000      -0.880791       -23.9675
  14   2.0000      -0.837420       -22.7874
  15   2.0000      -0.793013       -21.5790
  16   2.0000      -0.758720       -20.6458
  17   2.0000      -0.735483       -20.0135
  18   2.0000      -0.707015       -19.2389
  19   2.0000      -0.682678       -18.5766
  20   2.0000      -0.629293       -17.1239
  21   2.0000      -0.581146       -15.8138
  22   2.0000      -0.579220       -15.7614
  23   2.0000      -0.570753       -15.5310
  24   2.0000      -0.516215       -14.0469
  25   2.0000      -0.490442       -13.3456
  26   2.0000      -0.478455       -13.0194
  27   2.0000      -0.451335       -12.2815
  28   2.0000      -0.448488       -12.2040
  29   2.0000      -0.437834       -11.9141
  30   2.0000      -0.430007       -11.7011
  31   2.0000      -0.422253       -11.4901
  32   2.0000      -0.409598       -11.1457
  33   2.0000      -0.402044       -10.9402
  34   2.0000      -0.369276       -10.0485
  35   2.0000      -0.358360        -9.7515
  36   2.0000      -0.357234        -9.7208
  37   2.0000      -0.355798        -9.6818
  38   2.0000      -0.335491        -9.1292
  39   2.0000      -0.335359        -9.1256
  40   2.0000      -0.286619        -7.7993
  41   2.0000      -0.256121        -6.9694
  42   2.0000      -0.247801        -6.7430
  43   2.0000      -0.220581        -6.0023
  44   0.0000      -0.037645        -1.0244
  45   0.0000      -0.019452        -0.5293
  46   0.0000       0.001388         0.0378
  47   0.0000       0.032481         0.8839
  48   0.0000       0.066011         1.7963

MULLIKEN ATOMIC CHARGES
-----------------------
   0 C :    0.018587
   1 C :   -0.023872
   2 C :   -0.106437
   3 C :    0.089013
   4 C :   -0.046388
   5 C :    0.025106
   6 C :    0.089060
   7 C :   -0.106483
   8 C :    0.252304
   9 C :   -0.023876
  10 C :    0.018554
  11 C :    0.025130
  12 C :   -0.046362
  13 H :   -0.017662
  14 H :   -0.038367
  15 H :   -0.035695
  16 H :   -0.017642
  17 H :    0.027235
  18 H :    0.027165
  19 H :   -0.038366
  20 H :   -0.017653
  21 H :   -0.017649
  22 H :   -0.035703
Sum of atomic charges:    0.0000000

LOEWDIN ATOMIC CHARGES
----------------------
   0 C :   -0.028396
   1 C :   -0.027793
   2 C :   -0.013764
   3 C :   -0.018711
   4 C :   -0.024689
   5 C :   -0.026636
   6 C :   -0.018711
   7 C :   -0.013764
   8 C :   -0.012527
   9 C :   -0.027793
  10 C :   -0.028398
  11 C :   -0.026634
  12 C :   -0.024687
  13 H :    0.026004
  14 H :    0.024405
  15 H :    0.024332
  16 H :    0.026660
  17 H :    0.044807
  18 H :    0.044896
  19 H :    0.024405
  20 H :    0.026005
  21 H :    0.026659
  22 H :    0.024331

  Mayer bond orders larger than 0.100000
B(  0-C ,  1-C ) :   1.3517 B(  0-C ,  5-C ) :   1.3792 B(  0-C , 13-H ) :   0.9826
B(  1-C ,  2-C ) :   1.3945 B(  1-C , 14-H ) :   0.9945 B(  2-C ,  3-C ) :   1.3730
B(  2-C ,  8-C ) :   1.0198 B(  3-C ,  4-C ) :   1.3432 B(  3-C ,  6-C ) :   1.0087
B(  4-C ,  5-C ) :   1.3769 B(  4-C , 15-H ) :   0.9884 B(  5-C , 16-H ) :   0.9792
B(  6-C ,  7-C ) :   1.3730 B(  6-C , 12-C ) :   1.3431 B(  7-C ,  8-C ) :   1.0198
B(  7-C ,  9-C ) :   1.3945 B(  8-C , 17-H ) :   0.8837 B(  8-C , 18-H ) :   0.8834
B(  9-C , 10-C ) :   1.3517 B(  9-C , 19-H ) :   0.9945 B( 10-C , 11-C ) :   1.3791
B( 10-C , 20-H ) :   0.9826 B( 11-C , 12-C ) :   1.3769 B( 11-C , 21-H ) :   0.9792
B( 12-C , 22-H ) :   0.9884

Dispersion correction           -0.049654774
FINAL SINGLE POINT ENERGY      -501.117308487332

DIPOLE MOMENT
-------------
                                X             Y             Z
Electronic contribution:      0.00006      -0.69860       0.00162
Nuclear contribution   :     -0.00008       0.91074      -0.00200
                        -----------------------------------------
Total Dipole Moment    :     -0.00002       0.21214      -0.00038
                        -----------------------------------------
Magnitude (a.u.)       :      0.21214
Magnitude (Debye)      :      0.53922

Rotational constants in cm-1:     0.072373     0.019458     0.015379
Rotational constants in MHz :  2169.699844   583.326482   461.052892

                             ****ORCA TERMINATED NORMALLY****
TOTAL RUN TIME: 0 days 0 hours 7 minutes 2 seconds 762 msec
