                         Program Version 4.2.0 -  RELEASE  -
|  1> # ORCA input file
|  2> # SCF done        -20.358352760749          0.000745750728
|  3> ! B3LYP/G D3BJ Opt RIJCOSX def2-SVP def2/J
|  4> * xyz 0 1
|  5>    C       -2.08351         0.22432         0.23375
|  6>    C       -1.47553        -0.97045         0.30694
|  7>    C       -0.03715        -0.72782         0.16927
|  8>    C        1.19744        -1.25343         0.12354
|  9>    C        2.09439        -0.07928        -0.06694
| 10>    N        1.47877         1.04275        -0.13033
| 11>    C        0.12321         0.72183         0.00966
| 12>    C       -1.08691         1.30463         0.04503
| 13>    H       -3.13970         0.41495         0.29793
| 14>    H       -1.92979        -1.93388         0.44078
| 15>    H        1.53292        -2.27058         0.19904
| 16>    H        3.16619        -0.13754        -0.14638
| 17>    H       -1.33804         2.34570        -0.04121
| 18> *
| 19>
| 20>                          ****END OF INPUT****
 Total Charge           Charge          ....    0
 Multiplicity           Mult            ....    1
 Number of Electrons    NEL             ....   54
Dispersion correction           -0.022693931
FINAL SINGLE POINT ENERGY      -324.194871307364
Dispersion correction            ... done
Dispersion correction           -0.022741473
FINAL SINGLE POINT ENERGY      -324.197695244276
Dispersion correction            ... done
Dispersion correction           -0.022740455
FINAL SINGLE POINT ENERGY      -324.197819828109
Dispersion correction            ... done
FINAL SINGLE POINT ENERGY      -324.197854337043
Dispersion correction            ... done
Dispersion correction           -0.022729978
FINAL SINGLE POINT ENERGY      -324.197869629742
Dispersion correction            ... done
Dispersion correction           -0.022729145
FINAL SINGLE POINT ENERGY      -324.197872229521
Dispersion correction            ... done
                    ***********************HURRAY********************

CARTESIAN COORDINATES (ANGSTROEM)
---------------------------------
  C     -2.104672    0.221030    0.233737
  C     -1.491153   -0.987035    0.307427
  C     -0.039403   -0.729545    0.168134
  C      1.206469   -1.255268    0.122213
  C      2.118190   -0.064711   -0.068730
  N      1.494200    1.067041   -0.136038
  C      0.130265    0.716930    0.007906
  C     -1.085712    1.311221    0.045895
  H     -3.177028    0.409182    0.303191
  H     -1.968748   -1.955515    0.447346
  H      1.536205   -2.291723    0.202995
  H      3.208423   -0.131735   -0.149790
  H     -1.324745    2.371329   -0.043205

 Multiplicity           Mult            ....    1
 Number of Electrons    NEL             ....   54
 Basis Dimension        Dim             ....  137

ORBITAL ENERGIES
----------------

  NO   OCC          E(Eh)            E(eV)
   0   2.0000     -14.322398      -389.7323
   1   2.0000     -10.233571      -278.4696
   2   2.0000     -10.217334      -278.0278
   3   2.0000     -10.217014      -278.0191
   4   2.0000     -10.208374      -277.7840
   5   2.0000     -10.206772      -277.7404
   6   2.0000     -10.206059      -277.7210
   7   2.0000     -10.200372      -277.5662
   8   2.0000      -0.952615       -25.9220
   9   2.0000      -0.853104       -23.2141
  10   2.0000      -0.761776       -20.7290
  11   2.0000      -0.709151       -19.2970
  12   2.0000      -0.662418       -18.0253
  13   2.0000      -0.585761       -15.9394
  14   2.0000      -0.555960       -15.1284
  15   2.0000      -0.529235       -14.4012
  16   2.0000      -0.495875       -13.4934
  17   2.0000      -0.451040       -12.2734
  18   2.0000      -0.433149       -11.7866
  19   2.0000      -0.419318       -11.4102
  20   2.0000      -0.408791       -11.1238
  21   2.0000      -0.384470       -10.4620
  22   2.0000      -0.358533        -9.7562
  23   2.0000      -0.334182        -9.0935
  24   2.0000      -0.274171        -7.4606
  25   2.0000      -0.271911        -7.3991
  26   2.0000      -0.219091        -5.9618
  27   0.0000      -0.117411        -3.1949
  28   0.0000       0.024000         0.6531
  29   0.0000       0.077936         2.1207
  30   0.0000       0.078119         2.1257
  31   0.0000       0.087047         2.3687

MULLIKEN ATOMIC CHARGES
-----------------------
   0 C :   -0.011499
   1 C :    0.044423
   2 C :    0.089390
   3 C :   -0.095627
   4 C :    0.053099
   5 N :   -0.097322
   6 C :    0.108029
   7 C :   -0.072272
   8 H :   -0.001091
   9 H :   -0.010808
  10 H :   -0.008318
  11 H :    0.007982
  12 H :   -0.005987
Sum of atomic charges:   -0.0000000

LOEWDIN ATOMIC CHARGES
----------------------
   0 C :   -0.018600
   1 C :   -0.018947
   2 C :   -0.027219
   3 C :   -0.012565
   4 C :    0.034979
   5 N :   -0.092175
   6 C :   -0.021464
   7 C :    0.027069
   8 H :    0.025027
   9 H :    0.027476
  10 H :    0.027119
  11 H :    0.017812
  12 H :    0.031488

  Mayer bond orders larger than 0.100000
B(  0-C ,  1-C ) :   1.7405 B(  0-C ,  7-C ) :   0.9848 B(  0-C ,  8-H ) :   0.9906
B(  1-C ,  2-C ) :   0.9825 B(  1-C ,  9-H ) :   1.0076 B(  2-C ,  3-C ) :   1.6411
B(  2-C ,  6-C ) :   1.0902 B(  3-C ,  4-C ) :   0.9589 B(  3-C , 10-H ) :   0.9970
B(  4-C ,  5-N ) :   1.8533 B(  4-C ,  7-C ) :   0.1044 B(  4-C , 11-H ) :   0.9788
B(  5-N ,  6-C ) :   1.1359 B(  6-C ,  7-C ) :   1.6271 B(  7-C , 12-H ) :   1.0195

Dispersion correction           -0.022729719
FINAL SINGLE POINT ENERGY      -324.197873643202

DIPOLE MOMENT
-------------
                                X             Y             Z
Electronic contribution:      1.38754       0.97455      -0.21160
Nuclear contribution   :     -1.79237      -1.67035       0.31797
                        -----------------------------------------
Total Dipole Moment    :     -0.40483      -0.69580       0.10637
                        -----------------------------------------
Magnitude (a.u.)       :      0.81200
Magnitude (Debye)      :      2.06393

Rotational constants in cm-1:     0.175498     0.074294     0.052197
Rotational constants in MHz :  5261.289817  2227.290098  1564.839712

                             ****ORCA TERMINATED NORMALLY****
TOTAL RUN TIME: 0 days 0 hours 3 minutes 30 seconds 192 msec
