                         Program Version 4.2.0 -  RELEASE  -
|  1> # ORCA input file
|  2> # SCF done        -33.967649024401          0.000343045663
|  3> ! B3LYP/G D3BJ Opt RIJCOSX def2-SVP def2/J
|  4> * xyz 0 1
|  5>    C        1.32541         1.23068         0.09861
|  6>    S        2.48287        -0.04380         0.07866
|  7>    C        1.25354        -1.28648        -0.05016
|  8>    C        0.01607        -0.69216        -0.07361
|  9>    C        0.06763         0.73010         0.01145
| 10>    C       -1.30878         1.25650        -0.02058
| 11>    O       -1.72172         2.38386         0.02720
| 12>    N       -2.09666         0.11626        -0.12403
| 13>    C       -1.39829        -1.08614        -0.16313
| 14>    O       -1.91828        -2.16910        -0.25277
| 15>    C        1.66788        -2.66198        -0.10725
| 16>    C        0.83416        -3.69544        -0.20554
| 17>    H        1.64475         2.25082         0.17236
| 18>    H       -3.10530         0.15398        -0.16913
| 19>    H        2.73885        -2.81487        -0.06288
| 20>    H       -0.23321        -3.56220        -0.25153
| 21>    H        1.20659        -4.70439        -0.24262
| 22> *
| 23>
| 24>                          ****END OF INPUT****
 Total Charge           Charge          ....    0
 Multiplicity           Mult            ....    1
 Number of Electrons    NEL             ....   92
Dispersion correction           -0.038246510
FINAL SINGLE POINT ENERGY      -910.804519791543
Dispersion correction            ... done
Dispersion correction           -0.038043634
FINAL SINGLE POINT ENERGY      -910.806858421584
Dispersion correction            ... done
Dispersion correction           -0.038038377
FINAL SINGLE POINT ENERGY      -910.806958690986
Dispersion correction            ... done
FINAL SINGLE POINT ENERGY      -910.806960197598
Dispersion correction            ... done
Dispersion correction           -0.038034517
FINAL SINGLE POINT ENERGY      -910.806975799609
Dispersion correction            ... done
Dispersion correction           -0.038034033
FINAL SINGLE POINT ENERGY      -910.806984325626
Dispersion correction            ... done
                    ***********************HURRAY********************

CARTESIAN COORDINATES (ANGSTROEM)
---------------------------------
  C      1.333411    1.251822    0.098498
  S      2.487853   -0.042325    0.073466
  C      1.253550   -1.289653   -0.058364
  C      0.013304   -0.678167   -0.081539
  C      0.067378    0.743289    0.013130
  C     -1.322521    1.282604   -0.006051
  O     -1.725535    2.417358    0.062434
  N     -2.122635    0.132230   -0.123318
  C     -1.414757   -1.080512   -0.187340
  O     -1.924647   -2.172311   -0.308559
  C      1.673390   -2.680273   -0.114239
  C      0.845577   -3.735962   -0.184202
  H      1.654419    2.289285    0.175013
  H     -3.135408    0.173119   -0.171864
  H      2.755776   -2.845776   -0.090346
  H     -0.240766   -3.611217   -0.213520
  H      1.257121   -4.747873   -0.218147

 Multiplicity           Mult            ....    1
 Number of Electrons    NEL             ....   92
 Basis Dimension        Dim             ....  197

ORBITAL ENERGIES
----------------

  NO   OCC          E(Eh)            E(eV)
   0   2.0000     -88.904422     -2419.2123
   1   2.0000     -19.138390      -520.7821
   2   2.0000     -19.134924      -520.6877
   3   2.0000     -14.381456      -391.3393
   4   2.0000     -10.322069      -280.8778
   5   2.0000     -10.319477      -280.8072
   6   2.0000     -10.255773      -279.0738
   7   2.0000     -10.247505      -278.8488
   8   2.0000     -10.220871      -278.1240
   9   2.0000     -10.219571      -278.0887
  10   2.0000     -10.218761      -278.0666
  11   2.0000     -10.204359      -277.6747
  12   2.0000      -7.999218      -217.6698
  13   2.0000      -5.967257      -162.3773
  14   2.0000      -5.963077      -162.2636
  15   2.0000      -5.960773      -162.2009
  16   2.0000      -1.066664       -29.0254
  17   2.0000      -1.049241       -28.5513
  18   2.0000      -0.954927       -25.9849
  19   2.0000      -0.906430       -24.6652
  20   2.0000      -0.805732       -21.9251
  21   2.0000      -0.782343       -21.2886
  22   2.0000      -0.735116       -20.0035
  23   2.0000      -0.667460       -18.1625
  24   2.0000      -0.655453       -17.8358
  25   2.0000      -0.620939       -16.8966
  26   2.0000      -0.583008       -15.8645
  27   2.0000      -0.536257       -14.5923
  28   2.0000      -0.512630       -13.9494
  29   2.0000      -0.484712       -13.1897
  30   2.0000      -0.481896       -13.1131
  31   2.0000      -0.480449       -13.0737
  32   2.0000      -0.474960       -12.9243
  33   2.0000      -0.445294       -12.1171
  34   2.0000      -0.424514       -11.5516
  35   2.0000      -0.412724       -11.2308
  36   2.0000      -0.410020       -11.1572
  37   2.0000      -0.407460       -11.0876
  38   2.0000      -0.384161       -10.4536
  39   2.0000      -0.377317       -10.2673
  40   2.0000      -0.326219        -8.8769
  41   2.0000      -0.302266        -8.2251
  42   2.0000      -0.297507        -8.0956
  43   2.0000      -0.282813        -7.6957
  44   2.0000      -0.278005        -7.5649
  45   2.0000      -0.245870        -6.6904
  46   0.0000      -0.084119        -2.2890
  47   0.0000      -0.067976        -1.8497
  48   0.0000       0.002169         0.0590
  49   0.0000       0.015013         0.4085
  50   0.0000       0.068042         1.8515

MULLIKEN ATOMIC CHARGES
-----------------------
   0 C :   -0.122244
   1 S :    0.136650
   2 C :   -0.161696
   3 C :   -0.014582
   4 C :   -0.013068
   5 C :    0.194224
   6 O :   -0.155374
   7 N :   -0.170712
   8 C :    0.208538
   9 O :   -0.172596
  10 C :    0.027360
  11 C :   -0.017743
  12 H :    0.044707
  13 H :    0.133272
  14 H :   -0.008792
  15 H :    0.062793
  16 H :    0.029264
Sum of atomic charges:    0.0000000

LOEWDIN ATOMIC CHARGES
----------------------
   0 C :   -0.148938
   1 S :    0.462871
   2 C :   -0.133341
   3 C :   -0.102673
   4 C :   -0.094881
   5 C :    0.086417
   6 O :   -0.156358
   7 N :   -0.006386
   8 C :    0.093337
   9 O :   -0.161793
  10 C :   -0.056483
  11 C :   -0.004817
  12 H :    0.038643
  13 H :    0.092526
  14 H :    0.029236
  15 H :    0.032569
  16 H :    0.030072

  Mayer bond orders larger than 0.100000
B(  0-C ,  1-S ) :   1.1618 B(  0-C ,  4-C ) :   1.5440 B(  0-C , 12-H ) :   0.9657
B(  1-S ,  2-C ) :   1.1469 B(  2-C ,  3-C ) :   1.4966 B(  2-C , 10-C ) :   1.1209
B(  3-C ,  4-C ) :   1.2633 B(  3-C ,  8-C ) :   0.9083 B(  4-C ,  5-C ) :   0.8826
B(  5-C ,  6-O ) :   2.2337 B(  5-C ,  7-N ) :   1.0604 B(  7-N ,  8-C ) :   1.0822
B(  7-N , 13-H ) :   0.9145 B(  8-C ,  9-O ) :   2.1267 B( 10-C , 11-C ) :   1.9048
B( 10-C , 14-H ) :   0.9496 B( 11-C , 15-H ) :   0.9296 B( 11-C , 16-H ) :   0.9414

Dispersion correction           -0.038033669
FINAL SINGLE POINT ENERGY      -910.806982488236

DIPOLE MOMENT
-------------
                                X             Y             Z
Electronic contribution:     -0.48190       5.87390       0.26575
Nuclear contribution   :      1.39954      -6.13332      -0.22902
                        -----------------------------------------
Total Dipole Moment    :      0.91764      -0.25942       0.03673
                        -----------------------------------------
Magnitude (a.u.)       :      0.95432
Magnitude (Debye)      :      2.42568

Rotational constants in cm-1:     0.039939     0.027258     0.016203
Rotational constants in MHz :  1197.328708   817.167439   485.768072

                             ****ORCA TERMINATED NORMALLY****
TOTAL RUN TIME: 0 days 0 hours 7 minutes 9 seconds 444 msec
