                         Program Version 4.2.0 -  RELEASE  -
|  1> # ORCA input file
|  2> # SCF done        -39.920216767934          0.000211653216
|  3> ! B3LYP/G D3BJ Opt RIJCOSX def2-SVP def2/J
|  4> * xyz 0 1
|  5>    C        2.24290         1.17191         0.79475
|  6>    S        3.48484        -0.00767         0.63247
|  7>    C        2.32363        -1.21157         0.22948
|  8>    C        1.05570        -0.72495         0.22483
|  9>    C        1.00918         0.66028         0.54819
| 10>    C       -0.26881         1.43508         0.54568
| 11>    C       -1.48336         0.50429         0.65658
| 12>    O       -1.61518        -0.12980         1.91224
| 13>    C       -2.05403         0.70653         2.95172
| 14>    C       -1.36086        -0.61322        -0.39530
| 15>    O       -1.23438         0.02171        -1.65092
| 16>    C       -1.40568        -0.82352        -2.75953
| 17>    C       -0.18219        -1.52326        -0.02663
| 18>    H        2.50502         2.17791         1.05635
| 19>    H        2.65235        -2.21164         0.02708
| 20>    H       -0.36030         1.96839        -0.40394
| 21>    H       -0.27408         2.17332         1.34963
| 22>    H       -2.39277         1.09107         0.44402
| 23>    H       -2.24221         0.05593         3.80397
| 24>    H       -2.98041         1.22699         2.67824
| 25>    H       -1.29956         1.44977         3.23156
| 26>    H       -2.28459        -1.21588        -0.37976
| 27>    H       -1.43374        -0.17450        -3.63305
| 28>    H       -2.34657        -1.38350        -2.69028
| 29>    H       -0.57849        -1.53284        -2.87034
| 30>    H       -0.01031        -2.26876        -0.80507
| 31>    H       -0.46005        -2.04916         0.89034
| 32> *
| 33>
| 34>                          ****END OF INPUT****
 Total Charge           Charge          ....    0
 Multiplicity           Mult            ....    1
 Number of Electrons    NEL             ....  106
Dispersion correction           -0.053210380
FINAL SINGLE POINT ENERGY      -937.644735730574
Dispersion correction            ... done
Dispersion correction           -0.053169124
FINAL SINGLE POINT ENERGY      -937.647317982265
Dispersion correction            ... done
Dispersion correction           -0.053235644
FINAL SINGLE POINT ENERGY      -937.647440714914
Dispersion correction            ... done
FINAL SINGLE POINT ENERGY      -937.647337187266
FINAL SINGLE POINT ENERGY      -937.647459628132
FINAL SINGLE POINT ENERGY      -937.647482459895
FINAL SINGLE POINT ENERGY      -937.647495651377
Dispersion correction            ... done
Dispersion correction           -0.053257018
FINAL SINGLE POINT ENERGY      -937.647500964542
Dispersion correction            ... done
Dispersion correction           -0.053259310
FINAL SINGLE POINT ENERGY      -937.647502330337
Dispersion correction            ... done
                    ***********************HURRAY********************

CARTESIAN COORDINATES (ANGSTROEM)
---------------------------------
  C      2.240589    1.173504    0.737658
  S      3.474699   -0.019648    0.518329
  C      2.297355   -1.234346    0.155190
  C      1.016814   -0.741766    0.201288
  C      0.983380    0.658452    0.536084
  C     -0.306034    1.436014    0.563611
  C     -1.531908    0.517112    0.659426
  O     -1.666908   -0.119717    1.915155
  C     -2.030423    0.709226    2.984948
  C     -1.422493   -0.616620   -0.372723
  O     -1.282205    0.020883   -1.626067
  C     -1.270882   -0.816887   -2.749618
  C     -0.246958   -1.532012   -0.007628
  H      2.508434    2.196498    0.998719
  H      2.612847   -2.252699   -0.066912
  H     -0.407355    2.005742   -0.373721
  H     -0.310877    2.173364    1.381534
  H     -2.440796    1.110887    0.438995
  H     -2.199101    0.062198    3.857785
  H     -2.964341    1.269268    2.774119
  H     -1.245924    1.443650    3.245694
  H     -2.359356   -1.207853   -0.351155
  H     -1.308272   -0.169760   -3.638054
  H     -2.147678   -1.495745   -2.770462
  H     -0.356049   -1.436215   -2.813439
  H     -0.104621   -2.318249   -0.764644
  H     -0.525884   -2.042372    0.928196

 Multiplicity           Mult            ....    1
 Number of Electrons    NEL             ....  106
 Basis Dimension        Dim             ....  256

ORBITAL ENERGIES
----------------

  NO   OCC          E(Eh)            E(eV)
   0   2.0000     -88.860557     -2418.0187
   1   2.0000     -19.136150      -520.7211
   2   2.0000     -19.135284      -520.6976
   3   2.0000     -10.236008      -278.5359
   4   2.0000     -10.235753      -278.5290
   5   2.0000     -10.233682      -278.4726
   6   2.0000     -10.233244      -278.4607
   7   2.0000     -10.196386      -277.4578
   8   2.0000     -10.196327      -277.4562
   9   2.0000     -10.185415      -277.1592
  10   2.0000     -10.184849      -277.1438
  11   2.0000     -10.184260      -277.1278
  12   2.0000     -10.184031      -277.1216
  13   2.0000      -7.955693      -216.4854
  14   2.0000      -5.923798      -161.1947
  15   2.0000      -5.919735      -161.0842
  16   2.0000      -5.917071      -161.0117
  17   2.0000      -1.035285       -28.1716
  18   2.0000      -1.023888       -27.8614
  19   2.0000      -0.869728       -23.6665
  20   2.0000      -0.803698       -21.8697
  21   2.0000      -0.752866       -20.4865
  22   2.0000      -0.732004       -19.9188
  23   2.0000      -0.695522       -18.9261
  24   2.0000      -0.680088       -18.5061
  25   2.0000      -0.660910       -17.9843
  26   2.0000      -0.609993       -16.5987
  27   2.0000      -0.569497       -15.4968
  28   2.0000      -0.561437       -15.2775
  29   2.0000      -0.522053       -14.2058
  30   2.0000      -0.506534       -13.7835
  31   2.0000      -0.490225       -13.3397
  32   2.0000      -0.482137       -13.1196
  33   2.0000      -0.464278       -12.6336
  34   2.0000      -0.455811       -12.4033
  35   2.0000      -0.447826       -12.1860
  36   2.0000      -0.433020       -11.7831
  37   2.0000      -0.415834       -11.3154
  38   2.0000      -0.413744       -11.2586
  39   2.0000      -0.400130       -10.8881
  40   2.0000      -0.398830       -10.8527
  41   2.0000      -0.392667       -10.6850
  42   2.0000      -0.376362       -10.2413
  43   2.0000      -0.351616        -9.5680
  44   2.0000      -0.346333        -9.4242
  45   2.0000      -0.344665        -9.3788
  46   2.0000      -0.332209        -9.0399
  47   2.0000      -0.323498        -8.8028
  48   2.0000      -0.299289        -8.1441
  49   2.0000      -0.263385        -7.1671
  50   2.0000      -0.257848        -7.0164
  51   2.0000      -0.231790        -6.3073
  52   2.0000      -0.223908        -6.0928
  53   0.0000      -0.008110        -0.2207
  54   0.0000       0.051843         1.4107
  55   0.0000       0.057840         1.5739
  56   0.0000       0.059308         1.6139
  57   0.0000       0.065633         1.7860

MULLIKEN ATOMIC CHARGES
-----------------------
   0 C :   -0.147041
   1 S :    0.084956
   2 C :   -0.148291
   3 C :   -0.035098
   4 C :   -0.036318
   5 C :    0.179294
   6 C :    0.126822
   7 O :   -0.387122
   8 C :    0.200741
   9 C :    0.133585
  10 O :   -0.386756
  11 C :    0.195506
  12 C :    0.174015
  13 H :    0.003958
  14 H :    0.004072
  15 H :    0.022646
  16 H :   -0.005711
  17 H :   -0.017689
  18 H :    0.021914
  19 H :   -0.009353
  20 H :    0.006047
  21 H :   -0.020204
  22 H :    0.019291
  23 H :   -0.004969
  24 H :    0.010368
  25 H :   -0.008137
  26 H :    0.023471
Sum of atomic charges:    0.0000000

LOEWDIN ATOMIC CHARGES
----------------------
   0 C :   -0.205530
   1 S :    0.414621
   2 C :   -0.205898
   3 C :   -0.059932
   4 C :   -0.059769
   5 C :   -0.033311
   6 C :    0.067795
   7 O :   -0.165772
   8 C :    0.070582
   9 C :    0.067061
  10 O :   -0.166192
  11 C :    0.070323
  12 C :   -0.034105
  13 H :    0.019158
  14 H :    0.019130
  15 H :    0.039717
  16 H :    0.025425
  17 H :    0.007769
  18 H :    0.021638
  19 H :    0.002894
  20 H :    0.003888
  21 H :    0.006726
  22 H :    0.021401
  23 H :    0.003095
  24 H :    0.005209
  25 H :    0.024150
  26 H :    0.039927

  Mayer bond orders larger than 0.100000
B(  0-C ,  1-S ) :   1.1558 B(  0-C ,  4-C ) :   1.5572 B(  0-C , 13-H ) :   0.9622
B(  1-S ,  2-C ) :   1.1547 B(  2-C ,  3-C ) :   1.5545 B(  2-C , 14-H ) :   0.9624
B(  3-C ,  4-C ) :   1.2988 B(  3-C , 12-C ) :   1.0159 B(  4-C ,  5-C ) :   1.0148
B(  5-C ,  6-C ) :   1.0449 B(  5-C , 15-H ) :   0.8944 B(  5-C , 16-H ) :   0.9129
B(  6-C ,  7-O ) :   1.0001 B(  6-C ,  9-C ) :   1.0054 B(  6-C , 17-H ) :   0.9158
B(  7-O ,  8-C ) :   1.0007 B(  8-C , 18-H ) :   0.9788 B(  8-C , 19-H ) :   0.9593
B(  8-C , 20-H ) :   0.9633 B(  9-C , 10-O ) :   1.0076 B(  9-C , 12-C ) :   1.0441
B(  9-C , 21-H ) :   0.9159 B( 10-O , 11-C ) :   0.9986 B( 11-C , 22-H ) :   0.9785
B( 11-C , 23-H ) :   0.9597 B( 11-C , 24-H ) :   0.9641 B( 12-C , 25-H ) :   0.9151
B( 12-C , 26-H ) :   0.8907

Dispersion correction           -0.053262491
FINAL SINGLE POINT ENERGY      -937.647501090783

DIPOLE MOMENT
-------------
                                X             Y             Z
Electronic contribution:     13.44767       0.07932       1.04682
Nuclear contribution   :    -13.98530      -0.07474      -1.09225
                        -----------------------------------------
Total Dipole Moment    :     -0.53763       0.00458      -0.04543
                        -----------------------------------------
Magnitude (a.u.)       :      0.53957
Magnitude (Debye)      :      1.37148

Rotational constants in cm-1:     0.031210     0.019038     0.014253
Rotational constants in MHz :   935.646389   570.754504   427.291083

                             ****ORCA TERMINATED NORMALLY****
TOTAL RUN TIME: 0 days 0 hours 18 minutes 7 seconds 262 msec
