                         Program Version 4.2.0 -  RELEASE  -
|  1> # ORCA input file
|  2> # SCF done        -39.788542125735          0.000611771482
|  3> ! B3LYP/G D3BJ Opt RIJCOSX def2-SVP def2/J
|  4> * xyz 0 1
|  5>    C        1.48093        -1.32982         0.30285
|  6>    S        2.75180        -0.18405         0.31177
|  7>    C        1.62612         1.13567         0.15368
|  8>    C        0.33234         0.67020         0.11708
|  9>    C        0.25598        -0.74401         0.20182
| 10>    C       -1.03602        -1.50281         0.21964
| 11>    C       -2.20133        -0.62545        -0.25995
| 12>    C       -2.13243        -0.44025        -1.69155
| 13>    N       -2.07132        -0.28935        -2.82254
| 14>    C       -2.15120         0.75215         0.43940
| 15>    C       -2.16149         0.56550         1.87230
| 16>    N       -2.16505         0.40960         3.00424
| 17>    C       -0.89217         1.52548         0.01548
| 18>    C        2.17198         2.46862         0.10096
| 19>    C        1.57683         3.56914        -0.35064
| 20>    H        1.70498        -2.37541         0.37620
| 21>    H       -1.24517        -1.83189         1.24303
| 22>    H       -0.95553        -2.39569        -0.40572
| 23>    H       -3.15257        -1.12314        -0.03179
| 24>    H       -3.04149         1.33534         0.17158
| 25>    H       -0.77669         2.41426         0.64198
| 26>    H       -1.02457         1.85458        -1.02081
| 27>    H        3.19367         2.53445         0.45471
| 28>    H        0.58565         3.57779        -0.76557
| 29>    H        2.09395         4.51285        -0.33953
| 30> *
| 31>
| 32>                          ****END OF INPUT****
 Total Charge           Charge          ....    0
 Multiplicity           Mult            ....    1
 Number of Electrons    NEL             ....  112
Dispersion correction           -0.061568235
FINAL SINGLE POINT ENERGY      -970.461247398969
Dispersion correction            ... done
Dispersion correction           -0.060693820
FINAL SINGLE POINT ENERGY      -970.465843135896
Dispersion correction            ... done
Dispersion correction           -0.060405909
FINAL SINGLE POINT ENERGY      -970.466048010770
Dispersion correction            ... done
FINAL SINGLE POINT ENERGY      -970.466046691823
Dispersion correction            ... done
Dispersion correction           -0.060272884
FINAL SINGLE POINT ENERGY      -970.466045049440
Dispersion correction            ... done
Dispersion correction           -0.060280631
FINAL SINGLE POINT ENERGY      -970.466049579239
Dispersion correction            ... done
                    ***********************HURRAY********************

CARTESIAN COORDINATES (ANGSTROEM)
---------------------------------
  C      1.532865   -1.356264    0.244396
  S      2.797406   -0.190988    0.266282
  C      1.668743    1.136293    0.143394
  C      0.363208    0.662195    0.101023
  C      0.291137   -0.768820    0.166557
  C     -1.014190   -1.519502    0.225897
  C     -2.204365   -0.655486   -0.242429
  C     -2.246337   -0.523437   -1.702579
  N     -2.271820   -0.413880   -2.855262
  C     -2.147417    0.759109    0.408933
  C     -2.248277    0.630569    1.866953
  N     -2.321237    0.523014    3.017739
  C     -0.868208    1.517972   -0.007499
  C      2.210132    2.487005    0.118119
  C      1.605393    3.622044   -0.274466
  H      1.762487   -2.419098    0.304610
  H     -1.219634   -1.824726    1.265378
  H     -0.967431   -2.442030   -0.370531
  H     -3.142102   -1.145835    0.064474
  H     -3.024714    1.335648    0.075534
  H     -0.765087    2.427031    0.603228
  H     -1.005621    1.855146   -1.049361
  H      3.246760    2.562785    0.465716
  H      0.592710    3.653283   -0.676648
  H      2.142798    4.571730   -0.220838

 Multiplicity           Mult            ....    1
 Number of Electrons    NEL             ....  112
 Basis Dimension        Dim             ....  264

ORBITAL ENERGIES
----------------

  NO   OCC          E(Eh)            E(eV)
   0   2.0000     -88.884352     -2418.6662
   1   2.0000     -14.342085      -390.2680
   2   2.0000     -14.341629      -390.2556
   3   2.0000     -10.268998      -279.4336
   4   2.0000     -10.268569      -279.4220
   5   2.0000     -10.240889      -278.6688
   6   2.0000     -10.240474      -278.6575
   7   2.0000     -10.228994      -278.3451
   8   2.0000     -10.228805      -278.3399
   9   2.0000     -10.228102      -278.3208
  10   2.0000     -10.222819      -278.1770
  11   2.0000     -10.215062      -277.9660
  12   2.0000     -10.214190      -277.9422
  13   2.0000     -10.213761      -277.9306
  14   2.0000     -10.200608      -277.5727
  15   2.0000      -7.979495      -217.1331
  16   2.0000      -5.947461      -161.8386
  17   2.0000      -5.943501      -161.7309
  18   2.0000      -5.941000      -161.6628
  19   2.0000      -0.924100       -25.1460
  20   2.0000      -0.910939       -24.7879
  21   2.0000      -0.900068       -24.4921
  22   2.0000      -0.863699       -23.5024
  23   2.0000      -0.806489       -21.9457
  24   2.0000      -0.781928       -21.2773
  25   2.0000      -0.767730       -20.8910
  26   2.0000      -0.719553       -19.5800
  27   2.0000      -0.674062       -18.3422
  28   2.0000      -0.669294       -18.2124
  29   2.0000      -0.611996       -16.6533
  30   2.0000      -0.582467       -15.8497
  31   2.0000      -0.556211       -15.1353
  32   2.0000      -0.525622       -14.3029
  33   2.0000      -0.519911       -14.1475
  34   2.0000      -0.502095       -13.6627
  35   2.0000      -0.481057       -13.0902
  36   2.0000      -0.469842       -12.7850
  37   2.0000      -0.457885       -12.4597
  38   2.0000      -0.449345       -12.2273
  39   2.0000      -0.436376       -11.8744
  40   2.0000      -0.428016       -11.6469
  41   2.0000      -0.417962       -11.3733
  42   2.0000      -0.391886       -10.6638
  43   2.0000      -0.386165       -10.5081
  44   2.0000      -0.383890       -10.4462
  45   2.0000      -0.374792       -10.1986
  46   2.0000      -0.370232       -10.0745
  47   2.0000      -0.364694        -9.9238
  48   2.0000      -0.359104        -9.7717
  49   2.0000      -0.358539        -9.7563
  50   2.0000      -0.344280        -9.3683
  51   2.0000      -0.339523        -9.2389
  52   2.0000      -0.333238        -9.0679
  53   2.0000      -0.311190        -8.4679
  54   2.0000      -0.259809        -7.0698
  55   2.0000      -0.229979        -6.2580
  56   0.0000      -0.057981        -1.5778
  57   0.0000      -0.006324        -0.1721
  58   0.0000      -0.000561        -0.0153
  59   0.0000       0.008840         0.2406
  60   0.0000       0.019485         0.5302

MULLIKEN ATOMIC CHARGES
-----------------------
   0 C :   -0.124511
   1 S :    0.122334
   2 C :   -0.165931
   3 C :   -0.023693
   4 C :   -0.042225
   5 C :    0.167075
   6 C :   -0.091277
   7 C :   -0.194606
   8 N :    0.092873
   9 C :   -0.074345
  10 C :   -0.200234
  11 N :    0.093120
  12 C :    0.128976
  13 C :    0.034646
  14 C :   -0.036962
  15 H :    0.018968
  16 H :    0.045468
  17 H :    0.027308
  18 H :    0.046217
  19 H :    0.045534
  20 H :    0.040755
  21 H :    0.052302
  22 H :   -0.004964
  23 H :    0.014568
  24 H :    0.028602
Sum of atomic charges:    0.0000000

LOEWDIN ATOMIC CHARGES
----------------------
   0 C :   -0.191926
   1 S :    0.449737
   2 C :   -0.177243
   3 C :   -0.060596
   4 C :   -0.067828
   5 C :   -0.001877
   6 C :   -0.032689
   7 C :   -0.031256
   8 N :   -0.062081
   9 C :   -0.031050
  10 C :   -0.031077
  11 N :   -0.062102
  12 C :   -0.005633
  13 C :   -0.039525
  14 C :   -0.051070
  15 H :    0.026027
  16 H :    0.044475
  17 H :    0.041510
  18 H :    0.058903
  19 H :    0.059142
  20 H :    0.042825
  21 H :    0.042712
  22 H :    0.030818
  23 H :    0.020426
  24 H :    0.029376

  Mayer bond orders larger than 0.100000
B(  0-C ,  1-S ) :   1.1635 B(  0-C ,  4-C ) :   1.5364 B(  0-C , 15-H ) :   0.9670
B(  1-S ,  2-C ) :   1.1374 B(  2-C ,  3-C ) :   1.5072 B(  2-C , 13-C ) :   1.1093
B(  3-C ,  4-C ) :   1.2959 B(  3-C , 12-C ) :   1.0581 B(  4-C ,  5-C ) :   1.0246
B(  5-C ,  6-C ) :   1.0560 B(  5-C , 16-H ) :   0.9076 B(  5-C , 17-H ) :   0.9180
B(  6-C ,  7-C ) :   1.0988 B(  6-C ,  9-C ) :   1.0700 B(  6-C , 18-H ) :   0.8630
B(  7-C ,  8-N ) :   3.0700 B(  9-C , 10-C ) :   1.1005 B(  9-C , 12-C ) :   1.0418
B(  9-C , 19-H ) :   0.8587 B( 10-C , 11-N ) :   3.0695 B( 12-C , 20-H ) :   0.9070
B( 12-C , 21-H ) :   0.8980 B( 13-C , 14-C ) :   1.9163 B( 13-C , 22-H ) :   0.9406
B( 14-C , 23-H ) :   0.9503 B( 14-C , 24-H ) :   0.9415

Dispersion correction           -0.060284519
FINAL SINGLE POINT ENERGY      -970.466053164696

DIPOLE MOMENT
-------------
                                X             Y             Z
Electronic contribution:      1.97384      -4.79086       0.64710
Nuclear contribution   :     -1.73724       4.72834      -0.61682
                        -----------------------------------------
Total Dipole Moment    :      0.23660      -0.06252       0.03028
                        -----------------------------------------
Magnitude (a.u.)       :      0.24658
Magnitude (Debye)      :      0.62677

Rotational constants in cm-1:     0.024170     0.014096     0.013209
Rotational constants in MHz :   724.603814   422.588473   395.995104

                             ****ORCA TERMINATED NORMALLY****
TOTAL RUN TIME: 0 days 0 hours 14 minutes 33 seconds 905 msec
