                         Program Version 4.2.0 -  RELEASE  -
|  1> # ORCA input file
|  2> # SCF done        -44.606290792692          0.000329327692
|  3> ! B3LYP/G D3BJ Opt RIJCOSX def2-SVP def2/J
|  4> * xyz 0 1
|  5>    C        2.23277        -0.60249        -0.00317
|  6>    C        1.07092        -1.36951        -0.00240
|  7>    C       -0.16131        -0.74273        -0.00100
|  8>    C       -0.19339         0.67371        -0.00279
|  9>    C       -1.57723         1.09178        -0.00359
| 10>    C       -2.36258        -0.00191        -0.00210
| 11>    C       -1.55966        -1.21328         0.00078
| 12>    C       -2.03881        -2.49432         0.00760
| 13>    C       -1.23587        -3.70562         0.01825
| 14>    C       -2.02119        -4.79929         0.02680
| 15>    C       -3.40503        -4.38128         0.02172
| 16>    C       -3.43714        -2.96490         0.00947
| 17>    C       -4.66938        -2.33818         0.00126
| 18>    C       -5.83121        -3.10521         0.00702
| 19>    C       -5.78336        -4.48674         0.02014
| 20>    C       -4.55758        -5.13970         0.02717
| 21>    C        0.95917         1.43212        -0.00369
| 22>    C        2.18495         0.77911        -0.00331
| 23>    H        3.19008        -1.10328        -0.00370
| 24>    H        1.17841        -2.44076        -0.00371
| 25>    H       -1.89983         2.11756        -0.00517
| 26>    H       -3.43247         0.01783        -0.00143
| 27>    H       -0.16598        -3.72533         0.02074
| 28>    H       -1.69855        -5.82502         0.03606
| 29>    H       -4.77689        -1.26699        -0.01012
| 30>    H       -6.78853        -2.60448         0.00104
| 31>    H       -6.69989        -5.05824         0.02467
| 32>    H       -4.50545        -6.21881         0.03684
| 33>    H        0.90707         2.51127        -0.00465
| 34>    H        3.10149         1.35060        -0.00353
| 35> *
| 36>
| 37>                          ****END OF INPUT****
 Total Charge           Charge          ....    0
 Multiplicity           Mult            ....    1
 Number of Electrons    NEL             ....  120
Dispersion correction           -0.070801184
FINAL SINGLE POINT ENERGY      -692.688727036854
Dispersion correction            ... done
Dispersion correction           -0.070578553
FINAL SINGLE POINT ENERGY      -692.693428093897
Dispersion correction            ... done
Dispersion correction           -0.070544192
FINAL SINGLE POINT ENERGY      -692.693533657190
Dispersion correction            ... done
Dispersion correction           -0.070544609
FINAL SINGLE POINT ENERGY      -692.693544282281
Dispersion correction            ... done
Dispersion correction           -0.070546502
FINAL SINGLE POINT ENERGY      -692.693546296089
Dispersion correction            ... done
                    ***********************HURRAY********************

CARTESIAN COORDINATES (ANGSTROEM)
---------------------------------
  C      2.267524   -0.602338    0.001019
  C      1.090297   -1.368520    0.004312
  C     -0.149735   -0.730659    0.001456
  C     -0.186901    0.694163   -0.005232
  C     -1.587602    1.110937   -0.007514
  C     -2.381595    0.009419   -0.002581
  C     -1.562934   -1.208564    0.003536
  C     -2.035473   -2.499079    0.010142
  C     -1.216833   -3.717072    0.017281
  C     -2.010849   -4.818573    0.022668
  C     -3.411541   -4.401777    0.019521
  C     -3.448679   -2.976960    0.011880
  C     -4.688695   -2.339077    0.007708
  C     -5.865938   -3.105233    0.011122
  C     -5.815780   -4.500528    0.018514
  C     -4.578497   -5.159987    0.022710
  C      0.980039    1.452396   -0.008461
  C      2.217337    0.792961   -0.005220
  H      3.233097   -1.113221    0.003520
  H      1.182546   -2.452456    0.009195
  H     -1.926657    2.147380   -0.012512
  H     -3.465493    0.028562   -0.002733
  H     -0.132937   -3.736229    0.018579
  H     -1.671817   -5.855017    0.028820
  H     -4.780917   -1.255144    0.001440
  H     -6.831502   -2.594338    0.007704
  H     -6.741588   -5.080231    0.021101
  H     -4.527035   -6.252025    0.028715
  H      0.928555    2.544438   -0.013741
  H      3.143132    1.372684   -0.007750

 Multiplicity           Mult            ....    1
 Number of Electrons    NEL             ....  120
 Basis Dimension        Dim             ....  312

ORBITAL ENERGIES
----------------

  NO   OCC          E(Eh)            E(eV)
   0   2.0000     -10.215512      -277.9782
   1   2.0000     -10.215024      -277.9649
   2   2.0000     -10.198491      -277.5150
   3   2.0000     -10.198490      -277.5150
   4   2.0000     -10.198293      -277.5096
   5   2.0000     -10.198279      -277.5093
   6   2.0000     -10.196829      -277.4698
   7   2.0000     -10.196825      -277.4697
   8   2.0000     -10.194829      -277.4154
   9   2.0000     -10.194826      -277.4153
  10   2.0000     -10.194334      -277.4019
  11   2.0000     -10.194333      -277.4019
  12   2.0000     -10.193513      -277.3796
  13   2.0000     -10.193513      -277.3796
  14   2.0000     -10.192462      -277.3510
  15   2.0000     -10.192453      -277.3507
  16   2.0000     -10.192304      -277.3467
  17   2.0000     -10.192300      -277.3466
  18   2.0000      -0.886849       -24.1324
  19   2.0000      -0.872751       -23.7488
  20   2.0000      -0.822563       -22.3831
  21   2.0000      -0.813283       -22.1305
  22   2.0000      -0.764789       -20.8110
  23   2.0000      -0.748853       -20.3773
  24   2.0000      -0.719756       -19.5856
  25   2.0000      -0.715255       -19.4631
  26   2.0000      -0.706674       -19.2296
  27   2.0000      -0.651011       -17.7149
  28   2.0000      -0.615544       -16.7498
  29   2.0000      -0.603619       -16.4253
  30   2.0000      -0.590075       -16.0568
  31   2.0000      -0.578183       -15.7332
  32   2.0000      -0.549594       -14.9552
  33   2.0000      -0.548235       -14.9182
  34   2.0000      -0.521949       -14.2030
  35   2.0000      -0.484282       -13.1780
  36   2.0000      -0.481392       -13.0993
  37   2.0000      -0.466246       -12.6872
  38   2.0000      -0.455951       -12.4071
  39   2.0000      -0.450923       -12.2702
  40   2.0000      -0.436505       -11.8779
  41   2.0000      -0.425842       -11.5878
  42   2.0000      -0.421854       -11.4792
  43   2.0000      -0.418071       -11.3763
  44   2.0000      -0.410772       -11.1777
  45   2.0000      -0.397084       -10.8052
  46   2.0000      -0.390257       -10.6194
  47   2.0000      -0.389311       -10.5937
  48   2.0000      -0.373740       -10.1700
  49   2.0000      -0.361261        -9.8304
  50   2.0000      -0.352961        -9.6046
  51   2.0000      -0.347237        -9.4488
  52   2.0000      -0.339939        -9.2502
  53   2.0000      -0.326343        -8.8802
  54   2.0000      -0.319706        -8.6996
  55   2.0000      -0.286139        -7.7862
  56   2.0000      -0.268949        -7.3185
  57   2.0000      -0.232495        -6.3265
  58   2.0000      -0.229199        -6.2368
  59   2.0000      -0.215996        -5.8775
  60   0.0000      -0.103030        -2.8036
  61   0.0000      -0.024902        -0.6776
  62   0.0000      -0.016629        -0.4525
  63   0.0000       0.007222         0.1965
  64   0.0000       0.027161         0.7391

MULLIKEN ATOMIC CHARGES
-----------------------
   0 C :    0.023160
   1 C :   -0.070126
   2 C :    0.097020
   3 C :    0.047337
   4 C :    0.031151
   5 C :   -0.022056
   6 C :    0.061842
   7 C :    0.061850
   8 C :   -0.022058
   9 C :    0.031149
  10 C :    0.047344
  11 C :    0.096993
  12 C :   -0.070120
  13 C :    0.023164
  14 C :    0.035372
  15 C :   -0.040972
  16 C :   -0.040965
  17 C :    0.035351
  18 H :   -0.023300
  19 H :   -0.034128
  20 H :   -0.024041
  21 H :   -0.034629
  22 H :   -0.034629
  23 H :   -0.024035
  24 H :   -0.034132
  25 H :   -0.023299
  26 H :   -0.018532
  27 H :   -0.028092
  28 H :   -0.028082
  29 H :   -0.018537
Sum of atomic charges:   -0.0000000

LOEWDIN ATOMIC CHARGES
----------------------
   0 C :   -0.031134
   1 C :   -0.014997
   2 C :   -0.017632
   3 C :   -0.021984
   4 C :    0.001638
   5 C :   -0.032513
   6 C :    0.011487
   7 C :    0.011488
   8 C :   -0.032513
   9 C :    0.001639
  10 C :   -0.021984
  11 C :   -0.017632
  12 C :   -0.014998
  13 C :   -0.031135
  14 C :   -0.020197
  15 C :   -0.026316
  16 C :   -0.026317
  17 C :   -0.020197
  18 H :    0.025937
  19 H :    0.023883
  20 H :    0.025597
  21 H :    0.022337
  22 H :    0.022336
  23 H :    0.025597
  24 H :    0.023884
  25 H :    0.025937
  26 H :    0.026843
  27 H :    0.027052
  28 H :    0.027052
  29 H :    0.026843

  Mayer bond orders larger than 0.100000
B(  0-C ,  1-C ) :   1.3443 B(  0-C , 17-C ) :   1.3987 B(  0-C , 18-H ) :   0.9798
B(  1-C ,  2-C ) :   1.3704 B(  1-C , 19-H ) :   0.9975 B(  2-C ,  3-C ) :   1.3023
B(  2-C ,  6-C ) :   1.0338 B(  3-C ,  4-C ) :   1.0578 B(  3-C , 16-C ) :   1.3631
B(  4-C ,  5-C ) :   1.6141 B(  4-C , 20-H ) :   1.0029 B(  5-C ,  6-C ) :   1.0817
B(  5-C , 21-H ) :   1.0082 B(  6-C ,  7-C ) :   1.5291 B(  7-C ,  8-C ) :   1.0817
B(  7-C , 11-C ) :   1.0338 B(  8-C ,  9-C ) :   1.6141 B(  8-C , 22-H ) :   1.0082
B(  9-C , 10-C ) :   1.0578 B(  9-C , 23-H ) :   1.0029 B( 10-C , 11-C ) :   1.3023
B( 10-C , 15-C ) :   1.3631 B( 11-C , 12-C ) :   1.3704 B( 12-C , 13-C ) :   1.3443
B( 12-C , 24-H ) :   0.9976 B( 13-C , 14-C ) :   1.3987 B( 13-C , 25-H ) :   0.9798
B( 14-C , 15-C ) :   1.3327 B( 14-C , 26-H ) :   0.9830 B( 15-C , 27-H ) :   0.9936
B( 16-C , 17-C ) :   1.3327 B( 16-C , 28-H ) :   0.9936 B( 17-C , 29-H ) :   0.9830

Dispersion correction           -0.070546911
FINAL SINGLE POINT ENERGY      -692.693545271005

DIPOLE MOMENT
-------------
                                X             Y             Z
Electronic contribution:      0.00004      -0.00006      -0.00018
Nuclear contribution   :     -0.00004       0.00006       0.00039
                        -----------------------------------------
Total Dipole Moment    :      0.00000      -0.00000       0.00021
                        -----------------------------------------
Magnitude (a.u.)       :      0.00021
Magnitude (Debye)      :      0.00052

Rotational constants in cm-1:     0.040675     0.008028     0.006705
Rotational constants in MHz :  1219.399186   240.666557   200.996854

                             ****ORCA TERMINATED NORMALLY****
TOTAL RUN TIME: 0 days 0 hours 17 minutes 14 seconds 0 msec
