                         Program Version 4.2.0 -  RELEASE  -
|  1> # ORCA input file
|  2> # SCF done        -27.750604925812          0.000371010697
|  3> ! B3LYP/G D3BJ Opt RIJCOSX def2-SVP def2/J
|  4> * xyz 0 1
|  5>    C       -0.13429        -1.15679         0.05741
|  6>    N       -1.39187        -0.62983         0.04276
|  7>    C       -1.31380         0.72099         0.01730
|  8>    C        0.01962         1.08417         0.01422
|  9>    C        0.76979        -0.13218         0.03943
| 10>    C        2.25525        -0.25567         0.04974
| 11>    C        0.58271         2.40684        -0.00628
| 12>    C       -0.10830         3.55823         0.01729
| 13>    C        0.51769         4.85279         0.00197
| 14>    C       -0.14805         6.00549         0.04392
| 15>    H        0.02612        -2.21691         0.07948
| 16>    H       -2.24411        -1.16446         0.04985
| 17>    H       -2.19557         1.32964        -0.00030
| 18>    H        2.67709         0.24632         0.92006
| 19>    H        2.68592         0.19778        -0.84272
| 20>    H        2.54425        -1.30343         0.07983
| 21>    H        1.66417         2.45100        -0.03906
| 22>    H       -1.18891         3.54494         0.05433
| 23>    H        1.60013         4.85853        -0.04327
| 24>    H       -1.22446         6.03260         0.09174
| 25>    H        0.35475         6.95721         0.03535
| 26> *
| 27>
| 28>                          ****END OF INPUT****
 Total Charge           Charge          ....    0
 Multiplicity           Mult            ....    1
 Number of Electrons    NEL             ....   72
Dispersion correction           -0.034474605
FINAL SINGLE POINT ENERGY      -404.039177620911
Dispersion correction            ... done
Dispersion correction           -0.034283240
FINAL SINGLE POINT ENERGY      -404.042476626770
Dispersion correction            ... done
Dispersion correction           -0.034249371
FINAL SINGLE POINT ENERGY      -404.042543515743
Dispersion correction            ... done
Dispersion correction           -0.034236558
FINAL SINGLE POINT ENERGY      -404.042528488656
Dispersion correction            ... done
Dispersion correction           -0.034236187
FINAL SINGLE POINT ENERGY      -404.042520900690
Dispersion correction            ... done
                    ***********************HURRAY********************

CARTESIAN COORDINATES (ANGSTROEM)
---------------------------------
  C     -0.119744   -1.205617    0.044963
  N     -1.401040   -0.699624    0.043640
  C     -1.365274    0.666418    0.036248
  C     -0.027872    1.063273    0.032254
  C      0.761876   -0.144472    0.038440
  C      2.256349   -0.226182    0.038074
  C      0.522929    2.404503    0.022871
  C     -0.144787    3.582610    0.028557
  C      0.522371    4.868920    0.016063
  C     -0.089259    6.067507    0.019662
  H      0.071721   -2.276713    0.051554
  H     -2.244297   -1.256855    0.047185
  H     -2.277758    1.257849    0.032519
  H      2.696671    0.275487    0.916284
  H      2.695095    0.252094   -0.854107
  H      2.594404   -1.272861    0.051512
  H      1.618473    2.454776    0.008996
  H     -1.241747    3.591571    0.043867
  H      1.619808    4.834158    0.002233
  H     -1.180856    6.151430    0.033007
  H      0.481067    6.998988    0.009228

 Multiplicity           Mult            ....    1
 Number of Electrons    NEL             ....   72
 Basis Dimension        Dim             ....  195

ORBITAL ENERGIES
----------------

  NO   OCC          E(Eh)            E(eV)
   0   2.0000     -14.378238      -391.2517
   1   2.0000     -10.209670      -277.8192
   2   2.0000     -10.204386      -277.6755
   3   2.0000     -10.185539      -277.1626
   4   2.0000     -10.183646      -277.1111
   5   2.0000     -10.183591      -277.1096
   6   2.0000     -10.177850      -276.9534
   7   2.0000     -10.174970      -276.8750
   8   2.0000     -10.173966      -276.8477
   9   2.0000     -10.173865      -276.8449
  10   2.0000      -0.970214       -26.4009
  11   2.0000      -0.804220       -21.8839
  12   2.0000      -0.777488       -21.1565
  13   2.0000      -0.738771       -20.1030
  14   2.0000      -0.701844       -19.0982
  15   2.0000      -0.682992       -18.5852
  16   2.0000      -0.619941       -16.8695
  17   2.0000      -0.561340       -15.2748
  18   2.0000      -0.541752       -14.7418
  19   2.0000      -0.532901       -14.5010
  20   2.0000      -0.529222       -14.4009
  21   2.0000      -0.462279       -12.5792
  22   2.0000      -0.441911       -12.0250
  23   2.0000      -0.430951       -11.7268
  24   2.0000      -0.425533       -11.5793
  25   2.0000      -0.418051       -11.3758
  26   2.0000      -0.392267       -10.6741
  27   2.0000      -0.391866       -10.6632
  28   2.0000      -0.386814       -10.5258
  29   2.0000      -0.366337        -9.9685
  30   2.0000      -0.346264        -9.4223
  31   2.0000      -0.337664        -9.1883
  32   2.0000      -0.325728        -8.8635
  33   2.0000      -0.268089        -7.2951
  34   2.0000      -0.221187        -6.0188
  35   2.0000      -0.191054        -5.1988
  36   0.0000      -0.033919        -0.9230
  37   0.0000       0.036831         1.0022
  38   0.0000       0.047051         1.2803
  39   0.0000       0.064673         1.7598
  40   0.0000       0.068757         1.8710

MULLIKEN ATOMIC CHARGES
-----------------------
   0 C :   -0.015635
   1 N :   -0.052729
   2 C :   -0.012001
   3 C :    0.060749
   4 C :   -0.111565
   5 C :    0.103219
   6 C :   -0.019635
   7 C :    0.003885
   8 C :    0.000511
   9 C :   -0.040323
  10 H :   -0.014948
  11 H :    0.119838
  12 H :   -0.010850
  13 H :    0.020332
  14 H :    0.020056
  15 H :   -0.002860
  16 H :   -0.028057
  17 H :   -0.027983
  18 H :   -0.013205
  19 H :    0.008337
  20 H :    0.012866
Sum of atomic charges:   -0.0000000

LOEWDIN ATOMIC CHARGES
----------------------
   0 C :   -0.039817
   1 N :    0.089156
   2 C :   -0.012722
   3 C :   -0.082083
   4 C :   -0.067881
   5 C :   -0.048090
   6 C :   -0.017672
   7 C :   -0.043212
   8 C :   -0.027850
   9 C :   -0.070934
  10 H :    0.016695
  11 H :    0.087207
  12 H :    0.017406
  13 H :    0.030676
  14 H :    0.030616
  15 H :    0.028445
  16 H :    0.024700
  17 H :    0.020271
  18 H :    0.025559
  19 H :    0.018474
  20 H :    0.021057

  Mayer bond orders larger than 0.100000
B(  0-C ,  1-N ) :   1.1888 B(  0-C ,  4-C ) :   1.4981 B(  0-C , 10-H ) :   0.9874
B(  1-N ,  2-C ) :   1.2495 B(  1-N , 11-H ) :   0.9425 B(  2-C ,  3-C ) :   1.4067
B(  2-C , 12-H ) :   0.9805 B(  3-C ,  4-C ) :   1.2980 B(  3-C ,  6-C ) :   1.0979
B(  4-C ,  5-C ) :   1.1126 B(  5-C , 13-H ) :   0.9449 B(  5-C , 14-H ) :   0.9447
B(  5-C , 15-H ) :   0.9501 B(  6-C ,  7-C ) :   1.6965 B(  6-C ,  9-C ) :   0.1161
B(  6-C , 16-H ) :   0.9650 B(  7-C ,  8-C ) :   1.1307 B(  7-C , 17-H ) :   0.9702
B(  8-C ,  9-C ) :   1.8663 B(  8-C , 18-H ) :   0.9684 B(  9-C , 19-H ) :   0.9537
B(  9-C , 20-H ) :   0.9479

Dispersion correction           -0.034236416
FINAL SINGLE POINT ENERGY      -404.042522249014

DIPOLE MOMENT
-------------
                                X             Y             Z
Electronic contribution:     -4.08911      -3.91403       0.01499
Nuclear contribution   :      3.51278       2.92448      -0.01082
                        -----------------------------------------
Total Dipole Moment    :     -0.57633      -0.98955       0.00417
                        -----------------------------------------
Magnitude (a.u.)       :      1.14516
Magnitude (Debye)      :      2.91076

Rotational constants in cm-1:     0.101879     0.021479     0.017799
Rotational constants in MHz :  3054.250456   643.937936   533.590602

                             ****ORCA TERMINATED NORMALLY****
TOTAL RUN TIME: 0 days 0 hours 5 minutes 41 seconds 915 msec
