                         Program Version 4.2.0 -  RELEASE  -
|  1> # ORCA input file
|  2> # SCF done        -37.722796901292          0.000519804358
|  3> ! B3LYP/G D3BJ Opt RIJCOSX def2-SVP def2/J
|  4> * xyz 0 1
|  5>    C       -1.48970         1.24022        -0.05692
|  6>    S       -2.64714        -0.00678        -0.10034
|  7>    C       -1.44872        -1.25213        -0.01957
|  8>    C       -0.17154        -0.69496         0.00352
|  9>    C       -0.20458         0.74708        -0.00541
| 10>    C        0.99853         1.48615         0.02976
| 11>    C        2.19593         0.82242         0.04261
| 12>    C        3.41148         1.54325         0.08669
| 13>    N        4.38801         2.14138         0.12715
| 14>    C        2.23402        -0.61154        -0.00905
| 15>    C        3.48606        -1.26587        -0.04772
| 16>    N        4.49105        -1.81618        -0.07813
| 17>    C        1.07721        -1.34865        -0.03109
| 18>    C       -1.88993        -2.62133         0.03015
| 19>    C       -1.23760        -3.63929         0.58666
| 20>    H       -1.79967         2.26586        -0.06724
| 21>    H        0.96627         2.56524         0.04064
| 22>    H        1.12981        -2.42322        -0.10304
| 23>    H       -2.87141        -2.79089        -0.39456
| 24>    H       -0.29303        -3.52214         1.08704
| 25>    H       -1.65390        -4.63109         0.57922
| 26> *
| 27>
| 28>                          ****END OF INPUT****
 Total Charge           Charge          ....    0
 Multiplicity           Mult            ....    1
 Number of Electrons    NEL             ....  108
Dispersion correction           -0.052983925
FINAL SINGLE POINT ENERGY      -968.041892720648
Dispersion correction            ... done
Dispersion correction           -0.052553759
FINAL SINGLE POINT ENERGY      -968.046084433898
Dispersion correction            ... done
Dispersion correction           -0.052481793
FINAL SINGLE POINT ENERGY      -968.046178033377
Dispersion correction            ... done
FINAL SINGLE POINT ENERGY      -968.046193049553
Dispersion correction            ... done
Dispersion correction           -0.052468054
FINAL SINGLE POINT ENERGY      -968.046187344734
Dispersion correction            ... done
Dispersion correction           -0.052476493
FINAL SINGLE POINT ENERGY      -968.046185447099
Dispersion correction            ... done
                    ***********************HURRAY********************

CARTESIAN COORDINATES (ANGSTROEM)
---------------------------------
  C     -1.510853    1.263778   -0.052925
  S     -2.657691   -0.001662   -0.105231
  C     -1.464039   -1.255329   -0.021689
  C     -0.179239   -0.686478    0.015428
  C     -0.213499    0.765661    0.007925
  C      1.004284    1.502839    0.039123
  C      2.211777    0.838947    0.041682
  C      3.436837    1.581640    0.066021
  N      4.423270    2.192567    0.089373
  C      2.249104   -0.612155    0.000704
  C      3.508413   -1.291722   -0.051252
  N      4.519195   -1.860695   -0.092907
  C      1.079811   -1.345420   -0.006562
  C     -1.904691   -2.640757    0.021435
  C     -1.253142   -3.671056    0.587160
  H     -1.826726    2.305040   -0.070416
  H      0.983279    2.593936    0.052864
  H      1.134234   -2.432192   -0.058953
  H     -2.882731   -2.834151   -0.433478
  H     -0.307272   -3.548772    1.117811
  H     -1.679169   -4.676490    0.554258

 Multiplicity           Mult            ....    1
 Number of Electrons    NEL             ....  108
 Basis Dimension        Dim             ....  244

ORBITAL ENERGIES
----------------

  NO   OCC          E(Eh)            E(eV)
   0   2.0000     -88.920385     -2419.6467
   1   2.0000     -14.337292      -390.1376
   2   2.0000     -14.336550      -390.1174
   3   2.0000     -10.261564      -279.2313
   4   2.0000     -10.260553      -279.2038
   5   2.0000     -10.256422      -279.0914
   6   2.0000     -10.249802      -278.9113
   7   2.0000     -10.244183      -278.7584
   8   2.0000     -10.242847      -278.7220
   9   2.0000     -10.240130      -278.6481
  10   2.0000     -10.239094      -278.6199
  11   2.0000     -10.236557      -278.5509
  12   2.0000     -10.235911      -278.5333
  13   2.0000     -10.233060      -278.4557
  14   2.0000     -10.218629      -278.0630
  15   2.0000      -8.015121      -218.1025
  16   2.0000      -5.982699      -162.7975
  17   2.0000      -5.978613      -162.6863
  18   2.0000      -5.977594      -162.6586
  19   2.0000      -0.934517       -25.4295
  20   2.0000      -0.913000       -24.8440
  21   2.0000      -0.903030       -24.5727
  22   2.0000      -0.874552       -23.7978
  23   2.0000      -0.824050       -22.4235
  24   2.0000      -0.795726       -21.6528
  25   2.0000      -0.788332       -21.4516
  26   2.0000      -0.737666       -20.0729
  27   2.0000      -0.679037       -18.4775
  28   2.0000      -0.665438       -18.1075
  29   2.0000      -0.627407       -17.0726
  30   2.0000      -0.602648       -16.3989
  31   2.0000      -0.562982       -15.3195
  32   2.0000      -0.539676       -14.6853
  33   2.0000      -0.532846       -14.4995
  34   2.0000      -0.494238       -13.4489
  35   2.0000      -0.482073       -13.1179
  36   2.0000      -0.478200       -13.0125
  37   2.0000      -0.457086       -12.4379
  38   2.0000      -0.450920       -12.2702
  39   2.0000      -0.428084       -11.6488
  40   2.0000      -0.413422       -11.2498
  41   2.0000      -0.412409       -11.2222
  42   2.0000      -0.389328       -10.5942
  43   2.0000      -0.381694       -10.3864
  44   2.0000      -0.374219       -10.1830
  45   2.0000      -0.366736        -9.9794
  46   2.0000      -0.366193        -9.9646
  47   2.0000      -0.347963        -9.4686
  48   2.0000      -0.346414        -9.4264
  49   2.0000      -0.343543        -9.3483
  50   2.0000      -0.336341        -9.1523
  51   2.0000      -0.300641        -8.1809
  52   2.0000      -0.282199        -7.6790
  53   2.0000      -0.234555        -6.3826
  54   0.0000      -0.110521        -3.0074
  55   0.0000      -0.070017        -1.9052
  56   0.0000      -0.040918        -1.1134
  57   0.0000       0.003265         0.0888
  58   0.0000       0.012377         0.3368

MULLIKEN ATOMIC CHARGES
-----------------------
   0 C :   -0.117990
   1 S :    0.178359
   2 C :   -0.167900
   3 C :    0.145858
   4 C :    0.094917
   5 C :   -0.019185
   6 C :   -0.053222
   7 C :   -0.148992
   8 N :    0.121033
   9 C :   -0.052789
  10 C :   -0.151498
  11 N :    0.120297
  12 C :   -0.051261
  13 C :    0.024030
  14 C :   -0.031005
  15 H :    0.035079
  16 H :   -0.004208
  17 H :   -0.004653
  18 H :    0.005661
  19 H :    0.038213
  20 H :    0.039256
Sum of atomic charges:   -0.0000000

LOEWDIN ATOMIC CHARGES
----------------------
   0 C :   -0.191146
   1 S :    0.516323
   2 C :   -0.176308
   3 C :   -0.044236
   4 C :   -0.047393
   5 C :    0.029105
   6 C :   -0.052850
   7 C :   -0.027379
   8 N :   -0.045139
   9 C :   -0.053817
  10 C :   -0.028204
  11 N :   -0.046737
  12 C :    0.028845
  13 C :   -0.044607
  14 C :   -0.031627
  15 H :    0.033115
  16 H :    0.044875
  17 H :    0.042570
  18 H :    0.034008
  19 H :    0.027064
  20 H :    0.033539

  Mayer bond orders larger than 0.100000
B(  0-C ,  1-S ) :   1.2036 B(  0-C ,  2-C ) :   0.1028 B(  0-C ,  4-C ) :   1.3861
B(  0-C , 15-H ) :   0.9669 B(  1-S ,  2-C ) :   1.1846 B(  2-C ,  3-C ) :   1.3417
B(  2-C , 13-C ) :   1.1056 B(  3-C ,  4-C ) :   1.1847 B(  3-C , 12-C ) :   1.1911
B(  4-C ,  5-C ) :   1.1662 B(  5-C ,  6-C ) :   1.5426 B(  5-C , 16-H ) :   1.0007
B(  6-C ,  7-C ) :   1.0844 B(  6-C ,  9-C ) :   1.2092 B(  7-C ,  8-N ) :   3.0076
B(  9-C , 10-C ) :   1.0877 B(  9-C , 12-C ) :   1.5360 B( 10-C , 11-N ) :   3.0045
B( 12-C , 17-H ) :   0.9923 B( 13-C , 14-C ) :   1.9124 B( 13-C , 18-H ) :   0.9443
B( 14-C , 19-H ) :   0.9556 B( 14-C , 20-H ) :   0.9441

Dispersion correction           -0.052481697
FINAL SINGLE POINT ENERGY      -968.046183117551

DIPOLE MOMENT
-------------
                                X             Y             Z
Electronic contribution:      4.02974       5.98696      -0.92616
Nuclear contribution   :     -7.34735      -6.17199       0.94596
                        -----------------------------------------
Total Dipole Moment    :     -3.31761      -0.18503       0.01980
                        -----------------------------------------
Magnitude (a.u.)       :      3.32283
Magnitude (Debye)      :      8.44596

Rotational constants in cm-1:     0.032726     0.012522     0.009111
Rotational constants in MHz :   981.089854   375.390414   273.149622

                             ****ORCA TERMINATED NORMALLY****
TOTAL RUN TIME: 0 days 0 hours 11 minutes 8 seconds 914 msec
