                         Program Version 4.2.0 -  RELEASE  -
|  1> # ORCA input file
|  2> # SCF done        -31.557651309974          0.000860064450
|  3> ! B3LYP/G D3BJ Opt RIJCOSX def2-SVP def2/J
|  4> * xyz 0 1
|  5>    C        0.45466        -0.95832         0.51534
|  6>    C       -0.37608         0.15396         0.46453
|  7>    O       -0.03873         1.38147         0.94653
|  8>    C        1.23654         1.57395         1.52223
|  9>    C        1.33603         3.03377         1.93707
| 10>    C       -1.66361         0.04069        -0.10281
| 11>    C       -2.05947        -1.19275        -0.60809
| 12>    C       -1.22692        -2.29526        -0.55649
| 13>    C        0.02927        -2.17481         0.00752
| 14>    C       -2.52057         1.21943        -0.15937
| 15>    C       -3.84018         1.21611        -0.29804
| 16>    H        1.44002        -0.88961         0.94935
| 17>    H        2.02357         1.33354         0.79314
| 18>    H        1.35843         0.92245         2.39979
| 19>    H        1.21942         3.67559         1.06811
| 20>    H        2.30277         3.22334         2.39408
| 21>    H        0.55063         3.27049         2.64944
| 22>    H       -3.03289        -1.28168        -1.06543
| 23>    H       -1.55477        -3.24196        -0.95900
| 24>    H        0.69075        -3.02737         0.05360
| 25>    H       -1.99682         2.15954        -0.05297
| 26>    H       -4.41507         0.30762        -0.36892
| 27>    H       -4.40202         2.13390        -0.33378
| 28> *
| 29>
| 30>                          ****END OF INPUT****
 Total Charge           Charge          ....    0
 Multiplicity           Mult            ....    1
 Number of Electrons    NEL             ....   80
Dispersion correction           -0.039596958
FINAL SINGLE POINT ENERGY      -463.193785325690
Dispersion correction            ... done
Dispersion correction           -0.039342980
FINAL SINGLE POINT ENERGY      -463.196319966749
Dispersion correction            ... done
Dispersion correction           -0.039317369
FINAL SINGLE POINT ENERGY      -463.196382032001
Dispersion correction            ... done
FINAL SINGLE POINT ENERGY      -463.196385953765
Dispersion correction            ... done
Dispersion correction           -0.039323637
FINAL SINGLE POINT ENERGY      -463.196386237150
Dispersion correction            ... done
Dispersion correction           -0.039327643
FINAL SINGLE POINT ENERGY      -463.196388869876
Dispersion correction            ... done
                    ***********************HURRAY********************

CARTESIAN COORDINATES (ANGSTROEM)
---------------------------------
  C      0.467971   -0.985935    0.542431
  C     -0.377432    0.131369    0.500757
  O     -0.042087    1.345564    1.004471
  C      1.266969    1.591054    1.488925
  C      1.316325    3.037102    1.941394
  C     -1.670259    0.033864   -0.077357
  C     -2.065398   -1.208049   -0.596326
  C     -1.232661   -2.325863   -0.547741
  C      0.035783   -2.209384    0.022914
  C     -2.527620    1.227542   -0.119557
  C     -3.848021    1.256495   -0.352402
  H      1.459650   -0.910991    0.987211
  H      2.007102    1.393562    0.690920
  H      1.499672    0.907820    2.326733
  H      1.099423    3.710867    1.098726
  H      2.309625    3.286470    2.345373
  H      0.565744    3.220628    2.724394
  H     -3.046960   -1.290510   -1.066497
  H     -1.570146   -3.275882   -0.967350
  H      0.703311   -3.073528    0.065714
  H     -2.009699    2.168493    0.079757
  H     -4.435335    0.349258   -0.519705
  H     -4.390998    2.204142   -0.376955

 Multiplicity           Mult            ....    1
 Number of Electrons    NEL             ....   80
 Basis Dimension        Dim             ....  214

ORBITAL ENERGIES
----------------

  NO   OCC          E(Eh)            E(eV)
   0   2.0000     -19.164647      -521.4966
   1   2.0000     -10.249831      -278.9121
   2   2.0000     -10.248705      -278.8814
   3   2.0000     -10.191423      -277.3227
   4   2.0000     -10.191217      -277.3171
   5   2.0000     -10.190656      -277.3019
   6   2.0000     -10.187715      -277.2218
   7   2.0000     -10.187505      -277.2161
   8   2.0000     -10.185490      -277.1613
   9   2.0000     -10.182956      -277.0923
  10   2.0000     -10.179222      -276.9907
  11   2.0000      -1.061095       -28.8739
  12   2.0000      -0.848577       -23.0910
  13   2.0000      -0.782592       -21.2954
  14   2.0000      -0.770452       -20.9651
  15   2.0000      -0.724697       -19.7200
  16   2.0000      -0.709276       -19.3004
  17   2.0000      -0.644614       -17.5408
  18   2.0000      -0.615514       -16.7490
  19   2.0000      -0.581966       -15.8361
  20   2.0000      -0.554214       -15.0809
  21   2.0000      -0.533990       -14.5306
  22   2.0000      -0.491127       -13.3642
  23   2.0000      -0.488294       -13.2871
  24   2.0000      -0.475441       -12.9374
  25   2.0000      -0.445045       -12.1103
  26   2.0000      -0.436526       -11.8785
  27   2.0000      -0.415199       -11.2981
  28   2.0000      -0.404915       -11.0183
  29   2.0000      -0.403751       -10.9866
  30   2.0000      -0.398924       -10.8553
  31   2.0000      -0.377760       -10.2794
  32   2.0000      -0.366560        -9.9746
  33   2.0000      -0.362139        -9.8543
  34   2.0000      -0.345644        -9.4054
  35   2.0000      -0.324626        -8.8335
  36   2.0000      -0.319048        -8.6817
  37   2.0000      -0.297086        -8.0841
  38   2.0000      -0.240244        -6.5374
  39   2.0000      -0.213922        -5.8211
  40   0.0000      -0.035434        -0.9642
  41   0.0000       0.005571         0.1516
  42   0.0000       0.051294         1.3958
  43   0.0000       0.056400         1.5347
  44   0.0000       0.065706         1.7879

MULLIKEN ATOMIC CHARGES
-----------------------
   0 C :   -0.073377
   1 C :    0.191516
   2 O :   -0.320145
   3 C :    0.157664
   4 C :    0.013453
   5 C :    0.023244
   6 C :   -0.033133
   7 C :    0.032785
   8 C :    0.019569
   9 C :    0.005384
  10 C :   -0.020643
  11 H :   -0.031316
  12 H :    0.011010
  13 H :    0.011125
  14 H :    0.026864
  15 H :    0.012730
  16 H :    0.028144
  17 H :   -0.031914
  18 H :   -0.027587
  19 H :   -0.016799
  20 H :   -0.007123
  21 H :    0.011066
  22 H :    0.017484
Sum of atomic charges:    0.0000000

LOEWDIN ATOMIC CHARGES
----------------------
   0 C :   -0.076996
   1 C :    0.060620
   2 O :   -0.097793
   3 C :    0.085568
   4 C :   -0.060019
   5 C :   -0.053264
   6 C :   -0.005534
   7 C :   -0.046739
   8 C :   -0.017919
   9 C :   -0.018025
  10 C :   -0.052827
  11 H :    0.025601
  12 H :    0.011440
  13 H :    0.010754
  14 H :    0.029779
  15 H :    0.029710
  16 H :    0.030260
  17 H :    0.025688
  18 H :    0.024674
  19 H :    0.026680
  20 H :    0.027250
  21 H :    0.017415
  22 H :    0.023676

  Mayer bond orders larger than 0.100000
B(  0-C ,  1-C ) :   1.3254 B(  0-C ,  8-C ) :   1.3463 B(  0-C , 11-H ) :   0.9839
B(  1-C ,  2-O ) :   1.1487 B(  1-C ,  5-C ) :   1.3220 B(  2-O ,  3-C ) :   0.9427
B(  3-C ,  4-C ) :   1.1030 B(  3-C , 12-H ) :   0.9463 B(  3-C , 13-H ) :   0.9428
B(  4-C , 14-H ) :   0.9661 B(  4-C , 15-H ) :   0.9587 B(  4-C , 16-H ) :   0.9679
B(  5-C ,  6-C ) :   1.3869 B(  5-C ,  9-C ) :   1.0854 B(  6-C ,  7-C ) :   1.3736
B(  6-C , 17-H ) :   0.9795 B(  7-C ,  8-C ) :   1.3732 B(  7-C , 18-H ) :   0.9836
B(  8-C , 19-H ) :   0.9822 B(  9-C , 10-C ) :   1.9303 B(  9-C , 20-H ) :   0.9538
B( 10-C , 21-H ) :   0.9443 B( 10-C , 22-H ) :   0.9462

Dispersion correction           -0.039328714
FINAL SINGLE POINT ENERGY      -463.196390883970

DIPOLE MOMENT
-------------
                                X             Y             Z
Electronic contribution:     -2.28975      -5.27953      -2.37044
Nuclear contribution   :      2.93471       5.36838       2.59673
                        -----------------------------------------
Total Dipole Moment    :      0.64496       0.08885       0.22629
                        -----------------------------------------
Magnitude (a.u.)       :      0.68926
Magnitude (Debye)      :      1.75195

Rotational constants in cm-1:     0.049075     0.029107     0.018431
Rotational constants in MHz :  1471.242917   872.609522   552.535939

                             ****ORCA TERMINATED NORMALLY****
TOTAL RUN TIME: 0 days 0 hours 8 minutes 45 seconds 218 msec
