                         Program Version 4.2.0 -  RELEASE  -
|  1> # ORCA input file
|  2> # SCF done        -33.668854741601          0.000834281239
|  3> ! B3LYP/G D3BJ Opt RIJCOSX def2-SVP def2/J
|  4> * xyz 0 1
|  5>    C        1.67919         1.17999        -0.09514
|  6>    S        2.82031        -0.09826        -0.03805
|  7>    C        1.55992        -1.26296         0.07110
|  8>    C        0.32104        -0.69618         0.07014
|  9>    C        0.40671         0.71654        -0.02446
| 10>    S       -1.03238         1.76840        -0.11467
| 11>    O       -1.23649         2.12525        -1.49248
| 12>    O       -0.89573         2.83632         0.83729
| 13>    C       -2.36231         0.63785         0.39467
| 14>    C       -2.15349        -0.65329        -0.37017
| 15>    C       -0.96991        -1.44617         0.18289
| 16>    H        1.99723         2.19935        -0.17167
| 17>    H        1.80651        -2.30442         0.13136
| 18>    H       -3.29608         1.12833         0.13298
| 19>    H       -2.28964         0.51875         1.47186
| 20>    H       -1.97156        -0.39719        -1.41623
| 21>    H       -3.05267        -1.27170        -0.32157
| 22>    H       -0.87975        -2.39682        -0.34780
| 23>    H       -1.15463        -1.68025         1.23730
| 24> *
| 25>
| 26>                          ****END OF INPUT****
 Total Charge           Charge          ....    0
 Multiplicity           Mult            ....    1
 Number of Electrons    NEL             ....   98
Dispersion correction           -0.045990876
FINAL SINGLE POINT ENERGY     -1217.814323341239
Dispersion correction            ... done
Dispersion correction           -0.045718557
FINAL SINGLE POINT ENERGY     -1217.819830899529
Dispersion correction            ... done
Dispersion correction           -0.045596249
FINAL SINGLE POINT ENERGY     -1217.820679186552
Dispersion correction            ... done
FINAL SINGLE POINT ENERGY     -1217.820601337729
FINAL SINGLE POINT ENERGY     -1217.820712170975
Dispersion correction            ... done
Dispersion correction           -0.045537981
FINAL SINGLE POINT ENERGY     -1217.820673916390
Dispersion correction            ... done
Dispersion correction           -0.045528228
FINAL SINGLE POINT ENERGY     -1217.820626848143
Dispersion correction            ... done
                    ***********************HURRAY********************

CARTESIAN COORDINATES (ANGSTROEM)
---------------------------------
  C      1.696661    1.212706   -0.016343
  S      2.838070   -0.075326   -0.055402
  C      1.584812   -1.266418    0.000192
  C      0.328316   -0.709385    0.050197
  C      0.415011    0.725237    0.035492
  S     -1.004276    1.796573   -0.114663
  O     -1.156170    2.125862   -1.539221
  O     -0.925781    2.873224    0.878554
  C     -2.347305    0.662267    0.336813
  C     -2.190410   -0.700832   -0.332427
  C     -0.966036   -1.473207    0.176865
  H      2.011408    2.254156   -0.050948
  H      1.841037   -2.325122    0.008500
  H     -3.244501    1.200320   -0.004349
  H     -2.350574    0.607645    1.435906
  H     -2.127697   -0.553102   -1.422915
  H     -3.099240   -1.292367   -0.136206
  H     -0.881271   -2.432929   -0.354080
  H     -1.125784   -1.725760    1.241382

 Multiplicity           Mult            ....    1
 Number of Electrons    NEL             ....   98
 Basis Dimension        Dim             ....  202

ORBITAL ENERGIES
----------------

  NO   OCC          E(Eh)            E(eV)
   0   2.0000     -89.053959     -2423.2814
   1   2.0000     -88.896295     -2418.9912
   2   2.0000     -19.112535      -520.0785
   3   2.0000     -19.110395      -520.0203
   4   2.0000     -10.236652      -278.5535
   5   2.0000     -10.229931      -278.3706
   6   2.0000     -10.229227      -278.3514
   7   2.0000     -10.224380      -278.2195
   8   2.0000     -10.222708      -278.1740
   9   2.0000     -10.219768      -278.0940
  10   2.0000     -10.219400      -278.0840
  11   2.0000      -8.118894      -220.9263
  12   2.0000      -7.991247      -217.4529
  13   2.0000      -6.086739      -165.6286
  14   2.0000      -6.086540      -165.6232
  15   2.0000      -6.085974      -165.6078
  16   2.0000      -5.959253      -162.1595
  17   2.0000      -5.955099      -162.0465
  18   2.0000      -5.952895      -161.9865
  19   2.0000      -1.087925       -29.6039
  20   2.0000      -0.976216       -26.5642
  21   2.0000      -0.905635       -24.6436
  22   2.0000      -0.836318       -22.7574
  23   2.0000      -0.770808       -20.9748
  24   2.0000      -0.762837       -20.7578
  25   2.0000      -0.717503       -19.5243
  26   2.0000      -0.646067       -17.5804
  27   2.0000      -0.621971       -16.9247
  28   2.0000      -0.589456       -16.0399
  29   2.0000      -0.539891       -14.6912
  30   2.0000      -0.520822       -14.1723
  31   2.0000      -0.490793       -13.3552
  32   2.0000      -0.479596       -13.0505
  33   2.0000      -0.461158       -12.5487
  34   2.0000      -0.449651       -12.2356
  35   2.0000      -0.444250       -12.0887
  36   2.0000      -0.434933       -11.8351
  37   2.0000      -0.426475       -11.6050
  38   2.0000      -0.399559       -10.8725
  39   2.0000      -0.391244       -10.6463
  40   2.0000      -0.378183       -10.2909
  41   2.0000      -0.372205       -10.1282
  42   2.0000      -0.364035        -9.9059
  43   2.0000      -0.319988        -8.7073
  44   2.0000      -0.317955        -8.6520
  45   2.0000      -0.296013        -8.0549
  46   2.0000      -0.284219        -7.7340
  47   2.0000      -0.265054        -7.2125
  48   2.0000      -0.256994        -6.9932
  49   0.0000      -0.045411        -1.2357
  50   0.0000       0.011764         0.3201
  51   0.0000       0.021996         0.5986
  52   0.0000       0.039425         1.0728
  53   0.0000       0.061341         1.6692

MULLIKEN ATOMIC CHARGES
-----------------------
   0 C :   -0.084777
   1 S :    0.132355
   2 C :   -0.142876
   3 C :   -0.011769
   4 C :   -0.060753
   5 S :    0.752372
   6 O :   -0.476177
   7 O :   -0.473729
   8 C :   -0.024457
   9 C :   -0.019259
  10 C :    0.132405
  11 H :    0.046267
  12 H :    0.024451
  13 H :    0.055869
  14 H :    0.051982
  15 H :    0.044555
  16 H :    0.022219
  17 H :    0.008398
  18 H :    0.022922
Sum of atomic charges:   -0.0000000

LOEWDIN ATOMIC CHARGES
----------------------
   0 C :   -0.173355
   1 S :    0.464192
   2 C :   -0.194951
   3 C :   -0.069401
   4 C :   -0.229088
   5 S :    1.176011
   6 O :   -0.523165
   7 O :   -0.520800
   8 C :   -0.142014
   9 C :   -0.042494
  10 C :   -0.022709
  11 H :    0.037577
  12 H :    0.027146
  13 H :    0.040093
  14 H :    0.032228
  15 H :    0.033796
  16 H :    0.035031
  17 H :    0.036149
  18 H :    0.035756

  Mayer bond orders larger than 0.100000
B(  0-C ,  1-S ) :   1.2078 B(  0-C ,  4-C ) :   1.5470 B(  0-C , 11-H ) :   0.9634
B(  1-S ,  2-C ) :   1.1659 B(  2-C ,  3-C ) :   1.5649 B(  2-C , 12-H ) :   0.9630
B(  3-C ,  4-C ) :   1.2755 B(  3-C , 10-C ) :   1.0468 B(  4-C ,  5-S ) :   0.8051
B(  5-S ,  6-O ) :   1.6543 B(  5-S ,  7-O ) :   1.6792 B(  5-S ,  8-C ) :   0.8674
B(  8-C ,  9-C ) :   1.0335 B(  8-C , 13-H ) :   0.9257 B(  8-C , 14-H ) :   0.9317
B(  9-C , 10-C ) :   1.0862 B(  9-C , 15-H ) :   0.9425 B(  9-C , 16-H ) :   0.9280
B( 10-C , 17-H ) :   0.9141 B( 10-C , 18-H ) :   0.9202

Dispersion correction           -0.045524531
FINAL SINGLE POINT ENERGY     -1217.820625647636

DIPOLE MOMENT
-------------
                                X             Y             Z
Electronic contribution:      8.48820       6.48356      -0.72353
Nuclear contribution   :     -8.45272      -8.43747       1.15610
                        -----------------------------------------
Total Dipole Moment    :      0.03548      -1.95391       0.43257
                        -----------------------------------------
Magnitude (a.u.)       :      2.00153
Magnitude (Debye)      :      5.08749

Rotational constants in cm-1:     0.047617     0.024675     0.018321
Rotational constants in MHz :  1427.536191   739.732036   549.262857

                             ****ORCA TERMINATED NORMALLY****
TOTAL RUN TIME: 0 days 0 hours 9 minutes 18 seconds 874 msec
