                         Program Version 4.2.0 -  RELEASE  -
|  1> # ORCA input file
|  2> # SCF done        -46.168261342350          0.000992453437
|  3> ! B3LYP/G D3BJ Opt RIJCOSX def2-SVP def2/J
|  4> * xyz 0 1
|  5>    C        0.89694        -0.20783         0.57718
|  6>    C        2.03247        -0.82914         0.06819
|  7>    O        3.27773        -0.26631         0.00799
|  8>    C        3.44101         1.04132         0.49561
|  9>    C        1.92334        -2.12585        -0.42524
| 10>    C        0.71493        -2.79513        -0.41475
| 11>    C       -0.42176        -2.17487         0.09504
| 12>    C       -0.31131        -0.87694         0.58740
| 13>    O       -1.66278        -2.73469         0.16024
| 14>    C       -1.84886        -4.03346        -0.35904
| 15>    C       -3.32502        -4.41178        -0.19573
| 16>    C       -4.23168        -3.42161        -0.94184
| 17>    C       -4.15136        -3.48059        -2.46320
| 18>    C       -3.52610        -5.87526        -0.60266
| 19>    C       -4.94375        -6.37618        -0.35320
| 20>    H        0.93750         0.79630         0.96859
| 21>    H        4.49323         1.28157         0.35003
| 22>    H        3.20055         1.10745         1.56203
| 23>    H        2.82740         1.75876        -0.05943
| 24>    H        2.80799        -2.60155        -0.81815
| 25>    H        0.67425        -3.79979        -0.80473
| 26>    H       -1.19551        -0.40085         0.98107
| 27>    H       -1.22437        -4.75215         0.19134
| 28>    H       -1.55964        -4.06817        -1.41776
| 29>    H       -3.55879        -4.31581         0.87092
| 30>    H       -3.95692        -2.41851        -0.61139
| 31>    H       -5.26384        -3.59676        -0.63421
| 32>    H       -3.13990        -3.29100        -2.81132
| 33>    H       -4.79931        -2.71981        -2.89223
| 34>    H       -4.47310        -4.44716        -2.84124
| 35>    H       -2.83047        -6.49000        -0.02544
| 36>    H       -3.27196        -6.00187        -1.65632
| 37>    H       -5.23004        -6.20521         0.68209
| 38>    H       -5.00448        -7.44357        -0.55369
| 39>    H       -5.65882        -5.87031        -0.99613
| 40> *
| 41>
| 42>                          ****END OF INPUT****
 Total Charge           Charge          ....    0
 Multiplicity           Mult            ....    1
 Number of Electrons    NEL             ....  114
Dispersion correction           -0.060144744
FINAL SINGLE POINT ENERGY      -657.443918866870
Dispersion correction            ... done
Dispersion correction           -0.059960082
FINAL SINGLE POINT ENERGY      -657.446609938052
Dispersion correction            ... done
Dispersion correction           -0.059974127
FINAL SINGLE POINT ENERGY      -657.446788780866
Dispersion correction            ... done
FINAL SINGLE POINT ENERGY      -657.446639287745
FINAL SINGLE POINT ENERGY      -657.446716992792
FINAL SINGLE POINT ENERGY      -657.446745306518
Dispersion correction            ... done
Dispersion correction           -0.060077700
FINAL SINGLE POINT ENERGY      -657.446752951038
Dispersion correction            ... done
Dispersion correction           -0.060076704
FINAL SINGLE POINT ENERGY      -657.446748088342
Dispersion correction            ... done
                    ***********************HURRAY********************

CARTESIAN COORDINATES (ANGSTROEM)
---------------------------------
  C      0.838256   -0.218622    0.504254
  C      1.981302   -0.858813   -0.000331
  O      3.183334   -0.250682   -0.205237
  C      3.313885    1.113380    0.111168
  C      1.906234   -2.219096   -0.325944
  C      0.716388   -2.929784   -0.171501
  C     -0.432432   -2.285898    0.316346
  C     -0.353713   -0.929541    0.656402
  O     -1.640336   -2.892775    0.483859
  C     -1.847353   -4.184972   -0.056225
  C     -3.342157   -4.500907   -0.065878
  C     -4.160990   -3.392578   -0.754100
  C     -3.885214   -3.197228   -2.245166
  C     -3.547953   -5.906100   -0.660796
  C     -5.004909   -6.356225   -0.755002
  H      0.861791    0.835054    0.782479
  H      4.343897    1.400055   -0.140863
  H      3.141008    1.310099    1.185832
  H      2.619572    1.742019   -0.474924
  H      2.803063   -2.709929   -0.708842
  H      0.694272   -3.985752   -0.438676
  H     -1.249014   -0.436457    1.040364
  H     -1.301596   -4.940266    0.540800
  H     -1.446873   -4.233192   -1.085789
  H     -3.676913   -4.531892    0.987162
  H     -3.961417   -2.451413   -0.219321
  H     -5.232090   -3.608121   -0.604968
  H     -2.837674   -2.914178   -2.436143
  H     -4.515991   -2.394878   -2.657283
  H     -4.097577   -4.107866   -2.828097
  H     -2.983264   -6.627740   -0.045361
  H     -3.087129   -5.951514   -1.663933
  H     -5.508466   -6.302239    0.224421
  H     -5.072648   -7.395834   -1.112585
  H     -5.579722   -5.732874   -1.456101

 Multiplicity           Mult            ....    1
 Number of Electrons    NEL             ....  114
 Basis Dimension        Dim             ....  310

ORBITAL ENERGIES
----------------

  NO   OCC          E(Eh)            E(eV)
   0   2.0000     -19.157128      -521.2920
   1   2.0000     -19.155122      -521.2374
   2   2.0000     -10.242105      -278.7018
   3   2.0000     -10.238681      -278.6087
   4   2.0000     -10.238602      -278.6065
   5   2.0000     -10.236534      -278.5503
   6   2.0000     -10.187613      -277.2191
   7   2.0000     -10.187225      -277.2085
   8   2.0000     -10.186482      -277.1883
   9   2.0000     -10.186027      -277.1759
  10   2.0000     -10.183964      -277.1197
  11   2.0000     -10.183591      -277.1096
  12   2.0000     -10.180617      -277.0287
  13   2.0000     -10.176691      -276.9218
  14   2.0000     -10.175328      -276.8848
  15   2.0000      -1.052239       -28.6329
  16   2.0000      -1.050123       -28.5753
  17   2.0000      -0.841741       -22.9049
  18   2.0000      -0.812003       -22.0957
  19   2.0000      -0.752287       -20.4708
  20   2.0000      -0.739180       -20.1141
  21   2.0000      -0.736081       -20.0298
  22   2.0000      -0.716468       -19.4961
  23   2.0000      -0.677893       -18.4464
  24   2.0000      -0.640193       -17.4206
  25   2.0000      -0.615944       -16.7607
  26   2.0000      -0.608088       -16.5469
  27   2.0000      -0.574573       -15.6349
  28   2.0000      -0.540040       -14.6952
  29   2.0000      -0.537678       -14.6310
  30   2.0000      -0.517868       -14.0919
  31   2.0000      -0.494772       -13.4634
  32   2.0000      -0.488651       -13.2969
  33   2.0000      -0.467001       -12.7078
  34   2.0000      -0.463199       -12.6043
  35   2.0000      -0.447479       -12.1765
  36   2.0000      -0.444667       -12.1000
  37   2.0000      -0.424312       -11.5461
  38   2.0000      -0.419844       -11.4245
  39   2.0000      -0.413452       -11.2506
  40   2.0000      -0.408114       -11.1054
  41   2.0000      -0.404877       -11.0173
  42   2.0000      -0.398293       -10.8381
  43   2.0000      -0.380494       -10.3538
  44   2.0000      -0.375935       -10.2297
  45   2.0000      -0.368348       -10.0233
  46   2.0000      -0.358025        -9.7424
  47   2.0000      -0.353819        -9.6279
  48   2.0000      -0.341776        -9.3002
  49   2.0000      -0.336620        -9.1599
  50   2.0000      -0.324027        -8.8172
  51   2.0000      -0.319089        -8.6828
  52   2.0000      -0.316849        -8.6219
  53   2.0000      -0.309296        -8.4164
  54   2.0000      -0.288171        -7.8415
  55   2.0000      -0.254892        -6.9360
  56   2.0000      -0.200983        -5.4690
  57   0.0000      -0.008853        -0.2409
  58   0.0000       0.020832         0.5669
  59   0.0000       0.047331         1.2879
  60   0.0000       0.062810         1.7091
  61   0.0000       0.070180         1.9097

MULLIKEN ATOMIC CHARGES
-----------------------
   0 C :   -0.084342
   1 C :    0.232620
   2 O :   -0.318084
   3 C :    0.190729
   4 C :   -0.018545
   5 C :   -0.076592
   6 C :    0.235840
   7 C :   -0.025412
   8 O :   -0.321337
   9 C :    0.224062
  10 C :   -0.061513
  11 C :    0.018402
  12 C :   -0.009683
  13 C :   -0.023640
  14 C :    0.036731
  15 H :   -0.030954
  16 H :    0.026230
  17 H :    0.012657
  18 H :    0.015408
  19 H :   -0.023892
  20 H :   -0.023556
  21 H :   -0.024102
  22 H :    0.000749
  23 H :   -0.000247
  24 H :   -0.009469
  25 H :    0.010020
  26 H :   -0.003095
  27 H :    0.014750
  28 H :    0.008971
  29 H :    0.007730
  30 H :   -0.003221
  31 H :   -0.004133
  32 H :    0.005834
  33 H :    0.006461
  34 H :    0.014622
Sum of atomic charges:    0.0000000

LOEWDIN ATOMIC CHARGES
----------------------
   0 C :   -0.067705
   1 C :    0.034254
   2 O :   -0.108882
   3 C :    0.077812
   4 C :   -0.039087
   5 C :   -0.065411
   6 C :    0.036119
   7 C :   -0.040649
   8 O :   -0.104079
   9 C :    0.089655
  10 C :   -0.038325
  11 C :   -0.034277
  12 C :   -0.058278
  13 C :   -0.033259
  14 C :   -0.053798
  15 H :    0.026223
  16 H :    0.024759
  17 H :    0.010137
  18 H :    0.010762
  19 H :    0.030569
  20 H :    0.027362
  21 H :    0.030194
  22 H :    0.008805
  23 H :    0.005441
  24 H :    0.022843
  25 H :    0.023059
  26 H :    0.017991
  27 H :    0.022045
  28 H :    0.025003
  29 H :    0.017934
  30 H :    0.019880
  31 H :    0.016081
  32 H :    0.021736
  33 H :    0.024127
  34 H :    0.020956

  Mayer bond orders larger than 0.100000
B(  0-C ,  1-C ) :   1.3030 B(  0-C ,  7-C ) :   1.3505 B(  0-C , 15-H ) :   0.9865
B(  1-C ,  2-O ) :   1.1129 B(  1-C ,  4-C ) :   1.3724 B(  2-O ,  3-C ) :   0.9803
B(  3-C , 16-H ) :   0.9769 B(  3-C , 17-H ) :   0.9634 B(  3-C , 18-H ) :   0.9635
B(  4-C ,  5-C ) :   1.3505 B(  4-C , 19-H ) :   0.9848 B(  5-C ,  6-C ) :   1.3058
B(  5-C , 20-H ) :   0.9878 B(  6-C ,  7-C ) :   1.3767 B(  6-C ,  8-O ) :   1.0920
B(  7-C , 21-H ) :   0.9857 B(  8-O ,  9-C ) :   0.9708 B(  9-C , 10-C ) :   1.0350
B(  9-C , 22-H ) :   0.9405 B(  9-C , 23-H ) :   0.9311 B( 10-C , 11-C ) :   1.0650
B( 10-C , 13-C ) :   1.0411 B( 10-C , 24-H ) :   0.9044 B( 11-C , 12-C ) :   1.0998
B( 11-C , 25-H ) :   0.9328 B( 11-C , 26-H ) :   0.9393 B( 12-C , 27-H ) :   0.9687
B( 12-C , 28-H ) :   0.9626 B( 12-C , 29-H ) :   0.9666 B( 13-C , 14-C ) :   1.1140
B( 13-C , 30-H ) :   0.9394 B( 13-C , 31-H ) :   0.9386 B( 14-C , 32-H ) :   0.9640
B( 14-C , 33-H ) :   0.9611 B( 14-C , 34-H ) :   0.9618

Dispersion correction           -0.060078947
FINAL SINGLE POINT ENERGY      -657.446740799781

DIPOLE MOMENT
-------------
                                X             Y             Z
Electronic contribution:     17.70649      10.12331       5.99901
Nuclear contribution   :    -17.80385     -10.04972      -6.07730
                        -----------------------------------------
Total Dipole Moment    :     -0.09735       0.07360      -0.07829
                        -----------------------------------------
Magnitude (a.u.)       :      0.14500
Magnitude (Debye)      :      0.36855

Rotational constants in cm-1:     0.061867     0.006879     0.006634
Rotational constants in MHz :  1854.711731   206.240560   198.895213

                             ****ORCA TERMINATED NORMALLY****
TOTAL RUN TIME: 0 days 0 hours 23 minutes 20 seconds 828 msec
