                         Program Version 4.2.0 -  RELEASE  -
|  1> # ORCA input file
|  2> # SCF done        -27.457845973500          0.000219830689
|  3> ! B3LYP/G D3BJ Opt RIJCOSX def2-SVP def2/J
|  4> * xyz 0 1
|  5>    C       -2.31945         0.54039        -0.11462
|  6>    O       -1.89607        -0.74252        -0.20850
|  7>    C       -0.55819        -0.70378        -0.06546
|  8>    C        0.47689        -1.65214        -0.06134
|  9>    C        1.69634        -1.05161         0.12934
| 10>    S        1.57411         0.69625         0.30642
| 11>    C       -0.13386         0.61042         0.12038
| 12>    C       -1.29383         1.41615         0.08673
| 13>    C        2.97107        -1.71206         0.18734
| 14>    C        4.13919        -1.10417         0.37395
| 15>    H       -3.37466         0.70509        -0.20687
| 16>    H        0.34434        -2.71013        -0.18943
| 17>    H       -1.36150         2.47837         0.19413
| 18>    H        2.92588        -2.78671         0.06342
| 19>    H        4.20221        -0.03574         0.49917
| 20>    H        5.06319        -1.65321         0.40740
| 21> *
| 22>
| 23>                          ****END OF INPUT****
 Total Charge           Charge          ....    0
 Multiplicity           Mult            ....    1
 Number of Electrons    NEL             ....   78
Dispersion correction           -0.032681843
FINAL SINGLE POINT ENERGY      -781.466274898721
Dispersion correction            ... done
Dispersion correction           -0.032523461
FINAL SINGLE POINT ENERGY      -781.468987103196
Dispersion correction            ... done
Dispersion correction           -0.032472547
FINAL SINGLE POINT ENERGY      -781.469138957735
Dispersion correction            ... done
FINAL SINGLE POINT ENERGY      -781.469123915651
Dispersion correction            ... done
Dispersion correction           -0.032436388
FINAL SINGLE POINT ENERGY      -781.469162342019
Dispersion correction            ... done
Dispersion correction           -0.032442937
FINAL SINGLE POINT ENERGY      -781.469170830691
Dispersion correction            ... done
                    ***********************HURRAY********************

CARTESIAN COORDINATES (ANGSTROEM)
---------------------------------
  C     -2.360150    0.541762   -0.132883
  O     -1.901227   -0.743224   -0.225461
  C     -0.556842   -0.675478   -0.056286
  C      0.479567   -1.637741   -0.048773
  C      1.706280   -1.027785    0.158234
  S      1.561474    0.730164    0.350838
  C     -0.158270    0.639845    0.141447
  C     -1.346563    1.436331    0.089943
  C      2.991493   -1.700266    0.205936
  C      4.204060   -1.140797    0.355736
  H     -3.431890    0.673630   -0.255394
  H      0.359788   -2.710647   -0.198084
  H     -1.457800    2.512109    0.201559
  H      2.921574   -2.788533    0.093454
  H      4.336985   -0.060686    0.468929
  H      5.107183   -1.754083    0.372866

 Multiplicity           Mult            ....    1
 Number of Electrons    NEL             ....   78
 Basis Dimension        Dim             ....  174

ORBITAL ENERGIES
----------------

  NO   OCC          E(Eh)            E(eV)
   0   2.0000     -88.876571     -2418.4544
   1   2.0000     -19.208330      -522.6852
   2   2.0000     -10.250410      -278.9278
   3   2.0000     -10.244031      -278.7543
   4   2.0000     -10.224717      -278.2287
   5   2.0000     -10.213811      -277.9319
   6   2.0000     -10.205976      -277.7187
   7   2.0000     -10.205781      -277.7134
   8   2.0000     -10.205259      -277.6992
   9   2.0000     -10.191144      -277.3151
  10   2.0000      -7.970634      -216.8920
  11   2.0000      -5.939091      -161.6109
  12   2.0000      -5.935331      -161.5086
  13   2.0000      -5.931070      -161.3926
  14   2.0000      -1.110734       -30.2246
  15   2.0000      -0.882402       -24.0114
  16   2.0000      -0.802596       -21.8398
  17   2.0000      -0.775620       -21.1057
  18   2.0000      -0.735241       -20.0069
  19   2.0000      -0.711189       -19.3524
  20   2.0000      -0.628497       -17.1023
  21   2.0000      -0.594638       -16.1809
  22   2.0000      -0.559374       -15.2213
  23   2.0000      -0.541337       -14.7305
  24   2.0000      -0.505740       -13.7619
  25   2.0000      -0.480727       -13.0812
  26   2.0000      -0.469212       -12.7679
  27   2.0000      -0.468439       -12.7469
  28   2.0000      -0.420949       -11.4546
  29   2.0000      -0.415552       -11.3077
  30   2.0000      -0.406262       -11.0550
  31   2.0000      -0.383903       -10.4465
  32   2.0000      -0.378857       -10.3092
  33   2.0000      -0.369767       -10.0619
  34   2.0000      -0.340467        -9.2646
  35   2.0000      -0.313694        -8.5361
  36   2.0000      -0.281156        -7.6506
  37   2.0000      -0.245884        -6.6909
  38   2.0000      -0.207839        -5.6556
  39   0.0000      -0.052309        -1.4234
  40   0.0000       0.021883         0.5955
  41   0.0000       0.030677         0.8348
  42   0.0000       0.056970         1.5502
  43   0.0000       0.058962         1.6044

MULLIKEN ATOMIC CHARGES
-----------------------
   0 C :    0.144063
   1 O :   -0.214634
   2 C :    0.186276
   3 C :   -0.037492
   4 C :   -0.091514
   5 S :    0.116066
   6 C :   -0.049950
   7 C :   -0.078095
   8 C :    0.015870
   9 C :   -0.040082
  10 H :    0.014466
  11 H :   -0.008069
  12 H :    0.000342
  13 H :   -0.005063
  14 H :    0.022708
  15 H :    0.025109
Sum of atomic charges:   -0.0000000

LOEWDIN ATOMIC CHARGES
----------------------
   0 C :    0.047640
   1 O :   -0.007256
   2 C :   -0.004027
   3 C :   -0.066284
   4 C :   -0.160767
   5 S :    0.404239
   6 C :   -0.211174
   7 C :   -0.082955
   8 C :   -0.040799
   9 C :   -0.059042
  10 H :    0.025183
  11 H :    0.036945
  12 H :    0.035267
  13 H :    0.035526
  14 H :    0.019935
  15 H :    0.027569

  Mayer bond orders larger than 0.100000
B(  0-C ,  1-O ) :   1.1065 B(  0-C ,  7-C ) :   1.5530 B(  0-C , 10-H ) :   0.9997
B(  1-O ,  2-C ) :   1.1320 B(  2-C ,  3-C ) :   1.2123 B(  2-C ,  6-C ) :   1.4144
B(  3-C ,  4-C ) :   1.4743 B(  3-C , 11-H ) :   1.0080 B(  4-C ,  5-S ) :   1.0892
B(  4-C ,  8-C ) :   1.1561 B(  5-S ,  6-C ) :   1.0617 B(  6-C ,  7-C ) :   1.2275
B(  7-C , 12-H ) :   1.0066 B(  8-C ,  9-C ) :   1.8909 B(  8-C , 13-H ) :   0.9553
B(  9-C , 14-H ) :   0.9527 B(  9-C , 15-H ) :   0.9460

Dispersion correction           -0.032444624
FINAL SINGLE POINT ENERGY      -781.469171966574

DIPOLE MOMENT
-------------
                                X             Y             Z
Electronic contribution:     -4.20531       2.65715      -0.02405
Nuclear contribution   :      4.02151      -2.57979      -0.00411
                        -----------------------------------------
Total Dipole Moment    :     -0.18380       0.07736      -0.02816
                        -----------------------------------------
Magnitude (a.u.)       :      0.20140
Magnitude (Debye)      :      0.51191

Rotational constants in cm-1:     0.117443     0.026208     0.021430
Rotational constants in MHz :  3520.850276   785.707879   642.450526

                             ****ORCA TERMINATED NORMALLY****
TOTAL RUN TIME: 0 days 0 hours 5 minutes 8 seconds 498 msec
