                         Program Version 4.2.0 -  RELEASE  -
|  1> # ORCA input file
|  2> # SCF done        -36.899864874993          0.000393487795
|  3> ! B3LYP/G D3BJ Opt RIJCOSX def2-SVP def2/J
|  4> * xyz 0 1
|  5>    C        0.04436         1.09462         0.00992
|  6>    S       -1.16758        -0.11496        -0.17493
|  7>    C       -0.00281        -1.36091        -0.15192
|  8>    C        1.25989        -0.87111        -0.00892
|  9>    C        1.29556         0.55646         0.08592
| 10>    O        2.47763         1.18395         0.23053
| 11>    C        2.45020         2.59034         0.31781
| 12>    C        2.49358        -1.70763         0.04667
| 13>    F        2.21707        -3.01861        -0.06290
| 14>    F        3.35885        -1.42185        -0.93933
| 15>    F        3.16845        -1.56038         1.19799
| 16>    H       -0.24819         2.12316         0.05018
| 17>    H       -0.29557        -2.38760        -0.24376
| 18>    H        3.48722         2.90001         0.42789
| 19>    H        1.87283         2.92035         1.18679
| 20>    H        2.02750         3.03361        -0.58893
| 21> *
| 22>
| 23>                          ****END OF INPUT****
 Total Charge           Charge          ....    0
 Multiplicity           Mult            ....    1
 Number of Electrons    NEL             ....   92
Dispersion correction           -0.028714736
FINAL SINGLE POINT ENERGY     -1004.035619788355
Dispersion correction            ... done
Dispersion correction           -0.028701283
FINAL SINGLE POINT ENERGY     -1004.037128326471
Dispersion correction            ... done
Dispersion correction           -0.028701298
FINAL SINGLE POINT ENERGY     -1004.037214924202
Dispersion correction            ... done
FINAL SINGLE POINT ENERGY     -1004.037196039279
Dispersion correction            ... done
Dispersion correction           -0.028703955
FINAL SINGLE POINT ENERGY     -1004.037222208170
Dispersion correction            ... done
Dispersion correction           -0.028702959
FINAL SINGLE POINT ENERGY     -1004.037223270566
Dispersion correction            ... done
                    ***********************HURRAY********************

CARTESIAN COORDINATES (ANGSTROEM)
---------------------------------
  C      0.038554    1.110731    0.002188
  S     -1.176576   -0.114956   -0.189296
  C      0.000786   -1.370918   -0.159703
  C      1.271996   -0.878798   -0.011900
  C      1.296967    0.556450    0.083004
  O      2.475160    1.186065    0.233623
  C      2.451476    2.592574    0.321406
  C      2.505464   -1.726466    0.049687
  F      2.192356   -3.032755   -0.047148
  F      3.366595   -1.440245   -0.942448
  F      3.175994   -1.559125    1.202748
  H     -0.247115    2.157412    0.059270
  H     -0.292233   -2.414221   -0.255124
  H      3.494320    2.923442    0.400247
  H      1.892495    2.927231    1.213506
  H      1.992751    3.043030   -0.577053

 Multiplicity           Mult            ....    1
 Number of Electrons    NEL             ....   92
 Basis Dimension        Dim             ....  183

ORBITAL ENERGIES
----------------

  NO   OCC          E(Eh)            E(eV)
   0   2.0000     -88.888534     -2418.7800
   1   2.0000     -24.713244      -672.4816
   2   2.0000     -24.706965      -672.3107
   3   2.0000     -24.706722      -672.3041
   4   2.0000     -19.180639      -521.9317
   5   2.0000     -10.430732      -283.8347
   6   2.0000     -10.267338      -279.3885
   7   2.0000     -10.256661      -279.0979
   8   2.0000     -10.233884      -278.4781
   9   2.0000     -10.217891      -278.0430
  10   2.0000     -10.214846      -277.9601
  11   2.0000      -7.983404      -217.2395
  12   2.0000      -5.951615      -161.9517
  13   2.0000      -5.947539      -161.8408
  14   2.0000      -5.944575      -161.7601
  15   2.0000      -1.288975       -35.0748
  16   2.0000      -1.198656       -32.6171
  17   2.0000      -1.193578       -32.4789
  18   2.0000      -1.079341       -29.3704
  19   2.0000      -0.895021       -24.3548
  20   2.0000      -0.782373       -21.2894
  21   2.0000      -0.750087       -20.4109
  22   2.0000      -0.702473       -19.1153
  23   2.0000      -0.679816       -18.4987
  24   2.0000      -0.608655       -16.5623
  25   2.0000      -0.596552       -16.2330
  26   2.0000      -0.582520       -15.8512
  27   2.0000      -0.572456       -15.5773
  28   2.0000      -0.562711       -15.3121
  29   2.0000      -0.503971       -13.7138
  30   2.0000      -0.487096       -13.2545
  31   2.0000      -0.475749       -12.9458
  32   2.0000      -0.460756       -12.5378
  33   2.0000      -0.459675       -12.5084
  34   2.0000      -0.433332       -11.7916
  35   2.0000      -0.425844       -11.5878
  36   2.0000      -0.425507       -11.5786
  37   2.0000      -0.410407       -11.1677
  38   2.0000      -0.400110       -10.8875
  39   2.0000      -0.399858       -10.8807
  40   2.0000      -0.399333       -10.8664
  41   2.0000      -0.365380        -9.9425
  42   2.0000      -0.348065        -9.4713
  43   2.0000      -0.343024        -9.3342
  44   2.0000      -0.266180        -7.2431
  45   2.0000      -0.235631        -6.4118
  46   0.0000      -0.031970        -0.8700
  47   0.0000       0.030569         0.8318
  48   0.0000       0.041169         1.1203
  49   0.0000       0.055268         1.5039
  50   0.0000       0.081794         2.2257

MULLIKEN ATOMIC CHARGES
-----------------------
   0 C :   -0.212375
   1 S :    0.117497
   2 C :   -0.103530
   3 C :   -0.121845
   4 C :    0.230641
   5 O :   -0.295056
   6 C :    0.184669
   7 C :    0.567755
   8 F :   -0.174700
   9 F :   -0.168697
  10 F :   -0.168969
  11 H :    0.022714
  12 H :    0.038867
  13 H :    0.039411
  14 H :    0.021793
  15 H :    0.021826
Sum of atomic charges:   -0.0000000

LOEWDIN ATOMIC CHARGES
----------------------
   0 C :   -0.257866
   1 S :    0.444441
   2 C :   -0.163477
   3 C :   -0.139062
   4 C :    0.019582
   5 O :   -0.089495
   6 C :    0.085545
   7 C :    0.176062
   8 F :   -0.066293
   9 F :   -0.063503
  10 F :   -0.063449
  11 H :    0.024513
  12 H :    0.033128
  13 H :    0.029952
  14 H :    0.015063
  15 H :    0.014859

  Mayer bond orders larger than 0.100000
B(  0-C ,  1-S ) :   1.1077 B(  0-C ,  4-C ) :   1.4841 B(  0-C , 11-H ) :   0.9720
B(  1-S ,  2-C ) :   1.1977 B(  2-C ,  3-C ) :   1.5636 B(  2-C , 12-H ) :   0.9691
B(  3-C ,  4-C ) :   1.2472 B(  3-C ,  7-C ) :   0.9436 B(  4-C ,  5-O ) :   1.1996
B(  5-O ,  6-C ) :   0.9557 B(  6-C , 13-H ) :   0.9789 B(  6-C , 14-H ) :   0.9663
B(  6-C , 15-H ) :   0.9647 B(  7-C ,  8-F ) :   1.1417 B(  7-C ,  9-F ) :   1.1635
B(  7-C , 10-F ) :   1.1626

Dispersion correction           -0.028701832
FINAL SINGLE POINT ENERGY     -1004.037221357366

DIPOLE MOMENT
-------------
                                X             Y             Z
Electronic contribution:      3.67255     -13.53765      -0.53191
Nuclear contribution   :     -4.37122      14.62088       0.53797
                        -----------------------------------------
Total Dipole Moment    :     -0.69866       1.08323       0.00606
                        -----------------------------------------
Magnitude (a.u.)       :      1.28901
Magnitude (Debye)      :      3.27641

Rotational constants in cm-1:     0.041047     0.028505     0.018516
Rotational constants in MHz :  1230.556537   854.546279   555.088625

                             ****ORCA TERMINATED NORMALLY****
TOTAL RUN TIME: 0 days 0 hours 5 minutes 32 seconds 576 msec
