                         Program Version 4.2.0 -  RELEASE  -
|  1> # ORCA input file
|  2> # SCF done        -27.742899397622          0.000720017479
|  3> ! B3LYP/G D3BJ Opt RIJCOSX def2-SVP def2/J
|  4> * xyz 0 1
|  5>    C        1.32209         0.44276        -0.25485
|  6>    C        2.49944         0.24869        -0.10905
|  7>    C        3.87065         0.01496         0.05944
|  8>    N        4.81227         0.97814        -0.15260
|  9>    C        6.05422         0.46344         0.09026
| 10>    C        5.89430        -0.86276         0.46587
| 11>    C        4.52650        -1.14282         0.44713
| 12>    C        7.21940         1.21781        -0.04631
| 13>    C        8.23345         1.86879        -0.16502
| 14>    C        9.41727         2.60865        -0.29814
| 15>    C        9.45952         3.87012        -0.72229
| 16>    H        0.29308         0.60200        -0.37756
| 17>    H        4.62231         1.92350        -0.44210
| 18>    H        6.68659        -1.53841         0.72138
| 19>    H        4.05640        -2.07657         0.68533
| 20>    H       10.32564         2.08118        -0.02964
| 21>    H        8.56530         4.40610        -0.99363
| 22>    H       10.39050         4.40270        -0.80930
| 23> *
| 24>
| 25>                          ****END OF INPUT****
 Total Charge           Charge          ....    0
 Multiplicity           Mult            ....    1
 Number of Electrons    NEL             ....   74
Dispersion correction           -0.030142829
FINAL SINGLE POINT ENERGY      -439.591733160486
Dispersion correction            ... done
Dispersion correction           -0.029954797
FINAL SINGLE POINT ENERGY      -439.595519315437
Dispersion correction            ... done
Dispersion correction           -0.029923793
FINAL SINGLE POINT ENERGY      -439.595603557836
Dispersion correction            ... done
FINAL SINGLE POINT ENERGY      -439.595612017226
FINAL SINGLE POINT ENERGY      -439.595602212217
FINAL SINGLE POINT ENERGY      -439.595595268249
FINAL SINGLE POINT ENERGY      -439.595593391654
FINAL SINGLE POINT ENERGY      -439.595585368868
Dispersion correction            ... done
Dispersion correction           -0.029914189
FINAL SINGLE POINT ENERGY      -439.595588801609
Dispersion correction            ... done
Dispersion correction           -0.029912522
FINAL SINGLE POINT ENERGY      -439.595593657392
Dispersion correction            ... done
                    ***********************HURRAY********************

CARTESIAN COORDINATES (ANGSTROEM)
---------------------------------
  C      1.251016    0.381039   -0.271878
  C      2.442994    0.207201   -0.111197
  C      3.828048   -0.008637    0.075718
  N      4.769175    0.969777   -0.151115
  C      6.035239    0.481154    0.091864
  C      5.889090   -0.853396    0.496096
  C      4.514056   -1.158274    0.485490
  C      7.200104    1.256691   -0.072583
  C      8.224375    1.908810   -0.211688
  C      9.443834    2.617362   -0.362958
  C      9.559315    3.920085   -0.681829
  H      0.199230    0.535275   -0.420317
  H      4.564062    1.904784   -0.478704
  H      6.710701   -1.510973    0.766633
  H      4.041343   -2.100999    0.748950
  H     10.352872    2.026458   -0.195489
  H      8.681148    4.546125   -0.857185
  H     10.542330    4.385799   -0.780887

 Multiplicity           Mult            ....    1
 Number of Electrons    NEL             ....   74
 Basis Dimension        Dim             ....  189

ORBITAL ENERGIES
----------------

  NO   OCC          E(Eh)            E(eV)
   0   2.0000     -14.389780      -391.5658
   1   2.0000     -10.242095      -278.7016
   2   2.0000     -10.241860      -278.6952
   3   2.0000     -10.217864      -278.0422
   4   2.0000     -10.202158      -277.6148
   5   2.0000     -10.200388      -277.5667
   6   2.0000     -10.199354      -277.5385
   7   2.0000     -10.197326      -277.4833
   8   2.0000     -10.197259      -277.4815
   9   2.0000     -10.191175      -277.3160
  10   2.0000     -10.190653      -277.3018
  11   2.0000      -0.989812       -26.9342
  12   2.0000      -0.804092       -21.8805
  13   2.0000      -0.786545       -21.4030
  14   2.0000      -0.784511       -21.3476
  15   2.0000      -0.746424       -20.3112
  16   2.0000      -0.707255       -19.2454
  17   2.0000      -0.634905       -17.2767
  18   2.0000      -0.604716       -16.4552
  19   2.0000      -0.596692       -16.2368
  20   2.0000      -0.586975       -15.9724
  21   2.0000      -0.529940       -14.4204
  22   2.0000      -0.503271       -13.6947
  23   2.0000      -0.484486       -13.1835
  24   2.0000      -0.453745       -12.3470
  25   2.0000      -0.450002       -12.2452
  26   2.0000      -0.439195       -11.9511
  27   2.0000      -0.415573       -11.3083
  28   2.0000      -0.411656       -11.2017
  29   2.0000      -0.383768       -10.4428
  30   2.0000      -0.351195        -9.5565
  31   2.0000      -0.317430        -8.6377
  32   2.0000      -0.292896        -7.9701
  33   2.0000      -0.281877        -7.6703
  34   2.0000      -0.269438        -7.3318
  35   2.0000      -0.265352        -7.2206
  36   2.0000      -0.202665        -5.5148
  37   0.0000      -0.056413        -1.5351
  38   0.0000      -0.004511        -0.1228
  39   0.0000       0.012677         0.3450
  40   0.0000       0.030811         0.8384
  41   0.0000       0.047643         1.2964

MULLIKEN ATOMIC CHARGES
-----------------------
   0 C :   -0.490728
   1 C :    0.423409
   2 C :    0.046315
   3 N :   -0.056609
   4 C :    0.022853
   5 C :   -0.010367
   6 C :   -0.006290
   7 C :    0.103087
   8 C :   -0.114521
   9 C :   -0.086858
  10 C :   -0.011491
  11 H :    0.016547
  12 H :    0.121750
  13 H :   -0.020725
  14 H :   -0.021822
  15 H :    0.029519
  16 H :    0.027188
  17 H :    0.028744
Sum of atomic charges:    0.0000000

LOEWDIN ATOMIC CHARGES
----------------------
   0 C :   -0.064530
   1 C :   -0.032701
   2 C :   -0.027356
   3 N :    0.103101
   4 C :   -0.025319
   5 C :   -0.044979
   6 C :   -0.045465
   7 C :   -0.053991
   8 C :   -0.034272
   9 C :   -0.042904
  10 C :   -0.029293
  11 H :    0.040610
  12 H :    0.095504
  13 H :    0.030905
  14 H :    0.030912
  15 H :    0.044862
  16 H :    0.027202
  17 H :    0.027715

  Mayer bond orders larger than 0.100000
B(  0-C ,  1-C ) :   2.2464 B(  0-C , 11-H ) :   1.0888 B(  1-C ,  2-C ) :   0.8811
B(  2-C ,  3-N ) :   1.2205 B(  2-C ,  4-C ) :   0.1251 B(  2-C ,  6-C ) :   1.4260
B(  3-N ,  4-C ) :   1.2181 B(  3-N , 12-H ) :   0.9365 B(  4-C ,  5-C ) :   1.4210
B(  4-C ,  7-C ) :   0.8731 B(  5-C ,  6-C ) :   1.3133 B(  5-C , 13-H ) :   1.0041
B(  6-C , 14-H ) :   1.0045 B(  7-C ,  8-C ) :   2.2867 B(  7-C , 10-C ) :   0.1035
B(  8-C ,  9-C ) :   1.0535 B(  9-C , 10-C ) :   1.9029 B(  9-C , 15-H ) :   0.9521
B( 10-C , 16-H ) :   0.9591 B( 10-C , 17-H ) :   0.9487

Dispersion correction           -0.029912260
FINAL SINGLE POINT ENERGY      -439.595598195010

DIPOLE MOMENT
-------------
                                X             Y             Z
Electronic contribution:     -4.51010      -2.76714       0.51255
Nuclear contribution   :      4.45275       3.20084      -0.67211
                        -----------------------------------------
Total Dipole Moment    :     -0.05735       0.43370      -0.15957
                        -----------------------------------------
Magnitude (a.u.)       :      0.46567
Magnitude (Debye)      :      1.18365

Rotational constants in cm-1:     0.116230     0.014516     0.012906
Rotational constants in MHz :  3484.487707   435.177617   386.908600

                             ****ORCA TERMINATED NORMALLY****
TOTAL RUN TIME: 0 days 0 hours 9 minutes 10 seconds 295 msec
