                         Program Version 4.2.0 -  RELEASE  -
|  1> # ORCA input file
|  2> # SCF done        -33.963634891097          0.000961749732
|  3> ! B3LYP/G D3BJ Opt RIJCOSX def2-SVP def2/J
|  4> * xyz 0 1
|  5>    C       -1.62641         1.17287         0.02213
|  6>    S       -2.76026        -0.09819        -0.00948
|  7>    C       -1.52766        -1.31408        -0.00735
|  8>    C       -0.26541        -0.72379        -0.01931
|  9>    C       -0.32844         0.71436         0.01732
| 10>    C        0.87355         1.48971         0.01877
| 11>    C        0.80129         2.94209         0.10714
| 12>    C        1.72007         3.78528        -0.34893
| 13>    C        2.06658         0.81569        -0.04879
| 14>    C        2.12498        -0.58768        -0.14326
| 15>    C        0.99577        -1.35167        -0.12997
| 16>    C       -1.94704        -2.68891         0.02290
| 17>    C       -1.25181        -3.72539         0.48674
| 18>    H       -1.98113         2.18352         0.04037
| 19>    H       -0.08807         3.33622         0.58119
| 20>    H        2.60672         3.44872        -0.85884
| 21>    H        1.61012         4.85059        -0.24078
| 22>    H        2.99306         1.36921        -0.02390
| 23>    H        3.09302        -1.06007        -0.22615
| 24>    H        1.05503        -2.42278        -0.22984
| 25>    H       -2.95907        -2.85259        -0.33085
| 26>    H       -0.27048        -3.62268         0.91445
| 27>    H       -1.66490        -4.71868         0.46988
| 28> *
| 29>
| 30>                          ****END OF INPUT****
 Total Charge           Charge          ....    0
 Multiplicity           Mult            ....    1
 Number of Electrons    NEL             ....   98
Dispersion correction           -0.052351734
FINAL SINGLE POINT ENERGY      -861.046057720927
Dispersion correction            ... done
Dispersion correction           -0.052011775
FINAL SINGLE POINT ENERGY      -861.049909135839
Dispersion correction            ... done
Dispersion correction           -0.051941018
FINAL SINGLE POINT ENERGY      -861.050007410449
Dispersion correction            ... done
FINAL SINGLE POINT ENERGY      -861.050013003776
FINAL SINGLE POINT ENERGY      -861.050036474470
FINAL SINGLE POINT ENERGY      -861.050041184179
FINAL SINGLE POINT ENERGY      -861.050034567950
FINAL SINGLE POINT ENERGY      -861.049907304970
FINAL SINGLE POINT ENERGY      -861.049992398026
FINAL SINGLE POINT ENERGY      -861.050019767751
FINAL SINGLE POINT ENERGY      -861.049951448021
FINAL SINGLE POINT ENERGY      -861.049992776225
Dispersion correction            ... done
Dispersion correction           -0.051821889
FINAL SINGLE POINT ENERGY      -861.049989115890
Dispersion correction            ... done
Dispersion correction           -0.051820957
FINAL SINGLE POINT ENERGY      -861.049986246753
Dispersion correction            ... done
                    ***********************HURRAY********************

CARTESIAN COORDINATES (ANGSTROEM)
---------------------------------
  C     -1.630438    1.194436    0.076908
  S     -2.750059   -0.090919    0.112536
  C     -1.526393   -1.321524    0.116178
  C     -0.249946   -0.723359    0.092991
  C     -0.316880    0.729219    0.072932
  C      0.889846    1.518338    0.036424
  C      0.802531    2.985542    0.008233
  C      1.711702    3.819707   -0.516683
  C      2.097407    0.846135    0.034023
  C      2.166107   -0.574096    0.053939
  C      1.030604   -1.349415    0.083180
  C     -1.987601   -2.697605    0.133377
  C     -1.282147   -3.843821    0.131265
  H     -1.980150    2.223426    0.043912
  H     -0.098667    3.419568    0.454537
  H      2.614624    3.452316   -1.012569
  H      1.569086    4.902791   -0.476719
  H      3.026493    1.419639    0.042960
  H      3.146860   -1.055797    0.059241
  H      1.116712   -2.433742    0.108343
  H     -3.080246   -2.792556    0.148276
  H     -0.192963   -3.885006    0.115111
  H     -1.806973   -4.801528    0.145045

 Multiplicity           Mult            ....    1
 Number of Electrons    NEL             ....   98
 Basis Dimension        Dim             ....  236

ORBITAL ENERGIES
----------------

  NO   OCC          E(Eh)            E(eV)
   0   2.0000     -88.886624     -2418.7280
   1   2.0000     -10.221411      -278.1387
   2   2.0000     -10.216236      -277.9979
   3   2.0000     -10.206029      -277.7202
   4   2.0000     -10.203962      -277.6639
   5   2.0000     -10.203504      -277.6515
   6   2.0000     -10.203025      -277.6384
   7   2.0000     -10.199252      -277.5357
   8   2.0000     -10.195931      -277.4454
   9   2.0000     -10.194654      -277.4106
  10   2.0000     -10.193222      -277.3717
  11   2.0000     -10.192016      -277.3389
  12   2.0000     -10.188975      -277.2561
  13   2.0000      -7.981401      -217.1850
  14   2.0000      -5.948988      -161.8802
  15   2.0000      -5.945051      -161.7731
  16   2.0000      -5.943778      -161.7384
  17   2.0000      -0.896070       -24.3833
  18   2.0000      -0.837454       -22.7883
  19   2.0000      -0.794482       -21.6189
  20   2.0000      -0.777617       -21.1600
  21   2.0000      -0.735526       -20.0147
  22   2.0000      -0.729359       -19.8469
  23   2.0000      -0.692641       -18.8477
  24   2.0000      -0.629210       -17.1217
  25   2.0000      -0.612234       -16.6597
  26   2.0000      -0.582879       -15.8609
  27   2.0000      -0.572063       -15.5666
  28   2.0000      -0.529476       -14.4078
  29   2.0000      -0.509438       -13.8625
  30   2.0000      -0.479135       -13.0379
  31   2.0000      -0.468712       -12.7543
  32   2.0000      -0.461636       -12.5618
  33   2.0000      -0.455434       -12.3930
  34   2.0000      -0.431399       -11.7390
  35   2.0000      -0.420137       -11.4325
  36   2.0000      -0.409740       -11.1496
  37   2.0000      -0.403438       -10.9781
  38   2.0000      -0.386285       -10.5113
  39   2.0000      -0.373194       -10.1551
  40   2.0000      -0.357760        -9.7352
  41   2.0000      -0.352675        -9.5968
  42   2.0000      -0.349813        -9.5189
  43   2.0000      -0.336383        -9.1534
  44   2.0000      -0.316511        -8.6127
  45   2.0000      -0.296105        -8.0574
  46   2.0000      -0.254763        -6.9325
  47   2.0000      -0.248140        -6.7522
  48   2.0000      -0.196599        -5.3497
  49   0.0000      -0.075784        -2.0622
  50   0.0000      -0.029332        -0.7982
  51   0.0000       0.009868         0.2685
  52   0.0000       0.029461         0.8017
  53   0.0000       0.032470         0.8836

MULLIKEN ATOMIC CHARGES
-----------------------
   0 C :   -0.143097
   1 S :    0.144527
   2 C :   -0.178322
   3 C :    0.138828
   4 C :    0.056518
   5 C :    0.098145
   6 C :   -0.038464
   7 C :   -0.018410
   8 C :   -0.050520
   9 C :    0.030382
  10 C :   -0.036802
  11 C :    0.055595
  12 C :   -0.053586
  13 H :    0.018526
  14 H :   -0.007235
  15 H :    0.018783
  16 H :    0.025746
  17 H :   -0.026974
  18 H :   -0.023039
  19 H :   -0.036956
  20 H :   -0.010740
  21 H :    0.017240
  22 H :    0.019856
Sum of atomic charges:    0.0000000

LOEWDIN ATOMIC CHARGES
----------------------
   0 C :   -0.210658
   1 S :    0.490688
   2 C :   -0.189499
   3 C :   -0.042440
   4 C :   -0.041688
   5 C :   -0.020735
   6 C :   -0.021324
   7 C :   -0.041396
   8 C :   -0.021500
   9 C :   -0.025537
  10 C :   -0.020695
  11 C :   -0.045798
  12 C :   -0.061073
  13 H :    0.023216
  14 H :    0.026856
  15 H :    0.022306
  16 H :    0.026552
  17 H :    0.026018
  18 H :    0.027522
  19 H :    0.026584
  20 H :    0.027941
  21 H :    0.018563
  22 H :    0.026095

  Mayer bond orders larger than 0.100000
B(  0-C ,  1-S ) :   1.1947 B(  0-C ,  2-C ) :   0.1119 B(  0-C ,  4-C ) :   1.4114
B(  0-C , 13-H ) :   0.9534 B(  1-S ,  2-C ) :   1.1721 B(  2-C ,  3-C ) :   1.3368
B(  2-C , 11-C ) :   1.1416 B(  3-C ,  4-C ) :   1.1988 B(  3-C , 10-C ) :   1.2016
B(  4-C ,  5-C ) :   1.1661 B(  5-C ,  6-C ) :   1.0672 B(  5-C ,  8-C ) :   1.5000
B(  6-C ,  7-C ) :   1.9495 B(  6-C , 14-H ) :   0.9485 B(  7-C , 15-H ) :   0.9490
B(  7-C , 16-H ) :   0.9447 B(  8-C ,  9-C ) :   1.2134 B(  8-C , 17-H ) :   0.9834
B(  9-C , 10-C ) :   1.5122 B(  9-C , 18-H ) :   0.9780 B( 10-C , 19-H ) :   0.9958
B( 11-C , 12-C ) :   1.8919 B( 11-C , 20-H ) :   0.9400 B( 12-C , 21-H ) :   0.9600
B( 12-C , 22-H ) :   0.9403

Dispersion correction           -0.051823351
FINAL SINGLE POINT ENERGY      -861.049988284431

DIPOLE MOMENT
-------------
                                X             Y             Z
Electronic contribution:     -7.29002      -0.02974       0.70078
Nuclear contribution   :      7.30804       0.19567      -0.70912
                        -----------------------------------------
Total Dipole Moment    :      0.01802       0.16594      -0.00834
                        -----------------------------------------
Magnitude (a.u.)       :      0.16712
Magnitude (Debye)      :      0.42479

Rotational constants in cm-1:     0.044268     0.017414     0.012558
Rotational constants in MHz :  1327.115301   522.072256   376.476581

                             ****ORCA TERMINATED NORMALLY****
TOTAL RUN TIME: 0 days 0 hours 24 minutes 37 seconds 126 msec
