                         Program Version 4.2.0 -  RELEASE  -
|  1> # ORCA input file
|  2> # SCF done        -26.690341531616          0.000611339610
|  3> ! B3LYP/G D3BJ Opt RIJCOSX def2-SVP def2/J
|  4> * xyz 0 1
|  5>    C        1.70146         1.09175        -0.07180
|  6>    S        2.09933        -0.71814        -0.00724
|  7>    C        0.29625        -0.62289        -0.38688
|  8>    C        0.26655         0.73221         0.29652
|  9>    N       -1.02792         1.28653        -0.05023
| 10>    C       -1.88424         0.08881         0.10113
| 11>    C       -0.99846        -1.23154         0.09653
| 12>    C       -1.58685        -2.31762        -0.74578
| 13>    C       -0.91353        -3.04574        -1.61654
| 14>    H        1.83287         1.45719        -1.08909
| 15>    H        2.25965         1.69644         0.63544
| 16>    H        0.25098        -0.50645        -1.47568
| 17>    H        0.24641         0.57936         1.38348
| 18>    H       -1.02654         1.59554        -1.01920
| 19>    H       -2.62682         0.05522        -0.69553
| 20>    H       -2.40613         0.17562         1.05593
| 21>    H       -0.90059        -1.59309         1.12545
| 22>    H       -2.64200        -2.49439        -0.57950
| 23>    H        0.14221        -2.90526        -1.78243
| 24>    H       -1.38716        -3.82378        -2.19027
| 25> *
| 26>
| 27>                          ****END OF INPUT****
 Total Charge           Charge          ....    0
 Multiplicity           Mult            ....    1
 Number of Electrons    NEL             ....   76
Dispersion correction           -0.038309751
FINAL SINGLE POINT ENERGY      -725.904120716213
Dispersion correction            ... done
Dispersion correction           -0.037941412
FINAL SINGLE POINT ENERGY      -725.906980689939
Dispersion correction            ... done
Dispersion correction           -0.037850082
FINAL SINGLE POINT ENERGY      -725.907344944039
Dispersion correction            ... done
FINAL SINGLE POINT ENERGY      -725.907399489496
FINAL SINGLE POINT ENERGY      -725.907372913213
Dispersion correction            ... done
Dispersion correction           -0.037876082
FINAL SINGLE POINT ENERGY      -725.907354668494
Dispersion correction            ... done
Dispersion correction           -0.037879516
FINAL SINGLE POINT ENERGY      -725.907352043207
Dispersion correction            ... done
                    ***********************HURRAY********************

CARTESIAN COORDINATES (ANGSTROEM)
---------------------------------
  C      1.726316    1.103416   -0.036623
  S      2.126329   -0.739799    0.078992
  C      0.315268   -0.625654   -0.358316
  C      0.273503    0.733983    0.291263
  N     -1.018898    1.300914   -0.073712
  C     -1.897007    0.099920    0.051241
  C     -0.988172   -1.233024    0.109605
  C     -1.564314   -2.380814   -0.662225
  C     -0.975470   -3.015433   -1.679530
  H      1.885583    1.450912   -1.069278
  H      2.268255    1.743019    0.671556
  H      0.282659   -0.502281   -1.454529
  H      0.255303    0.574663    1.383423
  H     -0.996460    1.587527   -1.052163
  H     -2.596353    0.053607   -0.796745
  H     -2.495861    0.166420    0.972764
  H     -0.900180   -1.525729    1.170288
  H     -2.559727   -2.709086   -0.337156
  H      0.023758   -2.739897   -2.029079
  H     -1.469062   -3.842893   -2.195466

 Multiplicity           Mult            ....    1
 Number of Electrons    NEL             ....   76
 Basis Dimension        Dim             ....  185

ORBITAL ENERGIES
----------------

  NO   OCC          E(Eh)            E(eV)
   0   2.0000     -88.835319     -2417.3319
   1   2.0000     -14.318458      -389.6251
   2   2.0000     -10.223716      -278.2015
   3   2.0000     -10.221736      -278.1476
   4   2.0000     -10.220223      -278.1064
   5   2.0000     -10.208533      -277.7883
   6   2.0000     -10.205703      -277.7113
   7   2.0000     -10.195573      -277.4357
   8   2.0000     -10.185850      -277.1711
   9   2.0000      -7.929676      -215.7774
  10   2.0000      -5.898720      -160.5123
  11   2.0000      -5.896358      -160.4481
  12   2.0000      -5.887381      -160.2038
  13   2.0000      -0.931687       -25.3525
  14   2.0000      -0.830995       -22.6125
  15   2.0000      -0.796795       -21.6819
  16   2.0000      -0.722331       -19.6556
  17   2.0000      -0.670002       -18.2317
  18   2.0000      -0.651464       -17.7272
  19   2.0000      -0.604546       -16.4505
  20   2.0000      -0.578486       -15.7414
  21   2.0000      -0.543136       -14.7795
  22   2.0000      -0.492999       -13.4152
  23   2.0000      -0.477769       -13.0008
  24   2.0000      -0.468744       -12.7552
  25   2.0000      -0.453284       -12.3345
  26   2.0000      -0.435218       -11.8429
  27   2.0000      -0.415120       -11.2960
  28   2.0000      -0.396404       -10.7867
  29   2.0000      -0.374937       -10.2025
  30   2.0000      -0.361462        -9.8359
  31   2.0000      -0.348569        -9.4851
  32   2.0000      -0.343667        -9.3516
  33   2.0000      -0.332413        -9.0454
  34   2.0000      -0.308937        -8.4066
  35   2.0000      -0.267905        -7.2901
  36   2.0000      -0.230906        -6.2833
  37   2.0000      -0.224843        -6.1183
  38   0.0000       0.004612         0.1255
  39   0.0000       0.008279         0.2253
  40   0.0000       0.034536         0.9398
  41   0.0000       0.054820         1.4917
  42   0.0000       0.071767         1.9529

MULLIKEN ATOMIC CHARGES
-----------------------
   0 C :    0.041566
   1 S :   -0.072702
   2 C :   -0.115287
   3 C :   -0.013227
   4 N :   -0.204520
   5 C :    0.141425
   6 C :    0.001275
   7 C :   -0.026370
   8 C :   -0.026322
   9 H :    0.033981
  10 H :    0.045481
  11 H :    0.023052
  12 H :    0.013696
  13 H :    0.092531
  14 H :    0.008082
  15 H :    0.009557
  16 H :    0.010083
  17 H :   -0.006147
  18 H :    0.024083
  19 H :    0.019763
Sum of atomic charges:    0.0000000

LOEWDIN ATOMIC CHARGES
----------------------
   0 C :   -0.086114
   1 S :    0.171613
   2 C :   -0.123780
   3 C :   -0.023686
   4 N :   -0.112737
   5 C :    0.048554
   6 C :   -0.049695
   7 C :   -0.024562
   8 C :   -0.061936
   9 H :    0.017791
  10 H :    0.020265
  11 H :    0.010620
  12 H :    0.020913
  13 H :    0.051352
  14 H :    0.018843
  15 H :    0.018855
  16 H :    0.032938
  17 H :    0.023621
  18 H :    0.022641
  19 H :    0.024504

  Mayer bond orders larger than 0.100000
B(  0-C ,  1-S ) :   0.9911 B(  0-C ,  3-C ) :   1.0139 B(  0-C ,  9-H ) :   0.9395
B(  0-C , 10-H ) :   0.9519 B(  1-S ,  2-C ) :   0.9772 B(  2-C ,  3-C ) :   0.9807
B(  2-C ,  6-C ) :   1.0642 B(  2-C , 11-H ) :   0.9081 B(  3-C ,  4-N ) :   1.0724
B(  3-C , 12-H ) :   0.9205 B(  4-N ,  5-C ) :   1.0703 B(  4-N , 13-H ) :   0.9419
B(  5-C ,  6-C ) :   0.9759 B(  5-C , 14-H ) :   0.9505 B(  5-C , 15-H ) :   0.9412
B(  6-C ,  7-C ) :   1.0123 B(  6-C , 16-H ) :   0.8933 B(  7-C ,  8-C ) :   2.0185
B(  7-C , 17-H ) :   0.9596 B(  8-C , 18-H ) :   0.9384 B(  8-C , 19-H ) :   0.9488

Dispersion correction           -0.037878208
FINAL SINGLE POINT ENERGY      -725.907353695511

DIPOLE MOMENT
-------------
                                X             Y             Z
Electronic contribution:      6.29201       0.06212       1.86448
Nuclear contribution   :     -6.72277       0.11914      -2.20703
                        -----------------------------------------
Total Dipole Moment    :     -0.43075       0.18126      -0.34254
                        -----------------------------------------
Magnitude (a.u.)       :      0.57943
Magnitude (Debye)      :      1.47280

Rotational constants in cm-1:     0.066337     0.040421     0.027449
Rotational constants in MHz :  1988.742286  1211.787509   822.904316

                             ****ORCA TERMINATED NORMALLY****
TOTAL RUN TIME: 0 days 0 hours 7 minutes 48 seconds 13 msec
