                         Program Version 4.2.0 -  RELEASE  -
|  1> # ORCA input file
|  2> # SCF done        -25.389239130368          0.000719614825
|  3> ! B3LYP/G D3BJ Opt RIJCOSX def2-SVP def2/J
|  4> * xyz 0 1
|  5>    C        0.19256         1.13658        -0.11653
|  6>    C        0.81293        -0.09395        -0.06478
|  7>    F        2.16310        -0.14098        -0.11279
|  8>    C        0.10711        -1.27935         0.03731
|  9>    C       -1.27469        -1.21179         0.09067
| 10>    C       -1.91777         0.01053         0.04392
| 11>    C       -1.19970         1.20372        -0.06395
| 12>    C       -1.92735         2.46683        -0.11124
| 13>    C       -1.41678         3.66389        -0.37261
| 14>    H        0.79686         2.02597        -0.18750
| 15>    H        0.63320        -2.21959         0.07595
| 16>    H       -1.85041        -2.12143         0.17126
| 17>    H       -2.99659         0.04736         0.08700
| 18>    H       -2.99082         2.37865         0.07847
| 19>    H       -0.37361         3.82006        -0.58753
| 20>    H       -2.03645         4.54393        -0.38782
| 21> *
| 22>
| 23>                          ****END OF INPUT****
 Total Charge           Charge          ....    0
 Multiplicity           Mult            ....    1
 Number of Electrons    NEL             ....   64
Dispersion correction           -0.028115945
FINAL SINGLE POINT ENERGY      -408.614431988365
Dispersion correction            ... done
Dispersion correction           -0.027929601
FINAL SINGLE POINT ENERGY      -408.616499631408
Dispersion correction            ... done
Dispersion correction           -0.027906565
FINAL SINGLE POINT ENERGY      -408.616572514812
Dispersion correction            ... done
FINAL SINGLE POINT ENERGY      -408.616611324565
FINAL SINGLE POINT ENERGY      -408.616643251983
Dispersion correction            ... done
Dispersion correction           -0.027905689
FINAL SINGLE POINT ENERGY      -408.616662722088
Dispersion correction            ... done
Dispersion correction           -0.027907439
FINAL SINGLE POINT ENERGY      -408.616672079634
Dispersion correction            ... done
                    ***********************HURRAY********************

CARTESIAN COORDINATES (ANGSTROEM)
---------------------------------
  C      0.199593    1.128679   -0.153777
  C      0.828239   -0.105813   -0.084847
  F      2.167966   -0.152637   -0.150026
  C      0.116639   -1.298529    0.049639
  C     -1.275366   -1.230178    0.119332
  C     -1.928235    0.002232    0.052758
  C     -1.203875    1.200037   -0.088041
  C     -1.934752    2.474858   -0.159978
  C     -1.417501    3.700360   -0.326978
  H      0.816149    2.021610   -0.260155
  H      0.657707   -2.244673    0.101893
  H     -1.855999   -2.148295    0.232739
  H     -3.018444    0.045681    0.114297
  H     -3.022256    2.379849   -0.061839
  H     -0.344131    3.877661   -0.439745
  H     -2.064144    4.579588   -0.365442

 Multiplicity           Mult            ....    1
 Number of Electrons    NEL             ....   64
 Basis Dimension        Dim             ....  161

ORBITAL ENERGIES
----------------

  NO   OCC          E(Eh)            E(eV)
   0   2.0000     -24.696765      -672.0331
   1   2.0000     -10.275026      -279.5977
   2   2.0000     -10.210326      -277.8371
   3   2.0000     -10.204665      -277.6831
   4   2.0000     -10.202381      -277.6209
   5   2.0000     -10.200631      -277.5733
   6   2.0000     -10.198555      -277.5168
   7   2.0000     -10.197813      -277.4966
   8   2.0000     -10.194943      -277.4185
   9   2.0000      -1.206848       -32.8400
  10   2.0000      -0.864540       -23.5253
  11   2.0000      -0.792045       -21.5526
  12   2.0000      -0.747703       -20.3460
  13   2.0000      -0.729630       -19.8542
  14   2.0000      -0.638343       -17.3702
  15   2.0000      -0.612450       -16.6656
  16   2.0000      -0.572788       -15.5863
  17   2.0000      -0.535832       -14.5807
  18   2.0000      -0.502189       -13.6653
  19   2.0000      -0.494467       -13.4551
  20   2.0000      -0.469093       -12.7647
  21   2.0000      -0.462163       -12.5761
  22   2.0000      -0.445172       -12.1137
  23   2.0000      -0.433467       -11.7952
  24   2.0000      -0.396743       -10.7959
  25   2.0000      -0.388340       -10.5673
  26   2.0000      -0.378261       -10.2930
  27   2.0000      -0.364672        -9.9232
  28   2.0000      -0.351753        -9.5717
  29   2.0000      -0.310372        -8.4456
  30   2.0000      -0.257901        -7.0179
  31   2.0000      -0.238158        -6.4806
  32   0.0000      -0.050854        -1.3838
  33   0.0000      -0.010666        -0.2902
  34   0.0000       0.044081         1.1995
  35   0.0000       0.059575         1.6211
  36   0.0000       0.075048         2.0422

MULLIKEN ATOMIC CHARGES
-----------------------
   0 C :   -0.077819
   1 C :    0.286494
   2 F :   -0.199509
   3 C :   -0.050376
   4 C :    0.034563
   5 C :   -0.031327
   6 C :    0.098622
   7 C :   -0.009772
   8 C :   -0.018604
   9 H :   -0.023599
  10 H :   -0.009919
  11 H :   -0.010510
  12 H :   -0.020276
  13 H :   -0.010855
  14 H :    0.017254
  15 H :    0.025632
Sum of atomic charges:   -0.0000000

LOEWDIN ATOMIC CHARGES
----------------------
   0 C :   -0.043456
   1 C :    0.084439
   2 F :   -0.068507
   3 C :   -0.053070
   4 C :   -0.011720
   5 C :   -0.032976
   6 C :   -0.016785
   7 C :   -0.022465
   8 C :   -0.040876
   9 H :    0.033098
  10 H :    0.035200
  11 H :    0.030899
  12 H :    0.027092
  13 H :    0.029109
  14 H :    0.021765
  15 H :    0.028254

  Mayer bond orders larger than 0.100000
B(  0-C ,  1-C ) :   1.3747 B(  0-C ,  6-C ) :   1.3064 B(  0-C ,  9-H ) :   0.9894
B(  1-C ,  2-F ) :   1.0712 B(  1-C ,  3-C ) :   1.3509 B(  3-C ,  4-C ) :   1.3575
B(  3-C , 10-H ) :   0.9896 B(  4-C ,  5-C ) :   1.3687 B(  4-C , 11-H ) :   0.9825
B(  5-C ,  6-C ) :   1.3530 B(  5-C , 12-H ) :   0.9923 B(  6-C ,  7-C ) :   1.0779
B(  7-C ,  8-C ) :   1.9308 B(  7-C , 13-H ) :   0.9635 B(  8-C , 14-H ) :   0.9456
B(  8-C , 15-H ) :   0.9459

Dispersion correction           -0.027907306
FINAL SINGLE POINT ENERGY      -408.616673474646

DIPOLE MOMENT
-------------
                                X             Y             Z
Electronic contribution:      7.58087      -4.59289       0.03508
Nuclear contribution   :     -8.11543       4.60742      -0.00580
                        -----------------------------------------
Total Dipole Moment    :     -0.53456       0.01453       0.02928
                        -----------------------------------------
Magnitude (a.u.)       :      0.53556
Magnitude (Debye)      :      1.36129

Rotational constants in cm-1:     0.096071     0.041851     0.029153
Rotational constants in MHz :  2880.144751  1254.665207   873.995534

                             ****ORCA TERMINATED NORMALLY****
TOTAL RUN TIME: 0 days 0 hours 6 minutes 38 seconds 91 msec
