                         Program Version 4.2.0 -  RELEASE  -
|  1> # ORCA input file
|  2> # SCF done        -29.855129509555          0.000821865475
|  3> ! B3LYP/G D3BJ Opt RIJCOSX def2-SVP def2/J
|  4> * xyz 0 1
|  5>    C        0.69783         0.14314        -0.73392
|  6>    S        1.61824         1.41615        -1.49038
|  7>    C        2.55679         2.09922        -0.16760
|  8>    C        3.34776         3.18949        -0.35566
|  9>    S        4.16162         3.66624         1.08162
| 10>    C        3.42318         2.37991         1.95218
| 11>    C        2.59976         1.62779         1.17289
| 12>    S        1.74240         0.24703         1.84412
| 13>    C        0.70956        -0.33205         0.51583
| 14>    C       -0.13301        -1.42430         0.97848
| 15>    C       -1.01944        -2.11137         0.26641
| 16>    H        0.03118        -0.29214        -1.46200
| 17>    H        3.49366         3.73415        -1.26617
| 18>    H        3.63451         2.24058         2.99270
| 19>    H        0.01397        -1.67106         2.02325
| 20>    H       -1.21299        -1.91965        -0.77477
| 21>    H       -1.58863        -2.90534         0.71640
| 22> *
| 23>
| 24>                          ****END OF INPUT****
 Total Charge           Charge          ....    0
 Multiplicity           Mult            ....    1
 Number of Electrons    NEL             ....  102
Dispersion correction           -0.046212466
FINAL SINGLE POINT ENERGY     -1502.464314315575
Dispersion correction            ... done
Dispersion correction           -0.046015888
FINAL SINGLE POINT ENERGY     -1502.466995931533
Dispersion correction            ... done
Dispersion correction           -0.046002269
FINAL SINGLE POINT ENERGY     -1502.467431480055
Dispersion correction            ... done
FINAL SINGLE POINT ENERGY     -1502.467849169971
FINAL SINGLE POINT ENERGY     -1502.468368179058
FINAL SINGLE POINT ENERGY     -1502.468825631965
FINAL SINGLE POINT ENERGY     -1502.469091834105
FINAL SINGLE POINT ENERGY     -1502.469227368973
FINAL SINGLE POINT ENERGY     -1502.469376939973
FINAL SINGLE POINT ENERGY     -1502.469496341774
Dispersion correction            ... done
Dispersion correction           -0.046322228
FINAL SINGLE POINT ENERGY     -1502.469520455646
Dispersion correction            ... done
Dispersion correction           -0.046317304
FINAL SINGLE POINT ENERGY     -1502.469524341528
Dispersion correction            ... done
                    ***********************HURRAY********************

CARTESIAN COORDINATES (ANGSTROEM)
---------------------------------
  C      1.053106   -0.146116   -0.893611
  S      2.211130    0.960628   -1.625310
  C      2.683244    1.954139   -0.235924
  C      3.081898    3.265430   -0.325477
  S      3.527052    3.905952    1.222638
  C      3.135437    2.413888    2.008897
  C      2.717980    1.461022    1.112063
  S      2.339784   -0.208078    1.556177
  C      1.053301   -0.609059    0.373739
  C      0.033766   -1.518076    0.916999
  C     -1.234759   -1.624206    0.495943
  H      0.284068   -0.487301   -1.592406
  H      3.141403    3.883587   -1.219552
  H      3.239001    2.310750    3.087683
  H      0.363293   -2.139999    1.757869
  H     -1.637751   -0.986676   -0.296040
  H     -1.915562   -2.348096    0.949693

 Multiplicity           Mult            ....    1
 Number of Electrons    NEL             ....  102
 Basis Dimension        Dim             ....  196

ORBITAL ENERGIES
----------------

  NO   OCC          E(Eh)            E(eV)
   0   2.0000     -88.885831     -2418.7064
   1   2.0000     -88.867245     -2418.2007
   2   2.0000     -88.862395     -2418.0687
   3   2.0000     -10.230573      -278.3880
   4   2.0000     -10.230304      -278.3807
   5   2.0000     -10.230200      -278.3779
   6   2.0000     -10.224744      -278.2294
   7   2.0000     -10.224312      -278.2177
   8   2.0000     -10.223383      -278.1924
   9   2.0000     -10.209336      -277.8101
  10   2.0000     -10.197131      -277.4780
  11   2.0000      -7.980688      -217.1656
  12   2.0000      -7.961979      -216.6565
  13   2.0000      -7.957208      -216.5266
  14   2.0000      -5.948928      -161.8786
  15   2.0000      -5.944807      -161.7664
  16   2.0000      -5.941847      -161.6859
  17   2.0000      -5.931085      -161.3930
  18   2.0000      -5.927107      -161.2848
  19   2.0000      -5.926324      -161.2635
  20   2.0000      -5.922623      -161.1628
  21   2.0000      -5.921120      -161.1219
  22   2.0000      -5.916011      -160.9828
  23   2.0000      -0.902326       -24.5535
  24   2.0000      -0.849873       -23.1262
  25   2.0000      -0.799352       -21.7515
  26   2.0000      -0.780319       -21.2335
  27   2.0000      -0.738361       -20.0918
  28   2.0000      -0.713667       -19.4199
  29   2.0000      -0.665470       -18.1084
  30   2.0000      -0.616204       -16.7678
  31   2.0000      -0.582623       -15.8540
  32   2.0000      -0.553699       -15.0669
  33   2.0000      -0.511360       -13.9148
  34   2.0000      -0.494911       -13.4672
  35   2.0000      -0.490131       -13.3371
  36   2.0000      -0.453026       -12.3275
  37   2.0000      -0.438680       -11.9371
  38   2.0000      -0.419347       -11.4110
  39   2.0000      -0.415296       -11.3008
  40   2.0000      -0.385310       -10.4848
  41   2.0000      -0.378370       -10.2960
  42   2.0000      -0.371889       -10.1196
  43   2.0000      -0.362267        -9.8578
  44   2.0000      -0.351131        -9.5548
  45   2.0000      -0.327292        -8.9061
  46   2.0000      -0.306152        -8.3308
  47   2.0000      -0.292138        -7.9495
  48   2.0000      -0.258610        -7.0371
  49   2.0000      -0.234024        -6.3681
  50   2.0000      -0.201229        -5.4757
  51   0.0000      -0.050010        -1.3608
  52   0.0000      -0.030103        -0.8191
  53   0.0000       0.020482         0.5573
  54   0.0000       0.025215         0.6861
  55   0.0000       0.031727         0.8633

MULLIKEN ATOMIC CHARGES
-----------------------
   0 C :   -0.103547
   1 S :    0.076139
   2 C :   -0.000839
   3 C :   -0.129293
   4 S :    0.112129
   5 C :   -0.126971
   6 C :   -0.003337
   7 S :    0.067172
   8 C :   -0.056077
   9 C :    0.033717
  10 C :   -0.031758
  11 H :    0.039534
  12 H :    0.030428
  13 H :    0.033422
  14 H :    0.006873
  15 H :    0.022939
  16 H :    0.029470
Sum of atomic charges:    0.0000000

LOEWDIN ATOMIC CHARGES
----------------------
   0 C :   -0.193087
   1 S :    0.347513
   2 C :   -0.209133
   3 C :   -0.207310
   4 S :    0.437218
   5 C :   -0.207933
   6 C :   -0.210267
   7 S :    0.334180
   8 C :   -0.180817
   9 C :   -0.037937
  10 C :   -0.042219
  11 H :    0.030707
  12 H :    0.028580
  13 H :    0.029256
  14 H :    0.029294
  15 H :    0.023228
  16 H :    0.028729

  Mayer bond orders larger than 0.100000
B(  0-C ,  1-S ) :   1.0579 B(  0-C ,  8-C ) :   1.7808 B(  0-C , 11-H ) :   0.9296
B(  1-S ,  2-C ) :   0.9905 B(  2-C ,  3-C ) :   1.5757 B(  2-C ,  6-C ) :   1.2552
B(  3-C ,  4-S ) :   1.1635 B(  3-C , 12-H ) :   0.9673 B(  4-S ,  5-C ) :   1.1626
B(  5-C ,  6-C ) :   1.5742 B(  5-C , 13-H ) :   0.9655 B(  6-C ,  7-S ) :   0.9959
B(  7-S ,  8-C ) :   0.9890 B(  8-C ,  9-C ) :   1.0646 B(  9-C , 10-C ) :   1.9669
B(  9-C , 14-H ) :   0.9469 B( 10-C , 15-H ) :   0.9524 B( 10-C , 16-H ) :   0.9458

Dispersion correction           -0.046320506
FINAL SINGLE POINT ENERGY     -1502.469527738025

DIPOLE MOMENT
-------------
                                X             Y             Z
Electronic contribution:      8.21527       6.00295      -0.16253
Nuclear contribution   :     -8.51346      -5.84178       0.21960
                        -----------------------------------------
Total Dipole Moment    :     -0.29819       0.16116       0.05707
                        -----------------------------------------
Magnitude (a.u.)       :      0.34373
Magnitude (Debye)      :      0.87369

Rotational constants in cm-1:     0.049289     0.016648     0.013660
Rotational constants in MHz :  1477.635002   499.100506   409.512263

                             ****ORCA TERMINATED NORMALLY****
TOTAL RUN TIME: 0 days 0 hours 14 minutes 4 seconds 113 msec
