                         Program Version 4.2.0 -  RELEASE  -
|  1> # ORCA input file
|  2> # SCF done        -19.088465419973          0.000726674173
|  3> ! B3LYP/G D3BJ Opt RIJCOSX def2-SVP def2/J
|  4> * xyz 0 1
|  5>    C       -1.25857        -0.09262         0.00009
|  6>    C       -0.34309         0.97288         0.04215
|  7>    C        0.02128         2.43947         0.09353
|  8>    C        1.51335         1.98094         0.08918
|  9>    C        0.96169         0.58464         0.03803
| 10>    S        1.15250        -1.11669        -0.01758
| 11>    C       -0.57800        -1.27545        -0.03486
| 12>    H       -2.33112        -0.02256        -0.00489
| 13>    H       -0.28859         2.95694         0.99907
| 14>    H       -0.27531         3.01508        -0.78088
| 15>    H        2.07061         2.22601         0.99188
| 16>    H        2.08476         2.28648        -0.78577
| 17>    H       -0.98724        -2.26563        -0.07090
| 18> *
| 19>
| 20>                          ****END OF INPUT****
 Total Charge           Charge          ....    0
 Multiplicity           Mult            ....    1
 Number of Electrons    NEL             ....   58
Dispersion correction           -0.023188200
FINAL SINGLE POINT ENERGY      -630.119004666440
Dispersion correction            ... done
Dispersion correction           -0.023166144
FINAL SINGLE POINT ENERGY      -630.121227957382
Dispersion correction            ... done
Dispersion correction           -0.023166199
FINAL SINGLE POINT ENERGY      -630.121340718148
Dispersion correction            ... done
FINAL SINGLE POINT ENERGY      -630.121350614389
Dispersion correction            ... done
Dispersion correction           -0.023162231
FINAL SINGLE POINT ENERGY      -630.121362619555
Dispersion correction            ... done
Dispersion correction           -0.023161372
FINAL SINGLE POINT ENERGY      -630.121361914333
Dispersion correction            ... done
                    ***********************HURRAY********************

CARTESIAN COORDINATES (ANGSTROEM)
---------------------------------
  C     -1.268727   -0.107767   -0.000108
  C     -0.337566    0.969078    0.038091
  C      0.015985    2.449956    0.092472
  C      1.533878    1.989128    0.089597
  C      0.970875    0.582471    0.032850
  S      1.155090   -1.132246   -0.020754
  C     -0.589116   -1.307305   -0.033641
  H     -2.357499   -0.036848   -0.003615
  H     -0.294372    2.983164    1.005184
  H     -0.278633    3.046223   -0.785651
  H      2.093651    2.248565    1.002308
  H      2.112536    2.315285   -0.789004
  H     -1.013832   -2.310214   -0.068678

 Multiplicity           Mult            ....    1
 Number of Electrons    NEL             ....   58
 Basis Dimension        Dim             ....  132

ORBITAL ENERGIES
----------------

  NO   OCC          E(Eh)            E(eV)
   0   2.0000     -88.871079     -2418.3050
   1   2.0000     -10.208636      -277.7911
   2   2.0000     -10.207959      -277.7727
   3   2.0000     -10.204016      -277.6654
   4   2.0000     -10.196725      -277.4670
   5   2.0000     -10.193464      -277.3783
   6   2.0000     -10.181005      -277.0392
   7   2.0000      -7.965042      -216.7398
   8   2.0000      -5.933253      -161.4520
   9   2.0000      -5.929191      -161.3415
  10   2.0000      -5.926408      -161.2657
  11   2.0000      -0.889180       -24.1958
  12   2.0000      -0.810061       -22.0429
  13   2.0000      -0.725365       -19.7382
  14   2.0000      -0.653919       -17.7940
  15   2.0000      -0.630103       -17.1460
  16   2.0000      -0.561376       -15.2758
  17   2.0000      -0.497986       -13.5509
  18   2.0000      -0.484446       -13.1824
  19   2.0000      -0.469151       -12.7663
  20   2.0000      -0.426155       -11.5963
  21   2.0000      -0.374361       -10.1869
  22   2.0000      -0.373009       -10.1501
  23   2.0000      -0.364061        -9.9066
  24   2.0000      -0.361820        -9.8456
  25   2.0000      -0.347385        -9.4528
  26   2.0000      -0.314573        -8.5600
  27   2.0000      -0.248586        -6.7644
  28   2.0000      -0.225086        -6.1249
  29   0.0000      -0.011413        -0.3106
  30   0.0000       0.050527         1.3749
  31   0.0000       0.061362         1.6698
  32   0.0000       0.065155         1.7730
  33   0.0000       0.081870         2.2278

MULLIKEN ATOMIC CHARGES
-----------------------
   0 C :   -0.013314
   1 C :   -0.075010
   2 C :    0.116767
   3 C :    0.071874
   4 C :   -0.183896
   5 S :    0.109843
   6 C :   -0.112380
   7 H :   -0.007927
   8 H :    0.012124
   9 H :    0.013347
  10 H :    0.019992
  11 H :    0.020128
  12 H :    0.028451
Sum of atomic charges:    0.0000000

LOEWDIN ATOMIC CHARGES
----------------------
   0 C :   -0.073680
   1 C :   -0.076456
   2 C :   -0.000546
   3 C :   -0.006620
   4 C :   -0.216384
   5 S :    0.405484
   6 C :   -0.184796
   7 H :    0.029946
   8 H :    0.024330
   9 H :    0.024616
  10 H :    0.025936
  11 H :    0.025800
  12 H :    0.022370

  Mayer bond orders larger than 0.100000
B(  0-C ,  1-C ) :   1.2459 B(  0-C ,  6-C ) :   1.5655 B(  0-C ,  7-H ) :   1.0041
B(  1-C ,  2-C ) :   1.0929 B(  1-C ,  4-C ) :   1.6119 B(  2-C ,  3-C ) :   1.1631
B(  2-C ,  8-H ) :   0.9005 B(  2-C ,  9-H ) :   0.9003 B(  3-C ,  4-C ) :   1.1345
B(  3-C , 10-H ) :   0.9055 B(  3-C , 11-H ) :   0.9051 B(  4-C ,  5-S ) :   1.0965
B(  5-S ,  6-C ) :   1.1584 B(  6-C , 12-H ) :   0.9635

Dispersion correction           -0.023160790
FINAL SINGLE POINT ENERGY      -630.121361257892

DIPOLE MOMENT
-------------
                                X             Y             Z
Electronic contribution:      1.78104      -6.11873      -0.20962
Nuclear contribution   :     -1.88215       6.39830       0.22034
                        -----------------------------------------
Total Dipole Moment    :     -0.10111       0.27957       0.01072
                        -----------------------------------------
Magnitude (a.u.)       :      0.29748
Magnitude (Debye)      :      0.75614

Rotational constants in cm-1:     0.153175     0.073756     0.050755
Rotational constants in MHz :  4592.069481  2211.142980  1521.595754

                             ****ORCA TERMINATED NORMALLY****
TOTAL RUN TIME: 0 days 0 hours 3 minutes 4 seconds 611 msec
