                         Program Version 4.2.0 -  RELEASE  -
|  1> # ORCA input file
|  2> # SCF done        -20.985022961362          0.000596125778
|  3> ! B3LYP/G D3BJ Opt RIJCOSX def2-SVP def2/J
|  4> * xyz 0 1
|  5>    C       -1.13782        -0.02654         0.00193
|  6>    O       -0.37517         1.08182        -0.00383
|  7>    C        0.90564         0.66974        -0.00754
|  8>    C        0.98312        -0.68985        -0.00403
|  9>    C       -0.36913        -1.15158         0.00237
| 10>    C       -0.83306        -2.56857         0.00803
| 11>    C        2.21362        -1.52866        -0.00636
| 12>    H       -2.20129         0.10930         0.00547
| 13>    H        1.66543         1.42607        -0.01238
| 14>    H        0.01674        -3.24487         0.00942
| 15>    H       -1.44160        -2.77492        -0.87117
| 16>    H       -1.43966        -2.76860         0.89002
| 17>    H        3.09742        -0.89653        -0.00901
| 18>    H        2.23808        -2.16812        -0.88803
| 19>    H        2.24235        -2.16675         0.87613
| 20> *
| 21>
| 22>                          ****END OF INPUT****
 Total Charge           Charge          ....    0
 Multiplicity           Mult            ....    1
 Number of Electrons    NEL             ....   52
Dispersion correction           -0.021450000
FINAL SINGLE POINT ENERGY      -308.454181731646
Dispersion correction            ... done
Dispersion correction           -0.021370327
FINAL SINGLE POINT ENERGY      -308.456163968424
Dispersion correction            ... done
Dispersion correction           -0.021348243
FINAL SINGLE POINT ENERGY      -308.456270684024
Dispersion correction            ... done
Dispersion correction           -0.021338986
FINAL SINGLE POINT ENERGY      -308.456308667835
Dispersion correction            ... done
Dispersion correction           -0.021342533
FINAL SINGLE POINT ENERGY      -308.456311926878
Dispersion correction            ... done
                    ***********************HURRAY********************

CARTESIAN COORDINATES (ANGSTROEM)
---------------------------------
  C     -1.153601   -0.014116    0.002088
  O     -0.375935    1.098486   -0.003877
  C      0.915229    0.681839   -0.007145
  C      0.985771   -0.684209   -0.003776
  C     -0.386164   -1.147774    0.002483
  C     -0.850078   -2.575758    0.007964
  C      2.224130   -1.524838   -0.006564
  H     -2.228545    0.153188    0.005810
  H      1.674987    1.459472   -0.012119
  H      0.006054   -3.265543    0.010906
  H     -1.460946   -2.815958   -0.877596
  H     -1.461496   -2.808958    0.894979
  H      3.126129   -0.894852   -0.010695
  H      2.271500   -2.180913   -0.892242
  H      2.277636   -2.178127    0.880803

 Multiplicity           Mult            ....    1
 Number of Electrons    NEL             ....   52
 Basis Dimension        Dim             ....  138

ORBITAL ENERGIES
----------------

  NO   OCC          E(Eh)            E(eV)
   0   2.0000     -19.189738      -522.1793
   1   2.0000     -10.224080      -278.2114
   2   2.0000     -10.223887      -278.2061
   3   2.0000     -10.191342      -277.3205
   4   2.0000     -10.190398      -277.2948
   5   2.0000     -10.183613      -277.1102
   6   2.0000     -10.183442      -277.1055
   7   2.0000      -1.092687       -29.7335
   8   2.0000      -0.807951       -21.9855
   9   2.0000      -0.750142       -20.4124
  10   2.0000      -0.695262       -18.9190
  11   2.0000      -0.684449       -18.6248
  12   2.0000      -0.559638       -15.2285
  13   2.0000      -0.556689       -15.1483
  14   2.0000      -0.501332       -13.6419
  15   2.0000      -0.452815       -12.3217
  16   2.0000      -0.435294       -11.8450
  17   2.0000      -0.428819       -11.6688
  18   2.0000      -0.409905       -11.1541
  19   2.0000      -0.406585       -11.0637
  20   2.0000      -0.398393       -10.8408
  21   2.0000      -0.379880       -10.3371
  22   2.0000      -0.373867       -10.1734
  23   2.0000      -0.341979        -9.3057
  24   2.0000      -0.256340        -6.9754
  25   2.0000      -0.220107        -5.9894
  26   0.0000       0.014767         0.4018
  27   0.0000       0.057946         1.5768
  28   0.0000       0.061430         1.6716
  29   0.0000       0.089280         2.4294
  30   0.0000       0.100826         2.7436

MULLIKEN ATOMIC CHARGES
-----------------------
   0 C :    0.064586
   1 O :   -0.208587
   2 C :    0.063288
   3 C :   -0.096157
   4 C :   -0.101738
   5 C :    0.099935
   6 C :    0.093625
   7 H :   -0.004920
   8 H :   -0.007001
   9 H :    0.004066
  10 H :    0.021927
  11 H :    0.021741
  12 H :    0.003621
  13 H :    0.022856
  14 H :    0.022759
Sum of atomic charges:    0.0000000

LOEWDIN ATOMIC CHARGES
----------------------
   0 C :    0.015336
   1 O :   -0.000031
   2 C :    0.011738
   3 C :   -0.079853
   4 C :   -0.080114
   5 C :   -0.047979
   6 C :   -0.046749
   7 H :    0.017725
   8 H :    0.017732
   9 H :    0.029214
  10 H :    0.033980
  11 H :    0.033955
  12 H :    0.031517
  13 H :    0.031790
  14 H :    0.031738

  Mayer bond orders larger than 0.100000
B(  0-C ,  1-O ) :   1.1348 B(  0-C ,  4-C ) :   1.5474 B(  0-C ,  7-H ) :   1.0072
B(  1-O ,  2-C ) :   1.1358 B(  2-C ,  3-C ) :   1.5481 B(  2-C ,  8-H ) :   1.0031
B(  3-C ,  4-C ) :   1.2713 B(  3-C ,  6-C ) :   1.1004 B(  4-C ,  5-C ) :   1.0966
B(  5-C ,  9-H ) :   0.9484 B(  5-C , 10-H ) :   0.9526 B(  5-C , 11-H ) :   0.9525
B(  6-C , 12-H ) :   0.9504 B(  6-C , 13-H ) :   0.9486 B(  6-C , 14-H ) :   0.9485

Dispersion correction           -0.021345486
FINAL SINGLE POINT ENERGY      -308.456312843143

DIPOLE MOMENT
-------------
                                X             Y             Z
Electronic contribution:     -2.32312       6.75404      -0.00881
Nuclear contribution   :      2.44816      -7.18038       0.00931
                        -----------------------------------------
Total Dipole Moment    :      0.12505      -0.42633       0.00050
                        -----------------------------------------
Magnitude (a.u.)       :      0.44429
Magnitude (Debye)      :      1.12931

Rotational constants in cm-1:     0.120923     0.103241     0.056883
Rotational constants in MHz :  3625.172288  3095.073779  1705.303952

                             ****ORCA TERMINATED NORMALLY****
TOTAL RUN TIME: 0 days 0 hours 2 minutes 58 seconds 710 msec
