                         Program Version 4.2.0 -  RELEASE  -
|  1> # ORCA input file
|  2> # SCF done        -20.466005669967          0.000228157709
|  3> ! B3LYP/G D3BJ Opt RIJCOSX def2-SVP def2/J
|  4> * xyz 0 1
|  5>    C       -0.28767        -1.01917         0.08360
|  6>    O       -1.12730         0.02189         0.18007
|  7>    C       -0.31686         1.07581        -0.09847
|  8>    N        0.89891         0.67850        -0.33830
|  9>    N        0.91194        -0.65848        -0.22107
| 10>    C       -0.83371         2.42045        -0.10244
| 11>    C       -0.07232         3.47373        -0.37360
| 12>    H       -0.64228        -2.01409         0.25344
| 13>    H       -1.88532         2.50622         0.13118
| 14>    H        0.97183         3.34931        -0.60195
| 15>    H       -0.47225         4.47228        -0.37287
| 16> *
| 17>
| 18>                          ****END OF INPUT****
 Total Charge           Charge          ....    0
 Multiplicity           Mult            ....    1
 Number of Electrons    NEL             ....   50
Dispersion correction           -0.015071554
FINAL SINGLE POINT ENERGY      -339.260884348710
Dispersion correction            ... done
Dispersion correction           -0.015123913
FINAL SINGLE POINT ENERGY      -339.263080793438
Dispersion correction            ... done
Dispersion correction           -0.015119725
FINAL SINGLE POINT ENERGY      -339.263292143053
Dispersion correction            ... done
FINAL SINGLE POINT ENERGY      -339.263336468065
Dispersion correction            ... done
Dispersion correction           -0.015112162
FINAL SINGLE POINT ENERGY      -339.263337254378
Dispersion correction            ... done
Dispersion correction           -0.015110865
FINAL SINGLE POINT ENERGY      -339.263336316525
Dispersion correction            ... done
                    ***********************HURRAY********************

CARTESIAN COORDINATES (ANGSTROEM)
---------------------------------
  C     -0.291803   -1.040116    0.093459
  O     -1.105788    0.035926    0.187535
  C     -0.272493    1.070739   -0.119263
  N      0.934145    0.653063   -0.372290
  N      0.917389   -0.722460   -0.233115
  C     -0.817123    2.416881   -0.117770
  C     -0.080194    3.507093   -0.363920
  H     -0.710209   -2.023244    0.295187
  H     -1.884043    2.486020    0.109501
  H      0.986314    3.420979   -0.586771
  H     -0.531225    4.501569   -0.352962

 Multiplicity           Mult            ....    1
 Number of Electrons    NEL             ....   50
 Basis Dimension        Dim             ....  118

ORBITAL ENERGIES
----------------

  NO   OCC          E(Eh)            E(eV)
   0   2.0000     -19.235648      -523.4286
   1   2.0000     -14.358053      -390.7025
   2   2.0000     -14.353915      -390.5899
   3   2.0000     -10.291461      -280.0449
   4   2.0000     -10.288460      -279.9632
   5   2.0000     -10.223690      -278.2008
   6   2.0000     -10.215620      -277.9812
   7   2.0000      -1.165662       -31.7193
   8   2.0000      -0.983366       -26.7587
   9   2.0000      -0.853391       -23.2219
  10   2.0000      -0.778657       -21.1883
  11   2.0000      -0.683095       -18.5880
  12   2.0000      -0.639868       -17.4117
  13   2.0000      -0.587623       -15.9900
  14   2.0000      -0.534621       -14.5478
  15   2.0000      -0.510216       -13.8837
  16   2.0000      -0.500486       -13.6189
  17   2.0000      -0.450655       -12.2629
  18   2.0000      -0.446217       -12.1422
  19   2.0000      -0.394029       -10.7221
  20   2.0000      -0.358452        -9.7540
  21   2.0000      -0.342558        -9.3215
  22   2.0000      -0.332781        -9.0554
  23   2.0000      -0.279776        -7.6131
  24   2.0000      -0.263455        -7.1690
  25   0.0000      -0.062728        -1.7069
  26   0.0000       0.001626         0.0442
  27   0.0000       0.064481         1.7546
  28   0.0000       0.075176         2.0457
  29   0.0000       0.083416         2.2699

MULLIKEN ATOMIC CHARGES
-----------------------
   0 C :    0.173411
   1 O :   -0.208041
   2 C :    0.097919
   3 N :   -0.105784
   4 N :   -0.098738
   5 C :   -0.011919
   6 C :    0.015652
   7 H :    0.034766
   8 H :    0.011737
   9 H :    0.055901
  10 H :    0.035097
Sum of atomic charges:   -0.0000000

LOEWDIN ATOMIC CHARGES
----------------------
   0 C :    0.046953
   1 O :   -0.004823
   2 C :    0.023917
   3 N :   -0.091552
   4 N :   -0.077604
   5 C :   -0.050466
   6 C :    0.009619
   7 H :    0.030666
   8 H :    0.040470
   9 H :    0.039743
  10 H :    0.033079

  Mayer bond orders larger than 0.100000
B(  0-C ,  1-O ) :   1.1268 B(  0-C ,  4-N ) :   1.7486 B(  0-C ,  7-H ) :   0.9855
B(  1-O ,  2-C ) :   1.1263 B(  2-C ,  3-N ) :   1.7191 B(  2-C ,  5-C ) :   1.1007
B(  3-N ,  4-N ) :   1.1542 B(  5-C ,  6-C ) :   1.9359 B(  5-C ,  8-H ) :   0.9424
B(  6-C ,  9-H ) :   0.9497 B(  6-C , 10-H ) :   0.9423

Dispersion correction           -0.015110408
FINAL SINGLE POINT ENERGY      -339.263335997368

DIPOLE MOMENT
-------------
                                X             Y             Z
Electronic contribution:      0.41724      -4.39275       0.27821
Nuclear contribution   :     -1.56208       4.73790      -0.02615
                        -----------------------------------------
Total Dipole Moment    :     -1.14484       0.34515       0.25206
                        -----------------------------------------
Magnitude (a.u.)       :      1.22202
Magnitude (Debye)      :      3.10612

Rotational constants in cm-1:     0.288234     0.070807     0.056848
Rotational constants in MHz :  8641.028447  2122.755071  1704.250376

                             ****ORCA TERMINATED NORMALLY****
TOTAL RUN TIME: 0 days 0 hours 2 minutes 34 seconds 84 msec
