                         Program Version 4.2.0 -  RELEASE  -
|  1> # ORCA input file
|  2> # SCF done        -22.174629056380          0.000255009557
|  3> ! B3LYP/G D3BJ Opt RIJCOSX def2-SVP def2/J
|  4> * xyz 0 1
|  5>    C       -2.29789         0.50023        -0.00289
|  6>    O       -1.86225        -0.78200         0.00136
|  7>    C       -0.51867        -0.71815        -0.00032
|  8>    C        0.53604        -1.65524         0.00160
|  9>    C        1.73315        -1.01290        -0.00091
| 10>    S        1.61705         0.71994        -0.00760
| 11>    C       -0.10162         0.60945        -0.00525
| 12>    C       -1.27398         1.39975        -0.00666
| 13>    H       -3.36006         0.64543        -0.00273
| 14>    H        0.41553        -2.72199         0.00526
| 15>    H        2.70993        -1.45395         0.00049
| 16>    H       -1.34890         2.46691        -0.01029
| 17> *
| 18>
| 19>                          ****END OF INPUT****
 Total Charge           Charge          ....    0
 Multiplicity           Mult            ....    1
 Number of Electrons    NEL             ....   64
Dispersion correction           -0.023539776
FINAL SINGLE POINT ENERGY      -704.109678177178
Dispersion correction            ... done
Dispersion correction           -0.023545763
FINAL SINGLE POINT ENERGY      -704.111675152534
Dispersion correction            ... done
Dispersion correction           -0.023540253
FINAL SINGLE POINT ENERGY      -704.111831325993
Dispersion correction            ... done
FINAL SINGLE POINT ENERGY      -704.111872228105
Dispersion correction            ... done
Dispersion correction           -0.023525707
FINAL SINGLE POINT ENERGY      -704.111873855581
Dispersion correction            ... done
Dispersion correction           -0.023526774
FINAL SINGLE POINT ENERGY      -704.111879954018
Dispersion correction            ... done
                    ***********************HURRAY********************

CARTESIAN COORDINATES (ANGSTROEM)
---------------------------------
  C     -2.311792    0.510658   -0.003038
  O     -1.856730   -0.779876    0.000896
  C     -0.502565   -0.700850   -0.000366
  C      0.538878   -1.666703    0.001975
  C      1.755750   -1.028206   -0.001255
  S      1.637704    0.721176   -0.006771
  C     -0.093310    0.624905   -0.005103
  C     -1.286724    1.418015   -0.006840
  H     -3.391558    0.633280   -0.002596
  H      0.406276   -2.748326    0.005938
  H      2.743647   -1.486929   -0.000281
  H     -1.391245    2.500336   -0.010502

 Multiplicity           Mult            ....    1
 Number of Electrons    NEL             ....   64
 Basis Dimension        Dim             ....  136

ORBITAL ENERGIES
----------------

  NO   OCC          E(Eh)            E(eV)
   0   2.0000     -88.877280     -2418.4738
   1   2.0000     -19.205193      -522.5999
   2   2.0000     -10.246809      -278.8299
   3   2.0000     -10.240774      -278.6656
   4   2.0000     -10.217920      -278.0437
   5   2.0000     -10.209654      -277.8188
   6   2.0000     -10.203862      -277.6612
   7   2.0000     -10.202476      -277.6235
   8   2.0000      -7.971436      -216.9138
   9   2.0000      -5.939923      -161.6335
  10   2.0000      -5.935928      -161.5248
  11   2.0000      -5.932103      -161.4207
  12   2.0000      -1.107412       -30.1342
  13   2.0000      -0.877835       -23.8871
  14   2.0000      -0.792172       -21.5561
  15   2.0000      -0.737735       -20.0748
  16   2.0000      -0.712885       -19.3986
  17   2.0000      -0.612015       -16.6538
  18   2.0000      -0.581961       -15.8360
  19   2.0000      -0.551812       -15.0156
  20   2.0000      -0.502835       -13.6828
  21   2.0000      -0.474536       -12.9128
  22   2.0000      -0.465973       -12.6798
  23   2.0000      -0.445004       -12.1092
  24   2.0000      -0.413655       -11.2561
  25   2.0000      -0.393095       -10.6967
  26   2.0000      -0.379132       -10.3167
  27   2.0000      -0.366831        -9.9820
  28   2.0000      -0.347036        -9.4433
  29   2.0000      -0.296639        -8.0720
  30   2.0000      -0.244643        -6.6571
  31   2.0000      -0.218683        -5.9507
  32   0.0000      -0.024747        -0.6734
  33   0.0000       0.036440         0.9916
  34   0.0000       0.039336         1.0704
  35   0.0000       0.079381         2.1601
  36   0.0000       0.081029         2.2049

MULLIKEN ATOMIC CHARGES
-----------------------
   0 C :    0.140688
   1 O :   -0.217070
   2 C :    0.153972
   3 C :    0.007522
   4 C :   -0.104441
   5 S :    0.115158
   6 C :   -0.061582
   7 C :   -0.079751
   8 H :    0.013179
   9 H :   -0.000650
  10 H :    0.033394
  11 H :   -0.000418
Sum of atomic charges:    0.0000000

LOEWDIN ATOMIC CHARGES
----------------------
   0 C :    0.043951
   1 O :   -0.008613
   2 C :   -0.005313
   3 C :   -0.076457
   4 C :   -0.178472
   5 S :    0.407175
   6 C :   -0.220631
   7 C :   -0.083551
   8 H :    0.024334
   9 H :    0.037823
  10 H :    0.025230
  11 H :    0.034522

  Mayer bond orders larger than 0.100000
B(  0-C ,  1-O ) :   1.1045 B(  0-C ,  7-C ) :   1.5627 B(  0-C ,  8-H ) :   1.0009
B(  1-O ,  2-C ) :   1.1306 B(  2-C ,  3-C ) :   1.2309 B(  2-C ,  6-C ) :   1.4256
B(  3-C ,  4-C ) :   1.5519 B(  3-C ,  9-H ) :   1.0051 B(  4-C ,  5-S ) :   1.1473
B(  4-C , 10-H ) :   0.9638 B(  5-S ,  6-C ) :   1.0690 B(  6-C ,  7-C ) :   1.2217
B(  7-C , 11-H ) :   1.0087

Dispersion correction           -0.023526582
FINAL SINGLE POINT ENERGY      -704.111879770276

DIPOLE MOMENT
-------------
                                X             Y             Z
Electronic contribution:      1.51512       1.11973      -0.00485
Nuclear contribution   :     -1.55666      -1.04841       0.00485
                        -----------------------------------------
Total Dipole Moment    :     -0.04154       0.07132       0.00000
                        -----------------------------------------
Magnitude (a.u.)       :      0.08254
Magnitude (Debye)      :      0.20979

Rotational constants in cm-1:     0.134285     0.057830     0.040422
Rotational constants in MHz :  4025.754613  1733.706669  1211.828207

                             ****ORCA TERMINATED NORMALLY****
TOTAL RUN TIME: 0 days 0 hours 3 minutes 20 seconds 534 msec
