                         Program Version 4.2.0 -  RELEASE  -
|  1> # ORCA input file
|  2> # SCF done        -28.684124695299          0.000811017668
|  3> ! B3LYP/G D3BJ Opt RIJCOSX def2-SVP def2/J
|  4> * xyz 0 1
|  5>    C       -1.51667        -1.26020         0.04959
|  6>    S       -2.73272        -0.06292         0.10691
|  7>    C       -1.58564         1.20447         0.11783
|  8>    C       -0.29753         0.72882         0.08018
|  9>    C       -0.25460        -0.70987         0.03938
| 10>    C        0.99413        -1.36823        -0.00637
| 11>    C        2.16094        -0.64632        -0.00459
| 12>    C        3.43025        -1.35856        -0.04811
| 13>    C        4.64704        -0.83495         0.04524
| 14>    C        2.10056         0.78072         0.03634
| 15>    C        0.92239         1.45163         0.07589
| 16>    H       -1.78885        -2.29639         0.02702
| 17>    H       -1.91718         2.22284         0.15177
| 18>    H        1.01315        -2.44851        -0.03897
| 19>    H        3.33381        -2.43183        -0.16073
| 20>    H        4.82557         0.21877         0.16872
| 21>    H        5.52532        -1.45613         0.00332
| 22>    H        3.02493         1.33576         0.02809
| 23>    H        0.89210         2.53094         0.10321
| 24> *
| 25>
| 26>                          ****END OF INPUT****
 Total Charge           Charge          ....    0
 Multiplicity           Mult            ....    1
 Number of Electrons    NEL             ....   84
Dispersion correction           -0.041492337
FINAL SINGLE POINT ENERGY      -783.694391036196
Dispersion correction            ... done
Dispersion correction           -0.041285012
FINAL SINGLE POINT ENERGY      -783.697465076107
Dispersion correction            ... done
Dispersion correction           -0.041257174
FINAL SINGLE POINT ENERGY      -783.697564826565
Dispersion correction            ... done
FINAL SINGLE POINT ENERGY      -783.697595557172
Dispersion correction            ... done
Dispersion correction           -0.041253527
FINAL SINGLE POINT ENERGY      -783.697606993523
Dispersion correction            ... done
Dispersion correction           -0.041257142
FINAL SINGLE POINT ENERGY      -783.697612320599
Dispersion correction            ... done
                    ***********************HURRAY********************

CARTESIAN COORDINATES (ANGSTROEM)
---------------------------------
  C     -1.546913   -1.272550    0.030372
  S     -2.759814   -0.060802    0.075975
  C     -1.617754    1.220717    0.104458
  C     -0.316039    0.737494    0.081508
  C     -0.272345   -0.714575    0.035974
  C      0.991568   -1.375584    0.003776
  C      2.167676   -0.652325    0.019730
  C      3.448221   -1.368288   -0.015852
  C      4.681730   -0.839608   -0.000908
  C      2.106210    0.790499    0.069738
  C      0.917807    1.464469    0.097989
  H     -1.818065   -2.325982   -0.002878
  H     -1.948418    2.256917    0.140668
  H      1.023005   -2.467788   -0.036195
  H      3.355366   -2.459953   -0.061699
  H      4.864216    0.237509    0.044057
  H      5.564488   -1.481898   -0.033591
  H      3.039324    1.355356    0.085278
  H      0.896739    2.556430    0.136322

 Multiplicity           Mult            ....    1
 Number of Electrons    NEL             ....   84
 Basis Dimension        Dim             ....  198

ORBITAL ENERGIES
----------------

  NO   OCC          E(Eh)            E(eV)
   0   2.0000     -88.886402     -2418.7220
   1   2.0000     -10.213542      -277.9246
   2   2.0000     -10.213470      -277.9227
   3   2.0000     -10.200540      -277.5708
   4   2.0000     -10.200283      -277.5638
   5   2.0000     -10.199072      -277.5309
   6   2.0000     -10.196461      -277.4598
   7   2.0000     -10.195225      -277.4262
   8   2.0000     -10.195210      -277.4258
   9   2.0000     -10.192327      -277.3473
  10   2.0000     -10.186740      -277.1953
  11   2.0000      -7.980996      -217.1739
  12   2.0000      -5.948693      -161.8722
  13   2.0000      -5.944563      -161.7598
  14   2.0000      -5.943417      -161.7286
  15   2.0000      -0.891629       -24.2625
  16   2.0000      -0.836006       -22.7489
  17   2.0000      -0.777036       -21.1442
  18   2.0000      -0.756556       -20.5869
  19   2.0000      -0.719741       -19.5851
  20   2.0000      -0.697312       -18.9748
  21   2.0000      -0.616486       -16.7754
  22   2.0000      -0.601709       -16.3733
  23   2.0000      -0.575753       -15.6670
  24   2.0000      -0.544019       -14.8035
  25   2.0000      -0.508913       -13.8482
  26   2.0000      -0.485643       -13.2150
  27   2.0000      -0.471137       -12.8203
  28   2.0000      -0.434922       -11.8348
  29   2.0000      -0.428097       -11.6491
  30   2.0000      -0.423236       -11.5168
  31   2.0000      -0.411742       -11.2041
  32   2.0000      -0.406466       -11.0605
  33   2.0000      -0.375020       -10.2048
  34   2.0000      -0.361881        -9.8473
  35   2.0000      -0.354805        -9.6547
  36   2.0000      -0.352959        -9.6045
  37   2.0000      -0.336870        -9.1667
  38   2.0000      -0.298970        -8.1354
  39   2.0000      -0.279622        -7.6089
  40   2.0000      -0.237090        -6.4515
  41   2.0000      -0.204447        -5.5633
  42   0.0000      -0.063245        -1.7210
  43   0.0000      -0.019878        -0.5409
  44   0.0000       0.022737         0.6187
  45   0.0000       0.048452         1.3184
  46   0.0000       0.066593         1.8121

MULLIKEN ATOMIC CHARGES
-----------------------
   0 C :   -0.143760
   1 S :    0.134676
   2 C :   -0.140645
   3 C :    0.093907
   4 C :    0.113538
   5 C :   -0.077744
   6 C :    0.104350
   7 C :   -0.010297
   8 C :   -0.027299
   9 C :   -0.005214
  10 C :    0.002033
  11 H :    0.017587
  12 H :    0.016242
  13 H :   -0.036708
  14 H :   -0.014537
  15 H :    0.013082
  16 H :    0.020374
  17 H :   -0.031113
  18 H :   -0.028473
Sum of atomic charges:    0.0000000

LOEWDIN ATOMIC CHARGES
----------------------
   0 C :   -0.210320
   1 S :    0.479430
   2 C :   -0.209888
   3 C :   -0.051615
   4 C :   -0.051176
   5 C :   -0.015348
   6 C :   -0.031299
   7 C :   -0.021252
   8 C :   -0.054025
   9 C :   -0.019259
  10 C :   -0.017116
  11 H :    0.024525
  12 H :    0.024499
  13 H :    0.025656
  14 H :    0.027782
  15 H :    0.019380
  16 H :    0.025826
  17 H :    0.025772
  18 H :    0.028427

  Mayer bond orders larger than 0.100000
B(  0-C ,  1-S ) :   1.2021 B(  0-C ,  2-C ) :   0.1130 B(  0-C ,  4-C ) :   1.3972
B(  0-C , 11-H ) :   0.9645 B(  1-S ,  2-C ) :   1.1982 B(  2-C ,  3-C ) :   1.4162
B(  2-C , 12-H ) :   0.9646 B(  3-C ,  4-C ) :   1.1997 B(  3-C , 10-C ) :   1.1617
B(  4-C ,  5-C ) :   1.1640 B(  5-C ,  6-C ) :   1.4790 B(  5-C , 13-H ) :   1.0005
B(  6-C ,  7-C ) :   1.0879 B(  6-C ,  9-C ) :   1.1618 B(  7-C ,  8-C ) :   1.9110
B(  7-C , 14-H ) :   0.9630 B(  8-C , 15-H ) :   0.9466 B(  8-C , 16-H ) :   0.9452
B(  9-C , 10-C ) :   1.5766 B(  9-C , 17-H ) :   0.9804 B( 10-C , 18-H ) :   0.9910

Dispersion correction           -0.041257843
FINAL SINGLE POINT ENERGY      -783.697611354986

DIPOLE MOMENT
-------------
                                X             Y             Z
Electronic contribution:    -11.77150       0.89235       0.11376
Nuclear contribution   :     11.63645      -0.85680      -0.11268
                        -----------------------------------------
Total Dipole Moment    :     -0.13505       0.03555       0.00109
                        -----------------------------------------
Magnitude (a.u.)       :      0.13966
Magnitude (Debye)      :      0.35498

Rotational constants in cm-1:     0.106723     0.018242     0.015579
Rotational constants in MHz :  3199.475393   546.893999   467.059667

                             ****ORCA TERMINATED NORMALLY****
TOTAL RUN TIME: 0 days 0 hours 7 minutes 37 seconds 500 msec
