                         Program Version 4.2.0 -  RELEASE  -
|  1> # ORCA input file
|  2> # SCF done        -32.757109815497          0.000727196575
|  3> ! B3LYP/G D3BJ Opt RIJCOSX def2-SVP def2/J
|  4> * xyz 0 1
|  5>    C       -1.42096        -1.27747         0.15373
|  6>    S       -2.64984        -0.09447         0.28424
|  7>    C       -1.52127         1.18267         0.21432
|  8>    C       -0.23164         0.72218         0.09103
|  9>    C       -0.17103        -0.71549         0.04946
| 10>    C        1.08805        -1.38272        -0.06038
| 11>    C        2.21973        -0.59969        -0.14355
| 12>    C        2.14843         0.82067        -0.10901
| 13>    C        0.96602         1.47412         0.00860
| 14>    O        3.46656        -1.11019        -0.31026
| 15>    C        1.11922        -2.84251        -0.13130
| 16>    C        1.99769        -3.63328         0.47630
| 17>    H       -1.69211        -2.31343         0.16829
| 18>    H       -1.85773         2.19831         0.27075
| 19>    H        3.08344         1.35296        -0.18510
| 20>    H        0.91934         2.55180         0.03634
| 21>    H        3.40864        -2.07056        -0.41178
| 22>    H        0.33416        -3.28576        -0.73180
| 23>    H        2.75233        -3.25766         1.14911
| 24>    H        1.95834        -4.70389         0.36653
| 25> *
| 26>
| 27>                          ****END OF INPUT****
 Total Charge           Charge          ....    0
 Multiplicity           Mult            ....    1
 Number of Electrons    NEL             ....   92
Dispersion correction           -0.045179435
FINAL SINGLE POINT ENERGY      -858.862326090671
Dispersion correction            ... done
Dispersion correction           -0.044995407
FINAL SINGLE POINT ENERGY      -858.865416280197
Dispersion correction            ... done
Dispersion correction           -0.044966017
FINAL SINGLE POINT ENERGY      -858.865603849302
Dispersion correction            ... done
FINAL SINGLE POINT ENERGY      -858.865670015932
FINAL SINGLE POINT ENERGY      -858.865712182567
Dispersion correction            ... done
Dispersion correction           -0.044969953
FINAL SINGLE POINT ENERGY      -858.865720345893
Dispersion correction            ... done
Dispersion correction           -0.044973001
FINAL SINGLE POINT ENERGY      -858.865723074964
Dispersion correction            ... done
                    ***********************HURRAY********************

CARTESIAN COORDINATES (ANGSTROEM)
---------------------------------
  C     -1.459873   -1.273350    0.168348
  S     -2.681092   -0.066457    0.270051
  C     -1.551289    1.216886    0.180867
  C     -0.250240    0.740108    0.074382
  C     -0.193244   -0.711651    0.062122
  C      1.076808   -1.391473   -0.025076
  C      2.221750   -0.605165   -0.097239
  C      2.158004    0.827753   -0.090346
  C      0.965311    1.488652   -0.007669
  O      3.467275   -1.114540   -0.222360
  C      1.117280   -2.854480   -0.095954
  C      2.058890   -3.670794    0.415511
  H     -1.732913   -2.325149    0.214349
  H     -1.879324    2.254116    0.211949
  H      3.106611    1.362411   -0.164077
  H      0.931619    2.580609   -0.006836
  H      3.399606   -2.072304   -0.370375
  H      0.283068   -3.316856   -0.639072
  H      2.876645   -3.300761    1.041606
  H      2.002478   -4.751965    0.265342

 Multiplicity           Mult            ....    1
 Number of Electrons    NEL             ....   92
 Basis Dimension        Dim             ....  212

ORBITAL ENERGIES
----------------

  NO   OCC          E(Eh)            E(eV)
   0   2.0000     -88.882802     -2418.6240
   1   2.0000     -19.164429      -521.4906
   2   2.0000     -10.254898      -279.0500
   3   2.0000     -10.213244      -277.9165
   4   2.0000     -10.209512      -277.8150
   5   2.0000     -10.207760      -277.7673
   6   2.0000     -10.201678      -277.6018
   7   2.0000     -10.201269      -277.5906
   8   2.0000     -10.199138      -277.5327
   9   2.0000     -10.197548      -277.4894
  10   2.0000     -10.194565      -277.4082
  11   2.0000     -10.193185      -277.3707
  12   2.0000      -7.977441      -217.0772
  13   2.0000      -5.945225      -161.7778
  14   2.0000      -5.941057      -161.6644
  15   2.0000      -5.939717      -161.6279
  16   2.0000      -1.054919       -28.7058
  17   2.0000      -0.890070       -24.2200
  18   2.0000      -0.828566       -22.5464
  19   2.0000      -0.795700       -21.6521
  20   2.0000      -0.742365       -20.2008
  21   2.0000      -0.730251       -19.8711
  22   2.0000      -0.693562       -18.8728
  23   2.0000      -0.639017       -17.3885
  24   2.0000      -0.601067       -16.3559
  25   2.0000      -0.581269       -15.8171
  26   2.0000      -0.555796       -15.1240
  27   2.0000      -0.530793       -14.4436
  28   2.0000      -0.517751       -14.0887
  29   2.0000      -0.479207       -13.0399
  30   2.0000      -0.463220       -12.6049
  31   2.0000      -0.437918       -11.9164
  32   2.0000      -0.433029       -11.7833
  33   2.0000      -0.424270       -11.5450
  34   2.0000      -0.408762       -11.1230
  35   2.0000      -0.404272       -11.0008
  36   2.0000      -0.391390       -10.6503
  37   2.0000      -0.382617       -10.4115
  38   2.0000      -0.375089       -10.2067
  39   2.0000      -0.348961        -9.4957
  40   2.0000      -0.339994        -9.2517
  41   2.0000      -0.318646        -8.6708
  42   2.0000      -0.311460        -8.4753
  43   2.0000      -0.264180        -7.1887
  44   2.0000      -0.237843        -6.4720
  45   2.0000      -0.197713        -5.3801
  46   0.0000      -0.062993        -1.7141
  47   0.0000      -0.017525        -0.4769
  48   0.0000       0.026314         0.7160
  49   0.0000       0.045670         1.2427
  50   0.0000       0.050746         1.3809

MULLIKEN ATOMIC CHARGES
-----------------------
   0 C :   -0.179196
   1 S :    0.131946
   2 C :   -0.139115
   3 C :    0.097492
   4 C :    0.071774
   5 C :    0.055665
   6 C :    0.064006
   7 C :   -0.000886
   8 C :    0.000016
   9 O :   -0.181893
  10 C :   -0.071825
  11 C :   -0.076680
  12 H :    0.015014
  13 H :    0.015857
  14 H :   -0.017427
  15 H :   -0.021850
  16 H :    0.165841
  17 H :    0.008185
  18 H :    0.031540
  19 H :    0.031537
Sum of atomic charges:   -0.0000000

LOEWDIN ATOMIC CHARGES
----------------------
   0 C :   -0.227662
   1 S :    0.474167
   2 C :   -0.205707
   3 C :   -0.060224
   4 C :   -0.037140
   5 C :   -0.094053
   6 C :    0.060574
   7 C :   -0.042770
   8 C :   -0.005404
   9 O :   -0.042467
  10 C :   -0.009138
  11 C :   -0.080935
  12 H :    0.021036
  13 H :    0.024521
  14 H :    0.033831
  15 H :    0.030889
  16 H :    0.078958
  17 H :    0.030936
  18 H :    0.023094
  19 H :    0.027494

  Mayer bond orders larger than 0.100000
B(  0-C ,  1-S ) :   1.1767 B(  0-C ,  2-C ) :   0.1136 B(  0-C ,  4-C ) :   1.4496
B(  0-C , 12-H ) :   0.9517 B(  1-S ,  2-C ) :   1.2139 B(  2-C ,  3-C ) :   1.4060
B(  2-C , 13-H ) :   0.9648 B(  3-C ,  4-C ) :   1.1955 B(  3-C ,  8-C ) :   1.1577
B(  4-C ,  5-C ) :   1.1640 B(  5-C ,  6-C ) :   1.4024 B(  5-C , 10-C ) :   1.0656
B(  6-C ,  7-C ) :   1.1940 B(  6-C ,  9-O ) :   1.2402 B(  7-C ,  8-C ) :   1.5252
B(  7-C , 14-H ) :   0.9839 B(  8-C , 15-H ) :   0.9974 B(  9-O , 16-H ) :   0.9391
B( 10-C , 11-C ) :   1.8999 B( 10-C , 17-H ) :   0.9454 B( 11-C , 18-H ) :   0.9520
B( 11-C , 19-H ) :   0.9445

Dispersion correction           -0.044970334
FINAL SINGLE POINT ENERGY      -858.865725802679

DIPOLE MOMENT
-------------
                                X             Y             Z
Electronic contribution:     -6.51958       4.36008      -0.03549
Nuclear contribution   :      6.33511      -4.55164      -0.03154
                        -----------------------------------------
Total Dipole Moment    :     -0.18448      -0.19156      -0.06704
                        -----------------------------------------
Magnitude (a.u.)       :      0.27427
Magnitude (Debye)      :      0.69713

Rotational constants in cm-1:     0.051308     0.021288     0.015157
Rotational constants in MHz :  1538.181339   638.189805   454.399235

                             ****ORCA TERMINATED NORMALLY****
TOTAL RUN TIME: 0 days 0 hours 10 minutes 13 seconds 170 msec
