                         Program Version 4.2.0 -  RELEASE  -
|  1> # ORCA input file
|  2> # SCF done        -23.249074412456          0.000150744530
|  3> ! B3LYP/G D3BJ Opt RIJCOSX def2-SVP def2/J
|  4> * xyz 0 1
|  5>    C        1.37699         0.09959         0.64619
|  6>    S        0.86767         1.63961         0.87812
|  7>    C        2.70896        -0.23739         0.34474
|  8>    C        3.13542        -1.51500         0.15155
|  9>    S        4.79218        -1.96630        -0.22591
| 10>    C        4.29525        -3.64098        -0.26215
| 11>    C        2.99049        -3.74911        -0.00329
| 12>    O        2.33191        -2.59417         0.22728
| 13>    H        0.65823        -0.70976         0.72657
| 14>    H        3.43340         0.55752         0.26165
| 15>    H        4.99990        -4.41700        -0.47087
| 16>    H        2.38836        -4.63766         0.04689
| 17> *
| 18>
| 19>                          ****END OF INPUT****
 Total Charge           Charge          ....    0
 Multiplicity           Mult            ....    1
 Number of Electrons    NEL             ....   74
Dispersion correction           -0.024175055
FINAL SINGLE POINT ENERGY     -1064.092639173990
Dispersion correction            ... done
Dispersion correction           -0.024064638
FINAL SINGLE POINT ENERGY     -1064.094577902394
Dispersion correction            ... done
Dispersion correction           -0.024045579
FINAL SINGLE POINT ENERGY     -1064.094737791532
Dispersion correction            ... done
FINAL SINGLE POINT ENERGY     -1064.094756286195
Dispersion correction            ... done
Dispersion correction           -0.024056822
FINAL SINGLE POINT ENERGY     -1064.094763815947
Dispersion correction            ... done
Dispersion correction           -0.024057731
FINAL SINGLE POINT ENERGY     -1064.094771555626
Dispersion correction            ... done
                    ***********************HURRAY********************

CARTESIAN COORDINATES (ANGSTROEM)
---------------------------------
  C      1.369235    0.115290    0.650767
  S      0.779798    1.636308    0.872962
  C      2.725548   -0.210995    0.347705
  C      3.165870   -1.489265    0.153555
  S      4.823352   -1.978926   -0.222204
  C      4.298233   -3.661353   -0.264159
  C      2.987225   -3.755121   -0.006050
  O      2.344669   -2.572492    0.228421
  H      0.691066   -0.747062    0.737725
  H      3.451816    0.600106    0.258747
  H      4.990162   -4.470712   -0.483123
  H      2.351786   -4.636428    0.046423

 Multiplicity           Mult            ....    1
 Number of Electrons    NEL             ....   74
 Basis Dimension        Dim             ....  140

ORBITAL ENERGIES
----------------

  NO   OCC          E(Eh)            E(eV)
   0   2.0000     -88.906348     -2419.2647
   1   2.0000     -88.793144     -2416.1843
   2   2.0000     -19.236567      -523.4536
   3   2.0000     -10.309779      -280.5434
   4   2.0000     -10.290606      -280.0216
   5   2.0000     -10.252298      -278.9792
   6   2.0000     -10.228817      -278.3402
   7   2.0000     -10.200800      -277.5779
   8   2.0000      -8.001857      -217.7416
   9   2.0000      -7.888882      -214.6674
  10   2.0000      -5.970587      -162.4679
  11   2.0000      -5.966615      -162.3598
  12   2.0000      -5.961537      -162.2217
  13   2.0000      -5.856616      -159.3666
  14   2.0000      -5.856299      -159.3580
  15   2.0000      -5.847302      -159.1132
  16   2.0000      -1.140279       -31.0286
  17   2.0000      -0.858601       -23.3637
  18   2.0000      -0.834754       -22.7148
  19   2.0000      -0.773693       -21.0533
  20   2.0000      -0.702183       -19.1074
  21   2.0000      -0.660331       -17.9685
  22   2.0000      -0.601182       -16.3590
  23   2.0000      -0.563378       -15.3303
  24   2.0000      -0.542235       -14.7550
  25   2.0000      -0.496474       -13.5098
  26   2.0000      -0.488613       -13.2958
  27   2.0000      -0.464509       -12.6399
  28   2.0000      -0.430926       -11.7261
  29   2.0000      -0.403364       -10.9761
  30   2.0000      -0.384981       -10.4759
  31   2.0000      -0.353340        -9.6149
  32   2.0000      -0.350009        -9.5242
  33   2.0000      -0.346931        -9.4405
  34   2.0000      -0.289476        -7.8770
  35   2.0000      -0.211732        -5.7615
  36   2.0000      -0.197278        -5.3682
  37   0.0000      -0.076571        -2.0836
  38   0.0000      -0.024993        -0.6801
  39   0.0000      -0.010925        -0.2973
  40   0.0000       0.044498         1.2109
  41   0.0000       0.051961         1.4139

MULLIKEN ATOMIC CHARGES
-----------------------
   0 C :   -0.054948
   1 S :   -0.173174
   2 C :    0.012592
   3 C :    0.076277
   4 S :    0.112072
   5 C :   -0.091840
   6 C :    0.193880
   7 O :   -0.214361
   8 H :    0.036205
   9 H :    0.002195
  10 H :    0.059984
  11 H :    0.041117
Sum of atomic charges:   -0.0000000

LOEWDIN ATOMIC CHARGES
----------------------
   0 C :   -0.143537
   1 S :   -0.009102
   2 C :   -0.138127
   3 C :   -0.054733
   4 S :    0.389288
   5 C :   -0.196424
   6 C :    0.044378
   7 O :   -0.025038
   8 H :    0.013821
   9 H :    0.036459
  10 H :    0.042692
  11 H :    0.040322

  Mayer bond orders larger than 0.100000
B(  0-C ,  1-S ) :   1.6975 B(  0-C ,  2-C ) :   1.2337 B(  0-C ,  8-H ) :   0.9498
B(  1-S ,  3-C ) :   0.1205 B(  2-C ,  3-C ) :   1.5720 B(  2-C ,  9-H ) :   0.9418
B(  3-C ,  4-S ) :   1.0655 B(  3-C ,  7-O ) :   1.1051 B(  4-S ,  5-C ) :   1.0481
B(  5-C ,  6-C ) :   1.7440 B(  5-C , 10-H ) :   0.9636 B(  6-C ,  7-O ) :   1.0565
B(  6-C , 11-H ) :   0.9899

Dispersion correction           -0.024058570
FINAL SINGLE POINT ENERGY     -1064.094772875684

DIPOLE MOMENT
-------------
                                X             Y             Z
Electronic contribution:      0.97506       2.08668      -0.02641
Nuclear contribution   :      0.26908      -4.34762      -0.40797
                        -----------------------------------------
Total Dipole Moment    :      1.24413      -2.26094      -0.43439
                        -----------------------------------------
Magnitude (a.u.)       :      2.61695
Magnitude (Debye)      :      6.65175

Rotational constants in cm-1:     0.158896     0.021957     0.019292
Rotational constants in MHz :  4763.575011   658.260463   578.351604

                             ****ORCA TERMINATED NORMALLY****
TOTAL RUN TIME: 0 days 0 hours 3 minutes 27 seconds 878 msec
