                         Program Version 4.2.0 -  RELEASE  -
|  1> # ORCA input file
|  2> # SCF done        -21.633674133195          0.000768066625
|  3> ! B3LYP/G D3BJ Opt RIJCOSX def2-SVP def2/J
|  4> * xyz 0 1
|  5>    C        2.16819         0.48698        -0.00102
|  6>    S        1.69161        -1.17907        -0.00535
|  7>    C        0.03698        -0.70718        -0.00130
|  8>    N       -1.10298        -1.42430        -0.00120
|  9>    C       -2.11865        -0.64183         0.00198
| 10>    S       -1.78082         1.07720         0.00555
| 11>    C       -0.10109         0.68081         0.00207
| 12>    C        1.13049         1.36363         0.00153
| 13>    H        3.21512         0.71746        -0.00117
| 14>    H       -3.13189        -0.98950         0.00163
| 15>    H        1.23601         2.43248         0.00369
| 16> *
| 17>
| 18>                          ****END OF INPUT****
 Total Charge           Charge          ....    0
 Multiplicity           Mult            ....    1
 Number of Electrons    NEL             ....   72
Dispersion correction           -0.026880360
FINAL SINGLE POINT ENERGY     -1043.076815387086
Dispersion correction            ... done
Dispersion correction           -0.026896047
FINAL SINGLE POINT ENERGY     -1043.079025812926
Dispersion correction            ... done
Dispersion correction           -0.026890338
FINAL SINGLE POINT ENERGY     -1043.079151920226
Dispersion correction            ... done
FINAL SINGLE POINT ENERGY     -1043.079173274203
Dispersion correction            ... done
Dispersion correction           -0.026872033
FINAL SINGLE POINT ENERGY     -1043.079172045734
Dispersion correction            ... done
Dispersion correction           -0.026873572
FINAL SINGLE POINT ENERGY     -1043.079177938416
Dispersion correction            ... done
                    ***********************HURRAY********************

CARTESIAN COORDINATES (ANGSTROEM)
---------------------------------
  C      2.189903    0.489534   -0.001526
  S      1.700174   -1.185791   -0.003856
  C      0.026200   -0.705539   -0.001594
  N     -1.111998   -1.447266   -0.001822
  C     -2.144721   -0.657660    0.001757
  S     -1.797322    1.073300    0.004500
  C     -0.104062    0.686132    0.002201
  C      1.142680    1.376653    0.002448
  H      3.252075    0.731467   -0.002651
  H     -3.180930   -1.003114    0.002291
  H      1.270972    2.458964    0.004661

 Multiplicity           Mult            ....    1
 Number of Electrons    NEL             ....   72
 Basis Dimension        Dim             ....  135

ORBITAL ENERGIES
----------------

  NO   OCC          E(Eh)            E(eV)
   0   2.0000     -88.887825     -2418.7607
   1   2.0000     -88.882025     -2418.6029
   2   2.0000     -14.342128      -390.2691
   3   2.0000     -10.256168      -279.0845
   4   2.0000     -10.243293      -278.7342
   5   2.0000     -10.225762      -278.2571
   6   2.0000     -10.225055      -278.2379
   7   2.0000     -10.212837      -277.9054
   8   2.0000      -7.982951      -217.2271
   9   2.0000      -7.977055      -217.0667
  10   2.0000      -5.951007      -161.9351
  11   2.0000      -5.947295      -161.8341
  12   2.0000      -5.945286      -161.7795
  13   2.0000      -5.943923      -161.7424
  14   2.0000      -5.941461      -161.6754
  15   2.0000      -5.937812      -161.5761
  16   2.0000      -0.975304       -26.5394
  17   2.0000      -0.873540       -23.7702
  18   2.0000      -0.808060       -21.9884
  19   2.0000      -0.730775       -19.8854
  20   2.0000      -0.718779       -19.5590
  21   2.0000      -0.614254       -16.7147
  22   2.0000      -0.571027       -15.5384
  23   2.0000      -0.551828       -15.0160
  24   2.0000      -0.482571       -13.1314
  25   2.0000      -0.471406       -12.8276
  26   2.0000      -0.444429       -12.0935
  27   2.0000      -0.438322       -11.9274
  28   2.0000      -0.403084       -10.9685
  29   2.0000      -0.381656       -10.3854
  30   2.0000      -0.358763        -9.7624
  31   2.0000      -0.350156        -9.5282
  32   2.0000      -0.311882        -8.4867
  33   2.0000      -0.288386        -7.8474
  34   2.0000      -0.247501        -6.7348
  35   2.0000      -0.236820        -6.4442
  36   0.0000      -0.047422        -1.2904
  37   0.0000       0.012038         0.3276
  38   0.0000       0.015046         0.4094
  39   0.0000       0.041455         1.1281
  40   0.0000       0.058385         1.5887

MULLIKEN ATOMIC CHARGES
-----------------------
   0 C :   -0.094477
   1 S :    0.128674
   2 C :   -0.095376
   3 N :   -0.093063
   4 C :   -0.001368
   5 S :    0.099772
   6 C :   -0.035291
   7 C :    0.008837
   8 H :    0.035366
   9 H :    0.046948
  10 H :   -0.000021
Sum of atomic charges:    0.0000000

LOEWDIN ATOMIC CHARGES
----------------------
   0 C :   -0.174601
   1 S :    0.420077
   2 C :   -0.197301
   3 N :   -0.102653
   4 C :   -0.121927
   5 S :    0.391437
   6 C :   -0.224102
   7 C :   -0.075489
   8 H :    0.027416
   9 H :    0.022109
  10 H :    0.035034

  Mayer bond orders larger than 0.100000
B(  0-C ,  1-S ) :   1.1520 B(  0-C ,  7-C ) :   1.5759 B(  0-C ,  8-H ) :   0.9660
B(  1-S ,  2-C ) :   1.1039 B(  2-C ,  3-N ) :   1.3561 B(  2-C ,  6-C ) :   1.3812
B(  3-N ,  4-C ) :   1.6941 B(  3-N ,  5-S ) :   0.1146 B(  4-C ,  5-S ) :   1.1229
B(  4-C ,  9-H ) :   0.9606 B(  5-S ,  6-C ) :   1.0877 B(  6-C ,  7-C ) :   1.2503
B(  7-C , 10-H ) :   0.9990

Dispersion correction           -0.026873606
FINAL SINGLE POINT ENERGY     -1043.079177329469

DIPOLE MOMENT
-------------
                                X             Y             Z
Electronic contribution:     -1.24795      -1.49215      -0.00163
Nuclear contribution   :      1.33418       2.19195       0.00325
                        -----------------------------------------
Total Dipole Moment    :      0.08623       0.69981       0.00161
                        -----------------------------------------
Magnitude (a.u.)       :      0.70510
Magnitude (Debye)      :      1.79222

Rotational constants in cm-1:     0.112059     0.044924     0.032068
Rotational constants in MHz :  3359.436038  1346.778073   961.370424

                             ****ORCA TERMINATED NORMALLY****
TOTAL RUN TIME: 0 days 0 hours 3 minutes 22 seconds 987 msec
