                         Program Version 4.2.0 -  RELEASE  -
|  1> # ORCA input file
|  2> # SCF done        -29.484842459359          0.000656435562
|  3> ! B3LYP/G D3BJ Opt RIJCOSX def2-SVP def2/J
|  4> * xyz 0 1
|  5>    C       -1.29296         1.14930         0.00116
|  6>    C       -0.00322         0.72067        -0.00027
|  7>    C       -0.01593        -0.72856        -0.00126
|  8>    C       -1.41258        -1.15819         0.00125
|  9>    O       -1.93469        -2.24217         0.00102
| 10>    N       -2.11691         0.06135         0.00154
| 11>    C        1.27378        -1.12827        -0.00248
| 12>    O        2.11674        -0.07832        -0.00162
| 13>    C        1.38692         1.12774        -0.00140
| 14>    O        1.92990         2.19282        -0.00090
| 15>    H       -1.68701         2.14865         0.00177
| 16>    H       -3.12472         0.10160         0.00211
| 17>    H        1.72336        -2.10465        -0.00271
| 18> *
| 19>
| 20>                          ****END OF INPUT****
 Total Charge           Charge          ....    0
 Multiplicity           Mult            ....    1
 Number of Electrons    NEL             ....   70
Dispersion correction           -0.023742792
FINAL SINGLE POINT ENERGY      -510.489127158113
Dispersion correction            ... done
Dispersion correction           -0.023724674
FINAL SINGLE POINT ENERGY      -510.490856017420
Dispersion correction            ... done
Dispersion correction           -0.023721108
FINAL SINGLE POINT ENERGY      -510.491124929791
Dispersion correction            ... done
FINAL SINGLE POINT ENERGY      -510.491231443048
FINAL SINGLE POINT ENERGY      -510.491251027240
Dispersion correction            ... done
Dispersion correction           -0.023727193
FINAL SINGLE POINT ENERGY      -510.491262911098
Dispersion correction            ... done
Dispersion correction           -0.023728131
FINAL SINGLE POINT ENERGY      -510.491265021438
Dispersion correction            ... done
                    ***********************HURRAY********************

CARTESIAN COORDINATES (ANGSTROEM)
---------------------------------
  C     -1.295763    1.159104    0.000970
  C     -0.000342    0.718439    0.000011
  C     -0.015897   -0.725406   -0.000585
  C     -1.418201   -1.176927    0.000641
  O     -1.947720   -2.262083    0.000877
  N     -2.130197    0.064702    0.001493
  C      1.279423   -1.132507   -0.001943
  O      2.133273   -0.084659   -0.002492
  C      1.385890    1.155646   -0.000555
  O      1.956938    2.202220   -0.001298
  H     -1.696287    2.172368    0.001566
  H     -3.143304    0.093477    0.002414
  H      1.734867   -2.122402   -0.002888

 Multiplicity           Mult            ....    1
 Number of Electrons    NEL             ....   70
 Basis Dimension        Dim             ....  155

ORBITAL ENERGIES
----------------

  NO   OCC          E(Eh)            E(eV)
   0   2.0000     -19.205121      -522.5979
   1   2.0000     -19.143726      -520.9273
   2   2.0000     -19.133890      -520.6596
   3   2.0000     -14.400263      -391.8511
   4   2.0000     -10.334763      -281.2232
   5   2.0000     -10.320551      -280.8365
   6   2.0000     -10.291940      -280.0579
   7   2.0000     -10.282260      -279.7945
   8   2.0000     -10.214367      -277.9470
   9   2.0000     -10.212334      -277.8917
  10   2.0000      -1.118091       -30.4248
  11   2.0000      -1.058683       -28.8082
  12   2.0000      -1.044751       -28.4291
  13   2.0000      -0.982342       -26.7309
  14   2.0000      -0.833051       -22.6685
  15   2.0000      -0.757274       -20.6065
  16   2.0000      -0.711348       -19.3568
  17   2.0000      -0.685790       -18.6613
  18   2.0000      -0.614486       -16.7210
  19   2.0000      -0.554731       -15.0950
  20   2.0000      -0.534255       -14.5378
  21   2.0000      -0.518179       -14.1004
  22   2.0000      -0.512534       -13.9468
  23   2.0000      -0.494561       -13.4577
  24   2.0000      -0.455874       -12.4050
  25   2.0000      -0.455241       -12.3877
  26   2.0000      -0.449162       -12.2223
  27   2.0000      -0.416122       -11.3232
  28   2.0000      -0.403817       -10.9884
  29   2.0000      -0.386933       -10.5290
  30   2.0000      -0.366840        -9.9822
  31   2.0000      -0.305003        -8.2996
  32   2.0000      -0.304274        -8.2797
  33   2.0000      -0.285694        -7.7741
  34   2.0000      -0.235267        -6.4019
  35   0.0000      -0.102325        -2.7844
  36   0.0000      -0.028322        -0.7707
  37   0.0000       0.038471         1.0468
  38   0.0000       0.071257         1.9390
  39   0.0000       0.079897         2.1741

MULLIKEN ATOMIC CHARGES
-----------------------
   0 C :    0.079753
   1 C :   -0.086583
   2 C :   -0.049458
   3 C :    0.191809
   4 O :   -0.162385
   5 N :   -0.151664
   6 C :    0.122222
   7 O :   -0.268413
   8 C :    0.250881
   9 O :   -0.128531
  10 H :    0.030443
  11 H :    0.135685
  12 H :    0.036240
Sum of atomic charges:   -0.0000000

LOEWDIN ATOMIC CHARGES
----------------------
   0 C :    0.097611
   1 C :   -0.137295
   2 C :   -0.128668
   3 C :    0.082638
   4 O :   -0.164498
   5 N :    0.022821
   6 C :    0.134393
   7 O :   -0.072183
   8 C :    0.114181
   9 O :   -0.117924
  10 H :    0.039374
  11 H :    0.091562
  12 H :    0.037989

  Mayer bond orders larger than 0.100000
B(  0-C ,  1-C ) :   1.4912 B(  0-C ,  5-N ) :   1.2005 B(  0-C , 10-H ) :   0.9816
B(  1-C ,  2-C ) :   1.1737 B(  1-C ,  8-C ) :   0.9817 B(  2-C ,  3-C ) :   0.9298
B(  2-C ,  6-C ) :   1.5262 B(  3-C ,  4-O ) :   2.1990 B(  3-C ,  5-N ) :   1.0208
B(  5-N , 11-H ) :   0.9260 B(  6-C ,  7-O ) :   1.1638 B(  6-C , 12-H ) :   0.9964
B(  7-O ,  8-C ) :   0.9263 B(  8-C ,  9-O ) :   2.2356

Dispersion correction           -0.023728481
FINAL SINGLE POINT ENERGY      -510.491267204601

DIPOLE MOMENT
-------------
                                X             Y             Z
Electronic contribution:      1.76515       0.05381      -0.00061
Nuclear contribution   :     -2.90392       0.15956       0.00187
                        -----------------------------------------
Total Dipole Moment    :     -1.13876       0.21337       0.00126
                        -----------------------------------------
Magnitude (a.u.)       :      1.15858
Magnitude (Debye)      :      2.94488

Rotational constants in cm-1:     0.105100     0.037751     0.027774
Rotational constants in MHz :  3150.805917  1131.736752   832.655555

                             ****ORCA TERMINATED NORMALLY****
TOTAL RUN TIME: 0 days 0 hours 4 minutes 51 seconds 223 msec
