                         Program Version 4.2.0 -  RELEASE  -
|  1> # ORCA input file
|  2> # SCF done        -34.070836709014          0.000429070890
|  3> ! B3LYP/G D3BJ Opt RIJCOSX def2-SVP def2/J
|  4> * xyz 0 1
|  5>    C        1.32810        -1.25186         0.03762
|  6>    S        1.74667         0.39498        -0.01697
|  7>    C        0.07769         0.88899        -0.12118
|  8>    C       -0.75945        -0.21167        -0.11146
|  9>    C       -0.02641        -1.43303        -0.02000
| 10>    N       -0.62601        -2.72862         0.01058
| 11>    O        0.12788        -3.67697         0.08840
| 12>    O       -1.83325        -2.79348        -0.04197
| 13>    C       -2.16554        -0.15240        -0.18252
| 14>    N       -3.30664        -0.06387        -0.24207
| 15>    C       -0.20045         2.29977        -0.20049
| 16>    C       -1.40351         2.86202        -0.29386
| 17>    H        2.07021        -2.02298         0.10892
| 18>    H        0.68601         2.92171        -0.18051
| 19>    H       -2.31216         2.28799        -0.31793
| 20>    H       -1.50379         3.93179        -0.34904
| 21> *
| 22>
| 23>                          ****END OF INPUT****
 Total Charge           Charge          ....    0
 Multiplicity           Mult            ....    1
 Number of Electrons    NEL             ....   92
Dispersion correction           -0.036747006
FINAL SINGLE POINT ENERGY      -926.672021509340
Dispersion correction            ... done
Dispersion correction           -0.036439993
FINAL SINGLE POINT ENERGY      -926.675449141953
Dispersion correction            ... done
Dispersion correction           -0.036395329
FINAL SINGLE POINT ENERGY      -926.675615687454
Dispersion correction            ... done
FINAL SINGLE POINT ENERGY      -926.675144398187
FINAL SINGLE POINT ENERGY      -926.675711993768
FINAL SINGLE POINT ENERGY      -926.675724214864
FINAL SINGLE POINT ENERGY      -926.675733843394
Dispersion correction            ... done
Dispersion correction           -0.036408056
FINAL SINGLE POINT ENERGY      -926.675735046093
Dispersion correction            ... done
Dispersion correction           -0.036405429
FINAL SINGLE POINT ENERGY      -926.675736338201
Dispersion correction            ... done
                    ***********************HURRAY********************

CARTESIAN COORDINATES (ANGSTROEM)
---------------------------------
  C      1.346638   -1.273553    0.039472
  S      1.741455    0.393728   -0.016043
  C      0.067564    0.883203   -0.128238
  C     -0.765862   -0.236542   -0.121226
  C     -0.009655   -1.453980   -0.020964
  N     -0.602007   -2.785900    0.027905
  O      0.164712   -3.734646    0.075924
  O     -1.818870   -2.853873    0.020447
  C     -2.184111   -0.147934   -0.221277
  N     -3.327947    0.029756   -0.311029
  C     -0.216693    2.309076   -0.209920
  C     -1.422234    2.900067   -0.272219
  H      2.097832   -2.055277    0.122596
  H      0.675457    2.944864   -0.216268
  H     -2.359853    2.344188   -0.271784
  H     -1.487076    3.989193   -0.329854

 Multiplicity           Mult            ....    1
 Number of Electrons    NEL             ....   92
 Basis Dimension        Dim             ....  192

ORBITAL ENERGIES
----------------

  NO   OCC          E(Eh)            E(eV)
   0   2.0000     -88.929084     -2419.8834
   1   2.0000     -19.179489      -521.9004
   2   2.0000     -19.177128      -521.8362
   3   2.0000     -14.580157      -396.7463
   4   2.0000     -14.341878      -390.2623
   5   2.0000     -10.281067      -279.7621
   6   2.0000     -10.277078      -279.6535
   7   2.0000     -10.269209      -279.4394
   8   2.0000     -10.267849      -279.4024
   9   2.0000     -10.245815      -278.8028
  10   2.0000     -10.237282      -278.5706
  11   2.0000     -10.222432      -278.1665
  12   2.0000      -8.024322      -218.3529
  13   2.0000      -5.992190      -163.0558
  14   2.0000      -5.988184      -162.9468
  15   2.0000      -5.985867      -162.8837
  16   2.0000      -1.241210       -33.7750
  17   2.0000      -1.067498       -29.0481
  18   2.0000      -0.947120       -25.7725
  19   2.0000      -0.908868       -24.7316
  20   2.0000      -0.841115       -22.8879
  21   2.0000      -0.815804       -22.1992
  22   2.0000      -0.776287       -21.1238
  23   2.0000      -0.710960       -19.3462
  24   2.0000      -0.654303       -17.8045
  25   2.0000      -0.626712       -17.0537
  26   2.0000      -0.592408       -16.1203
  27   2.0000      -0.563700       -15.3391
  28   2.0000      -0.560617       -15.2552
  29   2.0000      -0.527797       -14.3621
  30   2.0000      -0.506355       -13.7786
  31   2.0000      -0.496679       -13.5153
  32   2.0000      -0.478895       -13.0314
  33   2.0000      -0.449851       -12.2411
  34   2.0000      -0.439565       -11.9612
  35   2.0000      -0.413629       -11.2554
  36   2.0000      -0.403174       -10.9709
  37   2.0000      -0.377550       -10.2736
  38   2.0000      -0.372995       -10.1497
  39   2.0000      -0.349927        -9.5220
  40   2.0000      -0.346612        -9.4318
  41   2.0000      -0.327214        -8.9040
  42   2.0000      -0.323025        -8.7899
  43   2.0000      -0.309219        -8.4143
  44   2.0000      -0.302647        -8.2354
  45   2.0000      -0.264233        -7.1901
  46   0.0000      -0.105732        -2.8771
  47   0.0000      -0.097039        -2.6406
  48   0.0000      -0.023415        -0.6372
  49   0.0000       0.000921         0.0251
  50   0.0000       0.013282         0.3614

MULLIKEN ATOMIC CHARGES
-----------------------
   0 C :   -0.113070
   1 S :    0.172981
   2 C :   -0.116633
   3 C :   -0.057228
   4 C :    0.222918
   5 N :    0.236417
   6 O :   -0.240177
   7 O :   -0.215662
   8 C :   -0.174727
   9 N :    0.110395
  10 C :    0.037309
  11 C :   -0.014498
  12 H :    0.055126
  13 H :   -0.001872
  14 H :    0.055836
  15 H :    0.042885
Sum of atomic charges:    0.0000000

LOEWDIN ATOMIC CHARGES
----------------------
   0 C :   -0.154664
   1 S :    0.501277
   2 C :   -0.131815
   3 C :   -0.096193
   4 C :   -0.044501
   5 N :    0.275772
   6 O :   -0.202787
   7 O :   -0.174857
   8 C :   -0.023491
   9 N :   -0.047975
  10 C :   -0.055290
  11 C :    0.001806
  12 H :    0.047102
  13 H :    0.032633
  14 H :    0.036540
  15 H :    0.036444

  Mayer bond orders larger than 0.100000
B(  0-C ,  1-S ) :   1.1777 B(  0-C ,  4-C ) :   1.5189 B(  0-C , 12-H ) :   0.9484
B(  1-S ,  2-C ) :   1.1395 B(  2-C ,  3-C ) :   1.4748 B(  2-C , 10-C ) :   1.1294
B(  3-C ,  4-C ) :   1.2425 B(  3-C ,  8-C ) :   1.1657 B(  4-C ,  5-N ) :   0.8836
B(  5-N ,  6-O ) :   1.5237 B(  5-N ,  7-O ) :   1.5244 B(  6-O ,  7-O ) :   0.2899
B(  8-C ,  9-N ) :   2.9239 B( 10-C , 11-C ) :   1.9111 B( 10-C , 13-H ) :   0.9370
B( 11-C , 14-H ) :   0.9450 B( 11-C , 15-H ) :   0.9404

Dispersion correction           -0.036404746
FINAL SINGLE POINT ENERGY      -926.675735813790

DIPOLE MOMENT
-------------
                                X             Y             Z
Electronic contribution:      1.69838      -6.97120       0.38402
Nuclear contribution   :      0.25441       8.49747      -0.34150
                        -----------------------------------------
Total Dipole Moment    :      1.95280       1.52628       0.04252
                        -----------------------------------------
Magnitude (a.u.)       :      2.47886
Magnitude (Debye)      :      6.30076

Rotational constants in cm-1:     0.040879     0.024774     0.015430
Rotational constants in MHz :  1225.507909   742.720249   462.566198

                             ****ORCA TERMINATED NORMALLY****
TOTAL RUN TIME: 0 days 0 hours 12 minutes 12 seconds 115 msec
