                         Program Version 4.2.0 -  RELEASE  -
|  1> # ORCA input file
|  2> # SCF done        -29.669352901642          0.000974351483
|  3> ! B3LYP/G D3BJ Opt RIJCOSX def2-SVP def2/J
|  4> * xyz 0 1
|  5>    C        0.11188         1.22541        -0.00400
|  6>    S       -1.09136        -0.00155        -0.01101
|  7>    C        0.09750        -1.22907        -0.00429
|  8>    C        1.35657        -0.70553         0.00309
|  9>    C        1.36717         0.71295         0.00324
| 10>    C        2.60565        -1.52076         0.01010
| 11>    F        2.36476        -2.83924         0.01118
| 12>    F        3.38239        -1.27438        -1.06070
| 13>    F        3.37270        -1.27077         1.08699
| 14>    H       -0.18215         2.25553        -0.00561
| 15>    H       -0.18237        -2.26355        -0.00598
| 16>    H        2.26837         1.29774         0.00856
| 17> *
| 18>
| 19>                          ****END OF INPUT****
 Total Charge           Charge          ....    0
 Multiplicity           Mult            ....    1
 Number of Electrons    NEL             ....   76
Dispersion correction           -0.021668321
FINAL SINGLE POINT ENERGY      -889.594386848088
Dispersion correction            ... done
Dispersion correction           -0.021657108
FINAL SINGLE POINT ENERGY      -889.595893567028
Dispersion correction            ... done
Dispersion correction           -0.021655155
FINAL SINGLE POINT ENERGY      -889.595943325915
Dispersion correction            ... done
FINAL SINGLE POINT ENERGY      -889.595952237349
FINAL SINGLE POINT ENERGY      -889.595953703635
FINAL SINGLE POINT ENERGY      -889.595957525730
FINAL SINGLE POINT ENERGY      -889.595950286961
FINAL SINGLE POINT ENERGY      -889.595930749647
FINAL SINGLE POINT ENERGY      -889.595957817318
Dispersion correction            ... done
Dispersion correction           -0.021660353
FINAL SINGLE POINT ENERGY      -889.595963411916
Dispersion correction            ... done
Dispersion correction           -0.021661195
FINAL SINGLE POINT ENERGY      -889.595957003803
Dispersion correction            ... done
                    ***********************HURRAY********************

CARTESIAN COORDINATES (ANGSTROEM)
---------------------------------
  C      0.107352    1.238082   -0.014151
  S     -1.100003   -0.001015    0.048636
  C      0.093779   -1.244069    0.040549
  C      1.361558   -0.716452   -0.005149
  C      1.371994    0.712871   -0.038886
  C      2.616876   -1.530107    0.009270
  F      2.362657   -2.839206   -0.139909
  F      3.456677   -1.154536   -0.975507
  F      3.295318   -1.379220    1.163963
  H     -0.186325    2.286217   -0.038086
  H     -0.192350   -2.293637    0.069163
  H      2.283578    1.307852   -0.088324

 Multiplicity           Mult            ....    1
 Number of Electrons    NEL             ....   76
 Basis Dimension        Dim             ....  145

ORBITAL ENERGIES
----------------

  NO   OCC          E(Eh)            E(eV)
   0   2.0000     -88.894069     -2418.9306
   1   2.0000     -24.720144      -672.6693
   2   2.0000     -24.714956      -672.5282
   3   2.0000     -24.712888      -672.4719
   4   2.0000     -10.435151      -283.9549
   5   2.0000     -10.235567      -278.5239
   6   2.0000     -10.230477      -278.3854
   7   2.0000     -10.219531      -278.0876
   8   2.0000     -10.213979      -277.9365
   9   2.0000      -7.989189      -217.3969
  10   2.0000      -5.957226      -162.1044
  11   2.0000      -5.953012      -161.9897
  12   2.0000      -5.950823      -161.9301
  13   2.0000      -1.295547       -35.2536
  14   2.0000      -1.206353       -32.8265
  15   2.0000      -1.199539       -32.6411
  16   2.0000      -0.901367       -24.5274
  17   2.0000      -0.782073       -21.2813
  18   2.0000      -0.743233       -20.2244
  19   2.0000      -0.687990       -18.7212
  20   2.0000      -0.611387       -16.6367
  21   2.0000      -0.602007       -16.3814
  22   2.0000      -0.588958       -16.0264
  23   2.0000      -0.572688       -15.5836
  24   2.0000      -0.552661       -15.0387
  25   2.0000      -0.478019       -13.0076
  26   2.0000      -0.467610       -12.7243
  27   2.0000      -0.466760       -12.7012
  28   2.0000      -0.434010       -11.8100
  29   2.0000      -0.431769       -11.7490
  30   2.0000      -0.428852       -11.6697
  31   2.0000      -0.409141       -11.1333
  32   2.0000      -0.406720       -11.0674
  33   2.0000      -0.398660       -10.8481
  34   2.0000      -0.395048       -10.7498
  35   2.0000      -0.362902        -9.8751
  36   2.0000      -0.275801        -7.5049
  37   2.0000      -0.263476        -7.1695
  38   0.0000      -0.038812        -1.0561
  39   0.0000       0.020718         0.5638
  40   0.0000       0.029884         0.8132
  41   0.0000       0.068544         1.8652
  42   0.0000       0.094795         2.5795

MULLIKEN ATOMIC CHARGES
-----------------------
   0 C :   -0.088897
   1 S :    0.119606
   2 C :   -0.102229
   3 C :   -0.102708
   4 C :    0.050071
   5 C :    0.551223
   6 F :   -0.167880
   7 F :   -0.175919
   8 F :   -0.173695
   9 H :    0.041488
  10 H :    0.041149
  11 H :    0.007792
Sum of atomic charges:    0.0000000

LOEWDIN ATOMIC CHARGES
----------------------
   0 C :   -0.182226
   1 S :    0.452046
   2 C :   -0.173087
   3 C :   -0.125158
   4 C :   -0.048378
   5 C :    0.173316
   6 F :   -0.059928
   7 F :   -0.068084
   8 F :   -0.069273
   9 H :    0.030002
  10 H :    0.033171
  11 H :    0.037599

  Mayer bond orders larger than 0.100000
B(  0-C ,  1-S ) :   1.1729 B(  0-C ,  4-C ) :   1.5642 B(  0-C ,  9-H ) :   0.9675
B(  1-S ,  2-C ) :   1.1844 B(  2-C ,  3-C ) :   1.5573 B(  2-C , 10-H ) :   0.9711
B(  3-C ,  4-C ) :   1.2613 B(  3-C ,  5-C ) :   0.9707 B(  4-C , 11-H ) :   0.9967
B(  5-C ,  6-F ) :   1.1517 B(  5-C ,  7-F ) :   1.1460 B(  5-C ,  8-F ) :   1.1575

Dispersion correction           -0.021661263
FINAL SINGLE POINT ENERGY      -889.595954637882

DIPOLE MOMENT
-------------
                                X             Y             Z
Electronic contribution:      5.89678      -5.66995       0.08492
Nuclear contribution   :     -6.63417       6.20298      -0.10019
                        -----------------------------------------
Total Dipole Moment    :     -0.73739       0.53304      -0.01527
                        -----------------------------------------
Magnitude (a.u.)       :      0.91000
Magnitude (Debye)      :      2.31304

Rotational constants in cm-1:     0.105094     0.029607     0.026282
Rotational constants in MHz :  3150.624339   887.595014   787.903244

                             ****ORCA TERMINATED NORMALLY****
TOTAL RUN TIME: 0 days 0 hours 5 minutes 54 seconds 425 msec
