                         Program Version 4.2.0 -  RELEASE  -
|  1> # ORCA input file
|  2> # SCF done        -49.205230632952          0.000503726787
|  3> ! B3LYP/G D3BJ Opt RIJCOSX def2-SVP def2/J
|  4> * xyz 0 1
|  5>    C       -1.99416        -0.25457        -0.03565
|  6>    C       -0.92079        -1.08655        -0.06063
|  7>    C        0.39254        -0.54206        -0.03845
|  8>    C        1.64526        -1.12859        -0.05254
|  9>    C        2.04738        -2.57019        -0.05267
| 10>    C        2.05835        -3.12546         1.38755
| 11>    N        0.71239        -3.20808         1.92713
| 12>    C        1.20206        -3.45370        -0.98152
| 13>    N        2.01901        -4.55912        -1.46861
| 14>    C        2.60962        -0.05184        -0.01106
| 15>    C        3.95505        -0.06042        -0.01327
| 16>    C        4.73896         1.19754         0.02435
| 17>    C        3.93275         2.44926         0.08290
| 18>    C        2.58602         2.44365         0.08095
| 19>    C        1.87680         1.22169         0.02997
| 20>    C        0.53154         0.91120         0.00953
| 21>    C       -0.61789         1.73431         0.03193
| 22>    C       -1.84855         1.15925         0.00939
| 23>    H       -2.99447        -0.66400        -0.05014
| 24>    H       -1.05774        -2.15551        -0.08900
| 25>    H        3.07533        -2.63144        -0.42584
| 26>    H        2.73092        -2.49146         1.99241
| 27>    H        2.47384        -4.13819         1.38124
| 28>    H        0.29317        -2.28375         1.94197
| 29>    H        0.73633        -3.55372         2.88020
| 30>    H        0.89240        -2.86812        -1.85096
| 31>    H        0.30686        -3.79011        -0.44168
| 32>    H        2.27059        -5.16457        -0.69392
| 33>    H        1.48776        -5.11888        -2.12733
| 34>    H        4.52093        -0.98228        -0.04980
| 35>    H        5.42617         1.16174         0.88045
| 36>    H        5.39203         1.22531        -0.85876
| 37>    H        4.48855         3.37405         0.12416
| 38>    H        2.03136         3.37035         0.12008
| 39>    H       -0.50151         2.80801         0.06748
| 40>    H       -2.74028         1.76936         0.02654
| 41> *
| 42>
| 43>                          ****END OF INPUT****
 Total Charge           Charge          ....    0
 Multiplicity           Mult            ....    1
 Number of Electrons    NEL             ....  128
Dispersion correction           -0.079645731
FINAL SINGLE POINT ENERGY      -729.534414260629
Dispersion correction            ... done
Dispersion correction           -0.078963436
FINAL SINGLE POINT ENERGY      -729.538964105060
Dispersion correction            ... done
Dispersion correction           -0.078914107
FINAL SINGLE POINT ENERGY      -729.539366672290
Dispersion correction            ... done
FINAL SINGLE POINT ENERGY      -729.539270759946
FINAL SINGLE POINT ENERGY      -729.539323167243
FINAL SINGLE POINT ENERGY      -729.539419323555
FINAL SINGLE POINT ENERGY      -729.539564887212
FINAL SINGLE POINT ENERGY      -729.539857587239
FINAL SINGLE POINT ENERGY      -729.539717032222
FINAL SINGLE POINT ENERGY      -729.539450523271
FINAL SINGLE POINT ENERGY      -729.540774457171
FINAL SINGLE POINT ENERGY      -729.540876973149
FINAL SINGLE POINT ENERGY      -729.540976366295
FINAL SINGLE POINT ENERGY      -729.541144238573
FINAL SINGLE POINT ENERGY      -729.541346235740
FINAL SINGLE POINT ENERGY      -729.541445397206
FINAL SINGLE POINT ENERGY      -729.541556929108
Dispersion correction            ... done
Dispersion correction           -0.078847433
FINAL SINGLE POINT ENERGY      -729.541573121466
Dispersion correction            ... done
Dispersion correction           -0.078839469
FINAL SINGLE POINT ENERGY      -729.541572035160
Dispersion correction            ... done
                    ***********************HURRAY********************

CARTESIAN COORDINATES (ANGSTROEM)
---------------------------------
  C     -1.967328   -0.292509    0.133066
  C     -0.867312   -1.106604    0.105942
  C      0.449108   -0.526593    0.078917
  C      1.723425   -1.094626    0.051608
  C      2.139219   -2.542486    0.059439
  C      1.917244   -3.250655    1.415356
  N      0.517747   -3.585584    1.677622
  C      1.534804   -3.327163   -1.126090
  N      1.830461   -4.753046   -1.023825
  C      2.659408    0.024702    0.004134
  C      4.013672    0.050612   -0.066470
  C      4.766748    1.337516   -0.132112
  C      3.942912    2.586604   -0.098141
  C      2.587653    2.545825   -0.029667
  C      1.898859    1.293085    0.016171
  C      0.554815    0.948614    0.064242
  C     -0.627274    1.751716    0.095469
  C     -1.853304    1.144561    0.131065
  H     -2.964913   -0.739272    0.154928
  H     -0.983924   -2.190859    0.111220
  H      3.233129   -2.573734   -0.081514
  H      2.386750   -2.626207    2.202734
  H      2.482067   -4.194932    1.378576
  H     -0.010785   -2.742610    1.903517
  H      0.452279   -4.184950    2.500016
  H      1.988138   -2.932735   -2.050476
  H      0.454593   -3.103676   -1.196666
  H      1.200718   -5.158671   -0.329122
  H      1.610356   -5.217683   -1.904334
  H      4.592289   -0.877661   -0.087012
  H      5.518945    1.352013    0.685064
  H      5.399324    1.325028   -1.045562
  H      4.472885    3.541462   -0.137039
  H      2.012273    3.474983   -0.012535
  H     -0.542011    2.841905    0.090972
  H     -2.764390    1.746740    0.156912

 Multiplicity           Mult            ....    1
 Number of Electrons    NEL             ....  128
 Basis Dimension        Dim             ....  342

ORBITAL ENERGIES
----------------

  NO   OCC          E(Eh)            E(eV)
   0   2.0000     -14.305486      -389.2721
   1   2.0000     -14.291960      -388.9040
   2   2.0000     -10.217480      -278.0318
   3   2.0000     -10.211826      -277.8779
   4   2.0000     -10.199977      -277.5555
   5   2.0000     -10.193919      -277.3906
   6   2.0000     -10.191606      -277.3277
   7   2.0000     -10.191078      -277.3133
   8   2.0000     -10.190316      -277.2926
   9   2.0000     -10.186152      -277.1793
  10   2.0000     -10.185484      -277.1611
  11   2.0000     -10.183684      -277.1121
  12   2.0000     -10.183587      -277.1095
  13   2.0000     -10.181787      -277.0605
  14   2.0000     -10.181237      -277.0455
  15   2.0000     -10.180437      -277.0238
  16   2.0000     -10.180084      -277.0142
  17   2.0000     -10.175416      -276.8871
  18   2.0000      -0.880582       -23.9618
  19   2.0000      -0.869670       -23.6649
  20   2.0000      -0.852507       -23.1979
  21   2.0000      -0.830055       -22.5869
  22   2.0000      -0.794530       -21.6203
  23   2.0000      -0.766655       -20.8618
  24   2.0000      -0.740474       -20.1493
  25   2.0000      -0.732364       -19.9286
  26   2.0000      -0.705052       -19.1854
  27   2.0000      -0.661380       -17.9971
  28   2.0000      -0.639919       -17.4131
  29   2.0000      -0.631795       -17.1920
  30   2.0000      -0.581392       -15.8205
  31   2.0000      -0.578236       -15.7346
  32   2.0000      -0.564306       -15.3555
  33   2.0000      -0.532992       -14.5034
  34   2.0000      -0.505783       -13.7630
  35   2.0000      -0.499777       -13.5996
  36   2.0000      -0.489354       -13.3160
  37   2.0000      -0.480397       -13.0723
  38   2.0000      -0.474075       -12.9002
  39   2.0000      -0.456014       -12.4088
  40   2.0000      -0.446822       -12.1587
  41   2.0000      -0.440012       -11.9733
  42   2.0000      -0.438568       -11.9340
  43   2.0000      -0.429282       -11.6814
  44   2.0000      -0.417917       -11.3721
  45   2.0000      -0.413578       -11.2540
  46   2.0000      -0.410139       -11.1605
  47   2.0000      -0.400236       -10.8910
  48   2.0000      -0.392242       -10.6734
  49   2.0000      -0.383194       -10.4272
  50   2.0000      -0.366615        -9.9761
  51   2.0000      -0.364045        -9.9062
  52   2.0000      -0.348984        -9.4963
  53   2.0000      -0.341209        -9.2848
  54   2.0000      -0.330987        -9.0066
  55   2.0000      -0.324938        -8.8420
  56   2.0000      -0.317278        -8.6336
  57   2.0000      -0.316178        -8.6036
  58   2.0000      -0.290763        -7.9121
  59   2.0000      -0.259158        -7.0520
  60   2.0000      -0.242401        -6.5961
  61   2.0000      -0.237626        -6.4661
  62   2.0000      -0.225872        -6.1463
  63   2.0000      -0.168778        -4.5927
  64   0.0000      -0.089773        -2.4428
  65   0.0000      -0.003508        -0.0954
  66   0.0000       0.010593         0.2882
  67   0.0000       0.045733         1.2445
  68   0.0000       0.050863         1.3841

MULLIKEN ATOMIC CHARGES
-----------------------
   0 C :    0.021646
   1 C :   -0.041731
   2 C :    0.005582
   3 C :   -0.025478
   4 C :   -0.015653
   5 C :    0.114778
   6 N :   -0.225912
   7 C :    0.133132
   8 N :   -0.217302
   9 C :    0.082680
  10 C :   -0.176931
  11 C :    0.173745
  12 C :   -0.102177
  13 C :    0.034930
  14 C :    0.001402
  15 C :    0.024997
  16 C :   -0.018966
  17 C :    0.021317
  18 H :   -0.026560
  19 H :   -0.019580
  20 H :   -0.032017
  21 H :   -0.015119
  22 H :   -0.002393
  23 H :    0.097995
  24 H :    0.091708
  25 H :   -0.015160
  26 H :   -0.010531
  27 H :    0.093154
  28 H :    0.083241
  29 H :   -0.006842
  30 H :    0.042120
  31 H :    0.041009
  32 H :   -0.012493
  33 H :   -0.040612
  34 H :   -0.033598
  35 H :   -0.024381
Sum of atomic charges:   -0.0000000

LOEWDIN ATOMIC CHARGES
----------------------
   0 C :   -0.029216
   1 C :   -0.036646
   2 C :   -0.018151
   3 C :   -0.046411
   4 C :   -0.039257
   5 C :    0.023190
   6 N :   -0.122504
   7 C :    0.028518
   8 N :   -0.123180
   9 C :   -0.014031
  10 C :    0.043432
  11 C :   -0.031776
  12 C :   -0.049224
  13 C :   -0.019709
  14 C :   -0.038461
  15 C :   -0.028884
  16 C :   -0.018375
  17 C :   -0.038764
  18 H :    0.023824
  19 H :    0.022523
  20 H :    0.025082
  21 H :   -0.000334
  22 H :    0.014916
  23 H :    0.054261
  24 H :    0.057018
  25 H :    0.015134
  26 H :    0.001295
  27 H :    0.050619
  28 H :    0.053348
  29 H :    0.027533
  30 H :    0.057451
  31 H :    0.058371
  32 H :    0.022556
  33 H :    0.027162
  34 H :    0.024975
  35 H :    0.023717

  Mayer bond orders larger than 0.100000
B(  0-C ,  1-C ) :   1.5754 B(  0-C , 17-C ) :   1.1512 B(  0-C , 18-H ) :   0.9775
B(  1-C ,  2-C ) :   1.1450 B(  1-C , 19-H ) :   0.9657 B(  2-C ,  3-C ) :   1.4607
B(  2-C , 15-C ) :   1.1232 B(  3-C ,  4-C ) :   1.0267 B(  3-C ,  9-C ) :   1.1354
B(  4-C ,  5-C ) :   1.0575 B(  4-C ,  7-C ) :   1.0181 B(  4-C , 20-H ) :   0.8636
B(  5-C ,  6-N ) :   1.0869 B(  5-C , 21-H ) :   0.9396 B(  5-C , 22-H ) :   0.9263
B(  6-N , 23-H ) :   0.9501 B(  6-N , 24-H ) :   0.9630 B(  7-C ,  8-N ) :   1.1127
B(  7-C , 25-H ) :   0.9375 B(  7-C , 26-H ) :   0.9431 B(  8-N , 27-H ) :   0.9572
B(  8-N , 28-H ) :   0.9626 B(  9-C , 10-C ) :   1.6418 B(  9-C , 14-C ) :   1.0474
B( 10-C , 11-C ) :   1.0139 B( 10-C , 29-H ) :   0.9647 B( 11-C , 12-C ) :   1.0385
B( 11-C , 30-H ) :   0.8827 B( 11-C , 31-H ) :   0.8788 B( 12-C , 13-C ) :   1.6832
B( 12-C , 32-H ) :   0.9669 B( 13-C , 14-C ) :   1.1590 B( 13-C , 33-H ) :   0.9825
B( 14-C , 15-C ) :   1.4030 B( 15-C , 16-C ) :   1.1715 B( 16-C , 17-C ) :   1.5631
B( 16-C , 34-H ) :   0.9857 B( 17-C , 35-H ) :   0.9781

Dispersion correction           -0.078838748
FINAL SINGLE POINT ENERGY      -729.541573533843

DIPOLE MOMENT
-------------
                                X             Y             Z
Electronic contribution:     -2.44808      10.76579      -0.50918
Nuclear contribution   :      2.93652     -10.66885       0.78351
                        -----------------------------------------
Total Dipole Moment    :      0.48844       0.09694       0.27433
                        -----------------------------------------
Magnitude (a.u.)       :      0.56853
Magnitude (Debye)      :      1.44509

Rotational constants in cm-1:     0.017717     0.012333     0.008086
Rotational constants in MHz :   531.151348   369.748268   242.406519

                             ****ORCA TERMINATED NORMALLY****
TOTAL RUN TIME: 0 days 1 hours 55 minutes 37 seconds 797 msec
