                         Program Version 4.2.0 -  RELEASE  -
|  1> # ORCA input file
|  2> # SCF done        -25.971349874046          0.000656337705
|  3> ! B3LYP/G D3BJ Opt RIJCOSX def2-SVP def2/J
|  4> * xyz 0 1
|  5>    N        1.13050         0.50846         0.01590
|  6>    C        2.52558         0.41543         0.01888
|  7>    C        3.39289         1.46075         0.00466
|  8>    S        5.03587         0.95015         0.09588
|  9>    C        4.55494        -0.70452         0.15030
| 10>    C        3.20059        -0.85096         0.11273
| 11>    N        2.48017        -2.02622         0.15222
| 12>    C        2.99711        -3.29667         0.14579
| 13>    C        2.27748        -4.39150         0.36821
| 14>    H        0.80868         1.45422        -0.13706
| 15>    H        0.68799        -0.13033        -0.63302
| 16>    H        3.16530         2.50658        -0.04483
| 17>    H        5.31112        -1.45805         0.22307
| 18>    H        1.50348        -1.93379         0.39212
| 19>    H        4.04915        -3.35139        -0.08984
| 20>    H        1.22761        -4.34196         0.60298
| 21>    H        2.72071        -5.36709         0.31946
| 22> *
| 23>
| 24>                          ****END OF INPUT****
 Total Charge           Charge          ....    0
 Multiplicity           Mult            ....    1
 Number of Electrons    NEL             ....   74
Dispersion correction           -0.031397332
FINAL SINGLE POINT ENERGY      -740.783509133311
Dispersion correction            ... done
Dispersion correction           -0.031261266
FINAL SINGLE POINT ENERGY      -740.786428480251
Dispersion correction            ... done
Dispersion correction           -0.031243446
FINAL SINGLE POINT ENERGY      -740.786977768359
Dispersion correction            ... done
FINAL SINGLE POINT ENERGY      -740.787272021443
FINAL SINGLE POINT ENERGY      -740.787333989596
FINAL SINGLE POINT ENERGY      -740.787342160715
FINAL SINGLE POINT ENERGY      -740.787350070455
FINAL SINGLE POINT ENERGY      -740.787346388760
FINAL SINGLE POINT ENERGY      -740.787325390826
Dispersion correction            ... done
Dispersion correction           -0.031288211
FINAL SINGLE POINT ENERGY      -740.787313539794
Dispersion correction            ... done
Dispersion correction           -0.031289812
FINAL SINGLE POINT ENERGY      -740.787307023504
Dispersion correction            ... done
                    ***********************HURRAY********************

CARTESIAN COORDINATES (ANGSTROEM)
---------------------------------
  N      1.123214    0.482586   -0.068145
  C      2.525533    0.430200    0.000216
  C      3.409638    1.478483    0.054861
  S      5.052608    0.935365    0.198284
  C      4.556277   -0.729145    0.193156
  C      3.189514   -0.850008    0.095687
  N      2.424320   -2.012185    0.090912
  C      2.937616   -3.293256    0.034737
  C      2.321799   -4.411183    0.452454
  H      0.758553    1.430625   -0.080744
  H      0.755317   -0.028936   -0.870569
  H      3.178443    2.540502   -0.011827
  H      5.288723   -1.520022    0.331551
  H      1.490489   -1.896605    0.475784
  H      3.926189   -3.344076   -0.431656
  H      1.338649   -4.386233    0.931310
  H      2.792285   -5.383002    0.301439

 Multiplicity           Mult            ....    1
 Number of Electrons    NEL             ....   74
 Basis Dimension        Dim             ....  170

ORBITAL ENERGIES
----------------

  NO   OCC          E(Eh)            E(eV)
   0   2.0000     -88.861055     -2418.0323
   1   2.0000     -14.353864      -390.5885
   2   2.0000     -14.340439      -390.2232
   3   2.0000     -10.224051      -278.2106
   4   2.0000     -10.222352      -278.1643
   5   2.0000     -10.221853      -278.1508
   6   2.0000     -10.199133      -277.5325
   7   2.0000     -10.196811      -277.4693
   8   2.0000     -10.167677      -276.6765
   9   2.0000      -7.955765      -216.4874
  10   2.0000      -5.924239      -161.2067
  11   2.0000      -5.920183      -161.0964
  12   2.0000      -5.916473      -160.9954
  13   2.0000      -0.948389       -25.8070
  14   2.0000      -0.903846       -24.5949
  15   2.0000      -0.848940       -23.1008
  16   2.0000      -0.751451       -20.4480
  17   2.0000      -0.701500       -19.0888
  18   2.0000      -0.692444       -18.8424
  19   2.0000      -0.613464       -16.6932
  20   2.0000      -0.564531       -15.3617
  21   2.0000      -0.558463       -15.1966
  22   2.0000      -0.531440       -14.4612
  23   2.0000      -0.503430       -13.6990
  24   2.0000      -0.479423       -13.0458
  25   2.0000      -0.456985       -12.4352
  26   2.0000      -0.419751       -11.4220
  27   2.0000      -0.408849       -11.1253
  28   2.0000      -0.399483       -10.8705
  29   2.0000      -0.388656       -10.5759
  30   2.0000      -0.369017       -10.0415
  31   2.0000      -0.354257        -9.6398
  32   2.0000      -0.342654        -9.3241
  33   2.0000      -0.308283        -8.3888
  34   2.0000      -0.256017        -6.9666
  35   2.0000      -0.213343        -5.8054
  36   2.0000      -0.188300        -5.1239
  37   0.0000      -0.008148        -0.2217
  38   0.0000       0.029359         0.7989
  39   0.0000       0.045191         1.2297
  40   0.0000       0.054302         1.4776
  41   0.0000       0.072913         1.9841

MULLIKEN ATOMIC CHARGES
-----------------------
   0 N :   -0.106070
   1 C :    0.057241
   2 C :   -0.188004
   3 S :    0.076726
   4 C :   -0.200873
   5 C :    0.117474
   6 N :   -0.094401
   7 C :    0.045312
   8 C :   -0.074409
   9 H :    0.102520
  10 H :    0.117590
  11 H :   -0.000685
  12 H :    0.010500
  13 H :    0.113668
  14 H :    0.006552
  15 H :    0.000826
  16 H :    0.016031
Sum of atomic charges:   -0.0000000

LOEWDIN ATOMIC CHARGES
----------------------
   0 N :   -0.061348
   1 C :   -0.042878
   2 C :   -0.240996
   3 S :    0.402512
   4 C :   -0.243067
   5 C :   -0.029027
   6 N :    0.004481
   7 C :    0.022979
   8 C :   -0.138660
   9 H :    0.071222
  10 H :    0.069655
  11 H :    0.018614
  12 H :    0.020369
  13 H :    0.078026
  14 H :    0.026153
  15 H :    0.016502
  16 H :    0.025464

  Mayer bond orders larger than 0.100000
B(  0-N ,  1-C ) :   1.1571 B(  0-N ,  9-H ) :   0.9500 B(  0-N , 10-H ) :   0.9405
B(  1-C ,  2-C ) :   1.5160 B(  1-C ,  5-C ) :   1.2515 B(  2-C ,  3-S ) :   1.1285
B(  2-C , 11-H ) :   0.9763 B(  3-S ,  4-C ) :   1.1189 B(  4-C ,  5-C ) :   1.5094
B(  4-C , 12-H ) :   0.9699 B(  5-C ,  6-N ) :   1.1291 B(  6-N ,  7-C ) :   1.1416
B(  6-N , 13-H ) :   0.9071 B(  7-C ,  8-C ) :   1.8897 B(  7-C , 14-H ) :   0.9541
B(  8-C , 15-H ) :   0.9549 B(  8-C , 16-H ) :   0.9489

Dispersion correction           -0.031289842
FINAL SINGLE POINT ENERGY      -740.787306761552

DIPOLE MOMENT
-------------
                                X             Y             Z
Electronic contribution:      5.60114       7.25516      -0.01596
Nuclear contribution   :     -6.31016      -6.89416      -0.32458
                        -----------------------------------------
Total Dipole Moment    :     -0.70902       0.36101      -0.34055
                        -----------------------------------------
Magnitude (a.u.)       :      0.86545
Magnitude (Debye)      :      2.19981

Rotational constants in cm-1:     0.084989     0.030223     0.022471
Rotational constants in MHz :  2547.897116   906.051339   673.669536

                             ****ORCA TERMINATED NORMALLY****
TOTAL RUN TIME: 0 days 0 hours 9 minutes 3 seconds 509 msec
