                         Program Version 4.2.0 -  RELEASE  -
|  1> # ORCA input file
|  2> # SCF done        -36.070470588040          0.000608135870
|  3> ! B3LYP/G D3BJ Opt RIJCOSX def2-SVP def2/J
|  4> * xyz 0 1
|  5>    C       -1.51407        -1.15452         0.59765
|  6>    S       -2.70310         0.07212         0.54777
|  7>    C       -1.56121         1.25878         0.09116
|  8>    C       -0.29639         0.73289        -0.02122
|  9>    C       -0.26654        -0.67335         0.27523
| 10>    C        0.95783        -1.38468         0.20913
| 11>    C        2.11069        -0.74533        -0.13958
| 12>    C        3.45206        -1.45276        -0.24744
| 13>    C        3.93007        -1.38428        -1.70501
| 14>    C        4.47120        -0.76095         0.66927
| 15>    C        3.37371        -2.92618         0.16186
| 16>    C        2.06141         0.65036        -0.43598
| 17>    C        0.91439         1.37392        -0.37927
| 18>    H       -1.79339        -2.15575         0.85824
| 19>    H       -1.87791         2.26978        -0.06931
| 20>    H        0.93204        -2.43648         0.44261
| 21>    H        4.04318        -0.35621        -2.03813
| 22>    H        3.21213        -1.87641        -2.35819
| 23>    H        4.89072        -1.88461        -1.80871
| 24>    H        4.64581         0.26913         0.37187
| 25>    H        5.42229        -1.28801         0.63258
| 26>    H        4.11413        -0.76402         1.69708
| 27>    H        2.69436        -3.47785        -0.48349
| 28>    H        3.04586        -3.02700         1.19409
| 29>    H        4.35940        -3.37914         0.07489
| 30>    H        2.97440         1.15268        -0.71687
| 31>    H        0.90678         2.43091        -0.60132
| 32> *
| 33>
| 34>                          ****END OF INPUT****
 Total Charge           Charge          ....    0
 Multiplicity           Mult            ....    1
 Number of Electrons    NEL             ....  102
Dispersion correction           -0.058354314
FINAL SINGLE POINT ENERGY      -863.504957706764
Dispersion correction            ... done
Dispersion correction           -0.057922627
FINAL SINGLE POINT ENERGY      -863.508585675148
Dispersion correction            ... done
Dispersion correction           -0.057863894
FINAL SINGLE POINT ENERGY      -863.508653813760
Dispersion correction            ... done
FINAL SINGLE POINT ENERGY      -863.508611316255
Dispersion correction            ... done
Dispersion correction           -0.057856919
FINAL SINGLE POINT ENERGY      -863.508654250668
Dispersion correction            ... done
Dispersion correction           -0.057861319
FINAL SINGLE POINT ENERGY      -863.508654006000
Dispersion correction            ... done
                    ***********************HURRAY********************

CARTESIAN COORDINATES (ANGSTROEM)
---------------------------------
  C     -1.555509   -1.174775    0.560973
  S     -2.744175    0.061932    0.495768
  C     -1.603518    1.274359    0.085140
  C     -0.321016    0.747708   -0.009615
  C     -0.289804   -0.675912    0.271552
  C      0.953980   -1.381787    0.214221
  C      2.119596   -0.733140   -0.119076
  C      3.467805   -1.454900   -0.240848
  C      3.926803   -1.409538   -1.714002
  C      4.518780   -0.759957    0.649716
  C      3.376408   -2.927549    0.185077
  C      2.065972    0.683172   -0.398189
  C      0.903962    1.403596   -0.343840
  H     -1.832733   -2.195417    0.817784
  H     -1.922616    2.302161   -0.075379
  H      0.947332   -2.447467    0.441124
  H      4.053803   -0.378103   -2.075423
  H      3.190590   -1.905651   -2.364579
  H      4.891808   -1.928932   -1.831553
  H      4.678160    0.289084    0.359770
  H      5.488137   -1.277809    0.569611
  H      4.208388   -0.773634    1.706361
  H      2.671988   -3.493022   -0.442883
  H      3.057025   -3.029091    1.233723
  H      4.362979   -3.405700    0.085843
  H      2.986792    1.201035   -0.672069
  H      0.898913    2.472376   -0.570296

 Multiplicity           Mult            ....    1
 Number of Electrons    NEL             ....  102
 Basis Dimension        Dim             ....  256

ORBITAL ENERGIES
----------------

  NO   OCC          E(Eh)            E(eV)
   0   2.0000     -88.881171     -2418.5796
   1   2.0000     -10.208073      -277.7758
   2   2.0000     -10.207465      -277.7592
   3   2.0000     -10.201710      -277.6026
   4   2.0000     -10.194413      -277.4041
   5   2.0000     -10.194234      -277.3992
   6   2.0000     -10.191464      -277.3238
   7   2.0000     -10.190697      -277.3030
   8   2.0000     -10.186716      -277.1946
   9   2.0000     -10.185317      -277.1566
  10   2.0000     -10.178334      -276.9666
  11   2.0000     -10.178146      -276.9614
  12   2.0000     -10.177303      -276.9385
  13   2.0000      -7.975888      -217.0350
  14   2.0000      -5.943606      -161.7337
  15   2.0000      -5.939473      -161.6213
  16   2.0000      -5.938220      -161.5872
  17   2.0000      -0.886353       -24.1189
  18   2.0000      -0.838525       -22.8174
  19   2.0000      -0.797432       -21.6992
  20   2.0000      -0.753350       -20.4997
  21   2.0000      -0.722341       -19.6559
  22   2.0000      -0.692989       -18.8572
  23   2.0000      -0.677465       -18.4347
  24   2.0000      -0.676696       -18.4138
  25   2.0000      -0.612436       -16.6652
  26   2.0000      -0.582794       -15.8586
  27   2.0000      -0.570605       -15.5270
  28   2.0000      -0.531967       -14.4756
  29   2.0000      -0.507352       -13.8058
  30   2.0000      -0.474466       -12.9109
  31   2.0000      -0.465176       -12.6581
  32   2.0000      -0.442025       -12.0281
  33   2.0000      -0.440014       -11.9734
  34   2.0000      -0.424791       -11.5591
  35   2.0000      -0.416891       -11.3442
  36   2.0000      -0.407998       -11.1022
  37   2.0000      -0.402101       -10.9417
  38   2.0000      -0.389724       -10.6049
  39   2.0000      -0.387951       -10.5567
  40   2.0000      -0.375363       -10.2142
  41   2.0000      -0.365143        -9.9361
  42   2.0000      -0.353664        -9.6237
  43   2.0000      -0.348133        -9.4732
  44   2.0000      -0.340701        -9.2709
  45   2.0000      -0.324480        -8.8295
  46   2.0000      -0.321645        -8.7524
  47   2.0000      -0.319557        -8.6956
  48   2.0000      -0.282046        -7.6749
  49   2.0000      -0.242664        -6.6032
  50   2.0000      -0.202025        -5.4974
  51   0.0000      -0.053833        -1.4649
  52   0.0000       0.021665         0.5895
  53   0.0000       0.028398         0.7728
  54   0.0000       0.050649         1.3782
  55   0.0000       0.054500         1.4830

MULLIKEN ATOMIC CHARGES
-----------------------
   0 C :   -0.149781
   1 S :    0.132305
   2 C :   -0.144528
   3 C :    0.098815
   4 C :    0.109765
   5 C :   -0.061580
   6 C :    0.091982
   7 C :   -0.268849
   8 C :    0.090167
   9 C :    0.078571
  10 C :    0.100773
  11 C :   -0.024141
  12 C :   -0.001777
  13 H :    0.012924
  14 H :    0.013434
  15 H :   -0.047958
  16 H :    0.000461
  17 H :    0.008152
  18 H :   -0.001631
  19 H :    0.001889
  20 H :   -0.000417
  21 H :    0.012063
  22 H :    0.008318
  23 H :    0.004853
  24 H :   -0.000463
  25 H :   -0.027751
  26 H :   -0.035598
Sum of atomic charges:    0.0000000

LOEWDIN ATOMIC CHARGES
----------------------
   0 C :   -0.215385
   1 S :    0.474875
   2 C :   -0.213057
   3 C :   -0.054503
   4 C :   -0.049325
   5 C :   -0.030248
   6 C :   -0.012988
   7 C :   -0.046664
   8 C :   -0.033260
   9 C :   -0.035056
  10 C :   -0.039428
  11 C :   -0.027792
  12 C :   -0.019615
  13 H :    0.022710
  14 H :    0.023207
  15 H :    0.023725
  16 H :    0.018525
  17 H :    0.023133
  18 H :    0.018944
  19 H :    0.018013
  20 H :    0.019644
  21 H :    0.023853
  22 H :    0.020009
  23 H :    0.020952
  24 H :    0.021599
  25 H :    0.021810
  26 H :    0.026321

  Mayer bond orders larger than 0.100000
B(  0-C ,  1-S ) :   1.1995 B(  0-C ,  2-C ) :   0.1192 B(  0-C ,  4-C ) :   1.4085
B(  0-C , 13-H ) :   0.9614 B(  1-S ,  2-C ) :   1.2038 B(  2-C ,  3-C ) :   1.4031
B(  2-C , 14-H ) :   0.9634 B(  3-C ,  4-C ) :   1.2039 B(  3-C , 12-C ) :   1.1710
B(  4-C ,  5-C ) :   1.1374 B(  5-C ,  6-C ) :   1.5884 B(  5-C , 15-H ) :   0.9822
B(  6-C ,  7-C ) :   0.9316 B(  6-C , 11-C ) :   1.1733 B(  7-C ,  8-C ) :   1.0370
B(  7-C ,  9-C ) :   1.0427 B(  7-C , 10-C ) :   1.0931 B(  8-C , 16-H ) :   0.9600
B(  8-C , 17-H ) :   0.9619 B(  8-C , 18-H ) :   0.9621 B(  9-C , 19-H ) :   0.9595
B(  9-C , 20-H ) :   0.9609 B(  9-C , 21-H ) :   0.9650 B( 10-C , 22-H ) :   0.9450
B( 10-C , 23-H ) :   0.9481 B( 10-C , 24-H ) :   0.9566 B( 11-C , 12-C ) :   1.5696
B( 11-C , 25-H ) :   0.9800 B( 12-C , 26-H ) :   0.9869

Dispersion correction           -0.057862301
FINAL SINGLE POINT ENERGY      -863.508649722881

DIPOLE MOMENT
-------------
                                X             Y             Z
Electronic contribution:    -24.18791       7.45302       2.81117
Nuclear contribution   :     24.34586      -7.49551      -2.84664
                        -----------------------------------------
Total Dipole Moment    :      0.15795      -0.04249      -0.03546
                        -----------------------------------------
Magnitude (a.u.)       :      0.16737
Magnitude (Debye)      :      0.42542

Rotational constants in cm-1:     0.061335     0.012670     0.011289
Rotational constants in MHz :  1838.763369   379.836531   338.426670

                             ****ORCA TERMINATED NORMALLY****
TOTAL RUN TIME: 0 days 0 hours 14 minutes 37 seconds 754 msec
