                         Program Version 4.2.0 -  RELEASE  -
|  1> # ORCA input file
|  2> # SCF done        -30.138538623316          0.000579187037
|  3> ! B3LYP/G D3BJ Opt RIJCOSX def2-SVP def2/J
|  4> * xyz 0 1
|  5>    C        1.55409        -0.77302        -2.49320
|  6>    N        2.81715        -0.72344        -2.44902
|  7>    N        3.45017        -0.75101        -1.28459
|  8>    C        4.82479        -0.68598        -1.19419
|  9>    C        5.62082        -0.61293        -2.33697
| 10>    C        6.99085        -0.54766        -2.21554
| 11>    C        7.61740        -0.54699        -0.96566
| 12>    C        6.80667        -0.62690         0.16874
| 13>    C        5.43513        -0.69610         0.06036
| 14>    C        9.06891        -0.46581        -0.90129
| 15>    C        9.81295        -0.32751         0.19034
| 16>    H        1.08714        -0.74785        -3.45970
| 17>    H        0.91649        -0.83895        -1.60900
| 18>    H        2.91537        -0.80633        -0.41508
| 19>    H        5.14262        -0.60920        -3.30315
| 20>    H        7.59747        -0.49098        -3.10838
| 21>    H        7.25450        -0.64100         1.15016
| 22>    H        4.82369        -0.75919         0.95037
| 23>    H        9.56230        -0.51265        -1.86499
| 24>    H        9.39206        -0.25892         1.17888
| 25>    H       10.88631        -0.27022         0.13227
| 26> *
| 27>
| 28>                          ****END OF INPUT****
 Total Charge           Charge          ....    0
 Multiplicity           Mult            ....    1
 Number of Electrons    NEL             ....   78
Dispersion correction           -0.037722777
FINAL SINGLE POINT ENERGY      -458.127090717307
Dispersion correction            ... done
Dispersion correction           -0.037418484
FINAL SINGLE POINT ENERGY      -458.130054408650
Dispersion correction            ... done
Dispersion correction           -0.037390227
FINAL SINGLE POINT ENERGY      -458.130155068374
Dispersion correction            ... done
FINAL SINGLE POINT ENERGY      -458.130190738039
Dispersion correction            ... done
Dispersion correction           -0.037390483
FINAL SINGLE POINT ENERGY      -458.130193713572
Dispersion correction            ... done
Dispersion correction           -0.037393845
FINAL SINGLE POINT ENERGY      -458.130192356035
Dispersion correction            ... done
                    ***********************HURRAY********************

CARTESIAN COORDINATES (ANGSTROEM)
---------------------------------
  C      1.512994   -0.844005   -2.488692
  N      2.787554   -0.748685   -2.462811
  N      3.424576   -0.708446   -1.294527
  C      4.811566   -0.639987   -1.214437
  C      5.619463   -0.582970   -2.361824
  C      7.002549   -0.519368   -2.225428
  C      7.634086   -0.509462   -0.967815
  C      6.804046   -0.566091    0.168783
  C      5.422470   -0.629836    0.053314
  C      9.098229   -0.440491   -0.889778
  C      9.858138   -0.426234    0.215634
  H      1.016098   -0.874131   -3.461741
  H      0.894697   -0.901291   -1.574829
  H      2.893996   -0.769760   -0.423919
  H      5.145487   -0.590273   -3.342371
  H      7.620215   -0.474278   -3.126788
  H      7.247260   -0.561153    1.166214
  H      4.802338   -0.676300    0.953110
  H      9.602912   -0.393479   -1.862063
  H      9.431089   -0.467446    1.221290
  H     10.947116   -0.368954    0.149039

 Multiplicity           Mult            ....    1
 Number of Electrons    NEL             ....   78
 Basis Dimension        Dim             ....  204

ORBITAL ENERGIES
----------------

  NO   OCC          E(Eh)            E(eV)
   0   2.0000     -14.391445      -391.6111
   1   2.0000     -14.372299      -391.0901
   2   2.0000     -10.234833      -278.5040
   3   2.0000     -10.221992      -278.1545
   4   2.0000     -10.192428      -277.3501
   5   2.0000     -10.191428      -277.3229
   6   2.0000     -10.189475      -277.2697
   7   2.0000     -10.188714      -277.2490
   8   2.0000     -10.187717      -277.2219
   9   2.0000     -10.183469      -277.1063
  10   2.0000     -10.178800      -276.9792
  11   2.0000      -1.025973       -27.9181
  12   2.0000      -0.870532       -23.6884
  13   2.0000      -0.827657       -22.5217
  14   2.0000      -0.767718       -20.8907
  15   2.0000      -0.741560       -20.1789
  16   2.0000      -0.708068       -19.2675
  17   2.0000      -0.654161       -17.8006
  18   2.0000      -0.617312       -16.7979
  19   2.0000      -0.596508       -16.2318
  20   2.0000      -0.551402       -15.0044
  21   2.0000      -0.545226       -14.8364
  22   2.0000      -0.524455       -14.2712
  23   2.0000      -0.483235       -13.1495
  24   2.0000      -0.457558       -12.4508
  25   2.0000      -0.449020       -12.2185
  26   2.0000      -0.439599       -11.9621
  27   2.0000      -0.433646       -11.8001
  28   2.0000      -0.422269       -11.4905
  29   2.0000      -0.413539       -11.2530
  30   2.0000      -0.383474       -10.4349
  31   2.0000      -0.372845       -10.1456
  32   2.0000      -0.351995        -9.5783
  33   2.0000      -0.339569        -9.2401
  34   2.0000      -0.313555        -8.5323
  35   2.0000      -0.289186        -7.8691
  36   2.0000      -0.259706        -7.0670
  37   2.0000      -0.257429        -7.0050
  38   2.0000      -0.197402        -5.3716
  39   0.0000      -0.038373        -1.0442
  40   0.0000      -0.007882        -0.2145
  41   0.0000       0.000966         0.0263
  42   0.0000       0.047024         1.2796
  43   0.0000       0.066947         1.8217

MULLIKEN ATOMIC CHARGES
-----------------------
   0 C :   -0.034195
   1 N :   -0.043827
   2 N :   -0.056935
   3 C :    0.148142
   4 C :   -0.022718
   5 C :   -0.017696
   6 C :    0.095720
   7 C :   -0.023218
   8 C :   -0.035411
   9 C :    0.008302
  10 C :   -0.038343
  11 H :    0.045057
  12 H :    0.003614
  13 H :    0.094661
  14 H :   -0.020980
  15 H :   -0.026987
  16 H :   -0.034766
  17 H :   -0.043302
  18 H :   -0.025508
  19 H :    0.006485
  20 H :    0.021907
Sum of atomic charges:   -0.0000000

LOEWDIN ATOMIC CHARGES
----------------------
   0 C :   -0.053545
   1 N :   -0.015847
   2 N :    0.052306
   3 C :    0.022220
   4 C :   -0.048047
   5 C :   -0.005926
   6 C :   -0.051922
   7 C :   -0.002908
   8 C :   -0.059020
   9 C :   -0.019833
  10 C :   -0.063973
  11 H :    0.022416
  12 H :   -0.006030
  13 H :    0.061232
  14 H :    0.029155
  15 H :    0.026150
  16 H :    0.025327
  17 H :    0.021129
  18 H :    0.025564
  19 H :    0.016886
  20 H :    0.024665

  Mayer bond orders larger than 0.100000
B(  0-C ,  1-N ) :   1.8807 B(  0-C ,  2-N ) :   0.1098 B(  0-C , 11-H ) :   0.9624
B(  0-C , 12-H ) :   0.9384 B(  1-N ,  2-N ) :   1.0789 B(  2-N ,  3-C ) :   1.1110
B(  2-N , 13-H ) :   0.9144 B(  3-C ,  4-C ) :   1.3530 B(  3-C ,  8-C ) :   1.2920
B(  4-C ,  5-C ) :   1.3632 B(  4-C , 14-H ) :   0.9867 B(  5-C ,  6-C ) :   1.3211
B(  5-C , 15-H ) :   0.9876 B(  6-C ,  7-C ) :   1.3252 B(  6-C ,  9-C ) :   1.0956
B(  7-C ,  8-C ) :   1.4245 B(  7-C , 16-H ) :   0.9824 B(  8-C , 17-H ) :   0.9860
B(  9-C , 10-C ) :   1.9168 B(  9-C , 18-H ) :   0.9605 B( 10-C , 19-H ) :   0.9438
B( 10-C , 20-H ) :   0.9467

Dispersion correction           -0.037394067
FINAL SINGLE POINT ENERGY      -458.130191214923

DIPOLE MOMENT
-------------
                                X             Y             Z
Electronic contribution:     -2.72488      -0.04198      -1.38447
Nuclear contribution   :      1.92423      -0.02373       1.85609
                        -----------------------------------------
Total Dipole Moment    :     -0.80065      -0.06571       0.47162
                        -----------------------------------------
Magnitude (a.u.)       :      0.93155
Magnitude (Debye)      :      2.36781

Rotational constants in cm-1:     0.155383     0.016509     0.014924
Rotational constants in MHz :  4658.274240   494.917995   447.412926

                             ****ORCA TERMINATED NORMALLY****
TOTAL RUN TIME: 0 days 0 hours 8 minutes 17 seconds 351 msec
