                         Program Version 4.2.0 -  RELEASE  -
|  1> # ORCA input file
|  2> # SCF done        -21.429587599437          0.000311013228
|  3> ! B3LYP/G D3BJ Opt RIJCOSX def2-SVP def2/J
|  4> * xyz 0 1
|  5>    C        0.66686         1.25146         0.07296
|  6>    C        1.41878         0.09163         0.04102
|  7>    C        0.77792        -1.14552        -0.05649
|  8>    C       -0.61984        -1.12440        -0.09353
|  9>    N       -1.34123        -0.02178        -0.06305
| 10>    C       -0.71449         1.14070         0.01172
| 11>    C        1.56476        -2.37076        -0.10491
| 12>    C        1.11950        -3.57083        -0.45549
| 13>    H        1.13962         2.21916         0.14377
| 14>    H        2.49892         0.13565         0.08353
| 15>    H       -1.18866        -2.04319        -0.13857
| 16>    H       -1.35077         2.01571         0.02808
| 17>    H        2.60916        -2.24682         0.15630
| 18>    H        0.09840        -3.74722        -0.74692
| 19>    H        1.77198        -4.42694        -0.47248
| 20> *
| 21>
| 22>                          ****END OF INPUT****
 Total Charge           Charge          ....    0
 Multiplicity           Mult            ....    1
 Number of Electrons    NEL             ....   56
Dispersion correction           -0.025906035
FINAL SINGLE POINT ENERGY      -325.472977818896
Dispersion correction            ... done
Dispersion correction           -0.025730083
FINAL SINGLE POINT ENERGY      -325.475187961312
Dispersion correction            ... done
Dispersion correction           -0.025708434
FINAL SINGLE POINT ENERGY      -325.475254910998
Dispersion correction            ... done
FINAL SINGLE POINT ENERGY      -325.475299465951
FINAL SINGLE POINT ENERGY      -325.475327932346
FINAL SINGLE POINT ENERGY      -325.475356482105
FINAL SINGLE POINT ENERGY      -325.475378937246
Dispersion correction            ... done
Dispersion correction           -0.025703442
FINAL SINGLE POINT ENERGY      -325.475393520603
Dispersion correction            ... done
Dispersion correction           -0.025702548
FINAL SINGLE POINT ENERGY      -325.475398773134
Dispersion correction            ... done
                    ***********************HURRAY********************

CARTESIAN COORDINATES (ANGSTROEM)
---------------------------------
  C      0.662919    1.268947    0.126395
  C      1.417820    0.099612    0.056551
  C      0.774463   -1.137241   -0.110373
  C     -0.633726   -1.107848   -0.191632
  N     -1.362273    0.002895   -0.128123
  C     -0.726604    1.169193    0.027229
  C      1.568617   -2.371552   -0.190016
  C      1.119671   -3.622933   -0.364934
  H      1.141463    2.241250    0.262034
  H      2.508430    0.135628    0.134965
  H     -1.191821   -2.042038   -0.316395
  H     -1.353875    2.066034    0.079168
  H      2.650397   -2.220181   -0.091617
  H      0.058944   -3.862040   -0.477410
  H      1.816486   -4.462873   -0.409902

 Multiplicity           Mult            ....    1
 Number of Electrons    NEL             ....   56
 Basis Dimension        Dim             ....  147

ORBITAL ENERGIES
----------------

  NO   OCC          E(Eh)            E(eV)
   0   2.0000     -14.323605      -389.7651
   1   2.0000     -10.225722      -278.2560
   2   2.0000     -10.224894      -278.2335
   3   2.0000     -10.211880      -277.8794
   4   2.0000     -10.209468      -277.8138
   5   2.0000     -10.205525      -277.7064
   6   2.0000     -10.203242      -277.6443
   7   2.0000     -10.197155      -277.4787
   8   2.0000      -0.938191       -25.5295
   9   2.0000      -0.819501       -22.2997
  10   2.0000      -0.779957       -21.2237
  11   2.0000      -0.734871       -19.9969
  12   2.0000      -0.643680       -17.5154
  13   2.0000      -0.626296       -17.0424
  14   2.0000      -0.572268       -15.5722
  15   2.0000      -0.523372       -14.2417
  16   2.0000      -0.497474       -13.5370
  17   2.0000      -0.469802       -12.7840
  18   2.0000      -0.450121       -12.2484
  19   2.0000      -0.429657       -11.6916
  20   2.0000      -0.408795       -11.1239
  21   2.0000      -0.407599       -11.0913
  22   2.0000      -0.375281       -10.2119
  23   2.0000      -0.368024       -10.0144
  24   2.0000      -0.326506        -8.8847
  25   2.0000      -0.288131        -7.8404
  26   2.0000      -0.255474        -6.9518
  27   2.0000      -0.242690        -6.6039
  28   0.0000      -0.052479        -1.4280
  29   0.0000      -0.030263        -0.8235
  30   0.0000       0.038184         1.0390
  31   0.0000       0.059573         1.6211
  32   0.0000       0.078522         2.1367

MULLIKEN ATOMIC CHARGES
-----------------------
   0 C :    0.011043
   1 C :    0.007425
   2 C :    0.039529
   3 C :    0.014918
   4 N :   -0.097481
   5 C :    0.037564
   6 C :   -0.004220
   7 C :   -0.018246
   8 H :   -0.010886
   9 H :   -0.008458
  10 H :   -0.008813
  11 H :    0.002345
  12 H :   -0.012340
  13 H :    0.019853
  14 H :    0.027766
Sum of atomic charges:   -0.0000000

LOEWDIN ATOMIC CHARGES
----------------------
   0 C :   -0.042882
   1 C :    0.003079
   2 C :   -0.047645
   3 C :    0.031392
   4 N :   -0.078898
   5 C :    0.018601
   6 C :   -0.024787
   7 C :   -0.038280
   8 H :    0.030721
   9 H :    0.029642
  10 H :    0.018460
  11 H :    0.020570
  12 H :    0.028284
  13 H :    0.022900
  14 H :    0.028843

  Mayer bond orders larger than 0.100000
B(  0-C ,  1-C ) :   1.3998 B(  0-C ,  5-C ) :   1.3847 B(  0-C ,  8-H ) :   0.9703
B(  1-C ,  2-C ) :   1.3748 B(  1-C ,  9-H ) :   0.9844 B(  2-C ,  3-C ) :   1.3255
B(  2-C ,  6-C ) :   1.0745 B(  3-C ,  4-N ) :   1.5680 B(  3-C , 10-H ) :   0.9750
B(  4-N ,  5-C ) :   1.5106 B(  5-C , 11-H ) :   0.9744 B(  6-C ,  7-C ) :   1.9338
B(  6-C , 12-H ) :   0.9612 B(  7-C , 13-H ) :   0.9473 B(  7-C , 14-H ) :   0.9454

Dispersion correction           -0.025701440
FINAL SINGLE POINT ENERGY      -325.475398952713

DIPOLE MOMENT
-------------
                                X             Y             Z
Electronic contribution:     -2.15888       2.84434       0.17279
Nuclear contribution   :      2.97158      -2.84877      -0.11977
                        -----------------------------------------
Total Dipole Moment    :      0.81270      -0.00443       0.05302
                        -----------------------------------------
Magnitude (a.u.)       :      0.81444
Magnitude (Debye)      :      2.07014

Rotational constants in cm-1:     0.176174     0.052197     0.040268
Rotational constants in MHz :  5281.576398  1564.823829  1207.195579

                             ****ORCA TERMINATED NORMALLY****
TOTAL RUN TIME: 0 days 0 hours 5 minutes 58 seconds 455 msec
