                         Program Version 4.2.0 -  RELEASE  -
|  1> # ORCA input file
|  2> # SCF done        -29.501607907803          0.000499127255
|  3> ! B3LYP/G D3BJ Opt RIJCOSX def2-SVP def2/J
|  4> * xyz 0 1
|  5>    C       -1.32504        -1.09154         0.00066
|  6>    O       -2.10379         0.00576         0.00093
|  7>    C       -0.01848        -0.71473         0.00037
|  8>    C        1.37667        -1.18546        -0.00025
|  9>    O        1.83980        -2.29216        -0.00051
| 10>    N        2.11793        -0.00563        -0.00039
| 11>    C        1.38307         1.17819         0.00019
| 12>    O        1.85218         2.28236         0.00034
| 13>    C       -0.01463         0.71503         0.00065
| 14>    C       -1.31914         1.09884         0.00113
| 15>    H       -1.81104        -2.04682         0.00060
| 16>    H        3.12864        -0.00841        -0.00067
| 17>    H       -1.80000         2.05671         0.00149
| 18> *
| 19>
| 20>                          ****END OF INPUT****
 Total Charge           Charge          ....    0
 Multiplicity           Mult            ....    1
 Number of Electrons    NEL             ....   70
Dispersion correction           -0.023638585
FINAL SINGLE POINT ENERGY      -510.503992718933
Dispersion correction            ... done
Dispersion correction           -0.023667790
FINAL SINGLE POINT ENERGY      -510.505624637645
Dispersion correction            ... done
Dispersion correction           -0.023674962
FINAL SINGLE POINT ENERGY      -510.505786681130
Dispersion correction            ... done
FINAL SINGLE POINT ENERGY      -510.505846134490
Dispersion correction            ... done
Dispersion correction           -0.023677854
FINAL SINGLE POINT ENERGY      -510.505851256643
Dispersion correction            ... done
Dispersion correction           -0.023677176
FINAL SINGLE POINT ENERGY      -510.505849734298
Dispersion correction            ... done
                    ***********************HURRAY********************

CARTESIAN COORDINATES (ANGSTROEM)
---------------------------------
  C     -1.324668   -1.106515    0.000704
  O     -2.112137    0.005777    0.001219
  C     -0.020343   -0.714881    0.000253
  C      1.386165   -1.196751   -0.000471
  O      1.842346   -2.311738   -0.000764
  N      2.137981   -0.005694   -0.000204
  C      1.392576    1.189372    0.000095
  O      1.854957    2.301752    0.000382
  C     -0.016518    0.715187    0.000512
  C     -1.318714    1.113837    0.001042
  H     -1.839696   -2.062505    0.000773
  H      3.152840   -0.008289   -0.000361
  H     -1.828620    2.072587    0.001360

 Multiplicity           Mult            ....    1
 Number of Electrons    NEL             ....   70
 Basis Dimension        Dim             ....  155

ORBITAL ENERGIES
----------------

  NO   OCC          E(Eh)            E(eV)
   0   2.0000     -19.240268      -523.5543
   1   2.0000     -19.137921      -520.7693
   2   2.0000     -19.137912      -520.7691
   3   2.0000     -14.383568      -391.3968
   4   2.0000     -10.325586      -280.9735
   5   2.0000     -10.325475      -280.9705
   6   2.0000     -10.282625      -279.8045
   7   2.0000     -10.282617      -279.8042
   8   2.0000     -10.220626      -278.1174
   9   2.0000     -10.220408      -278.1114
  10   2.0000      -1.140998       -31.0481
  11   2.0000      -1.069164       -29.0934
  12   2.0000      -1.052532       -28.6409
  13   2.0000      -0.955278       -25.9944
  14   2.0000      -0.837968       -22.8023
  15   2.0000      -0.782442       -21.2913
  16   2.0000      -0.686442       -18.6790
  17   2.0000      -0.685019       -18.6403
  18   2.0000      -0.615793       -16.7566
  19   2.0000      -0.591921       -16.1070
  20   2.0000      -0.522934       -14.2297
  21   2.0000      -0.518620       -14.1124
  22   2.0000      -0.501705       -13.6521
  23   2.0000      -0.482593       -13.1320
  24   2.0000      -0.477091       -12.9823
  25   2.0000      -0.465455       -12.6657
  26   2.0000      -0.446016       -12.1367
  27   2.0000      -0.431184       -11.7331
  28   2.0000      -0.412181       -11.2160
  29   2.0000      -0.407241       -11.0816
  30   2.0000      -0.318259        -8.6603
  31   2.0000      -0.303537        -8.2597
  32   2.0000      -0.300878        -8.1873
  33   2.0000      -0.280264        -7.6264
  34   2.0000      -0.274397        -7.4667
  35   0.0000      -0.074139        -2.0174
  36   0.0000      -0.048622        -1.3231
  37   0.0000       0.067074         1.8252
  38   0.0000       0.075031         2.0417
  39   0.0000       0.077088         2.0977

MULLIKEN ATOMIC CHARGES
-----------------------
   0 C :    0.079176
   1 O :   -0.200541
   2 C :   -0.040778
   3 C :    0.205234
   4 O :   -0.152478
   5 N :   -0.183355
   6 C :    0.205355
   7 O :   -0.152512
   8 C :   -0.040825
   9 C :    0.079246
  10 H :    0.032619
  11 H :    0.136259
  12 H :    0.032600
Sum of atomic charges:    0.0000000

LOEWDIN ATOMIC CHARGES
----------------------
   0 C :    0.081010
   1 O :    0.016729
   2 C :   -0.102241
   3 C :    0.087871
   4 O :   -0.153017
   5 N :   -0.009458
   6 C :    0.087862
   7 O :   -0.152997
   8 C :   -0.102250
   9 C :    0.081018
  10 H :    0.036390
  11 H :    0.092690
  12 H :    0.036393

  Mayer bond orders larger than 0.100000
B(  0-C ,  1-O ) :   1.1471 B(  0-C ,  2-C ) :   1.5248 B(  0-C , 10-H ) :   1.0052
B(  1-O ,  9-C ) :   1.1470 B(  2-C ,  3-C ) :   0.8765 B(  2-C ,  8-C ) :   1.2593
B(  3-C ,  4-O ) :   2.2321 B(  3-C ,  5-N ) :   1.0585 B(  5-N ,  6-C ) :   1.0584
B(  5-N , 11-H ) :   0.9156 B(  6-C ,  7-O ) :   2.2321 B(  6-C ,  8-C ) :   0.8766
B(  8-C ,  9-C ) :   1.5248 B(  9-C , 12-H ) :   1.0052

Dispersion correction           -0.023676897
FINAL SINGLE POINT ENERGY      -510.505849800731

DIPOLE MOMENT
-------------
                                X             Y             Z
Electronic contribution:      0.78559      -0.00211      -0.00066
Nuclear contribution   :     -1.61784       0.00456       0.00088
                        -----------------------------------------
Total Dipole Moment    :     -0.83224       0.00245       0.00022
                        -----------------------------------------
Magnitude (a.u.)       :      0.83225
Magnitude (Debye)      :      2.11540

Rotational constants in cm-1:     0.066117     0.051545     0.028964
Rotational constants in MHz :  1982.152633  1545.276161   868.330277

                             ****ORCA TERMINATED NORMALLY****
TOTAL RUN TIME: 0 days 0 hours 4 minutes 29 seconds 424 msec
