                         Program Version 4.2.0 -  RELEASE  -
|  1> # ORCA input file
|  2> # SCF done        -26.290738842808          0.000331210003
|  3> ! B3LYP/G D3BJ Opt RIJCOSX def2-SVP def2/J
|  4> * xyz 0 1
|  5>    C        0.38970         2.18500         0.53428
|  6>    S        1.94021         1.20105         0.70993
|  7>    C        0.70811         0.06438         0.24845
|  8>    C       -0.33593         0.92050         0.16381
|  9>    C       -1.72984         0.68964        -0.16540
| 10>    O       -2.15573        -0.40381        -0.47558
| 11>    C       -2.62771         1.91490        -0.04774
| 12>    C       -2.92300         2.15613         1.40141
| 13>    C       -2.60136         3.25424         2.05946
| 14>    H        0.47913         2.93222        -0.24987
| 15>    H        0.09232         2.64077         1.47450
| 16>    H        0.81932        -0.99161         0.10037
| 17>    H       -3.55825         1.70107        -0.57768
| 18>    H       -2.14235         2.78616        -0.48871
| 19>    H       -3.42741         1.34146         1.90350
| 20>    H       -2.10675         4.08375         1.57924
| 21>    H       -2.83644         3.38022         3.10232
| 22> *
| 23>
| 24>                          ****END OF INPUT****
 Total Charge           Charge          ....    0
 Multiplicity           Mult            ....    1
 Number of Electrons    NEL             ....   74
Dispersion correction           -0.031129022
FINAL SINGLE POINT ENERGY      -744.566852920435
Dispersion correction            ... done
Dispersion correction           -0.030506058
FINAL SINGLE POINT ENERGY      -744.569508104918
Dispersion correction            ... done
Dispersion correction           -0.030552914
FINAL SINGLE POINT ENERGY      -744.569583855599
Dispersion correction            ... done
FINAL SINGLE POINT ENERGY      -744.569568995874
FINAL SINGLE POINT ENERGY      -744.569591364109
FINAL SINGLE POINT ENERGY      -744.569575454863
FINAL SINGLE POINT ENERGY      -744.569585319203
Dispersion correction            ... done
Dispersion correction           -0.030682836
FINAL SINGLE POINT ENERGY      -744.569604871691
Dispersion correction            ... done
Dispersion correction           -0.030681652
FINAL SINGLE POINT ENERGY      -744.569614254695
Dispersion correction            ... done
                    ***********************HURRAY********************

CARTESIAN COORDINATES (ANGSTROEM)
---------------------------------
  C      0.414296    2.147611    0.673355
  S      2.019780    1.180583    0.627463
  C      0.756481    0.066324    0.109973
  C     -0.307111    0.905792    0.198004
  C     -1.718384    0.654604   -0.120381
  O     -2.121622   -0.452188   -0.430848
  C     -2.661371    1.858590   -0.030277
  C     -2.965810    2.206721    1.401674
  C     -2.631037    3.353230    2.001235
  H      0.439434    2.998087   -0.023363
  H      0.170110    2.491455    1.687451
  H      0.853470   -0.975240   -0.201014
  H     -3.581068    1.571792   -0.562816
  H     -2.209491    2.725293   -0.540653
  H     -3.487072    1.428514    1.972750
  H     -2.109037    4.150243    1.460873
  H     -2.877548    3.544660    3.048864

 Multiplicity           Mult            ....    1
 Number of Electrons    NEL             ....   74
 Basis Dimension        Dim             ....  170

ORBITAL ENERGIES
----------------

  NO   OCC          E(Eh)            E(eV)
   0   2.0000     -88.865934     -2418.1650
   1   2.0000     -19.118274      -520.2347
   2   2.0000     -10.273993      -279.5696
   3   2.0000     -10.238912      -278.6150
   4   2.0000     -10.238513      -278.6041
   5   2.0000     -10.208040      -277.7749
   6   2.0000     -10.205064      -277.6939
   7   2.0000     -10.200823      -277.5785
   8   2.0000     -10.196511      -277.4612
   9   2.0000      -7.961350      -216.6393
  10   2.0000      -5.929838      -161.3591
  11   2.0000      -5.927012      -161.2822
  12   2.0000      -5.920423      -161.1029
  13   2.0000      -1.024595       -27.8806
  14   2.0000      -0.886416       -24.1206
  15   2.0000      -0.803810       -21.8728
  16   2.0000      -0.726860       -19.7789
  17   2.0000      -0.692002       -18.8303
  18   2.0000      -0.684503       -18.6263
  19   2.0000      -0.589991       -16.0545
  20   2.0000      -0.562533       -15.3073
  21   2.0000      -0.536248       -14.5921
  22   2.0000      -0.498906       -13.5759
  23   2.0000      -0.472259       -12.8508
  24   2.0000      -0.458474       -12.4757
  25   2.0000      -0.448693       -12.2096
  26   2.0000      -0.442753       -12.0479
  27   2.0000      -0.405289       -11.0285
  28   2.0000      -0.394024       -10.7219
  29   2.0000      -0.385946       -10.5021
  30   2.0000      -0.369921       -10.0661
  31   2.0000      -0.354986        -9.6597
  32   2.0000      -0.346128        -9.4186
  33   2.0000      -0.317926        -8.6512
  34   2.0000      -0.285122        -7.7586
  35   2.0000      -0.245653        -6.6846
  36   2.0000      -0.233048        -6.3416
  37   0.0000      -0.067179        -1.8280
  38   0.0000      -0.010593        -0.2882
  39   0.0000       0.001359         0.0370
  40   0.0000       0.051524         1.4020
  41   0.0000       0.056211         1.5296

MULLIKEN ATOMIC CHARGES
-----------------------
   0 C :    0.065719
   1 S :   -0.020377
   2 C :   -0.015329
   3 C :   -0.137620
   4 C :    0.034530
   5 O :   -0.197941
   6 C :    0.133852
   7 C :   -0.092284
   8 C :   -0.022096
   9 H :    0.066252
  10 H :    0.073639
  11 H :    0.033309
  12 H :    0.016415
  13 H :    0.004506
  14 H :    0.015526
  15 H :    0.015327
  16 H :    0.026570
Sum of atomic charges:    0.0000000

LOEWDIN ATOMIC CHARGES
----------------------
   0 C :   -0.071595
   1 S :    0.270923
   2 C :   -0.077822
   3 C :   -0.141104
   4 C :    0.064724
   5 O :   -0.162309
   6 C :   -0.051175
   7 C :   -0.017856
   8 C :   -0.060578
   9 H :    0.032512
  10 H :    0.034442
  11 H :    0.029252
  12 H :    0.042054
  13 H :    0.031399
  14 H :    0.030813
  15 H :    0.019401
  16 H :    0.026917

  Mayer bond orders larger than 0.100000
B(  0-C ,  1-S ) :   0.9896 B(  0-C ,  3-C ) :   1.0499 B(  0-C ,  9-H ) :   0.9250
B(  0-C , 10-H ) :   0.9215 B(  1-S ,  2-C ) :   1.0962 B(  1-S ,  3-C ) :   0.1156
B(  2-C ,  3-C ) :   1.6483 B(  2-C , 11-H ) :   0.9967 B(  3-C ,  4-C ) :   1.0038
B(  4-C ,  5-O ) :   2.1661 B(  4-C ,  6-C ) :   0.9949 B(  6-C ,  7-C ) :   1.0568
B(  6-C , 12-H ) :   0.8917 B(  6-C , 13-H ) :   0.9241 B(  7-C ,  8-C ) :   1.9919
B(  7-C , 14-H ) :   0.9583 B(  8-C , 15-H ) :   0.9535 B(  8-C , 16-H ) :   0.9478

Dispersion correction           -0.030684477
FINAL SINGLE POINT ENERGY      -744.569619333974

DIPOLE MOMENT
-------------
                                X             Y             Z
Electronic contribution:      7.50774      -6.04549      -2.31821
Nuclear contribution   :     -7.20794       6.99999       2.60246
                        -----------------------------------------
Total Dipole Moment    :      0.29980       0.95450       0.28425
                        -----------------------------------------
Magnitude (a.u.)       :      1.04007
Magnitude (Debye)      :      2.64365

Rotational constants in cm-1:     0.073170     0.030921     0.022924
Rotational constants in MHz :  2193.570261   926.973325   687.251821

                             ****ORCA TERMINATED NORMALLY****
TOTAL RUN TIME: 0 days 0 hours 8 minutes 25 seconds 961 msec
