                         Program Version 4.2.0 -  RELEASE  -
|  1> # ORCA input file
|  2> # SCF done        -43.774120642025          0.000765273691
|  3> ! B3LYP/G D3BJ Opt RIJCOSX def2-SVP def2/J
|  4> * xyz 0 1
|  5>    C       -1.59639        -1.15532         0.15800
|  6>    S       -2.73152         0.11132         0.24025
|  7>    C       -1.52532         1.30905         0.15527
|  8>    C       -0.26913         0.75812         0.06501
|  9>    C       -0.30303        -0.68624         0.06631
| 10>    C        0.93340        -1.38206        -0.02270
| 11>    C        1.04293        -2.88123        -0.03242
| 12>    F       -0.11719        -3.54147         0.05467
| 13>    F        1.64034        -3.32349        -1.15586
| 14>    F        1.80237        -3.32554         0.98753
| 15>    C        2.11186        -0.68658        -0.10652
| 16>    C        2.14249         0.71940        -0.10770
| 17>    C        0.97831         1.44152        -0.02406
| 18>    C        0.99304         2.85368        -0.02555
| 19>    N        0.99850         3.99990        -0.02137
| 20>    H       -1.94234        -2.16763         0.18158
| 21>    H       -1.78281         2.34909         0.17462
| 22>    H        3.04312        -1.22863        -0.17370
| 23>    H        3.09137         1.22847        -0.17522
| 24> *
| 25>
| 26>                          ****END OF INPUT****
 Total Charge           Charge          ....    0
 Multiplicity           Mult            ....    1
 Number of Electrons    NEL             ....  114
Dispersion correction           -0.045265967
FINAL SINGLE POINT ENERGY     -1135.308509432924
Dispersion correction            ... done
Dispersion correction           -0.045079426
FINAL SINGLE POINT ENERGY     -1135.311534433528
Dispersion correction            ... done
Dispersion correction           -0.045039910
FINAL SINGLE POINT ENERGY     -1135.311651682513
Dispersion correction            ... done
FINAL SINGLE POINT ENERGY     -1135.311677128482
FINAL SINGLE POINT ENERGY     -1135.311859180254
FINAL SINGLE POINT ENERGY     -1135.312066259434
FINAL SINGLE POINT ENERGY     -1135.312378705393
FINAL SINGLE POINT ENERGY     -1135.310280583612
FINAL SINGLE POINT ENERGY     -1135.311657093538
FINAL SINGLE POINT ENERGY     -1135.312805878402
FINAL SINGLE POINT ENERGY     -1135.315079954642
FINAL SINGLE POINT ENERGY     -1135.315098709566
FINAL SINGLE POINT ENERGY     -1135.314956199988
FINAL SINGLE POINT ENERGY     -1135.315197828271
FINAL SINGLE POINT ENERGY     -1135.315254366179
FINAL SINGLE POINT ENERGY     -1135.315260253850
FINAL SINGLE POINT ENERGY     -1135.315263974659
Dispersion correction            ... done
Dispersion correction           -0.045256871
FINAL SINGLE POINT ENERGY     -1135.315268083275
Dispersion correction            ... done
Dispersion correction           -0.045255261
FINAL SINGLE POINT ENERGY     -1135.315272532519
Dispersion correction            ... done
                    ***********************HURRAY********************

CARTESIAN COORDINATES (ANGSTROEM)
---------------------------------
  C     -1.548332   -1.204703   -0.026204
  S     -2.713679    0.047499   -0.041352
  C     -1.538693    1.291127   -0.011545
  C     -0.255459    0.762284    0.009819
  C     -0.256459   -0.689691    0.000605
  C      0.995377   -1.388120    0.015045
  C      0.994702   -2.895540    0.003138
  F      0.363304   -3.397870    1.082996
  F      0.352020   -3.378420   -1.079106
  F      2.232735   -3.402865   -0.008805
  C      2.171778   -0.677686    0.037462
  C      2.178778    0.746892    0.048984
  C      0.999864    1.465073    0.036357
  C      0.998854    2.896680    0.048482
  N      0.962085    4.057306    0.055768
  H     -1.853157   -2.248090   -0.039223
  H     -1.827336    2.340399   -0.009490
  H      3.122561   -1.210506    0.046840
  H      3.131059    1.278590    0.068370

 Multiplicity           Mult            ....    1
 Number of Electrons    NEL             ....  114
 Basis Dimension        Dim             ....  234

ORBITAL ENERGIES
----------------

  NO   OCC          E(Eh)            E(eV)
   0   2.0000     -88.913537     -2419.4603
   1   2.0000     -24.734576      -673.0620
   2   2.0000     -24.728572      -672.8987
   3   2.0000     -24.728346      -672.8925
   4   2.0000     -14.341036      -390.2394
   5   2.0000     -10.448469      -284.3173
   6   2.0000     -10.256527      -279.0943
   7   2.0000     -10.241615      -278.6885
   8   2.0000     -10.240074      -278.6466
   9   2.0000     -10.239229      -278.6236
  10   2.0000     -10.238905      -278.6148
  11   2.0000     -10.235887      -278.5327
  12   2.0000     -10.235823      -278.5309
  13   2.0000     -10.234718      -278.5008
  14   2.0000     -10.232238      -278.4333
  15   2.0000      -8.008087      -217.9111
  16   2.0000      -5.975691      -162.6068
  17   2.0000      -5.971454      -162.4915
  18   2.0000      -5.970740      -162.4721
  19   2.0000      -1.310709       -35.6662
  20   2.0000      -1.220629       -33.2150
  21   2.0000      -1.214159       -33.0390
  22   2.0000      -0.928045       -25.2534
  23   2.0000      -0.908402       -24.7189
  24   2.0000      -0.869870       -23.6704
  25   2.0000      -0.823303       -22.4032
  26   2.0000      -0.768462       -20.9109
  27   2.0000      -0.741275       -20.1711
  28   2.0000      -0.722722       -19.6663
  29   2.0000      -0.666162       -18.1272
  30   2.0000      -0.625629       -17.0242
  31   2.0000      -0.622144       -16.9294
  32   2.0000      -0.603274       -16.4159
  33   2.0000      -0.600879       -16.3507
  34   2.0000      -0.582415       -15.8483
  35   2.0000      -0.563955       -15.3460
  36   2.0000      -0.513542       -13.9742
  37   2.0000      -0.497473       -13.5369
  38   2.0000      -0.482100       -13.1186
  39   2.0000      -0.481665       -13.1068
  40   2.0000      -0.462031       -12.5725
  41   2.0000      -0.450317       -12.2538
  42   2.0000      -0.444385       -12.0923
  43   2.0000      -0.442474       -12.0403
  44   2.0000      -0.434728       -11.8296
  45   2.0000      -0.431955       -11.7541
  46   2.0000      -0.421102       -11.4588
  47   2.0000      -0.407689       -11.0938
  48   2.0000      -0.391152       -10.6438
  49   2.0000      -0.389659       -10.6032
  50   2.0000      -0.379007       -10.3133
  51   2.0000      -0.369144       -10.0449
  52   2.0000      -0.360190        -9.8013
  53   2.0000      -0.349474        -9.5097
  54   2.0000      -0.309117        -8.4115
  55   2.0000      -0.284330        -7.7370
  56   2.0000      -0.240666        -6.5488
  57   0.0000      -0.105018        -2.8577
  58   0.0000      -0.030973        -0.8428
  59   0.0000      -0.014942        -0.4066
  60   0.0000       0.018105         0.4927
  61   0.0000       0.027871         0.7584

MULLIKEN ATOMIC CHARGES
-----------------------
   0 C :   -0.120484
   1 S :    0.175835
   2 C :   -0.136743
   3 C :    0.105600
   4 C :    0.050357
   5 C :   -0.067589
   6 C :    0.540773
   7 F :   -0.173914
   8 F :   -0.174518
   9 F :   -0.156619
  10 C :   -0.016764
  11 C :    0.027138
  12 C :   -0.051344
  13 C :   -0.162784
  14 N :    0.079429
  15 H :    0.039152
  16 H :    0.043530
  17 H :    0.001701
  18 H :   -0.002757
Sum of atomic charges:   -0.0000000

LOEWDIN ATOMIC CHARGES
----------------------
   0 C :   -0.198627
   1 S :    0.522313
   2 C :   -0.196363
   3 C :   -0.036858
   4 C :   -0.044561
   5 C :   -0.060452
   6 C :    0.176557
   7 F :   -0.065204
   8 F :   -0.065043
   9 F :   -0.049531
  10 C :   -0.008676
  11 C :    0.009649
  12 C :   -0.050411
  13 C :   -0.022411
  14 N :   -0.057430
  15 H :    0.030313
  16 H :    0.036648
  17 H :    0.038016
  18 H :    0.042072

  Mayer bond orders larger than 0.100000
B(  0-C ,  1-S ) :   1.2190 B(  0-C ,  2-C ) :   0.1101 B(  0-C ,  4-C ) :   1.4407
B(  0-C , 15-H ) :   0.9418 B(  1-S ,  2-C ) :   1.2108 B(  2-C ,  3-C ) :   1.4331
B(  2-C , 16-H ) :   0.9492 B(  3-C ,  4-C ) :   1.1955 B(  3-C , 12-C ) :   1.1945
B(  4-C ,  5-C ) :   1.1977 B(  5-C ,  6-C ) :   0.9435 B(  5-C , 10-C ) :   1.5431
B(  6-C ,  7-F ) :   1.1343 B(  6-C ,  8-F ) :   1.1305 B(  6-C ,  9-F ) :   1.1554
B( 10-C , 11-C ) :   1.1729 B( 10-C , 17-H ) :   0.9870 B( 11-C , 12-C ) :   1.5214
B( 11-C , 18-H ) :   0.9919 B( 12-C , 13-C ) :   1.0881 B( 13-C , 14-N ) :   2.9985

Dispersion correction           -0.045255968
FINAL SINGLE POINT ENERGY     -1135.315273030777

DIPOLE MOMENT
-------------
                                X             Y             Z
Electronic contribution:      0.11831     -10.83706      -0.07477
Nuclear contribution   :     -0.40918      10.15112       0.06269
                        -----------------------------------------
Total Dipole Moment    :     -0.29087      -0.68594      -0.01208
                        -----------------------------------------
Magnitude (a.u.)       :      0.74516
Magnitude (Debye)      :      1.89406

Rotational constants in cm-1:     0.027658     0.013993     0.009770
Rotational constants in MHz :   829.179374   419.489062   292.902072

                             ****ORCA TERMINATED NORMALLY****
TOTAL RUN TIME: 0 days 0 hours 41 minutes 17 seconds 433 msec
