                         Program Version 4.2.0 -  RELEASE  -
|  1> # ORCA input file
|  2> # SCF done        -23.186062893443          0.000487992356
|  3> ! B3LYP/G D3BJ Opt RIJCOSX def2-SVP def2/J
|  4> * xyz 0 1
|  5>    C        1.43525         0.67285         0.01125
|  6>    C        0.18731         1.24732         0.00058
|  7>    C       -0.25246         2.63729        -0.00468
|  8>    O       -1.43479         2.91270         0.00377
|  9>    C        0.80938         3.71162        -0.01909
| 10>    S       -1.05790         0.03400        -0.00453
| 11>    C        0.11355        -1.20897         0.00590
| 12>    C        1.39053        -0.72983         0.01477
| 13>    H        2.35670         1.22631         0.01893
| 14>    H        1.81512         3.31479        -0.08821
| 15>    H        0.71239         4.30329         0.88949
| 16>    H        0.61845         4.37532        -0.86042
| 17>    H       -0.20098        -2.23414         0.00489
| 18>    H        2.26423        -1.35671         0.02250
| 19> *
| 20>
| 21>                          ****END OF INPUT****
 Total Charge           Charge          ....    0
 Multiplicity           Mult            ....    1
 Number of Electrons    NEL             ....   66
Dispersion correction           -0.026294412
FINAL SINGLE POINT ENERGY      -705.346472278624
Dispersion correction            ... done
Dispersion correction           -0.026158070
FINAL SINGLE POINT ENERGY      -705.348351409978
Dispersion correction            ... done
Dispersion correction           -0.026139547
FINAL SINGLE POINT ENERGY      -705.348415361470
Dispersion correction            ... done
FINAL SINGLE POINT ENERGY      -705.348428590950
FINAL SINGLE POINT ENERGY      -705.348454193134
FINAL SINGLE POINT ENERGY      -705.348468229176
FINAL SINGLE POINT ENERGY      -705.348452632189
FINAL SINGLE POINT ENERGY      -705.348462033834
FINAL SINGLE POINT ENERGY      -705.348654371547
FINAL SINGLE POINT ENERGY      -705.348945753816
FINAL SINGLE POINT ENERGY      -705.349174232830
FINAL SINGLE POINT ENERGY      -705.349396979140
FINAL SINGLE POINT ENERGY      -705.349470604114
Dispersion correction            ... done
Dispersion correction           -0.026283319
FINAL SINGLE POINT ENERGY      -705.349486020095
Dispersion correction            ... done
Dispersion correction           -0.026289372
FINAL SINGLE POINT ENERGY      -705.349492435123
Dispersion correction            ... done
                    ***********************HURRAY********************

CARTESIAN COORDINATES (ANGSTROEM)
---------------------------------
  C      1.411380    0.698814    0.107217
  C      0.151218    1.246312   -0.058489
  C     -0.276932    2.656586   -0.127847
  O     -1.453731    2.953638   -0.224368
  C      0.812128    3.708001   -0.065784
  S     -1.065398    0.005840   -0.169535
  C      0.120157   -1.228276    0.009847
  C      1.394145   -0.721396    0.149316
  H      2.315705    1.300008    0.206243
  H      1.601114    3.508933   -0.806816
  H      1.288767    3.704993    0.928398
  H      0.360865    4.691386   -0.249163
  H     -0.182081   -2.275364    0.011689
  H      2.279442   -1.343635    0.284441

 Multiplicity           Mult            ....    1
 Number of Electrons    NEL             ....   66
 Basis Dimension        Dim             ....  146

ORBITAL ENERGIES
----------------

  NO   OCC          E(Eh)            E(eV)
   0   2.0000     -88.883898     -2418.6538
   1   2.0000     -19.121130      -520.3124
   2   2.0000     -10.279911      -279.7306
   3   2.0000     -10.227633      -278.3080
   4   2.0000     -10.219997      -278.1003
   5   2.0000     -10.213147      -277.9139
   6   2.0000     -10.207213      -277.7524
   7   2.0000     -10.196234      -277.4536
   8   2.0000      -7.978649      -217.1101
   9   2.0000      -5.946648      -161.8165
  10   2.0000      -5.942434      -161.7019
  11   2.0000      -5.940337      -161.6448
  12   2.0000      -1.029736       -28.0205
  13   2.0000      -0.889632       -24.2081
  14   2.0000      -0.765411       -20.8279
  15   2.0000      -0.745469       -20.2852
  16   2.0000      -0.717216       -19.5164
  17   2.0000      -0.612865       -16.6769
  18   2.0000      -0.567088       -15.4313
  19   2.0000      -0.536303       -14.5935
  20   2.0000      -0.496747       -13.5172
  21   2.0000      -0.450375       -12.2553
  22   2.0000      -0.449822       -12.2403
  23   2.0000      -0.439241       -11.9523
  24   2.0000      -0.414195       -11.2708
  25   2.0000      -0.398185       -10.8352
  26   2.0000      -0.395986       -10.7753
  27   2.0000      -0.386200       -10.5090
  28   2.0000      -0.360009        -9.7964
  29   2.0000      -0.357005        -9.7146
  30   2.0000      -0.268155        -7.2969
  31   2.0000      -0.257335        -7.0024
  32   2.0000      -0.253655        -6.9023
  33   0.0000      -0.067458        -1.8356
  34   0.0000       0.013345         0.3631
  35   0.0000       0.039709         1.0805
  36   0.0000       0.057790         1.5725
  37   0.0000       0.070465         1.9174

MULLIKEN ATOMIC CHARGES
-----------------------
   0 C :    0.031732
   1 C :   -0.172208
   2 C :    0.050582
   3 O :   -0.201470
   4 C :    0.031796
   5 S :    0.167476
   6 C :   -0.071408
   7 C :    0.034330
   8 H :   -0.008307
   9 H :    0.035940
  10 H :    0.037092
  11 H :    0.030326
  12 H :    0.037921
  13 H :   -0.003802
Sum of atomic charges:   -0.0000000

LOEWDIN ATOMIC CHARGES
----------------------
   0 C :   -0.041362
   1 C :   -0.225789
   2 C :    0.056100
   3 O :   -0.163306
   4 C :   -0.073557
   5 S :    0.477822
   6 C :   -0.172964
   7 C :   -0.068138
   8 H :    0.030863
   9 H :    0.038390
  10 H :    0.043493
  11 H :    0.038862
  12 H :    0.028239
  13 H :    0.031346

  Mayer bond orders larger than 0.100000
B(  0-C ,  1-C ) :   1.5036 B(  0-C ,  7-C ) :   1.2783 B(  0-C ,  8-H ) :   0.9808
B(  1-C ,  2-C ) :   0.9806 B(  1-C ,  5-S ) :   1.1407 B(  2-C ,  3-O ) :   2.1587
B(  2-C ,  4-C ) :   1.0619 B(  4-C ,  9-H ) :   0.9461 B(  4-C , 10-H ) :   0.9424
B(  4-C , 11-H ) :   0.9497 B(  5-S ,  6-C ) :   1.2036 B(  6-C ,  7-C ) :   1.5271
B(  6-C , 12-H ) :   0.9686 B(  7-C , 13-H ) :   0.9887

Dispersion correction           -0.026289065
FINAL SINGLE POINT ENERGY      -705.349491801246

DIPOLE MOMENT
-------------
                                X             Y             Z
Electronic contribution:     -6.27822      -3.67321      -0.58960
Nuclear contribution   :      7.47993       3.09639       0.73040
                        -----------------------------------------
Total Dipole Moment    :      1.20171      -0.57682       0.14080
                        -----------------------------------------
Magnitude (a.u.)       :      1.34039
Magnitude (Debye)      :      3.40700

Rotational constants in cm-1:     0.118398     0.047003     0.033868
Rotational constants in MHz :  3549.486774  1409.118376  1015.326918

                             ****ORCA TERMINATED NORMALLY****
TOTAL RUN TIME: 0 days 0 hours 9 minutes 29 seconds 440 msec
