                         Program Version 4.2.0 -  RELEASE  -
|  1> # ORCA input file
|  2> # SCF done        -37.136804660770          0.000702184406
|  3> ! B3LYP/G D3BJ Opt RIJCOSX def2-SVP def2/J
|  4> * xyz 0 1
|  5>    C       -1.17856         1.26499        -0.29834
|  6>    S       -2.48847         0.17385        -0.27189
|  7>    C       -1.45056        -1.19844        -0.05205
|  8>    C       -0.11936        -0.79366        -0.00380
|  9>    C        0.03264         0.62580        -0.14856
| 10>    C        1.32452         1.19448        -0.12495
| 11>    C        2.43019         0.40285         0.03577
| 12>    C        3.76540         0.99976         0.06512
| 13>    C        4.13403         2.05167        -0.65367
| 14>    C        2.28005        -1.01573         0.18809
| 15>    C        3.49609        -1.87710         0.35173
| 16>    C        1.03980        -1.58360         0.16295
| 17>    C       -1.97072        -2.52809         0.05157
| 18>    C       -3.26025        -2.85730        -0.01025
| 19>    H       -1.36089         2.31346        -0.42523
| 20>    H        1.42440         2.26566        -0.21491
| 21>    H        4.48462         0.52825         0.72109
| 22>    H        3.46435         2.53375        -1.34607
| 23>    H        5.12785         2.46103        -0.58899
| 24>    H        4.20872        -1.69273        -0.45098
| 25>    H        3.22222        -2.92931         0.33968
| 26>    H        3.99275        -1.66606         1.29917
| 27>    H        0.93691        -2.65372         0.27002
| 28>    H       -1.22548        -3.30044         0.18964
| 29>    H       -4.02569        -2.11129        -0.14711
| 30>    H       -3.58682        -3.87826         0.07426
| 31> *
| 32>
| 33>                          ****END OF INPUT****
 Total Charge           Charge          ....    0
 Multiplicity           Mult            ....    1
 Number of Electrons    NEL             ....  106
Dispersion correction           -0.057993876
FINAL SINGLE POINT ENERGY      -900.341351687416
Dispersion correction            ... done
Dispersion correction           -0.057522287
FINAL SINGLE POINT ENERGY      -900.345730328759
Dispersion correction            ... done
Dispersion correction           -0.057444074
FINAL SINGLE POINT ENERGY      -900.345863117983
Dispersion correction            ... done
FINAL SINGLE POINT ENERGY      -900.345874696887
FINAL SINGLE POINT ENERGY      -900.345877561154
Dispersion correction            ... done
Dispersion correction           -0.057431774
FINAL SINGLE POINT ENERGY      -900.345888956705
Dispersion correction            ... done
Dispersion correction           -0.057435651
FINAL SINGLE POINT ENERGY      -900.345890076270
Dispersion correction            ... done
                    ***********************HURRAY********************

CARTESIAN COORDINATES (ANGSTROEM)
---------------------------------
  C     -1.203675    1.308828   -0.254669
  S     -2.513192    0.204665   -0.254922
  C     -1.483498   -1.182314   -0.064348
  C     -0.139344   -0.778123   -0.000398
  C      0.017511    0.657122   -0.118738
  C      1.325013    1.222395   -0.086717
  C      2.437968    0.420991    0.055774
  C      3.789434    1.012020    0.045388
  C      4.174401    2.043017   -0.719841
  C      2.282401   -1.016866    0.208679
  C      3.503051   -1.880855    0.388785
  C      1.028715   -1.580528    0.168713
  C     -2.004490   -2.531256    0.005423
  C     -3.293494   -2.914001   -0.036509
  H     -1.383059    2.376831   -0.364948
  H      1.441879    2.305595   -0.161108
  H      4.530289    0.555302    0.710718
  H      3.493942    2.507029   -1.439537
  H      5.186796    2.449958   -0.657009
  H      4.229825   -1.734153   -0.427077
  H      3.231939   -2.945957    0.421650
  H      4.034388   -1.640965    1.326621
  H      0.927507   -2.663655    0.273147
  H     -1.235549   -3.304670    0.102110
  H     -4.110263   -2.192365   -0.130783
  H     -3.570753   -3.968225    0.021886

 Multiplicity           Mult            ....    1
 Number of Electrons    NEL             ....  106
 Basis Dimension        Dim             ....  260

ORBITAL ENERGIES
----------------

  NO   OCC          E(Eh)            E(eV)
   0   2.0000     -88.882034     -2418.6031
   1   2.0000     -10.216574      -278.0071
   2   2.0000     -10.214924      -277.9622
   3   2.0000     -10.202870      -277.6342
   4   2.0000     -10.200372      -277.5662
   5   2.0000     -10.199318      -277.5376
   6   2.0000     -10.199135      -277.5326
   7   2.0000     -10.198266      -277.5089
   8   2.0000     -10.196319      -277.4559
   9   2.0000     -10.194024      -277.3935
  10   2.0000     -10.191467      -277.3239
  11   2.0000     -10.190937      -277.3095
  12   2.0000     -10.189048      -277.2581
  13   2.0000     -10.187136      -277.2061
  14   2.0000      -7.976687      -217.0567
  15   2.0000      -5.944462      -161.7570
  16   2.0000      -5.940395      -161.6464
  17   2.0000      -5.938802      -161.6030
  18   2.0000      -0.892557       -24.2877
  19   2.0000      -0.841952       -22.9107
  20   2.0000      -0.788111       -21.4456
  21   2.0000      -0.778847       -21.1935
  22   2.0000      -0.757386       -20.6095
  23   2.0000      -0.731681       -19.9101
  24   2.0000      -0.694588       -18.9007
  25   2.0000      -0.672545       -18.3009
  26   2.0000      -0.623971       -16.9791
  27   2.0000      -0.606418       -16.5015
  28   2.0000      -0.578044       -15.7294
  29   2.0000      -0.547069       -14.8865
  30   2.0000      -0.534979       -14.5575
  31   2.0000      -0.508728       -13.8432
  32   2.0000      -0.483573       -13.1587
  33   2.0000      -0.468851       -12.7581
  34   2.0000      -0.451239       -12.2788
  35   2.0000      -0.441888       -12.0244
  36   2.0000      -0.426119       -11.5953
  37   2.0000      -0.424250       -11.5444
  38   2.0000      -0.422398       -11.4940
  39   2.0000      -0.410114       -11.1598
  40   2.0000      -0.402885       -10.9631
  41   2.0000      -0.387931       -10.5561
  42   2.0000      -0.383936       -10.4474
  43   2.0000      -0.370915       -10.0931
  44   2.0000      -0.350803        -9.5458
  45   2.0000      -0.346521        -9.4293
  46   2.0000      -0.338652        -9.2152
  47   2.0000      -0.334803        -9.1105
  48   2.0000      -0.308880        -8.4050
  49   2.0000      -0.290961        -7.9174
  50   2.0000      -0.260080        -7.0771
  51   2.0000      -0.236221        -6.4279
  52   2.0000      -0.193348        -5.2613
  53   0.0000      -0.070667        -1.9229
  54   0.0000      -0.028004        -0.7620
  55   0.0000       0.008405         0.2287
  56   0.0000       0.038491         1.0474
  57   0.0000       0.041907         1.1404

MULLIKEN ATOMIC CHARGES
-----------------------
   0 C :   -0.132015
   1 S :    0.134524
   2 C :   -0.148258
   3 C :    0.137940
   4 C :    0.104642
   5 C :   -0.075848
   6 C :    0.072981
   7 C :   -0.035819
   8 C :   -0.023656
   9 C :   -0.057773
  10 C :    0.080985
  11 C :   -0.094036
  12 C :    0.005609
  13 C :   -0.040952
  14 H :    0.017222
  15 H :   -0.037087
  16 H :   -0.003321
  17 H :    0.021125
  18 H :    0.020501
  19 H :    0.030705
  20 H :    0.008136
  21 H :    0.025231
  22 H :   -0.039407
  23 H :   -0.009047
  24 H :    0.016861
  25 H :    0.020757
Sum of atomic charges:    0.0000000

LOEWDIN ATOMIC CHARGES
----------------------
   0 C :   -0.199874
   1 S :    0.475067
   2 C :   -0.193711
   3 C :   -0.041080
   4 C :   -0.052730
   5 C :   -0.009138
   6 C :   -0.031627
   7 C :   -0.021591
   8 C :   -0.045710
   9 C :   -0.018053
  10 C :   -0.045951
  11 C :   -0.032099
  12 C :   -0.039909
  13 C :   -0.064063
  14 H :    0.025137
  15 H :    0.026851
  16 H :    0.027153
  17 H :    0.022028
  18 H :    0.024367
  19 H :    0.034605
  20 H :    0.028133
  21 H :    0.032751
  22 H :    0.023034
  23 H :    0.033267
  24 H :    0.017322
  25 H :    0.025821

  Mayer bond orders larger than 0.100000
B(  0-C ,  1-S ) :   1.1934 B(  0-C ,  2-C ) :   0.1072 B(  0-C ,  4-C ) :   1.3914
B(  0-C , 14-H ) :   0.9640 B(  1-S ,  2-C ) :   1.1402 B(  2-C ,  3-C ) :   1.3430
B(  2-C , 12-C ) :   1.1592 B(  3-C ,  4-C ) :   1.1912 B(  3-C , 11-C ) :   1.1817
B(  4-C ,  5-C ) :   1.1583 B(  5-C ,  6-C ) :   1.5132 B(  5-C , 15-H ) :   0.9964
B(  6-C ,  7-C ) :   1.0432 B(  6-C ,  9-C ) :   1.1767 B(  7-C ,  8-C ) :   1.9604
B(  7-C , 16-H ) :   0.9413 B(  8-C , 17-H ) :   0.9535 B(  8-C , 18-H ) :   0.9453
B(  9-C , 10-C ) :   1.0976 B(  9-C , 11-C ) :   1.5576 B( 10-C , 19-H ) :   0.9399
B( 10-C , 20-H ) :   0.9534 B( 10-C , 21-H ) :   0.9377 B( 11-C , 22-H ) :   0.9803
B( 12-C , 13-C ) :   1.8892 B( 12-C , 23-H ) :   0.9481 B( 13-C , 24-H ) :   0.9539
B( 13-C , 25-H ) :   0.9450

Dispersion correction           -0.057436598
FINAL SINGLE POINT ENERGY      -900.345888789450

DIPOLE MOMENT
-------------
                                X             Y             Z
Electronic contribution:    -12.05575       4.16547      -0.42769
Nuclear contribution   :     12.35565      -4.13752       0.45465
                        -----------------------------------------
Total Dipole Moment    :      0.29990       0.02795       0.02696
                        -----------------------------------------
Magnitude (a.u.)       :      0.30240
Magnitude (Debye)      :      0.76864

Rotational constants in cm-1:     0.043070     0.012656     0.009877
Rotational constants in MHz :  1291.208334   379.421925   296.107483

                             ****ORCA TERMINATED NORMALLY****
TOTAL RUN TIME: 0 days 0 hours 17 minutes 34 seconds 443 msec
