                         Program Version 4.2.0 -  RELEASE  -
|  1> # ORCA input file
|  2> # SCF done        -27.548951891401          0.000875427125
|  3> ! B3LYP/G D3BJ Opt RIJCOSX def2-SVP def2/J
|  4> * xyz 0 1
|  5>    C        2.26209        -0.15042        -0.17650
|  6>    C        3.12861        -1.15003        -0.31072
|  7>    C        0.83055        -0.29144        -0.11572
|  8>    S       -0.15964         1.13560         0.03769
|  9>    C       -1.60895         0.19927         0.03789
| 10>    C       -2.93043         0.87567         0.15342
| 11>    C       -1.34299        -1.14763        -0.07061
| 12>    C        0.04855        -1.40962        -0.15775
| 13>    C       -2.38723        -2.15448        -0.09114
| 14>    C       -2.19456        -3.46839        -0.10713
| 15>    H        2.62323         0.86798        -0.10496
| 16>    H        2.81310        -2.17585        -0.38785
| 17>    H        4.18837        -0.97004        -0.34695
| 18>    H       -2.79530         1.95106         0.23704
| 19>    H       -3.46800         0.52426         1.03454
| 20>    H       -3.54645         0.67168        -0.72318
| 21>    H        0.45542        -2.39878        -0.25342
| 22>    H       -3.39782        -1.76807        -0.08908
| 23>    H       -1.21344        -3.91056        -0.10327
| 24>    H       -3.02325        -4.15523        -0.12180
| 25> *
| 26>
| 27>                          ****END OF INPUT****
 Total Charge           Charge          ....    0
 Multiplicity           Mult            ....    1
 Number of Electrons    NEL             ....   80
Dispersion correction           -0.039143390
FINAL SINGLE POINT ENERGY      -746.801835395275
Dispersion correction            ... done
Dispersion correction           -0.038821621
FINAL SINGLE POINT ENERGY      -746.804944278990
Dispersion correction            ... done
Dispersion correction           -0.038770593
FINAL SINGLE POINT ENERGY      -746.805032774797
Dispersion correction            ... done
FINAL SINGLE POINT ENERGY      -746.805026724340
FINAL SINGLE POINT ENERGY      -746.805051852926
FINAL SINGLE POINT ENERGY      -746.805048281968
FINAL SINGLE POINT ENERGY      -746.805036992862
FINAL SINGLE POINT ENERGY      -746.804995069440
FINAL SINGLE POINT ENERGY      -746.804924943454
FINAL SINGLE POINT ENERGY      -746.804870166113
FINAL SINGLE POINT ENERGY      -746.804761312643
FINAL SINGLE POINT ENERGY      -746.804696656478
FINAL SINGLE POINT ENERGY      -746.804803724310
FINAL SINGLE POINT ENERGY      -746.804777099760
FINAL SINGLE POINT ENERGY      -746.804773158265
FINAL SINGLE POINT ENERGY      -746.804772436904
FINAL SINGLE POINT ENERGY      -746.804767931242
Dispersion correction            ... done
Dispersion correction           -0.038733846
FINAL SINGLE POINT ENERGY      -746.804757771015
Dispersion correction            ... done
Dispersion correction           -0.038734492
FINAL SINGLE POINT ENERGY      -746.804761160848
Dispersion correction            ... done
                    ***********************HURRAY********************

CARTESIAN COORDINATES (ANGSTROEM)
---------------------------------
  C      2.283769   -0.145228   -0.246948
  C      3.179984   -1.142742   -0.297610
  C      0.836785   -0.291886   -0.162936
  S     -0.161980    1.138362   -0.045504
  C     -1.625304    0.209355    0.024669
  C     -2.946792    0.907730    0.125868
  C     -1.355597   -1.153594   -0.046218
  C      0.048988   -1.419559   -0.148932
  C     -2.398202   -2.180158   -0.022440
  C     -2.213393   -3.508332   -0.059123
  H      2.653138    0.886231   -0.267419
  H      2.879967   -2.194498   -0.278812
  H      4.249332   -0.927711   -0.361924
  H     -2.875409    1.812873    0.747240
  H     -3.703450    0.252807    0.579637
  H     -3.324216    1.219372   -0.863701
  H      0.464055   -2.425000   -0.214631
  H     -3.426359   -1.809117    0.028765
  H     -1.219786   -3.960686   -0.112318
  H     -3.063670   -4.193239   -0.037164

 Multiplicity           Mult            ....    1
 Number of Electrons    NEL             ....   80
 Basis Dimension        Dim             ....  194

ORBITAL ENERGIES
----------------

  NO   OCC          E(Eh)            E(eV)
   0   2.0000     -88.869511     -2418.2623
   1   2.0000     -10.218927      -278.0712
   2   2.0000     -10.215067      -277.9661
   3   2.0000     -10.203005      -277.6379
   4   2.0000     -10.202869      -277.6342
   5   2.0000     -10.196361      -277.4571
   6   2.0000     -10.196241      -277.4538
   7   2.0000     -10.189859      -277.2802
   8   2.0000     -10.188885      -277.2537
   9   2.0000     -10.185582      -277.1638
  10   2.0000      -7.964988      -216.7383
  11   2.0000      -5.932940      -161.4435
  12   2.0000      -5.929129      -161.3398
  13   2.0000      -5.926297      -161.2627
  14   2.0000      -0.883245       -24.0343
  15   2.0000      -0.796257       -21.6673
  16   2.0000      -0.774856       -21.0849
  17   2.0000      -0.744213       -20.2511
  18   2.0000      -0.713003       -19.4018
  19   2.0000      -0.670407       -18.2427
  20   2.0000      -0.615930       -16.7603
  21   2.0000      -0.567672       -15.4471
  22   2.0000      -0.540044       -14.6954
  23   2.0000      -0.518548       -14.1104
  24   2.0000      -0.490649       -13.3512
  25   2.0000      -0.456970       -12.4348
  26   2.0000      -0.445054       -12.1105
  27   2.0000      -0.434239       -11.8162
  28   2.0000      -0.432301       -11.7635
  29   2.0000      -0.414708       -11.2848
  30   2.0000      -0.392446       -10.6790
  31   2.0000      -0.381679       -10.3860
  32   2.0000      -0.371418       -10.1068
  33   2.0000      -0.364412        -9.9162
  34   2.0000      -0.354313        -9.6413
  35   2.0000      -0.336659        -9.1609
  36   2.0000      -0.318342        -8.6625
  37   2.0000      -0.285859        -7.7786
  38   2.0000      -0.235175        -6.3994
  39   2.0000      -0.209057        -5.6887
  40   0.0000      -0.044274        -1.2048
  41   0.0000      -0.024916        -0.6780
  42   0.0000       0.026430         0.7192
  43   0.0000       0.060698         1.6517
  44   0.0000       0.062722         1.7068

MULLIKEN ATOMIC CHARGES
-----------------------
   0 C :    0.046240
   1 C :   -0.037496
   2 C :   -0.091286
   3 S :    0.102566
   4 C :   -0.272516
   5 C :    0.114489
   6 C :    0.116011
   7 C :   -0.015917
   8 C :   -0.027646
   9 C :   -0.023874
  10 H :   -0.014466
  11 H :    0.018964
  12 H :    0.026606
  13 H :    0.020629
  14 H :    0.025977
  15 H :    0.035778
  16 H :   -0.030239
  17 H :   -0.024536
  18 H :    0.010490
  19 H :    0.020225
Sum of atomic charges:    0.0000000

LOEWDIN ATOMIC CHARGES
----------------------
   0 C :   -0.041063
   1 C :   -0.051533
   2 C :   -0.177116
   3 S :    0.421184
   4 C :   -0.175912
   5 C :   -0.058862
   6 C :   -0.071164
   7 C :   -0.045622
   8 C :   -0.024384
   9 C :   -0.054126
  10 H :    0.027138
  11 H :    0.021982
  12 H :    0.027231
  13 H :    0.033861
  14 H :    0.035268
  15 H :    0.038248
  16 H :    0.025547
  17 H :    0.025145
  18 H :    0.019111
  19 H :    0.025067

  Mayer bond orders larger than 0.100000
B(  0-C ,  1-C ) :   1.9293 B(  0-C ,  2-C ) :   1.0970 B(  0-C , 10-H ) :   0.9520
B(  1-C , 11-H ) :   0.9502 B(  1-C , 12-H ) :   0.9447 B(  2-C ,  3-S ) :   1.1033
B(  2-C ,  7-C ) :   1.5398 B(  3-S ,  4-C ) :   1.1418 B(  4-C ,  5-C ) :   1.1018
B(  4-C ,  6-C ) :   1.4917 B(  5-C , 13-H ) :   0.9444 B(  5-C , 14-H ) :   0.9446
B(  5-C , 15-H ) :   0.9454 B(  6-C ,  7-C ) :   1.2200 B(  6-C ,  8-C ) :   1.0935
B(  7-C , 16-H ) :   0.9877 B(  8-C ,  9-C ) :   1.9314 B(  8-C , 17-H ) :   0.9581
B(  9-C , 18-H ) :   0.9462 B(  9-C , 19-H ) :   0.9435

Dispersion correction           -0.038734701
FINAL SINGLE POINT ENERGY      -746.804761476683

DIPOLE MOMENT
-------------
                                X             Y             Z
Electronic contribution:      2.73189       5.78150      -0.02777
Nuclear contribution   :     -2.98799      -5.70793       0.03237
                        -----------------------------------------
Total Dipole Moment    :     -0.25611       0.07356       0.00460
                        -----------------------------------------
Magnitude (a.u.)       :      0.26650
Magnitude (Debye)      :      0.67739

Rotational constants in cm-1:     0.053342     0.030200     0.019354
Rotational constants in MHz :  1599.165877   905.375924   580.229582

                             ****ORCA TERMINATED NORMALLY****
TOTAL RUN TIME: 0 days 0 hours 26 minutes 56 seconds 878 msec
