                         Program Version 4.2.0 -  RELEASE  -
|  1> # ORCA input file
|  2> # SCF done        -40.157539302185          0.000888231707
|  3> ! B3LYP/G D3BJ Opt RIJCOSX def2-SVP def2/J
|  4> * xyz 0 1
|  5>    C        1.10819         0.61313        -0.28395
|  6>    C        0.71568         1.73042         0.43372
|  7>    C        1.79818         2.70250         0.83176
|  8>    C        2.40977         2.30973         2.17850
|  9>    C       -0.62768         1.90161         0.79493
| 10>    C       -1.05021         3.11723         1.58102
| 11>    C       -1.51387         4.24800         0.66087
| 12>    C       -1.55840         0.93608         0.39591
| 13>    C       -3.04071         1.03430         0.65775
| 14>    C       -3.80328         1.34456        -0.63191
| 15>    C       -1.13039        -0.18135        -0.30600
| 16>    C        0.19968        -0.36947        -0.66519
| 17>    C        0.57250        -1.56157        -1.41562
| 18>    C        1.77174        -1.85129        -1.90571
| 19>    H        2.15063         0.50694        -0.54438
| 20>    H        1.41949         3.72277         0.88169
| 21>    H        2.58400         2.68393         0.07337
| 22>    H        1.65599         2.31358         2.96252
| 23>    H        3.20162         3.00255         2.45533
| 24>    H        2.82933         1.30807         2.12132
| 25>    H       -0.22188         3.47314         2.19122
| 26>    H       -1.85619         2.85967         2.26897
| 27>    H       -0.73202         4.50483        -0.05024
| 28>    H       -1.75968         5.13465         1.24189
| 29>    H       -2.39499         3.94943         0.10035
| 30>    H       -3.27172         1.80013         1.39587
| 31>    H       -3.39286         0.07681         1.05215
| 32>    H       -3.46283         2.28384        -1.06278
| 33>    H       -4.86999         1.42131        -0.43210
| 34>    H       -3.64589         0.56151        -1.37004
| 35>    H       -1.85896        -0.93042        -0.58606
| 36>    H       -0.24091        -2.25899        -1.57910
| 37>    H        2.62187        -1.20173        -1.78760
| 38>    H        1.94887        -2.76080        -2.45394
| 39> *
| 40>
| 41>                          ****END OF INPUT****
 Total Charge           Charge          ....    0
 Multiplicity           Mult            ....    1
 Number of Electrons    NEL             ....  104
Dispersion correction           -0.065323108
FINAL SINGLE POINT ENERGY      -545.202160848564
Dispersion correction            ... done
Dispersion correction           -0.064623792
FINAL SINGLE POINT ENERGY      -545.206436074584
Dispersion correction            ... done
Dispersion correction           -0.064501973
FINAL SINGLE POINT ENERGY      -545.206347664768
Dispersion correction            ... done
FINAL SINGLE POINT ENERGY      -545.206185769951
FINAL SINGLE POINT ENERGY      -545.206199795337
Dispersion correction            ... done
Dispersion correction           -0.064495689
FINAL SINGLE POINT ENERGY      -545.206196735254
Dispersion correction            ... done
Dispersion correction           -0.064503414
FINAL SINGLE POINT ENERGY      -545.206192395890
Dispersion correction            ... done
                    ***********************HURRAY********************

CARTESIAN COORDINATES (ANGSTROEM)
---------------------------------
  C      1.132588    0.546547   -0.312241
  C      0.754126    1.671409    0.421903
  C      1.826025    2.675990    0.802388
  C      2.373757    2.499540    2.226279
  C     -0.602116    1.845592    0.800511
  C     -1.021968    3.061475    1.603908
  C     -1.544025    4.222639    0.748134
  C     -1.553094    0.886326    0.388263
  C     -3.040696    1.035789    0.641008
  C     -3.814166    1.425231   -0.628015
  C     -1.131921   -0.232585   -0.343827
  C      0.205192   -0.431981   -0.707384
  C      0.572712   -1.620738   -1.492546
  C      1.791832   -1.958021   -1.937613
  H      2.181163    0.440547   -0.599713
  H      1.444200    3.701967    0.676009
  H      2.661222    2.575284    0.091379
  H      1.590717    2.648009    2.986039
  H      3.180476    3.220409    2.433546
  H      2.781068    1.485763    2.366292
  H     -0.179590    3.418622    2.209622
  H     -1.795602    2.772230    2.330505
  H     -0.775233    4.567987    0.039127
  H     -1.835378    5.078091    1.378359
  H     -2.421174    3.924465    0.155702
  H     -3.236421    1.778658    1.426259
  H     -3.439964    0.080664    1.022964
  H     -3.421264    2.358856   -1.059534
  H     -4.885133    1.571947   -0.413364
  H     -3.723607    0.648895   -1.404040
  H     -1.877726   -0.970760   -0.655422
  H     -0.265198   -2.285369   -1.733302
  H      2.677441   -1.349221   -1.736830
  H      1.946839   -2.869154   -2.519846

 Multiplicity           Mult            ....    1
 Number of Electrons    NEL             ....  104
 Basis Dimension        Dim             ....  296

ORBITAL ENERGIES
----------------

  NO   OCC          E(Eh)            E(eV)
   0   2.0000     -10.190242      -277.2906
   1   2.0000     -10.188760      -277.2503
   2   2.0000     -10.188500      -277.2432
   3   2.0000     -10.188289      -277.2374
   4   2.0000     -10.188105      -277.2324
   5   2.0000     -10.187891      -277.2266
   6   2.0000     -10.187771      -277.2233
   7   2.0000     -10.186375      -277.1853
   8   2.0000     -10.182092      -277.0688
   9   2.0000     -10.181949      -277.0649
  10   2.0000     -10.181870      -277.0628
  11   2.0000     -10.181826      -277.0616
  12   2.0000     -10.180304      -277.0202
  13   2.0000     -10.179427      -276.9963
  14   2.0000      -0.856149       -23.2970
  15   2.0000      -0.797427       -21.6991
  16   2.0000      -0.789134       -21.4734
  17   2.0000      -0.757661       -20.6170
  18   2.0000      -0.743576       -20.2337
  19   2.0000      -0.706879       -19.2352
  20   2.0000      -0.699705       -19.0399
  21   2.0000      -0.636201       -17.3119
  22   2.0000      -0.628997       -17.1159
  23   2.0000      -0.613975       -16.7071
  24   2.0000      -0.582459       -15.8495
  25   2.0000      -0.557216       -15.1626
  26   2.0000      -0.534218       -14.5368
  27   2.0000      -0.499674       -13.5968
  28   2.0000      -0.485800       -13.2193
  29   2.0000      -0.455501       -12.3948
  30   2.0000      -0.445964       -12.1353
  31   2.0000      -0.433820       -11.8048
  32   2.0000      -0.432830       -11.7779
  33   2.0000      -0.429880       -11.6976
  34   2.0000      -0.423197       -11.5158
  35   2.0000      -0.409002       -11.1295
  36   2.0000      -0.400830       -10.9071
  37   2.0000      -0.391071       -10.6416
  38   2.0000      -0.386198       -10.5090
  39   2.0000      -0.380680       -10.3588
  40   2.0000      -0.367717       -10.0061
  41   2.0000      -0.365451        -9.9444
  42   2.0000      -0.355888        -9.6842
  43   2.0000      -0.353756        -9.6262
  44   2.0000      -0.351276        -9.5587
  45   2.0000      -0.339483        -9.2378
  46   2.0000      -0.336012        -9.1433
  47   2.0000      -0.318543        -8.6680
  48   2.0000      -0.317398        -8.6368
  49   2.0000      -0.286484        -7.7956
  50   2.0000      -0.238162        -6.4807
  51   2.0000      -0.218292        -5.9400
  52   0.0000      -0.034903        -0.9498
  53   0.0000      -0.004417        -0.1202
  54   0.0000       0.044834         1.2200
  55   0.0000       0.056448         1.5360
  56   0.0000       0.069393         1.8883

MULLIKEN ATOMIC CHARGES
-----------------------
   0 C :   -0.074330
   1 C :   -0.049486
   2 C :    0.062691
   3 C :    0.015344
   4 C :   -0.068241
   5 C :    0.066648
   6 C :    0.023573
   7 C :   -0.042599
   8 C :    0.069233
   9 C :    0.003549
  10 C :   -0.086445
  11 C :    0.130883
  12 C :    0.000667
  13 C :   -0.029214
  14 H :   -0.053836
  15 H :   -0.001929
  16 H :   -0.006274
  17 H :    0.012968
  18 H :    0.013492
  19 H :    0.007820
  20 H :   -0.010393
  21 H :    0.000603
  22 H :    0.009147
  23 H :    0.008439
  24 H :    0.004336
  25 H :   -0.009462
  26 H :   -0.000603
  27 H :    0.011529
  28 H :    0.013968
  29 H :    0.014392
  30 H :   -0.046737
  31 H :   -0.021498
  32 H :    0.012475
  33 H :    0.019288
Sum of atomic charges:   -0.0000000

LOEWDIN ATOMIC CHARGES
----------------------
   0 C :   -0.022038
   1 C :   -0.017949
   2 C :   -0.028914
   3 C :   -0.050720
   4 C :   -0.022359
   5 C :   -0.030512
   6 C :   -0.049180
   7 C :   -0.019638
   8 C :   -0.028765
   9 C :   -0.049906
  10 C :   -0.023700
  11 C :   -0.031620
  12 C :   -0.019099
  13 C :   -0.055182
  14 H :    0.019378
  15 H :    0.023233
  16 H :    0.025774
  17 H :    0.019650
  18 H :    0.022872
  19 H :    0.023564
  20 H :    0.023210
  21 H :    0.024499
  22 H :    0.021509
  23 H :    0.022662
  24 H :    0.020699
  25 H :    0.021134
  26 H :    0.027573
  27 H :    0.020062
  28 H :    0.022711
  29 H :    0.022177
  30 H :    0.019253
  31 H :    0.025862
  32 H :    0.018964
  33 H :    0.024796

  Mayer bond orders larger than 0.100000
B(  0-C ,  1-C ) :   1.4143 B(  0-C , 11-C ) :   1.3030 B(  0-C , 14-H ) :   0.9809
B(  1-C ,  2-C ) :   1.0524 B(  1-C ,  4-C ) :   1.3702 B(  2-C ,  3-C ) :   1.1093
B(  2-C , 15-H ) :   0.9175 B(  2-C , 16-H ) :   0.9210 B(  3-C , 17-H ) :   0.9642
B(  3-C , 18-H ) :   0.9644 B(  3-C , 19-H ) :   0.9620 B(  4-C ,  5-C ) :   1.0738
B(  4-C ,  7-C ) :   1.4118 B(  5-C ,  6-C ) :   1.1092 B(  5-C , 20-H ) :   0.9048
B(  5-C , 21-H ) :   0.9154 B(  6-C , 22-H ) :   0.9631 B(  6-C , 23-H ) :   0.9597
B(  6-C , 24-H ) :   0.9644 B(  7-C ,  8-C ) :   1.0562 B(  7-C , 10-C ) :   1.3513
B(  8-C ,  9-C ) :   1.1086 B(  8-C , 25-H ) :   0.9215 B(  8-C , 26-H ) :   0.9222
B(  9-C , 27-H ) :   0.9607 B(  9-C , 28-H ) :   0.9644 B(  9-C , 29-H ) :   0.9658
B( 10-C , 11-C ) :   1.3284 B( 10-C , 30-H ) :   0.9864 B( 11-C , 12-C ) :   1.0757
B( 12-C , 13-C ) :   1.9273 B( 12-C , 31-H ) :   0.9589 B( 13-C , 32-H ) :   0.9431
B( 13-C , 33-H ) :   0.9450

Dispersion correction           -0.064509970
FINAL SINGLE POINT ENERGY      -545.206177965311

DIPOLE MOMENT
-------------
                                X             Y             Z
Electronic contribution:      2.88272      -8.47861      -3.04530
Nuclear contribution   :     -3.02000       8.77390       3.21316
                        -----------------------------------------
Total Dipole Moment    :     -0.13728       0.29529       0.16786
                        -----------------------------------------
Magnitude (a.u.)       :      0.36636
Magnitude (Debye)      :      0.93121

Rotational constants in cm-1:     0.024746     0.019093     0.011675
Rotational constants in MHz :   741.878838   572.388898   350.000498

                             ****ORCA TERMINATED NORMALLY****
TOTAL RUN TIME: 0 days 0 hours 22 minutes 17 seconds 610 msec
