                         Program Version 4.2.0 -  RELEASE  -
|  1> # ORCA input file
|  2> # SCF done        -37.692718763280          0.000909686752
|  3> ! B3LYP/G D3BJ Opt RIJCOSX def2-SVP def2/J
|  4> * xyz 0 1
|  5>    C       -0.95076         1.48057        -0.08204
|  6>    C       -2.09852         0.74170        -0.11170
|  7>    F       -3.28508         1.35725        -0.22651
|  8>    C       -2.09148        -0.66814        -0.02497
|  9>    F       -3.28431        -1.28818        -0.06465
| 10>    C       -0.93703        -1.41888         0.09662
| 11>    C        0.27060        -0.66941         0.12846
| 12>    C        0.25393         0.77075         0.03936
| 13>    N        1.47961         1.29162         0.08674
| 14>    S        2.54160         0.09931         0.22847
| 15>    N        1.51377        -1.13521         0.23760
| 16>    C       -1.01112        -2.86614         0.18283
| 17>    C        0.03074        -3.68374         0.30171
| 18>    H       -0.96447         2.55468        -0.14826
| 19>    H       -2.01511        -3.26720         0.14270
| 20>    H        1.03869        -3.31041         0.34349
| 21>    H       -0.10762        -4.74955         0.36043
| 22> *
| 23>
| 24>                          ****END OF INPUT****
 Total Charge           Charge          ....    0
 Multiplicity           Mult            ....    1
 Number of Electrons    NEL             ....  100
Dispersion correction           -0.038352925
FINAL SINGLE POINT ENERGY     -1014.049923672214
Dispersion correction            ... done
Dispersion correction           -0.038029671
FINAL SINGLE POINT ENERGY     -1014.053510736268
Dispersion correction            ... done
Dispersion correction           -0.038019615
FINAL SINGLE POINT ENERGY     -1014.054032624010
Dispersion correction            ... done
FINAL SINGLE POINT ENERGY     -1014.054165059097
FINAL SINGLE POINT ENERGY     -1014.054150781234
Dispersion correction            ... done
Dispersion correction           -0.038049933
FINAL SINGLE POINT ENERGY     -1014.054208449244
Dispersion correction            ... done
Dispersion correction           -0.038049815
FINAL SINGLE POINT ENERGY     -1014.054212233415
Dispersion correction            ... done
                    ***********************HURRAY********************

CARTESIAN COORDINATES (ANGSTROEM)
---------------------------------
  C     -0.964318    1.507594   -0.080781
  C     -2.101256    0.753897   -0.125640
  F     -3.296835    1.322534   -0.272494
  C     -2.076925   -0.675730   -0.026382
  F     -3.262672   -1.285478   -0.085321
  C     -0.919808   -1.418794    0.111162
  C      0.301572   -0.649506    0.142222
  C      0.269934    0.807236    0.052108
  N      1.478442    1.367724    0.101232
  S      2.568240    0.149113    0.243147
  N      1.539785   -1.132578    0.252176
  C     -1.006798   -2.874344    0.214460
  C      0.016334   -3.741231    0.274645
  H     -1.000268    2.593763   -0.157103
  H     -2.028186   -3.262068    0.243575
  H      1.055240   -3.410927    0.249532
  H     -0.189044   -4.812184    0.353742

 Multiplicity           Mult            ....    1
 Number of Electrons    NEL             ....  100
 Basis Dimension        Dim             ....  206

ORBITAL ENERGIES
----------------

  NO   OCC          E(Eh)            E(eV)
   0   2.0000     -88.944118     -2420.2925
   1   2.0000     -24.726130      -672.8322
   2   2.0000     -24.724023      -672.7749
   3   2.0000     -14.369500      -391.0140
   4   2.0000     -14.368225      -390.9793
   5   2.0000     -10.305668      -280.4315
   6   2.0000     -10.303403      -280.3699
   7   2.0000     -10.258880      -279.1583
   8   2.0000     -10.258506      -279.1481
   9   2.0000     -10.233083      -278.4564
  10   2.0000     -10.223879      -278.2059
  11   2.0000     -10.208067      -277.7756
  12   2.0000     -10.196721      -277.4669
  13   2.0000      -8.035376      -218.6537
  14   2.0000      -6.005511      -163.4183
  15   2.0000      -5.998199      -163.2193
  16   2.0000      -5.996283      -163.1672
  17   2.0000      -1.245272       -33.8856
  18   2.0000      -1.228757       -33.4362
  19   2.0000      -1.028252       -27.9802
  20   2.0000      -0.898405       -24.4468
  21   2.0000      -0.879255       -23.9258
  22   2.0000      -0.804170       -21.8826
  23   2.0000      -0.772427       -21.0188
  24   2.0000      -0.746404       -20.3107
  25   2.0000      -0.678796       -18.4710
  26   2.0000      -0.638032       -17.3617
  27   2.0000      -0.630199       -17.1486
  28   2.0000      -0.579753       -15.7759
  29   2.0000      -0.565872       -15.3982
  30   2.0000      -0.556274       -15.1370
  31   2.0000      -0.550931       -14.9916
  32   2.0000      -0.513164       -13.9639
  33   2.0000      -0.494569       -13.4579
  34   2.0000      -0.476828       -12.9752
  35   2.0000      -0.476006       -12.9528
  36   2.0000      -0.466497       -12.6940
  37   2.0000      -0.464690       -12.6449
  38   2.0000      -0.433862       -11.8060
  39   2.0000      -0.425677       -11.5833
  40   2.0000      -0.409793       -11.1510
  41   2.0000      -0.389264       -10.5924
  42   2.0000      -0.381339       -10.3768
  43   2.0000      -0.368904       -10.0384
  44   2.0000      -0.353806        -9.6275
  45   2.0000      -0.332875        -9.0580
  46   2.0000      -0.308968        -8.4074
  47   2.0000      -0.301659        -8.2086
  48   2.0000      -0.272178        -7.4064
  49   2.0000      -0.240930        -6.5560
  50   0.0000      -0.103857        -2.8261
  51   0.0000      -0.038519        -1.0482
  52   0.0000      -0.003584        -0.0975
  53   0.0000       0.007472         0.2033
  54   0.0000       0.037754         1.0274

MULLIKEN ATOMIC CHARGES
-----------------------
   0 C :   -0.114004
   1 C :    0.270245
   2 F :   -0.171300
   3 C :    0.157090
   4 F :   -0.170866
   5 C :    0.019063
   6 C :    0.014163
   7 C :    0.068180
   8 N :   -0.280850
   9 S :    0.476603
  10 N :   -0.294833
  11 C :   -0.040583
  12 C :    0.006200
  13 H :   -0.003278
  14 H :   -0.006585
  15 H :    0.042375
  16 H :    0.028381
Sum of atomic charges:   -0.0000000

LOEWDIN ATOMIC CHARGES
----------------------
   0 C :   -0.052694
   1 C :    0.065589
   2 F :   -0.041011
   3 C :    0.065370
   4 F :   -0.039594
   5 C :   -0.052951
   6 C :   -0.040976
   7 C :   -0.049905
   8 N :   -0.276754
   9 S :    0.609828
  10 N :   -0.274976
  11 C :   -0.030822
  12 C :   -0.016851
  13 H :    0.049834
  14 H :    0.030894
  15 H :    0.026750
  16 H :    0.028267

  Mayer bond orders larger than 0.100000
B(  0-C ,  1-C ) :   1.4490 B(  0-C ,  5-C ) :   0.1169 B(  0-C ,  7-C ) :   1.1415
B(  0-C , 13-H ) :   1.0328 B(  1-C ,  2-F ) :   1.1094 B(  1-C ,  3-C ) :   1.1128
B(  3-C ,  4-F ) :   1.1344 B(  3-C ,  5-C ) :   1.4216 B(  5-C ,  6-C ) :   1.1504
B(  5-C , 11-C ) :   1.1298 B(  6-C ,  7-C ) :   1.1253 B(  6-C , 10-N ) :   1.5412
B(  7-C ,  8-N ) :   1.5173 B(  8-N ,  9-S ) :   1.2387 B(  8-N , 10-N ) :   0.1546
B(  9-S , 10-N ) :   1.2206 B( 11-C , 12-C ) :   1.8991 B( 11-C , 14-H ) :   0.9559
B( 12-C , 15-H ) :   0.9310 B( 12-C , 16-H ) :   0.9416

Dispersion correction           -0.038049751
FINAL SINGLE POINT ENERGY     -1014.054214020207

DIPOLE MOMENT
-------------
                                X             Y             Z
Electronic contribution:     -4.43838       7.53647      -0.81038
Nuclear contribution   :      4.75113      -7.65992       0.84640
                        -----------------------------------------
Total Dipole Moment    :      0.31275      -0.12346       0.03602
                        -----------------------------------------
Magnitude (a.u.)       :      0.33816
Magnitude (Debye)      :      0.85953

Rotational constants in cm-1:     0.035218     0.020996     0.013155
Rotational constants in MHz :  1055.804407   629.435547   394.387128

                             ****ORCA TERMINATED NORMALLY****
TOTAL RUN TIME: 0 days 0 hours 9 minutes 5 seconds 335 msec
