                         Program Version 4.2.0 -  RELEASE  -
|  1> # ORCA input file
|  2> # SCF done        -20.110215305889          0.000479460107
|  3> ! B3LYP/G D3BJ Opt RIJCOSX def2-SVP def2/J
|  4> * xyz 0 1
|  5>    C        0.14319         1.20775        -0.00117
|  6>    C        0.80414        -0.00676        -0.00136
|  7>    F        2.15516        -0.01538        -0.00177
|  8>    C        0.12774        -1.21273        -0.00111
|  9>    C       -1.25635        -1.19438        -0.00066
| 10>    C       -1.93925         0.01075        -0.00045
| 11>    C       -1.24102         1.20707        -0.00072
| 12>    H        0.70886         2.12603        -0.00133
| 13>    H        0.68167        -2.13814        -0.00127
| 14>    H       -1.80163        -2.12615        -0.00050
| 15>    H       -3.01865         0.01764        -0.00015
| 16>    H       -1.77435         2.14573        -0.00056
| 17> *
| 18>
| 19>                          ****END OF INPUT****
 Total Charge           Charge          ....    0
 Multiplicity           Mult            ....    1
 Number of Electrons    NEL             ....   50
Dispersion correction           -0.019312278
FINAL SINGLE POINT ENERGY      -331.262190861263
Dispersion correction            ... done
Dispersion correction           -0.019222563
FINAL SINGLE POINT ENERGY      -331.263653090932
Dispersion correction            ... done
Dispersion correction           -0.019212442
FINAL SINGLE POINT ENERGY      -331.263696196483
Dispersion correction            ... done
Dispersion correction           -0.019212032
FINAL SINGLE POINT ENERGY      -331.263700542433
Dispersion correction            ... done
                    ***********************HURRAY********************

CARTESIAN COORDINATES (ANGSTROEM)
---------------------------------
  C      0.150643    1.215577   -0.001151
  C      0.818772   -0.006857   -0.001345
  F      2.160302   -0.015043   -0.001774
  C      0.135149   -1.220785   -0.001111
  C     -1.261967   -1.203695   -0.000679
  C     -1.954845    0.010825   -0.000483
  C     -1.246517    1.216391   -0.000717
  H      0.729447    2.140745   -0.001355
  H      0.701925   -2.153423   -0.001280
  H     -1.811928   -2.147556   -0.000482
  H     -3.047039    0.018052   -0.000121
  H     -1.784431    2.167200   -0.000552

 Multiplicity           Mult            ....    1
 Number of Electrons    NEL             ....   50
 Basis Dimension        Dim             ....  123

ORBITAL ENERGIES
----------------

  NO   OCC          E(Eh)            E(eV)
   0   2.0000     -24.696119      -672.0156
   1   2.0000     -10.273970      -279.5689
   2   2.0000     -10.203693      -277.6566
   3   2.0000     -10.203669      -277.6559
   4   2.0000     -10.199673      -277.5472
   5   2.0000     -10.199639      -277.5463
   6   2.0000     -10.197197      -277.4798
   7   2.0000      -1.206293       -32.8249
   8   2.0000      -0.858052       -23.3488
   9   2.0000      -0.753108       -20.4931
  10   2.0000      -0.743128       -20.2215
  11   2.0000      -0.622624       -16.9424
  12   2.0000      -0.610067       -16.6008
  13   2.0000      -0.547028       -14.8854
  14   2.0000      -0.497986       -13.5509
  15   2.0000      -0.491929       -13.3861
  16   2.0000      -0.468279       -12.7425
  17   2.0000      -0.449185       -12.2229
  18   2.0000      -0.436067       -11.8660
  19   2.0000      -0.401871       -10.9355
  20   2.0000      -0.377724       -10.2784
  21   2.0000      -0.366911        -9.9842
  22   2.0000      -0.351064        -9.5529
  23   2.0000      -0.268317        -7.3013
  24   2.0000      -0.252638        -6.8746
  25   0.0000      -0.020871        -0.5679
  26   0.0000      -0.008786        -0.2391
  27   0.0000       0.054363         1.4793
  28   0.0000       0.092606         2.5199
  29   0.0000       0.107559         2.9268

MULLIKEN ATOMIC CHARGES
-----------------------
   0 C :   -0.042703
   1 C :    0.275411
   2 F :   -0.200278
   3 C :   -0.043110
   4 C :    0.023202
   5 C :    0.011610
   6 C :    0.022867
   7 H :   -0.009771
   8 H :   -0.009767
   9 H :   -0.009674
  10 H :   -0.007920
  11 H :   -0.009866
Sum of atomic charges:   -0.0000000

LOEWDIN ATOMIC CHARGES
----------------------
   0 C :   -0.053528
   1 C :    0.082200
   2 F :   -0.068586
   3 C :   -0.053584
   4 C :   -0.012853
   5 C :   -0.039947
   6 C :   -0.012865
   7 H :    0.035094
   8 H :    0.035093
   9 H :    0.029925
  10 H :    0.029165
  11 H :    0.029886

  Mayer bond orders larger than 0.100000
B(  0-C ,  1-C ) :   1.3678 B(  0-C ,  6-C ) :   1.3630 B(  0-C ,  7-H ) :   0.9895
B(  1-C ,  2-F ) :   1.0708 B(  1-C ,  3-C ) :   1.3678 B(  3-C ,  4-C ) :   1.3630
B(  3-C ,  8-H ) :   0.9896 B(  4-C ,  5-C ) :   1.3848 B(  4-C ,  9-H ) :   0.9847
B(  5-C ,  6-C ) :   1.3850 B(  5-C , 10-H ) :   0.9898 B(  6-C , 11-H ) :   0.9848

Dispersion correction           -0.019212790
FINAL SINGLE POINT ENERGY      -331.263701155085

DIPOLE MOMENT
-------------
                                X             Y             Z
Electronic contribution:      6.17629      -0.03895      -0.00196
Nuclear contribution   :     -6.71300       0.04223       0.00214
                        -----------------------------------------
Total Dipole Moment    :     -0.53671       0.00328       0.00018
                        -----------------------------------------
Magnitude (a.u.)       :      0.53672
Magnitude (Debye)      :      1.36424

Rotational constants in cm-1:     0.188351     0.085314     0.058718
Rotational constants in MHz :  5646.616907  2557.652445  1760.313188

                             ****ORCA TERMINATED NORMALLY****
TOTAL RUN TIME: 0 days 0 hours 1 minutes 40 seconds 572 msec
