                         Program Version 4.2.0 -  RELEASE  -
|  1> # ORCA input file
|  2> # SCF done        -27.353331634655          0.000541764374
|  3> ! B3LYP/G D3BJ Opt RIJCOSX def2-SVP def2/J
|  4> * xyz 0 1
|  5>    C       -1.31167        -0.13196        -0.03130
|  6>    S       -0.50395         1.38019         0.05048
|  7>    C        1.01402         0.60591         0.09987
|  8>    C        0.92298        -0.76454         0.05422
|  9>    C        2.07273        -1.68500         0.08061
| 10>    O        1.98898        -2.86872        -0.15091
| 11>    O        3.26737        -1.15782         0.38371
| 12>    C       -0.44766        -1.18604        -0.03091
| 13>    S       -1.02001        -2.83803        -0.10680
| 14>    H       -2.38036        -0.17234        -0.07954
| 15>    H        1.89286         1.22308         0.13031
| 16>    H        3.23008        -0.21626         0.59106
| 17>    H        0.20953        -3.35564        -0.17652
| 18> *
| 19>
| 20>                          ****END OF INPUT****
 Total Charge           Charge          ....    0
 Multiplicity           Mult            ....    1
 Number of Electrons    NEL             ....   82
Dispersion correction           -0.030263125
FINAL SINGLE POINT ENERGY     -1139.322172572329
Dispersion correction            ... done
Dispersion correction           -0.030055145
FINAL SINGLE POINT ENERGY     -1139.324075807008
Dispersion correction            ... done
Dispersion correction           -0.030066302
FINAL SINGLE POINT ENERGY     -1139.324346696113
Dispersion correction            ... done
FINAL SINGLE POINT ENERGY     -1139.324341558954
FINAL SINGLE POINT ENERGY     -1139.324574709193
FINAL SINGLE POINT ENERGY     -1139.324628547387
FINAL SINGLE POINT ENERGY     -1139.324772173758
FINAL SINGLE POINT ENERGY     -1139.324786163486
FINAL SINGLE POINT ENERGY     -1139.324755757871
Dispersion correction            ... done
Dispersion correction           -0.030098230
FINAL SINGLE POINT ENERGY     -1139.324765528035
Dispersion correction            ... done
Dispersion correction           -0.030098330
FINAL SINGLE POINT ENERGY     -1139.324770841944
Dispersion correction            ... done
                    ***********************HURRAY********************

CARTESIAN COORDINATES (ANGSTROEM)
---------------------------------
  C     -1.317874   -0.125792    0.005309
  S     -0.497518    1.396086   -0.019952
  C      1.035011    0.624914   -0.000156
  C      0.931065   -0.753557    0.031039
  C      2.105725   -1.666223    0.024056
  O      2.077093   -2.802981   -0.383604
  O      3.257627   -1.156109    0.504725
  C     -0.448415   -1.192799    0.020583
  S     -1.013864   -2.865976    0.092524
  H     -2.405644   -0.160928   -0.004589
  H      1.943352    1.223206   -0.073217
  H      3.095090   -0.299540    0.923569
  H      0.173251   -3.387471   -0.306007

 Multiplicity           Mult            ....    1
 Number of Electrons    NEL             ....   82
 Basis Dimension        Dim             ....  154

ORBITAL ENERGIES
----------------

  NO   OCC          E(Eh)            E(eV)
   0   2.0000     -88.902540     -2419.1611
   1   2.0000     -88.848436     -2417.6889
   2   2.0000     -19.193372      -522.2782
   3   2.0000     -19.135644      -520.7074
   4   2.0000     -10.336230      -281.2631
   5   2.0000     -10.248296      -278.8703
   6   2.0000     -10.241480      -278.6848
   7   2.0000     -10.230488      -278.3857
   8   2.0000     -10.229313      -278.3537
   9   2.0000      -7.997656      -217.6273
  10   2.0000      -7.943334      -216.1491
  11   2.0000      -5.965710      -162.3352
  12   2.0000      -5.961537      -162.2217
  13   2.0000      -5.959139      -162.1564
  14   2.0000      -5.912658      -160.8916
  15   2.0000      -5.908209      -160.7705
  16   2.0000      -5.902680      -160.6201
  17   2.0000      -1.107154       -30.1272
  18   2.0000      -1.024180       -27.8694
  19   2.0000      -0.909391       -24.7458
  20   2.0000      -0.797049       -21.6888
  21   2.0000      -0.767430       -20.8828
  22   2.0000      -0.703474       -19.1425
  23   2.0000      -0.644917       -17.5491
  24   2.0000      -0.611258       -16.6332
  25   2.0000      -0.590028       -16.0555
  26   2.0000      -0.534031       -14.5317
  27   2.0000      -0.471054       -12.8180
  28   2.0000      -0.468321       -12.7437
  29   2.0000      -0.459656       -12.5079
  30   2.0000      -0.446798       -12.1580
  31   2.0000      -0.428057       -11.6480
  32   2.0000      -0.408458       -11.1147
  33   2.0000      -0.397505       -10.8167
  34   2.0000      -0.373822       -10.1722
  35   2.0000      -0.356017        -9.6877
  36   2.0000      -0.336208        -9.1487
  37   2.0000      -0.308683        -8.3997
  38   2.0000      -0.292814        -7.9679
  39   2.0000      -0.275490        -7.4965
  40   2.0000      -0.225797        -6.1443
  41   0.0000      -0.064045        -1.7428
  42   0.0000      -0.013714        -0.3732
  43   0.0000       0.016950         0.4612
  44   0.0000       0.027897         0.7591
  45   0.0000       0.048208         1.3118

MULLIKEN ATOMIC CHARGES
-----------------------
   0 C :   -0.130711
   1 S :    0.137601
   2 C :   -0.144280
   3 C :   -0.047115
   4 C :    0.202316
   5 O :   -0.204445
   6 O :   -0.153627
   7 C :   -0.012855
   8 S :   -0.009199
   9 H :    0.037096
  10 H :    0.035464
  11 H :    0.175360
  12 H :    0.114396
Sum of atomic charges:   -0.0000000

LOEWDIN ATOMIC CHARGES
----------------------
   0 C :   -0.215974
   1 S :    0.465443
   2 C :   -0.192581
   3 C :   -0.134336
   4 C :    0.089634
   5 O :   -0.158585
   6 O :   -0.024745
   7 C :   -0.175553
   8 S :    0.201970
   9 H :    0.029951
  10 H :    0.025873
  11 H :    0.089961
  12 H :   -0.001058

  Mayer bond orders larger than 0.100000
B(  0-C ,  1-S ) :   1.1545 B(  0-C ,  7-C ) :   1.5449 B(  0-C ,  9-H ) :   0.9678
B(  1-S ,  2-C ) :   1.2126 B(  2-C ,  3-C ) :   1.4872 B(  2-C , 10-H ) :   0.9640
B(  3-C ,  4-C ) :   0.9389 B(  3-C ,  7-C ) :   1.2514 B(  4-C ,  5-O ) :   2.0515
B(  4-C ,  6-O ) :   1.2419 B(  6-O , 11-H ) :   0.9516 B(  7-C ,  8-S ) :   1.0790
B(  8-S , 12-H ) :   0.9076

Dispersion correction           -0.030098538
FINAL SINGLE POINT ENERGY     -1139.324770332586

DIPOLE MOMENT
-------------
                                X             Y             Z
Electronic contribution:     -1.34637       0.50019      -0.05192
Nuclear contribution   :      1.18797       1.02048       0.37172
                        -----------------------------------------
Total Dipole Moment    :     -0.15839       1.52067       0.31980
                        -----------------------------------------
Magnitude (a.u.)       :      1.56198
Magnitude (Debye)      :      3.97025

Rotational constants in cm-1:     0.049475     0.037370     0.021675
Rotational constants in MHz :  1483.209615  1120.334400   649.785661

                             ****ORCA TERMINATED NORMALLY****
TOTAL RUN TIME: 0 days 0 hours 7 minutes 21 seconds 383 msec
