                         Program Version 4.2.0 -  RELEASE  -
|  1> # ORCA input file
|  2> # SCF done        -27.552323926357          0.000754070060
|  3> ! B3LYP/G D3BJ Opt RIJCOSX def2-SVP def2/J
|  4> * xyz 0 1
|  5>    C       -0.71125         1.11316        -0.37374
|  6>    S       -1.49404        -0.37624        -0.05609
|  7>    C        0.02766        -1.15896         0.14388
|  8>    C        1.07745        -0.31858        -0.02445
|  9>    C        2.50483        -0.74109         0.09297
| 10>    C        0.65474         1.02069        -0.32977
| 11>    C        1.57823         2.10631        -0.55278
| 12>    C        1.24946         3.36871        -0.87224
| 13>    C        2.22299         4.40741        -1.07876
| 14>    C        1.91023         5.66351        -1.39124
| 15>    H       -1.31035         1.97845        -0.57372
| 16>    H        0.05116        -2.20541         0.37627
| 17>    H        2.56568        -1.80344         0.31540
| 18>    H        3.00134        -0.19019         0.89139
| 19>    H        3.03734        -0.54933        -0.83796
| 20>    H        2.62656         1.85565        -0.44875
| 21>    H        0.21297         3.65352        -0.98906
| 22>    H        3.26143         4.12149        -0.96494
| 23>    H        0.88511         5.97585        -1.50933
| 24>    H        2.66208         6.41933        -1.53929
| 25> *
| 26>
| 27>                          ****END OF INPUT****
 Total Charge           Charge          ....    0
 Multiplicity           Mult            ....    1
 Number of Electrons    NEL             ....   80
Dispersion correction           -0.037452644
FINAL SINGLE POINT ENERGY      -746.804883084322
Dispersion correction            ... done
Dispersion correction           -0.037184576
FINAL SINGLE POINT ENERGY      -746.807966171885
Dispersion correction            ... done
Dispersion correction           -0.037145911
FINAL SINGLE POINT ENERGY      -746.808045070073
Dispersion correction            ... done
FINAL SINGLE POINT ENERGY      -746.808003676719
FINAL SINGLE POINT ENERGY      -746.808035061387
FINAL SINGLE POINT ENERGY      -746.808041372625
Dispersion correction            ... done
Dispersion correction           -0.037150069
FINAL SINGLE POINT ENERGY      -746.808036052957
Dispersion correction            ... done
Dispersion correction           -0.037149158
FINAL SINGLE POINT ENERGY      -746.808031882604
Dispersion correction            ... done
                    ***********************HURRAY********************

CARTESIAN COORDINATES (ANGSTROEM)
---------------------------------
  C     -0.760401    1.075322   -0.416432
  S     -1.516618   -0.430679   -0.064094
  C      0.017659   -1.198399    0.162403
  C      1.067904   -0.336433   -0.024492
  C      2.510511   -0.728435    0.121298
  C      0.620501    0.999434   -0.368298
  C      1.548183    2.095377   -0.618560
  C      1.238425    3.386338   -0.876790
  C      2.229140    4.418718   -1.105222
  C      1.947237    5.712478   -1.338886
  H     -1.369460    1.943912   -0.658617
  H      0.065777   -2.250324    0.438824
  H      2.602674   -1.767434    0.468703
  H      3.032016   -0.085912    0.848730
  H      3.053889   -0.641775   -0.834275
  H      2.610439    1.831478   -0.585384
  H      0.188384    3.698876   -0.913508
  H      3.277625    4.096609   -1.077688
  H      0.914057    6.072070   -1.375211
  H      2.735679    6.449620   -1.504710

 Multiplicity           Mult            ....    1
 Number of Electrons    NEL             ....   80
 Basis Dimension        Dim             ....  194

ORBITAL ENERGIES
----------------

  NO   OCC          E(Eh)            E(eV)
   0   2.0000     -88.873276     -2418.3648
   1   2.0000     -10.209592      -277.8171
   2   2.0000     -10.206271      -277.7267
   3   2.0000     -10.198296      -277.5097
   4   2.0000     -10.196893      -277.4716
   5   2.0000     -10.196116      -277.4504
   6   2.0000     -10.194179      -277.3977
   7   2.0000     -10.194067      -277.3947
   8   2.0000     -10.191875      -277.3350
   9   2.0000     -10.186050      -277.1765
  10   2.0000      -7.968391      -216.8309
  11   2.0000      -5.936472      -161.5396
  12   2.0000      -5.932267      -161.4252
  13   2.0000      -5.929972      -161.3627
  14   2.0000      -0.880019       -23.9465
  15   2.0000      -0.805718       -21.9247
  16   2.0000      -0.768218       -20.9043
  17   2.0000      -0.750472       -20.4214
  18   2.0000      -0.697483       -18.9795
  19   2.0000      -0.669766       -18.2253
  20   2.0000      -0.611281       -16.6338
  21   2.0000      -0.571676       -15.5561
  22   2.0000      -0.542089       -14.7510
  23   2.0000      -0.523174       -14.2363
  24   2.0000      -0.494709       -13.4617
  25   2.0000      -0.463977       -12.6255
  26   2.0000      -0.437704       -11.9105
  27   2.0000      -0.427562       -11.6345
  28   2.0000      -0.423034       -11.5113
  29   2.0000      -0.402471       -10.9518
  30   2.0000      -0.396117       -10.7789
  31   2.0000      -0.375468       -10.2170
  32   2.0000      -0.373292       -10.1578
  33   2.0000      -0.364759        -9.9256
  34   2.0000      -0.351576        -9.5669
  35   2.0000      -0.342242        -9.3129
  36   2.0000      -0.332610        -9.0508
  37   2.0000      -0.275590        -7.4992
  38   2.0000      -0.239370        -6.5136
  39   2.0000      -0.207690        -5.6515
  40   0.0000      -0.053960        -1.4683
  41   0.0000      -0.001778        -0.0484
  42   0.0000       0.048141         1.3100
  43   0.0000       0.050745         1.3809
  44   0.0000       0.060393         1.6434

MULLIKEN ATOMIC CHARGES
-----------------------
   0 C :   -0.142385
   1 S :    0.100797
   2 C :   -0.134004
   3 C :   -0.073269
   4 C :    0.113094
   5 C :    0.100085
   6 C :   -0.010677
   7 C :    0.015700
   8 C :    0.001079
   9 C :   -0.029369
  10 H :    0.020896
  11 H :    0.012536
  12 H :    0.003264
  13 H :    0.026419
  14 H :    0.025879
  15 H :   -0.027415
  16 H :   -0.024188
  17 H :   -0.013142
  18 H :    0.011970
  19 H :    0.022731
Sum of atomic charges:    0.0000000

LOEWDIN ATOMIC CHARGES
----------------------
   0 C :   -0.187900
   1 S :    0.432953
   2 C :   -0.203870
   3 C :   -0.057901
   4 C :   -0.045245
   5 C :   -0.069790
   6 C :   -0.023772
   7 C :   -0.024410
   8 C :   -0.027739
   9 C :   -0.054974
  10 H :    0.021783
  11 H :    0.021720
  12 H :    0.031227
  13 H :    0.033547
  14 H :    0.034123
  15 H :    0.025183
  16 H :    0.023152
  17 H :    0.026514
  18 H :    0.020814
  19 H :    0.024584

  Mayer bond orders larger than 0.100000
B(  0-C ,  1-S ) :   1.1808 B(  0-C ,  5-C ) :   1.4988 B(  0-C , 10-H ) :   0.9547
B(  1-S ,  2-C ) :   1.1470 B(  2-C ,  3-C ) :   1.5807 B(  2-C , 11-H ) :   0.9584
B(  3-C ,  4-C ) :   1.1137 B(  3-C ,  5-C ) :   1.2255 B(  4-C , 12-H ) :   0.9474
B(  4-C , 13-H ) :   0.9398 B(  4-C , 14-H ) :   0.9397 B(  5-C ,  6-C ) :   1.0869
B(  6-C ,  7-C ) :   1.7037 B(  6-C ,  9-C ) :   0.1168 B(  6-C , 15-H ) :   0.9646
B(  7-C ,  8-C ) :   1.1246 B(  7-C , 16-H ) :   0.9701 B(  8-C ,  9-C ) :   1.8708
B(  8-C , 17-H ) :   0.9700 B(  9-C , 18-H ) :   0.9539 B(  9-C , 19-H ) :   0.9476

Dispersion correction           -0.037148433
FINAL SINGLE POINT ENERGY      -746.808028631646

DIPOLE MOMENT
-------------
                                X             Y             Z
Electronic contribution:    -10.03628      -6.45450       1.12743
Nuclear contribution   :     10.25968       6.27586      -1.07787
                        -----------------------------------------
Total Dipole Moment    :      0.22340      -0.17863       0.04956
                        -----------------------------------------
Magnitude (a.u.)       :      0.29030
Magnitude (Debye)      :      0.73787

Rotational constants in cm-1:     0.078407     0.018647     0.015110
Rotational constants in MHz :  2350.568311   559.017953   452.997244

                             ****ORCA TERMINATED NORMALLY****
TOTAL RUN TIME: 0 days 0 hours 8 minutes 41 seconds 25 msec
