                         Program Version 4.2.0 -  RELEASE  -
|  1> # ORCA input file
|  2> # SCF done        -18.994923564532          0.000571001847
|  3> ! B3LYP/G D3BJ Opt RIJCOSX def2-SVP def2/J
|  4> * xyz 0 1
|  5>    C        0.57086         0.94894        -0.37164
|  6>    C        1.17520        -0.22699        -0.17539
|  7>    C        0.16130        -1.26126         0.18866
|  8>    C       -1.11062        -0.48549         0.16927
|  9>    C       -0.86454         0.80223        -0.15920
| 10>    C       -1.85763         1.84806        -0.27913
| 11>    C       -1.61769         3.10360        -0.63951
| 12>    H        1.04810         1.87318        -0.64009
| 13>    H        2.22536        -0.44210        -0.25461
| 14>    H        0.35884        -1.69803         1.17086
| 15>    H        0.14662        -2.08632        -0.52787
| 16>    H       -2.06784        -0.92286         0.38871
| 17>    H       -2.87155         1.53914        -0.05246
| 18>    H       -0.62801         3.45403        -0.87784
| 19>    H       -2.40770         3.83166        -0.71008
| 20> *
| 21>
| 22>                          ****END OF INPUT****
 Total Charge           Charge          ....    0
 Multiplicity           Mult            ....    1
 Number of Electrons    NEL             ....   50
Dispersion correction           -0.023326233
FINAL SINGLE POINT ENERGY      -271.332621666167
Dispersion correction            ... done
Dispersion correction           -0.023182195
FINAL SINGLE POINT ENERGY      -271.335065157810
Dispersion correction            ... done
Dispersion correction           -0.023162313
FINAL SINGLE POINT ENERGY      -271.335126572914
Dispersion correction            ... done
FINAL SINGLE POINT ENERGY      -271.335143217948
Dispersion correction            ... done
Dispersion correction           -0.023156340
FINAL SINGLE POINT ENERGY      -271.335144018402
Dispersion correction            ... done
Dispersion correction           -0.023158710
FINAL SINGLE POINT ENERGY      -271.335144077010
Dispersion correction            ... done
                    ***********************HURRAY********************

CARTESIAN COORDINATES (ANGSTROEM)
---------------------------------
  C      0.587356    0.941307   -0.397355
  C      1.195567   -0.244802   -0.182253
  C      0.166625   -1.270047    0.204951
  C     -1.117226   -0.494480    0.171683
  C     -0.867656    0.797453   -0.179071
  C     -1.868841    1.849853   -0.307653
  C     -1.631588    3.134740   -0.613116
  H      1.077371    1.868808   -0.695565
  H      2.261556   -0.458913   -0.272206
  H      0.371167   -1.703628    1.203442
  H      0.156188   -2.131035   -0.490572
  H     -2.096648   -0.912931    0.407142
  H     -2.902439    1.532797   -0.125635
  H     -0.623418    3.511086   -0.805222
  H     -2.447314    3.857583   -0.688888

 Multiplicity           Mult            ....    1
 Number of Electrons    NEL             ....   50
 Basis Dimension        Dim             ....  138

ORBITAL ENERGIES
----------------

  NO   OCC          E(Eh)            E(eV)
   0   2.0000     -10.195448      -277.4322
   1   2.0000     -10.192513      -277.3524
   2   2.0000     -10.189577      -277.2725
   3   2.0000     -10.185867      -277.1715
   4   2.0000     -10.184753      -277.1412
   5   2.0000     -10.184626      -277.1378
   6   2.0000     -10.184164      -277.1252
   7   2.0000      -0.855461       -23.2783
   8   2.0000      -0.770293       -20.9607
   9   2.0000      -0.699501       -19.0344
  10   2.0000      -0.688922       -18.7465
  11   2.0000      -0.583464       -15.8769
  12   2.0000      -0.551794       -15.0151
  13   2.0000      -0.519085       -14.1250
  14   2.0000      -0.494612       -13.4591
  15   2.0000      -0.444994       -12.1089
  16   2.0000      -0.437204       -11.8969
  17   2.0000      -0.408460       -11.1148
  18   2.0000      -0.386441       -10.5156
  19   2.0000      -0.370224       -10.0743
  20   2.0000      -0.361791        -9.8448
  21   2.0000      -0.342857        -9.3296
  22   2.0000      -0.333666        -9.0795
  23   2.0000      -0.263393        -7.1673
  24   2.0000      -0.215133        -5.8541
  25   0.0000      -0.035986        -0.9792
  26   0.0000       0.007607         0.2070
  27   0.0000       0.071244         1.9386
  28   0.0000       0.085644         2.3305
  29   0.0000       0.086990         2.3671

MULLIKEN ATOMIC CHARGES
-----------------------
   0 C :    0.017318
   1 C :   -0.083171
   2 C :    0.136736
   3 C :   -0.142489
   4 C :    0.056803
   5 C :    0.009036
   6 C :   -0.030621
   7 H :   -0.023307
   8 H :   -0.009035
   9 H :    0.034033
  10 H :    0.038496
  11 H :   -0.016654
  12 H :   -0.021079
  13 H :    0.011669
  14 H :    0.022267
Sum of atomic charges:   -0.0000000

LOEWDIN ATOMIC CHARGES
----------------------
   0 C :   -0.026847
   1 C :   -0.030999
   2 C :   -0.028205
   3 C :   -0.030583
   4 C :   -0.038485
   5 C :   -0.023875
   6 C :   -0.053473
   7 H :    0.020993
   8 H :    0.020782
   9 H :    0.049399
  10 H :    0.049786
  11 H :    0.018965
  12 H :    0.027893
  13 H :    0.019712
  14 H :    0.024937

  Mayer bond orders larger than 0.100000
B(  0-C ,  1-C ) :   1.7734 B(  0-C ,  4-C ) :   1.0676 B(  0-C ,  7-H ) :   0.9954
B(  1-C ,  2-C ) :   1.0529 B(  1-C ,  8-H ) :   0.9852 B(  2-C ,  3-C ) :   1.0279
B(  2-C ,  9-H ) :   0.8985 B(  2-C , 10-H ) :   0.8996 B(  3-C ,  4-C ) :   1.6890
B(  3-C ,  6-C ) :   0.1150 B(  3-C , 11-H ) :   0.9918 B(  4-C ,  5-C ) :   1.1016
B(  5-C ,  6-C ) :   1.9137 B(  5-C , 12-H ) :   0.9628 B(  6-C , 13-H ) :   0.9480
B(  6-C , 14-H ) :   0.9456

Dispersion correction           -0.023159403
FINAL SINGLE POINT ENERGY      -271.335144699261

DIPOLE MOMENT
-------------
                                X             Y             Z
Electronic contribution:      0.21039      -0.42406       0.03838
Nuclear contribution   :     -0.13925       0.15093       0.01834
                        -----------------------------------------
Total Dipole Moment    :      0.07113      -0.27312       0.05672
                        -----------------------------------------
Magnitude (a.u.)       :      0.28787
Magnitude (Debye)      :      0.73172

Rotational constants in cm-1:     0.237921     0.064253     0.051074
Rotational constants in MHz :  7132.696986  1926.271187  1531.152742

                             ****ORCA TERMINATED NORMALLY****
TOTAL RUN TIME: 0 days 0 hours 3 minutes 21 seconds 10 msec
