                         Program Version 4.2.0 -  RELEASE  -
|  1> # ORCA input file
|  2> # SCF done        -13.512751072430          0.000273312654
|  3> ! B3LYP/G D3BJ Opt RIJCOSX def2-SVP def2/J
|  4> * xyz 0 1
|  5>    C        0.31557         0.97510        -0.17896
|  6>    O        0.90740        -0.31525        -0.35093
|  7>    C       -0.33044        -0.98194        -0.09002
|  8>    C       -1.05264         0.35287         0.11340
|  9>    H        0.37963         1.57365        -1.09218
| 10>    H        0.77503         1.52256         0.64883
| 11>    H       -0.26408        -1.62529         0.79188
| 12>    H       -0.65929        -1.57361        -0.94916
| 13>    H       -1.43244         0.52385         1.11685
| 14>    H       -1.82636         0.57510        -0.61623
| 15> *
| 16>
| 17>                          ****END OF INPUT****
 Total Charge           Charge          ....    0
 Multiplicity           Mult            ....    1
 Number of Electrons    NEL             ....   32
Dispersion correction           -0.009780203
FINAL SINGLE POINT ENERGY      -192.971009777603
Dispersion correction            ... done
Dispersion correction           -0.009736739
FINAL SINGLE POINT ENERGY      -192.971838400874
Dispersion correction            ... done
Dispersion correction           -0.009730272
FINAL SINGLE POINT ENERGY      -192.971862441233
Dispersion correction            ... done
Dispersion correction           -0.009727773
FINAL SINGLE POINT ENERGY      -192.971866243392
Dispersion correction            ... done
Dispersion correction           -0.009727665
FINAL SINGLE POINT ENERGY      -192.971866138025
Dispersion correction            ... done
                    ***********************HURRAY********************

CARTESIAN COORDINATES (ANGSTROEM)
---------------------------------
  C      0.324098    0.974244   -0.181647
  O      0.918846   -0.319735   -0.362838
  C     -0.323646   -0.986817   -0.091958
  C     -1.056074    0.354067    0.111964
  H      0.389859    1.597579   -1.092345
  H      0.780816    1.533858    0.655220
  H     -0.262571   -1.639317    0.798702
  H     -0.668215   -1.596548   -0.947252
  H     -1.447358    0.530639    1.123822
  H     -1.843376    0.579069   -0.620188

 Multiplicity           Mult            ....    1
 Number of Electrons    NEL             ....   32
 Basis Dimension        Dim             ....   86

ORBITAL ENERGIES
----------------

  NO   OCC          E(Eh)            E(eV)
   0   2.0000     -19.119437      -520.2663
   1   2.0000     -10.234359      -278.4911
   2   2.0000     -10.234249      -278.4881
   3   2.0000     -10.193905      -277.3903
   4   2.0000      -1.030086       -28.0301
   5   2.0000      -0.735633       -20.0176
   6   2.0000      -0.683924       -18.6105
   7   2.0000      -0.553748       -15.0682
   8   2.0000      -0.499663       -13.5965
   9   2.0000      -0.487193       -13.2572
  10   2.0000      -0.445559       -12.1243
  11   2.0000      -0.401772       -10.9328
  12   2.0000      -0.375695       -10.2232
  13   2.0000      -0.335831        -9.1384
  14   2.0000      -0.307459        -8.3664
  15   2.0000      -0.247033        -6.7221
  16   0.0000       0.056685         1.5425
  17   0.0000       0.080541         2.1916
  18   0.0000       0.082029         2.2321
  19   0.0000       0.095293         2.5931
  20   0.0000       0.126118         3.4318

MULLIKEN ATOMIC CHARGES
-----------------------
   0 C :    0.214357
   1 O :   -0.406850
   2 C :    0.212912
   3 C :   -0.086888
   4 H :    0.007469
   5 H :    0.006376
   6 H :    0.007438
   7 H :    0.006890
   8 H :    0.016865
   9 H :    0.021431
Sum of atomic charges:    0.0000000

LOEWDIN ATOMIC CHARGES
----------------------
   0 C :    0.096748
   1 O :   -0.216610
   2 C :    0.096611
   3 C :   -0.052427
   4 H :    0.007391
   5 H :    0.007128
   6 H :    0.007452
   7 H :    0.007292
   8 H :    0.022740
   9 H :    0.023675

  Mayer bond orders larger than 0.100000
B(  0-C ,  1-O ) :   1.0211 B(  0-C ,  3-C ) :   1.1082 B(  0-C ,  4-H ) :   0.9457
B(  0-C ,  5-H ) :   0.9456 B(  1-O ,  2-C ) :   1.0226 B(  2-C ,  3-C ) :   1.1074
B(  2-C ,  6-H ) :   0.9456 B(  2-C ,  7-H ) :   0.9452 B(  3-C ,  8-H ) :   0.9495
B(  3-C ,  9-H ) :   0.9480

Dispersion correction           -0.009727890
FINAL SINGLE POINT ENERGY      -192.971866026039

DIPOLE MOMENT
-------------
                                X             Y             Z
Electronic contribution:      2.04664      -0.69908      -0.50819
Nuclear contribution   :     -2.74625       0.93844       0.67846
                        -----------------------------------------
Total Dipole Moment    :     -0.69961       0.23936       0.17027
                        -----------------------------------------
Magnitude (a.u.)       :      0.75877
Magnitude (Debye)      :      1.92865

Rotational constants in cm-1:     0.402652     0.393511     0.224764
Rotational constants in MHz : 12071.200358 11797.158258  6738.257419

                             ****ORCA TERMINATED NORMALLY****
TOTAL RUN TIME: 0 days 0 hours 1 minutes 1 seconds 984 msec
