                         Program Version 4.2.0 -  RELEASE  -
|  1> # ORCA input file
|  2> # SCF done        -35.622671761162          0.000916499252
|  3> ! B3LYP/G D3BJ Opt RIJCOSX def2-SVP def2/J
|  4> * xyz 0 1
|  5>    C        0.94255        -0.29240         0.07548
|  6>    C        0.21916         0.87178         0.27109
|  7>    O        0.78195         2.09579         0.50879
|  8>    C        2.18166         2.19975         0.53189
|  9>    C       -1.19172         0.82438         0.24026
| 10>    C       -1.80914        -0.39335         0.00186
| 11>    C       -1.07874        -1.56208        -0.19740
| 12>    C        0.30560        -1.50399        -0.15683
| 13>    O       -1.81464        -2.69206        -0.42577
| 14>    C       -1.12902        -3.89708        -0.65462
| 15>    C       -1.94766         2.05546         0.44072
| 16>    C       -3.23053         2.13739         0.77131
| 17>    H        2.02082        -0.28262         0.09831
| 18>    H        2.39444         3.25178         0.71870
| 19>    H        2.62513         1.90726        -0.42549
| 20>    H        2.61927         1.59667         1.33388
| 21>    H       -2.88338        -0.45771        -0.05061
| 22>    H        0.91138        -2.38362        -0.30573
| 23>    H       -1.89977        -4.64841        -0.81936
| 24>    H       -0.52223        -4.18722         0.20973
| 25>    H       -0.48980        -3.83528        -1.54199
| 26>    H       -1.36630         2.95988         0.32228
| 27>    H       -3.84457         1.26860         0.93713
| 28>    H       -3.71451         3.09041         0.90008
| 29> *
| 30>
| 31>                          ****END OF INPUT****
 Total Charge           Charge          ....    0
 Multiplicity           Mult            ....    1
 Number of Electrons    NEL             ....   88
Dispersion correction           -0.041908132
FINAL SINGLE POINT ENERGY      -538.341115229762
Dispersion correction            ... done
Dispersion correction           -0.041693767
FINAL SINGLE POINT ENERGY      -538.343465703103
Dispersion correction            ... done
Dispersion correction           -0.041660007
FINAL SINGLE POINT ENERGY      -538.343547023367
Dispersion correction            ... done
FINAL SINGLE POINT ENERGY      -538.343545508343
FINAL SINGLE POINT ENERGY      -538.343545827773
FINAL SINGLE POINT ENERGY      -538.343557983686
Dispersion correction            ... done
Dispersion correction           -0.041658687
FINAL SINGLE POINT ENERGY      -538.343564954811
Dispersion correction            ... done
Dispersion correction           -0.041657721
FINAL SINGLE POINT ENERGY      -538.343566488934
Dispersion correction            ... done
                    ***********************HURRAY********************

CARTESIAN COORDINATES (ANGSTROEM)
---------------------------------
  C      0.957797   -0.284192    0.020559
  C      0.223649    0.876878    0.270480
  O      0.792823    2.088921    0.520919
  C      2.193957    2.196001    0.534200
  C     -1.197059    0.829304    0.281227
  C     -1.816274   -0.403183    0.052093
  C     -1.082545   -1.571604   -0.188340
  C      0.314750   -1.507815   -0.206966
  O     -1.809427   -2.705607   -0.394990
  C     -1.124704   -3.913198   -0.624671
  C     -1.955239    2.065407    0.529894
  C     -3.282906    2.175358    0.680668
  H      2.046996   -0.256066   -0.000713
  H      2.429160    3.239010    0.784648
  H      2.634673    1.954236   -0.450644
  H      2.650029    1.535670    1.293287
  H     -2.904526   -0.484165    0.049616
  H      0.920834   -2.390275   -0.407497
  H     -1.889773   -4.694842   -0.723901
  H     -0.453456   -4.173452    0.214509
  H     -0.525753   -3.881181   -1.554000
  H     -1.341766    2.966030    0.600827
  H     -3.955335    1.313824    0.640207
  H     -3.745952    3.148269    0.862298

 Multiplicity           Mult            ....    1
 Number of Electrons    NEL             ....   88
 Basis Dimension        Dim             ....  228

ORBITAL ENERGIES
----------------

  NO   OCC          E(Eh)            E(eV)
   0   2.0000     -19.162489      -521.4378
   1   2.0000     -19.158636      -521.3330
   2   2.0000     -10.246096      -278.8105
   3   2.0000     -10.243867      -278.7498
   4   2.0000     -10.242299      -278.7071
   5   2.0000     -10.240492      -278.6580
   6   2.0000     -10.192733      -277.3584
   7   2.0000     -10.189561      -277.2721
   8   2.0000     -10.189059      -277.2584
   9   2.0000     -10.184331      -277.1297
  10   2.0000     -10.182811      -277.0884
  11   2.0000     -10.178487      -276.9707
  12   2.0000      -1.058256       -28.7966
  13   2.0000      -1.053560       -28.6688
  14   2.0000      -0.846810       -23.0429
  15   2.0000      -0.779314       -21.2062
  16   2.0000      -0.753491       -20.5035
  17   2.0000      -0.726206       -19.7611
  18   2.0000      -0.700875       -19.0718
  19   2.0000      -0.671104       -18.2617
  20   2.0000      -0.624368       -16.9899
  21   2.0000      -0.581994       -15.8369
  22   2.0000      -0.556819       -15.1518
  23   2.0000      -0.530991       -14.4490
  24   2.0000      -0.516300       -14.0492
  25   2.0000      -0.504938       -13.7401
  26   2.0000      -0.472485       -12.8570
  27   2.0000      -0.467442       -12.7197
  28   2.0000      -0.454126       -12.3574
  29   2.0000      -0.444087       -12.0842
  30   2.0000      -0.439741       -11.9660
  31   2.0000      -0.422452       -11.4955
  32   2.0000      -0.412017       -11.2116
  33   2.0000      -0.400862       -10.9080
  34   2.0000      -0.388338       -10.5672
  35   2.0000      -0.368874       -10.0376
  36   2.0000      -0.355798        -9.6818
  37   2.0000      -0.349377        -9.5070
  38   2.0000      -0.334096        -9.0912
  39   2.0000      -0.318975        -8.6797
  40   2.0000      -0.305414        -8.3107
  41   2.0000      -0.288346        -7.8463
  42   2.0000      -0.229652        -6.2491
  43   2.0000      -0.201513        -5.4835
  44   0.0000      -0.037207        -1.0125
  45   0.0000       0.015316         0.4168
  46   0.0000       0.058593         1.5944
  47   0.0000       0.058808         1.6003
  48   0.0000       0.066690         1.8147

MULLIKEN ATOMIC CHARGES
-----------------------
   0 C :   -0.093854
   1 C :    0.208727
   2 O :   -0.320809
   3 C :    0.193414
   4 C :    0.047564
   5 C :   -0.089305
   6 C :    0.241895
   7 C :   -0.090287
   8 O :   -0.316169
   9 C :    0.187152
  10 C :    0.003693
  11 C :   -0.018573
  12 H :   -0.030527
  13 H :    0.028214
  14 H :    0.014379
  15 H :    0.017102
  16 H :   -0.032807
  17 H :   -0.033644
  18 H :    0.030921
  19 H :    0.015057
  20 H :    0.013460
  21 H :   -0.006421
  22 H :    0.014384
  23 H :    0.016432
Sum of atomic charges:    0.0000000

LOEWDIN ATOMIC CHARGES
----------------------
   0 C :   -0.070894
   1 C :    0.043717
   2 O :   -0.102401
   3 C :    0.079148
   4 C :   -0.041348
   5 C :   -0.027622
   6 C :    0.037085
   7 C :   -0.068641
   8 O :   -0.108061
   9 C :    0.077220
  10 C :   -0.017863
  11 C :   -0.049266
  12 H :    0.026617
  13 H :    0.025529
  14 H :    0.011145
  15 H :    0.011666
  16 H :    0.030449
  17 H :    0.025350
  18 H :    0.026005
  19 H :    0.010580
  20 H :    0.010495
  21 H :    0.028487
  22 H :    0.018615
  23 H :    0.023989

  Mayer bond orders larger than 0.100000
B(  0-C ,  1-C ) :   1.3335 B(  0-C ,  7-C ) :   1.2992 B(  0-C , 12-H ) :   0.9875
B(  1-C ,  2-O ) :   1.1349 B(  1-C ,  4-C ) :   1.3046 B(  2-O ,  3-C ) :   0.9725
B(  3-C , 13-H ) :   0.9761 B(  3-C , 14-H ) :   0.9639 B(  3-C , 15-H ) :   0.9627
B(  4-C ,  5-C ) :   1.3651 B(  4-C , 10-C ) :   1.0969 B(  5-C ,  6-C ) :   1.3329
B(  5-C , 16-H ) :   0.9959 B(  6-C ,  7-C ) :   1.3161 B(  6-C ,  8-O ) :   1.1234
B(  7-C , 17-H ) :   0.9895 B(  8-O ,  9-C ) :   0.9788 B(  9-C , 18-H ) :   0.9766
B(  9-C , 19-H ) :   0.9633 B(  9-C , 20-H ) :   0.9639 B( 10-C , 11-C ) :   1.9234
B( 10-C , 21-H ) :   0.9563 B( 11-C , 22-H ) :   0.9424 B( 11-C , 23-H ) :   0.9458

Dispersion correction           -0.041656387
FINAL SINGLE POINT ENERGY      -538.343563578849

DIPOLE MOMENT
-------------
                                X             Y             Z
Electronic contribution:     -2.17044       0.77625       0.02410
Nuclear contribution   :      3.09884      -1.21017      -0.11351
                        -----------------------------------------
Total Dipole Moment    :      0.92840      -0.43392      -0.08942
                        -----------------------------------------
Magnitude (a.u.)       :      1.02869
Magnitude (Debye)      :      2.61472

Rotational constants in cm-1:     0.044449     0.021919     0.014767
Rotational constants in MHz :  1332.547095   657.111590   442.707016

                             ****ORCA TERMINATED NORMALLY****
TOTAL RUN TIME: 0 days 0 hours 12 minutes 23 seconds 529 msec
