                         Program Version 4.2.0 -  RELEASE  -
|  1> # ORCA input file
|  2> # SCF done        -19.300120928085          0.000235613097
|  3> ! B3LYP/G D3BJ Opt RIJCOSX def2-SVP def2/J
|  4> * xyz 0 1
|  5>    C       -0.29937         1.13023        -0.12376
|  6>    N       -1.08538         0.02711        -0.09274
|  7>    C       -0.31695        -1.08930         0.09380
|  8>    C       -0.90960        -2.39789         0.16820
|  9>    C       -0.24790        -3.53476         0.36613
| 10>    C        0.99589        -0.66434         0.18065
| 11>    C        1.00210         0.73156         0.04276
| 12>    H       -0.71244         2.11048        -0.26018
| 13>    H       -2.08732         0.02067        -0.19002
| 14>    H       -1.98761        -2.42076         0.05021
| 15>    H        0.82046        -3.55270         0.48942
| 16>    H       -0.75518        -4.48228         0.41146
| 17>    H        1.85412        -1.28931         0.32532
| 18>    H        1.86326         1.36993         0.06418
| 19> *
| 20>
| 21>                          ****END OF INPUT****
 Total Charge           Charge          ....    0
 Multiplicity           Mult            ....    1
 Number of Electrons    NEL             ....   50
Dispersion correction           -0.021325895
FINAL SINGLE POINT ENERGY      -287.388965738731
Dispersion correction            ... done
Dispersion correction           -0.021250903
FINAL SINGLE POINT ENERGY      -287.391469880566
Dispersion correction            ... done
Dispersion correction           -0.021234885
FINAL SINGLE POINT ENERGY      -287.391513877972
Dispersion correction            ... done
FINAL SINGLE POINT ENERGY      -287.391511059309
Dispersion correction            ... done
Dispersion correction           -0.021220610
FINAL SINGLE POINT ENERGY      -287.391504031466
Dispersion correction            ... done
Dispersion correction           -0.021220279
FINAL SINGLE POINT ENERGY      -287.391503348451
Dispersion correction            ... done
                    ***********************HURRAY********************

CARTESIAN COORDINATES (ANGSTROEM)
---------------------------------
  C     -0.307161    1.158021   -0.126948
  N     -1.080373    0.030774   -0.083694
  C     -0.296906   -1.090820    0.105248
  C     -0.897990   -2.409045    0.178135
  C     -0.264005   -3.578860    0.362620
  C      1.022132   -0.644165    0.185220
  C      1.013401    0.767305    0.038847
  H     -0.748853    2.140249   -0.278787
  H     -2.085670    0.009653   -0.194713
  H     -1.989378   -2.425388    0.059469
  H      0.820634   -3.634446    0.491072
  H     -0.819586   -4.517995    0.397641
  H      1.892793   -1.278053    0.338102
  H      1.875043    1.431412    0.053218

 Multiplicity           Mult            ....    1
 Number of Electrons    NEL             ....   50
 Basis Dimension        Dim             ....  133

ORBITAL ENERGIES
----------------

  NO   OCC          E(Eh)            E(eV)
   0   2.0000     -14.374470      -391.1492
   1   2.0000     -10.209605      -277.8175
   2   2.0000     -10.208806      -277.7957
   3   2.0000     -10.197050      -277.4758
   4   2.0000     -10.180646      -277.0295
   5   2.0000     -10.171617      -276.7838
   6   2.0000     -10.169833      -276.7352
   7   2.0000      -0.970501       -26.4087
   8   2.0000      -0.779069       -21.1995
   9   2.0000      -0.765066       -20.8185
  10   2.0000      -0.699454       -19.0331
  11   2.0000      -0.597112       -16.2482
  12   2.0000      -0.587128       -15.9766
  13   2.0000      -0.560405       -15.2494
  14   2.0000      -0.507568       -13.8116
  15   2.0000      -0.457373       -12.4457
  16   2.0000      -0.434115       -11.8129
  17   2.0000      -0.415686       -11.3114
  18   2.0000      -0.413286       -11.2461
  19   2.0000      -0.393697       -10.7130
  20   2.0000      -0.382391       -10.4054
  21   2.0000      -0.352931        -9.6038
  22   2.0000      -0.296045        -8.0558
  23   2.0000      -0.248611        -6.7650
  24   2.0000      -0.197940        -5.3862
  25   0.0000      -0.019815        -0.5392
  26   0.0000       0.047271         1.2863
  27   0.0000       0.056698         1.5428
  28   0.0000       0.085836         2.3357
  29   0.0000       0.088102         2.3974

MULLIKEN ATOMIC CHARGES
-----------------------
   0 C :    0.044543
   1 N :   -0.069352
   2 C :    0.063140
   3 C :    0.011040
   4 C :   -0.043905
   5 C :   -0.056322
   6 C :   -0.009635
   7 H :   -0.007685
   8 H :    0.114388
   9 H :   -0.027195
  10 H :    0.015102
  11 H :    0.016027
  12 H :   -0.029853
  13 H :   -0.020294
Sum of atomic charges:    0.0000000

LOEWDIN ATOMIC CHARGES
----------------------
   0 C :   -0.023869
   1 N :    0.085427
   2 C :   -0.029865
   3 C :   -0.039091
   4 C :   -0.062803
   5 C :   -0.069507
   6 C :   -0.077266
   7 H :    0.017885
   8 H :    0.084767
   9 H :    0.023955
  10 H :    0.022145
  11 H :    0.023353
  12 H :    0.021888
  13 H :    0.022983

  Mayer bond orders larger than 0.100000
B(  0-C ,  1-N ) :   1.2215 B(  0-C ,  2-C ) :   0.1017 B(  0-C ,  6-C ) :   1.4577
B(  0-C ,  7-H ) :   0.9879 B(  1-N ,  2-C ) :   1.1967 B(  1-N ,  8-H ) :   0.9380
B(  2-C ,  3-C ) :   1.0944 B(  2-C ,  5-C ) :   1.4523 B(  3-C ,  4-C ) :   1.9245
B(  3-C ,  9-H ) :   0.9458 B(  4-C , 10-H ) :   0.9535 B(  4-C , 11-H ) :   0.9441
B(  5-C ,  6-C ) :   1.3204 B(  5-C , 12-H ) :   1.0016 B(  6-C , 13-H ) :   1.0012

Dispersion correction           -0.021220519
FINAL SINGLE POINT ENERGY      -287.391504397549

DIPOLE MOMENT
-------------
                                X             Y             Z
Electronic contribution:     -0.62148       2.52663      -0.30669
Nuclear contribution   :     -0.08109      -2.29001       0.20319
                        -----------------------------------------
Total Dipole Moment    :     -0.70257       0.23662      -0.10350
                        -----------------------------------------
Magnitude (a.u.)       :      0.74854
Magnitude (Debye)      :      1.90263

Rotational constants in cm-1:     0.258922     0.065660     0.052378
Rotational constants in MHz :  7762.278699  1968.446697  1570.257394

                             ****ORCA TERMINATED NORMALLY****
TOTAL RUN TIME: 0 days 0 hours 3 minutes 54 seconds 956 msec
