                         Program Version 4.2.0 -  RELEASE  -
|  1> # ORCA input file
|  2> # SCF done        -35.778783812993          0.000966783861
|  3> ! B3LYP/G D3BJ Opt RIJCOSX def2-SVP def2/J
|  4> * xyz 0 1
|  5>    C       -1.78262        -1.35299         0.38614
|  6>    S       -2.93971        -0.09400         0.49542
|  7>    C       -1.77640         1.10428         0.02457
|  8>    C       -0.54514         0.52650        -0.19690
|  9>    C       -0.55831        -0.88683         0.01017
| 10>    O        0.50320        -1.73632        -0.06702
| 11>    S        1.94660        -1.19759        -0.69902
| 12>    C        2.32521         0.05749         0.56615
| 13>    C        1.64133         1.38666         0.20894
| 14>    O        0.53715         1.23600        -0.65834
| 15>    C       -2.19580         2.47943        -0.08029
| 16>    C       -1.47711         3.47125        -0.59857
| 17>    H       -2.05067        -2.36670         0.59990
| 18>    H        3.40614         0.16661         0.60563
| 19>    H        1.96812        -0.34820         1.51264
| 20>    H        2.32777         2.02245        -0.35530
| 21>    H        1.34003         1.91257         1.12678
| 22>    H       -3.18960         2.66912         0.30253
| 23>    H       -0.49737         3.30696        -1.00793
| 24>    H       -1.86248         4.47528        -0.63501
| 25> *
| 26>
| 27>                          ****END OF INPUT****
 Total Charge           Charge          ....    0
 Multiplicity           Mult            ....    1
 Number of Electrons    NEL             ....  104
Dispersion correction           -0.045577735
FINAL SINGLE POINT ENERGY     -1255.890024882485
Dispersion correction            ... done
Dispersion correction           -0.045223297
FINAL SINGLE POINT ENERGY     -1255.893494197949
Dispersion correction            ... done
Dispersion correction           -0.045181610
FINAL SINGLE POINT ENERGY     -1255.893797229998
Dispersion correction            ... done
FINAL SINGLE POINT ENERGY     -1255.893860734660
FINAL SINGLE POINT ENERGY     -1255.893929676180
FINAL SINGLE POINT ENERGY     -1255.893938566520
FINAL SINGLE POINT ENERGY     -1255.893908757837
FINAL SINGLE POINT ENERGY     -1255.893863237668
FINAL SINGLE POINT ENERGY     -1255.893830807518
FINAL SINGLE POINT ENERGY     -1255.893826618071
FINAL SINGLE POINT ENERGY     -1255.893823534019
FINAL SINGLE POINT ENERGY     -1255.893818555043
Dispersion correction            ... done
Dispersion correction           -0.045370804
FINAL SINGLE POINT ENERGY     -1255.893813549925
Dispersion correction            ... done
Dispersion correction           -0.045375238
FINAL SINGLE POINT ENERGY     -1255.893813037035
Dispersion correction            ... done
                    ***********************HURRAY********************

CARTESIAN COORDINATES (ANGSTROEM)
---------------------------------
  C     -1.776445   -1.388356    0.355889
  S     -2.930083   -0.110888    0.489690
  C     -1.760070    1.094459    0.026766
  C     -0.529857    0.507033   -0.231502
  C     -0.541260   -0.922315   -0.030833
  O      0.508802   -1.792239   -0.105991
  S      2.060105   -1.276383   -0.590649
  C      2.257796    0.068827    0.611418
  C      1.675740    1.392046    0.100246
  O      0.527887    1.221058   -0.716390
  C     -2.180156    2.485200   -0.037932
  C     -1.494366    3.523491   -0.544701
  H     -2.038163   -2.420190    0.576969
  H      3.332122    0.174401    0.833740
  H      1.769972   -0.277994    1.535296
  H      2.402730    1.900648   -0.549710
  H      1.449017    2.057506    0.953802
  H     -3.173749    2.674917    0.384198
  H     -0.511242    3.394548   -0.997418
  H     -1.928442    4.526201   -0.522396

 Multiplicity           Mult            ....    1
 Number of Electrons    NEL             ....  104
 Basis Dimension        Dim             ....  216

ORBITAL ENERGIES
----------------

  NO   OCC          E(Eh)            E(eV)
   0   2.0000     -88.891717     -2418.8666
   1   2.0000     -88.874959     -2418.4106
   2   2.0000     -19.183116      -521.9991
   3   2.0000     -19.166742      -521.5536
   4   2.0000     -10.261330      -279.2250
   5   2.0000     -10.256360      -279.0897
   6   2.0000     -10.250808      -278.9387
   7   2.0000     -10.233500      -278.4677
   8   2.0000     -10.217889      -278.0429
   9   2.0000     -10.207535      -277.7611
  10   2.0000     -10.202673      -277.6288
  11   2.0000     -10.184737      -277.1408
  12   2.0000      -7.982509      -217.2151
  13   2.0000      -7.969897      -216.8719
  14   2.0000      -5.955378      -162.0541
  15   2.0000      -5.947720      -161.8457
  16   2.0000      -5.938097      -161.5838
  17   2.0000      -5.937997      -161.5811
  18   2.0000      -5.934323      -161.4811
  19   2.0000      -5.930850      -161.3866
  20   2.0000      -1.070231       -29.1225
  21   2.0000      -1.050219       -28.5779
  22   2.0000      -0.882560       -24.0157
  23   2.0000      -0.810093       -22.0437
  24   2.0000      -0.782887       -21.3034
  25   2.0000      -0.739865       -20.1327
  26   2.0000      -0.726187       -19.7605
  27   2.0000      -0.682926       -18.5834
  28   2.0000      -0.627246       -17.0682
  29   2.0000      -0.602210       -16.3870
  30   2.0000      -0.578796       -15.7498
  31   2.0000      -0.544616       -14.8198
  32   2.0000      -0.515539       -14.0285
  33   2.0000      -0.499629       -13.5956
  34   2.0000      -0.481826       -13.1111
  35   2.0000      -0.468305       -12.7432
  36   2.0000      -0.462886       -12.5958
  37   2.0000      -0.448224       -12.1968
  38   2.0000      -0.434088       -11.8121
  39   2.0000      -0.428666       -11.6646
  40   2.0000      -0.397846       -10.8259
  41   2.0000      -0.380322       -10.3491
  42   2.0000      -0.375272       -10.2117
  43   2.0000      -0.370017       -10.0687
  44   2.0000      -0.361740        -9.8435
  45   2.0000      -0.353045        -9.6068
  46   2.0000      -0.335529        -9.1302
  47   2.0000      -0.296230        -8.0608
  48   2.0000      -0.295355        -8.0370
  49   2.0000      -0.251016        -6.8305
  50   2.0000      -0.222415        -6.0522
  51   2.0000      -0.209650        -5.7049
  52   0.0000      -0.043297        -1.1782
  53   0.0000      -0.029530        -0.8036
  54   0.0000       0.026798         0.7292
  55   0.0000       0.035557         0.9676
  56   0.0000       0.048241         1.3127

MULLIKEN ATOMIC CHARGES
-----------------------
   0 C :   -0.146055
   1 S :    0.114057
   2 C :   -0.152353
   3 C :    0.118558
   4 C :    0.245747
   5 O :   -0.417007
   6 S :    0.240101
   7 C :   -0.189353
   8 C :    0.297524
   9 O :   -0.333665
  10 C :    0.021003
  11 C :   -0.027361
  12 H :    0.019569
  13 H :    0.062658
  14 H :    0.077517
  15 H :    0.021835
  16 H :    0.016470
  17 H :   -0.017162
  18 H :    0.029250
  19 H :    0.018667
Sum of atomic charges:    0.0000000

LOEWDIN ATOMIC CHARGES
----------------------
   0 C :   -0.225296
   1 S :    0.435405
   2 C :   -0.197641
   3 C :   -0.026911
   4 C :   -0.022964
   5 O :   -0.250082
   6 S :    0.382436
   7 C :   -0.175857
   8 C :    0.072630
   9 O :   -0.114219
  10 C :   -0.044749
  11 C :   -0.051292
  12 H :    0.028653
  13 H :    0.038528
  14 H :    0.035573
  15 H :    0.024058
  16 H :    0.017481
  17 H :    0.026740
  18 H :    0.023334
  19 H :    0.024173

  Mayer bond orders larger than 0.100000
B(  0-C ,  1-S ) :   1.1286 B(  0-C ,  2-C ) :   0.1000 B(  0-C ,  4-C ) :   1.5426
B(  0-C , 12-H ) :   0.9615 B(  1-S ,  2-C ) :   1.1361 B(  2-C ,  3-C ) :   1.4683
B(  2-C , 10-C ) :   1.1174 B(  3-C ,  4-C ) :   1.1812 B(  3-C ,  9-O ) :   1.0987
B(  4-C ,  5-O ) :   1.0371 B(  5-O ,  6-S ) :   0.8695 B(  6-S ,  7-C ) :   1.0355
B(  7-C ,  8-C ) :   1.0118 B(  7-C , 13-H ) :   0.9368 B(  7-C , 14-H ) :   0.9346
B(  8-C ,  9-O ) :   0.9648 B(  8-C , 15-H ) :   0.9518 B(  8-C , 16-H ) :   0.9397
B( 10-C , 11-C ) :   1.9284 B( 10-C , 17-H ) :   0.9415 B( 11-C , 18-H ) :   0.9430
B( 11-C , 19-H ) :   0.9402

Dispersion correction           -0.045375723
FINAL SINGLE POINT ENERGY     -1255.893813497520

DIPOLE MOMENT
-------------
                                X             Y             Z
Electronic contribution:     -2.92246      -9.30672      -1.85677
Nuclear contribution   :      3.58539       9.83539       2.48525
                        -----------------------------------------
Total Dipole Moment    :      0.66293       0.52868       0.62848
                        -----------------------------------------
Magnitude (a.u.)       :      1.05545
Magnitude (Debye)      :      2.68273

Rotational constants in cm-1:     0.039435     0.020524     0.014247
Rotational constants in MHz :  1182.217908   615.297063   427.120339

                             ****ORCA TERMINATED NORMALLY****
TOTAL RUN TIME: 0 days 0 hours 22 minutes 10 seconds 25 msec
