                         Program Version 4.2.0 -  RELEASE  -
|  1> # ORCA input file
|  2> # SCF done        -28.780551711141          0.000482615942
|  3> ! B3LYP/G D3BJ Opt RIJCOSX def2-SVP def2/J
|  4> * xyz 0 1
|  5>    C       -1.81266         1.18503         0.28344
|  6>    S       -2.84728        -0.08307         0.81445
|  7>    C       -1.73367        -1.27201         0.26054
|  8>    C       -0.63902        -0.71559        -0.31920
|  9>    C       -0.68489         0.71094        -0.30590
| 10>    S        0.52987         1.72838        -1.07423
| 11>    C        2.02590         1.36380        -0.06054
| 12>    C        1.99244         0.07314         0.73912
| 13>    C        2.10856        -1.19702        -0.08522
| 14>    S        0.63799        -1.63850        -1.10567
| 15>    H       -2.10380         2.20781         0.41137
| 16>    H       -1.95848        -2.31359         0.36920
| 17>    H        2.14105         2.21179         0.61627
| 18>    H        2.85164         1.36159        -0.77162
| 19>    H        1.09111         0.03809         1.35679
| 20>    H        2.84906         0.09426         1.42041
| 21>    H        2.27927        -2.04860         0.57514
| 22>    H        2.93153        -1.12763        -0.79612
| 23> *
| 24>
| 25>                          ****END OF INPUT****
 Total Charge           Charge          ....    0
 Multiplicity           Mult            ....    1
 Number of Electrons    NEL             ....   98
Dispersion correction           -0.047953069
FINAL SINGLE POINT ENERGY     -1465.633420233234
Dispersion correction            ... done
Dispersion correction           -0.047463756
FINAL SINGLE POINT ENERGY     -1465.636020637149
Dispersion correction            ... done
Dispersion correction           -0.047280570
FINAL SINGLE POINT ENERGY     -1465.636055559942
Dispersion correction            ... done
FINAL SINGLE POINT ENERGY     -1465.636284783098
FINAL SINGLE POINT ENERGY     -1465.636319452562
FINAL SINGLE POINT ENERGY     -1465.636329001898
FINAL SINGLE POINT ENERGY     -1465.636330220219
FINAL SINGLE POINT ENERGY     -1465.636331760760
FINAL SINGLE POINT ENERGY     -1465.636333085012
FINAL SINGLE POINT ENERGY     -1465.636334687074
FINAL SINGLE POINT ENERGY     -1465.636336841866
Dispersion correction            ... done
Dispersion correction           -0.047358671
FINAL SINGLE POINT ENERGY     -1465.636341678162
Dispersion correction            ... done
Dispersion correction           -0.047356961
FINAL SINGLE POINT ENERGY     -1465.636343165241
Dispersion correction            ... done
                    ***********************HURRAY********************

CARTESIAN COORDINATES (ANGSTROEM)
---------------------------------
  C     -1.874933    1.164799    0.334762
  S     -2.913030   -0.158781    0.751316
  C     -1.762141   -1.312612    0.169730
  C     -0.647564   -0.705205   -0.354535
  C     -0.712638    0.738532   -0.261940
  S      0.472949    1.828575   -0.984223
  C      2.054020    1.386661   -0.114860
  C      2.058956    0.111103    0.724375
  C      2.074868   -1.224775   -0.015645
  S      0.668297   -1.558786   -1.162935
  H     -2.175904    2.190158    0.541983
  H     -1.969665   -2.379751    0.227434
  H      2.302839    2.238777    0.535003
  H      2.814473    1.335841   -0.909753
  H      1.212656    0.133514    1.430408
  H      2.967826    0.137771    1.351801
  H      2.121603   -2.039674    0.723242
  H      2.966009   -1.307325   -0.657931

 Multiplicity           Mult            ....    1
 Number of Electrons    NEL             ....   98
 Basis Dimension        Dim             ....  192

ORBITAL ENERGIES
----------------

  NO   OCC          E(Eh)            E(eV)
   0   2.0000     -88.880666     -2418.5659
   1   2.0000     -88.838659     -2417.4228
   2   2.0000     -88.838061     -2417.4065
   3   2.0000     -10.220637      -278.1177
   4   2.0000     -10.220194      -278.1056
   5   2.0000     -10.220041      -278.1014
   6   2.0000     -10.219039      -278.0742
   7   2.0000     -10.218571      -278.0614
   8   2.0000     -10.217996      -278.0458
   9   2.0000     -10.208646      -277.7914
  10   2.0000      -7.975992      -217.0378
  11   2.0000      -7.933342      -215.8772
  12   2.0000      -7.932607      -215.8572
  13   2.0000      -5.944070      -161.7464
  14   2.0000      -5.939999      -161.6356
  15   2.0000      -5.937305      -161.5623
  16   2.0000      -5.902889      -160.6258
  17   2.0000      -5.902224      -160.6077
  18   2.0000      -5.899045      -160.5212
  19   2.0000      -5.898219      -160.4987
  20   2.0000      -5.891488      -160.3155
  21   2.0000      -5.890815      -160.2972
  22   2.0000      -0.891381       -24.2557
  23   2.0000      -0.825923       -22.4745
  24   2.0000      -0.783750       -21.3269
  25   2.0000      -0.762614       -20.7518
  26   2.0000      -0.718860       -19.5612
  27   2.0000      -0.678530       -18.4637
  28   2.0000      -0.640715       -17.4347
  29   2.0000      -0.587048       -15.9744
  30   2.0000      -0.568424       -15.4676
  31   2.0000      -0.520840       -14.1728
  32   2.0000      -0.480677       -13.0799
  33   2.0000      -0.466284       -12.6882
  34   2.0000      -0.461860       -12.5679
  35   2.0000      -0.441657       -12.0181
  36   2.0000      -0.413435       -11.2501
  37   2.0000      -0.405083       -11.0229
  38   2.0000      -0.393492       -10.7075
  39   2.0000      -0.391226       -10.6458
  40   2.0000      -0.374413       -10.1883
  41   2.0000      -0.366025        -9.9601
  42   2.0000      -0.343598        -9.3498
  43   2.0000      -0.332058        -9.0358
  44   2.0000      -0.314600        -8.5607
  45   2.0000      -0.269121        -7.3232
  46   2.0000      -0.254923        -6.9368
  47   2.0000      -0.224507        -6.1091
  48   2.0000      -0.214560        -5.8385
  49   0.0000      -0.028114        -0.7650
  50   0.0000       0.006933         0.1887
  51   0.0000       0.036623         0.9966
  52   0.0000       0.043244         1.1767
  53   0.0000       0.054235         1.4758

MULLIKEN ATOMIC CHARGES
-----------------------
   0 C :   -0.100952
   1 S :    0.101498
   2 C :   -0.099553
   3 C :   -0.042533
   4 C :   -0.036663
   5 S :   -0.016618
   6 C :   -0.045693
   7 C :   -0.001909
   8 C :   -0.041695
   9 S :   -0.016769
  10 H :    0.025682
  11 H :    0.028816
  12 H :    0.048838
  13 H :    0.044189
  14 H :    0.046407
  15 H :    0.018859
  16 H :    0.049629
  17 H :    0.038465
Sum of atomic charges:   -0.0000000

LOEWDIN ATOMIC CHARGES
----------------------
   0 C :   -0.201165
   1 S :    0.430411
   2 C :   -0.198505
   3 C :   -0.225490
   4 C :   -0.224291
   5 S :    0.258546
   6 C :   -0.126381
   7 C :   -0.057604
   8 C :   -0.126790
   9 S :    0.257095
  10 H :    0.026577
  11 H :    0.027560
  12 H :    0.023123
  13 H :    0.023217
  14 H :    0.032490
  15 H :    0.035926
  16 H :    0.022709
  17 H :    0.022571

  Mayer bond orders larger than 0.100000
B(  0-C ,  1-S ) :   1.1608 B(  0-C ,  4-C ) :   1.5675 B(  0-C , 10-H ) :   0.9658
B(  1-S ,  2-C ) :   1.1652 B(  2-C ,  3-C ) :   1.5738 B(  2-C , 11-H ) :   0.9660
B(  3-C ,  4-C ) :   1.2124 B(  3-C ,  9-S ) :   1.0354 B(  4-C ,  5-S ) :   1.0406
B(  5-S ,  6-C ) :   0.9663 B(  6-C ,  7-C ) :   1.0841 B(  6-C , 12-H ) :   0.9466
B(  6-C , 13-H ) :   0.9445 B(  7-C ,  8-C ) :   1.0794 B(  7-C , 14-H ) :   0.9290
B(  7-C , 15-H ) :   0.9255 B(  8-C ,  9-S ) :   0.9872 B(  8-C , 16-H ) :   0.9450
B(  8-C , 17-H ) :   0.9432

Dispersion correction           -0.047359248
FINAL SINGLE POINT ENERGY     -1465.636341627879

DIPOLE MOMENT
-------------
                                X             Y             Z
Electronic contribution:    -10.44834      -0.13317      -3.63656
Nuclear contribution   :     10.92581       0.05950       4.48828
                        -----------------------------------------
Total Dipole Moment    :      0.47746      -0.07367       0.85172
                        -----------------------------------------
Magnitude (a.u.)       :      0.97920
Magnitude (Debye)      :      2.48892

Rotational constants in cm-1:     0.044466     0.024741     0.018732
Rotational constants in MHz :  1333.060859   741.708883   561.576625

                             ****ORCA TERMINATED NORMALLY****
TOTAL RUN TIME: 0 days 0 hours 16 minutes 4 seconds 672 msec
