                         Program Version 4.2.0 -  RELEASE  -
|  1> # ORCA input file
|  2> # SCF done        -25.745766092440          0.000303196692
|  3> ! B3LYP/G D3BJ Opt RIJCOSX def2-SVP def2/J
|  4> * xyz 0 1
|  5>    C        1.27172        -1.40721         0.00158
|  6>    C        2.42765        -0.67775         0.00211
|  7>    C        2.38437         0.72638        -0.00018
|  8>    C        1.18775         1.38659        -0.00267
|  9>    C       -0.02287         0.66270        -0.00305
| 10>    C        0.02057        -0.75916        -0.00106
| 11>    C       -1.21042        -1.44769        -0.00171
| 12>    C       -2.37633        -0.73243        -0.00373
| 13>    C       -2.30232         0.67309        -0.00482
| 14>    N       -1.18639         1.34433        -0.00481
| 15>    H        1.29759        -2.48819         0.00302
| 16>    H        3.38571        -1.17681         0.00382
| 17>    H        3.31145         1.28094        -0.00014
| 18>    H        1.13198         2.46386        -0.00422
| 19>    H       -1.21280        -2.52960        -0.00053
| 20>    H       -3.33831        -1.22183        -0.00500
| 21>    H       -3.20913         1.26543        -0.00777
| 22> *
| 23>
| 24>                          ****END OF INPUT****
 Total Charge           Charge          ....    0
 Multiplicity           Mult            ....    1
 Number of Electrons    NEL             ....   68
Dispersion correction           -0.034521323
FINAL SINGLE POINT ENERGY      -401.674703736938
Dispersion correction            ... done
Dispersion correction           -0.034343484
FINAL SINGLE POINT ENERGY      -401.676970874568
Dispersion correction            ... done
Dispersion correction           -0.034325425
FINAL SINGLE POINT ENERGY      -401.677016181347
Dispersion correction            ... done
Dispersion correction           -0.034323613
FINAL SINGLE POINT ENERGY      -401.677021955050
Dispersion correction            ... done
Dispersion correction           -0.034324887
FINAL SINGLE POINT ENERGY      -401.677022378756
Dispersion correction            ... done
                    ***********************HURRAY********************

CARTESIAN COORDINATES (ANGSTROEM)
---------------------------------
  C      1.280057   -1.416563    0.001339
  C      2.448906   -0.685857    0.001764
  C      2.406658    0.732465   -0.000099
  C      1.198964    1.396869   -0.002396
  C     -0.024175    0.672668   -0.003003
  C      0.020321   -0.760587   -0.001043
  C     -1.218085   -1.453365   -0.001588
  C     -2.391912   -0.734819   -0.003882
  C     -2.321813    0.684056   -0.005764
  N     -1.197344    1.363784   -0.005414
  H      1.304633   -2.510012    0.002921
  H      3.413753   -1.198376    0.003663
  H      3.341360    1.298034    0.000348
  H      1.134164    2.486816   -0.003881
  H     -1.220880   -2.547293   -0.000101
  H     -3.363640   -1.232929   -0.004321
  H     -3.250747    1.267761   -0.007702

 Multiplicity           Mult            ....    1
 Number of Electrons    NEL             ....   68
 Basis Dimension        Dim             ....  175

ORBITAL ENERGIES
----------------

  NO   OCC          E(Eh)            E(eV)
   0   2.0000     -14.320873      -389.6908
   1   2.0000     -10.226824      -278.2860
   2   2.0000     -10.225327      -278.2453
   3   2.0000     -10.212282      -277.8903
   4   2.0000     -10.205832      -277.7148
   5   2.0000     -10.202297      -277.6186
   6   2.0000     -10.201197      -277.5887
   7   2.0000     -10.200238      -277.5626
   8   2.0000     -10.199552      -277.5439
   9   2.0000     -10.193099      -277.3683
  10   2.0000      -0.938701       -25.5433
  11   2.0000      -0.845898       -23.0181
  12   2.0000      -0.803170       -21.8554
  13   2.0000      -0.747768       -20.3478
  14   2.0000      -0.737136       -20.0585
  15   2.0000      -0.641896       -17.4669
  16   2.0000      -0.628923       -17.1139
  17   2.0000      -0.601520       -16.3682
  18   2.0000      -0.529292       -14.4028
  19   2.0000      -0.518629       -14.1126
  20   2.0000      -0.509985       -13.8774
  21   2.0000      -0.459830       -12.5126
  22   2.0000      -0.442623       -12.0444
  23   2.0000      -0.434158       -11.8140
  24   2.0000      -0.417238       -11.3536
  25   2.0000      -0.415842       -11.3156
  26   2.0000      -0.407263       -11.0822
  27   2.0000      -0.364957        -9.9310
  28   2.0000      -0.355962        -9.6862
  29   2.0000      -0.348777        -9.4907
  30   2.0000      -0.313273        -8.5246
  31   2.0000      -0.258865        -7.0441
  32   2.0000      -0.256045        -6.9673
  33   2.0000      -0.240021        -6.5313
  34   0.0000      -0.060669        -1.6509
  35   0.0000      -0.025280        -0.6879
  36   0.0000       0.010549         0.2871
  37   0.0000       0.058724         1.5980
  38   0.0000       0.073709         2.0057

MULLIKEN ATOMIC CHARGES
-----------------------
   0 C :   -0.034995
   1 C :    0.039142
   2 C :    0.026353
   3 C :    0.019599
   4 C :   -0.006093
   5 C :    0.080072
   6 C :    0.018311
   7 C :    0.003364
   8 C :    0.038179
   9 N :   -0.082507
  10 H :   -0.024741
  11 H :   -0.015867
  12 H :   -0.012671
  13 H :   -0.022031
  14 H :   -0.014023
  15 H :   -0.011366
  16 H :   -0.000726
Sum of atomic charges:   -0.0000000

LOEWDIN ATOMIC CHARGES
----------------------
   0 C :   -0.020011
   1 C :   -0.023016
   2 C :   -0.020338
   3 C :   -0.013612
   4 C :    0.007136
   5 C :   -0.032477
   6 C :    0.009593
   7 C :   -0.050147
   8 C :    0.022251
   9 N :   -0.078238
  10 H :    0.027250
  11 H :    0.028308
  12 H :    0.029175
  13 H :    0.033568
  14 H :    0.030719
  15 H :    0.030041
  16 H :    0.019798

  Mayer bond orders larger than 0.100000
B(  0-C ,  1-C ) :   1.4759 B(  0-C ,  5-C ) :   1.2334 B(  0-C , 10-H ) :   0.9919
B(  1-C ,  2-C ) :   1.2512 B(  1-C , 11-H ) :   0.9852 B(  2-C ,  3-C ) :   1.4505
B(  2-C , 12-H ) :   0.9852 B(  3-C ,  4-C ) :   1.2636 B(  3-C , 13-H ) :   0.9897
B(  4-C ,  5-C ) :   1.2256 B(  4-C ,  9-N ) :   1.3914 B(  5-C ,  6-C ) :   1.2663
B(  6-C ,  7-C ) :   1.5079 B(  6-C , 14-H ) :   0.9815 B(  7-C ,  8-C ) :   1.2461
B(  7-C , 15-H ) :   0.9696 B(  8-C ,  9-N ) :   1.6478 B(  8-C , 16-H ) :   0.9697

Dispersion correction           -0.034325768
FINAL SINGLE POINT ENERGY      -401.677021948293

DIPOLE MOMENT
-------------
                                X             Y             Z
Electronic contribution:     -1.09767       1.40249      -0.00346
Nuclear contribution   :      1.19677      -2.16839       0.00475
                        -----------------------------------------
Total Dipole Moment    :      0.09910      -0.76590       0.00129
                        -----------------------------------------
Magnitude (a.u.)       :      0.77228
Magnitude (Debye)      :      1.96299

Rotational constants in cm-1:     0.104766     0.042196     0.030081
Rotational constants in MHz :  3140.805302  1265.005751   901.794636

                             ****ORCA TERMINATED NORMALLY****
TOTAL RUN TIME: 0 days 0 hours 5 minutes 57 seconds 833 msec
