                         Program Version 4.2.0 -  RELEASE  -
|  1> # ORCA input file
|  2> # SCF done        -34.989087204903          0.000452221337
|  3> ! B3LYP/G D3BJ Opt RIJCOSX def2-SVP def2/J
|  4> * xyz 0 1
|  5>    C        3.07435        -0.32654         0.13523
|  6>    S        2.04115        -1.71577         0.24001
|  7>    C        0.65847        -0.70454         0.08323
|  8>    C        1.02442         0.64009        -0.04177
|  9>    C        2.41429         0.85440        -0.01160
| 10>    O       -0.05638         1.45086        -0.16762
| 11>    C       -1.12975         0.62051        -0.12426
| 12>    C       -0.74724        -0.71886         0.02949
| 13>    S       -2.11482        -1.75450         0.07825
| 14>    C       -3.19153        -0.37595        -0.10923
| 15>    C       -2.51326         0.81624        -0.20234
| 16>    C       -4.60597        -0.62902        -0.14704
| 17>    C       -5.55356         0.29647        -0.28151
| 18>    H        4.13360        -0.47798         0.19048
| 19>    H        2.89036         1.81298        -0.09302
| 20>    H       -2.98557         1.77227        -0.32069
| 21>    H       -4.88168        -1.67181        -0.05708
| 22>    H       -5.32474         1.34345        -0.37455
| 23>    H       -6.59478         0.02821        -0.30251
| 24> *
| 25>
| 26>                          ****END OF INPUT****
 Total Charge           Charge          ....    0
 Multiplicity           Mult            ....    1
 Number of Electrons    NEL             ....  106
Dispersion correction           -0.045507533
FINAL SINGLE POINT ENERGY     -1255.710934782905
Dispersion correction            ... done
Dispersion correction           -0.045325236
FINAL SINGLE POINT ENERGY     -1255.713914930424
Dispersion correction            ... done
Dispersion correction           -0.045269342
FINAL SINGLE POINT ENERGY     -1255.714128044679
Dispersion correction            ... done
FINAL SINGLE POINT ENERGY     -1255.714157142935
Dispersion correction            ... done
Dispersion correction           -0.045231426
FINAL SINGLE POINT ENERGY     -1255.714175650024
Dispersion correction            ... done
Dispersion correction           -0.045237119
FINAL SINGLE POINT ENERGY     -1255.714176439000
Dispersion correction            ... done
                    ***********************HURRAY********************

CARTESIAN COORDINATES (ANGSTROEM)
---------------------------------
  C      3.124007   -0.314976    0.133979
  S      2.092741   -1.724544    0.237621
  C      0.682957   -0.731410    0.084987
  C      1.044296    0.611472   -0.038379
  C      2.436722    0.868316   -0.009534
  O     -0.043688    1.426633   -0.163806
  C     -1.121834    0.589745   -0.119907
  C     -0.740639   -0.747532    0.033363
  S     -2.134005   -1.766017    0.082449
  C     -3.208441   -0.372656   -0.108108
  C     -2.509093    0.821310   -0.201295
  C     -4.639780   -0.618671   -0.149162
  C     -5.603156    0.307633   -0.283946
  H      4.202465   -0.453051    0.190820
  H      2.902976    1.848952   -0.092588
  H     -2.976983    1.796015   -0.328800
  H     -4.937849   -1.669019   -0.057071
  H     -5.378072    1.373696   -0.380939
  H     -6.655266    0.014616   -0.306215

 Multiplicity           Mult            ....    1
 Number of Electrons    NEL             ....  106
 Basis Dimension        Dim             ....  220

ORBITAL ENERGIES
----------------

  NO   OCC          E(Eh)            E(eV)
   0   2.0000     -88.885368     -2418.6938
   1   2.0000     -88.883963     -2418.6556
   2   2.0000     -19.209259      -522.7105
   3   2.0000     -10.252547      -278.9860
   4   2.0000     -10.251681      -278.9624
   5   2.0000     -10.227671      -278.3091
   6   2.0000     -10.224766      -278.2300
   7   2.0000     -10.224026      -278.2099
   8   2.0000     -10.223812      -278.2041
   9   2.0000     -10.209111      -277.8040
  10   2.0000     -10.208192      -277.7790
  11   2.0000     -10.206131      -277.7229
  12   2.0000     -10.193264      -277.3728
  13   2.0000      -7.979311      -217.1281
  14   2.0000      -7.977908      -217.0899
  15   2.0000      -5.947892      -161.8504
  16   2.0000      -5.946305      -161.8072
  17   2.0000      -5.943686      -161.7359
  18   2.0000      -5.942483      -161.7032
  19   2.0000      -5.939995      -161.6355
  20   2.0000      -5.938550      -161.5962
  21   2.0000      -1.112633       -30.2763
  22   2.0000      -0.891854       -24.2686
  23   2.0000      -0.883100       -24.0304
  24   2.0000      -0.797589       -21.7035
  25   2.0000      -0.762250       -20.7419
  26   2.0000      -0.754243       -20.5240
  27   2.0000      -0.732736       -19.9388
  28   2.0000      -0.695253       -18.9188
  29   2.0000      -0.631302       -17.1786
  30   2.0000      -0.605619       -16.4797
  31   2.0000      -0.566479       -15.4147
  32   2.0000      -0.562900       -15.3173
  33   2.0000      -0.530634       -14.4393
  34   2.0000      -0.497481       -13.5372
  35   2.0000      -0.487151       -13.2560
  36   2.0000      -0.477817       -13.0021
  37   2.0000      -0.459817       -12.5123
  38   2.0000      -0.449946       -12.2437
  39   2.0000      -0.445681       -12.1276
  40   2.0000      -0.410667       -11.1748
  41   2.0000      -0.388153       -10.5622
  42   2.0000      -0.387939       -10.5563
  43   2.0000      -0.384558       -10.4644
  44   2.0000      -0.374209       -10.1827
  45   2.0000      -0.370324       -10.0770
  46   2.0000      -0.355826        -9.6825
  47   2.0000      -0.352859        -9.6018
  48   2.0000      -0.316490        -8.6121
  49   2.0000      -0.269216        -7.3257
  50   2.0000      -0.267244        -7.2721
  51   2.0000      -0.240251        -6.5376
  52   2.0000      -0.200514        -5.4563
  53   0.0000      -0.060845        -1.6557
  54   0.0000      -0.009610        -0.2615
  55   0.0000       0.018176         0.4946
  56   0.0000       0.038407         1.0451
  57   0.0000       0.041582         1.1315

MULLIKEN ATOMIC CHARGES
-----------------------
   0 C :   -0.111806
   1 S :    0.137968
   2 C :   -0.126502
   3 C :    0.169934
   4 C :    0.015105
   5 O :   -0.223143
   6 C :    0.185918
   7 C :   -0.106791
   8 S :    0.136935
   9 C :   -0.116510
  10 C :   -0.025240
  11 C :    0.043106
  12 C :   -0.038405
  13 H :    0.039007
  14 H :   -0.004355
  15 H :   -0.013805
  16 H :   -0.010135
  17 H :    0.021344
  18 H :    0.027374
Sum of atomic charges:    0.0000000

LOEWDIN ATOMIC CHARGES
----------------------
   0 C :   -0.179766
   1 S :    0.420111
   2 C :   -0.230177
   3 C :    0.011078
   4 C :   -0.072578
   5 O :   -0.017207
   6 C :    0.015557
   7 C :   -0.227227
   8 S :    0.422139
   9 C :   -0.164592
  10 C :   -0.065352
  11 C :   -0.043485
  12 C :   -0.051090
  13 H :    0.027234
  14 H :    0.038905
  15 H :    0.036998
  16 H :    0.028772
  17 H :    0.022537
  18 H :    0.028143

  Mayer bond orders larger than 0.100000
B(  0-C ,  1-S ) :   1.1470 B(  0-C ,  4-C ) :   1.5260 B(  0-C , 13-H ) :   0.9636
B(  1-S ,  2-C ) :   1.0556 B(  2-C ,  3-C ) :   1.4154 B(  2-C ,  7-C ) :   1.3283
B(  3-C ,  4-C ) :   1.2530 B(  3-C ,  5-O ) :   1.0961 B(  4-C , 14-H ) :   1.0045
B(  5-O ,  6-C ) :   1.1006 B(  6-C ,  7-C ) :   1.4020 B(  6-C , 10-C ) :   1.2591
B(  7-C ,  8-S ) :   1.0535 B(  8-S ,  9-C ) :   1.0968 B(  9-C , 10-C ) :   1.4675
B(  9-C , 11-C ) :   1.1203 B( 10-C , 15-H ) :   1.0025 B( 11-C , 12-C ) :   1.9165
B( 11-C , 16-H ) :   0.9501 B( 12-C , 17-H ) :   0.9505 B( 12-C , 18-H ) :   0.9451

Dispersion correction           -0.045237120
FINAL SINGLE POINT ENERGY     -1255.714174253043

DIPOLE MOMENT
-------------
                                X             Y             Z
Electronic contribution:      8.35852      -4.94407       0.87841
Nuclear contribution   :     -8.21632       5.05185      -0.89250
                        -----------------------------------------
Total Dipole Moment    :      0.14219       0.10778      -0.01408
                        -----------------------------------------
Magnitude (a.u.)       :      0.17898
Magnitude (Debye)      :      0.45493

Rotational constants in cm-1:     0.065693     0.012123     0.010234
Rotational constants in MHz :  1969.429480   363.433589   306.816602

                             ****ORCA TERMINATED NORMALLY****
TOTAL RUN TIME: 0 days 0 hours 10 minutes 29 seconds 748 msec
