                         Program Version 4.2.0 -  RELEASE  -
|  1> # ORCA input file
|  2> # SCF done        -28.900069766462          0.000549218970
|  3> ! B3LYP/G D3BJ Opt RIJCOSX def2-SVP def2/J
|  4> * xyz 0 1
|  5>    C        1.46635         1.18997        -0.25447
|  6>    S        2.67958        -0.02958        -0.24242
|  7>    C        1.48465        -1.24784        -0.02398
|  8>    C        0.22673        -0.73818         0.03978
|  9>    C        0.21718         0.67991        -0.09567
| 10>    C       -1.05180         1.47445        -0.10068
| 11>    C       -2.20081         0.66139         0.49446
| 12>    C       -2.27103        -0.74979        -0.12039
| 13>    N       -2.41878        -0.77863        -1.56535
| 14>    C       -1.01694        -1.54006         0.26603
| 15>    H        1.75172         2.21571        -0.37975
| 16>    H        1.78683        -2.27355         0.04879
| 17>    H       -1.29351         1.75646        -1.13207
| 18>    H       -0.91681         2.40385         0.45784
| 19>    H       -3.14480         1.18572         0.32628
| 20>    H       -2.05916         0.56177         1.57263
| 21>    H       -3.14999        -1.26285         0.29132
| 22>    H       -1.58379        -0.41320        -2.00986
| 23>    H       -3.20666        -0.20991        -1.85508
| 24>    H       -0.98258        -2.46149        -0.31780
| 25>    H       -1.07648        -1.81600         1.32276
| 26> *
| 27>
| 28>                          ****END OF INPUT****
 Total Charge           Charge          ....    0
 Multiplicity           Mult            ....    1
 Number of Electrons    NEL             ....   82
Dispersion correction           -0.043231754
FINAL SINGLE POINT ENERGY      -764.077164988537
Dispersion correction            ... done
Dispersion correction           -0.042966608
FINAL SINGLE POINT ENERGY      -764.079573899873
Dispersion correction            ... done
Dispersion correction           -0.042943294
FINAL SINGLE POINT ENERGY      -764.079722790693
Dispersion correction            ... done
FINAL SINGLE POINT ENERGY      -764.079687099367
FINAL SINGLE POINT ENERGY      -764.079680808095
FINAL SINGLE POINT ENERGY      -764.079700592886
Dispersion correction            ... done
Dispersion correction           -0.043013581
FINAL SINGLE POINT ENERGY      -764.079689426391
Dispersion correction            ... done
Dispersion correction           -0.043015474
FINAL SINGLE POINT ENERGY      -764.079683514643
Dispersion correction            ... done
                    ***********************HURRAY********************

CARTESIAN COORDINATES (ANGSTROEM)
---------------------------------
  C      1.484315    1.200625   -0.270518
  S      2.684541   -0.040767   -0.355946
  C      1.494400   -1.270839   -0.114085
  C      0.231809   -0.748558    0.034548
  C      0.223880    0.689125   -0.068586
  C     -1.058654    1.485583   -0.040309
  C     -2.244854    0.662135    0.481181
  C     -2.278776   -0.759481   -0.121144
  N     -2.379538   -0.806273   -1.578681
  C     -1.026124   -1.532375    0.317643
  H      1.768976    2.245075   -0.392085
  H      1.790873   -2.318109   -0.074715
  H     -1.284313    1.826485   -1.066389
  H     -0.932446    2.402065    0.557445
  H     -3.186513    1.187725    0.247828
  H     -2.196163    0.580067    1.581306
  H     -3.159745   -1.280790    0.292233
  H     -1.500905   -0.509901   -2.004864
  H     -3.095167   -0.161373   -1.913905
  H     -1.000676   -2.507880   -0.189604
  H     -1.095019   -1.734389    1.401016

 Multiplicity           Mult            ....    1
 Number of Electrons    NEL             ....   82
 Basis Dimension        Dim             ....  199

ORBITAL ENERGIES
----------------

  NO   OCC          E(Eh)            E(eV)
   0   2.0000     -88.866663     -2418.1848
   1   2.0000     -14.301128      -389.1535
   2   2.0000     -10.212101      -277.8854
   3   2.0000     -10.202449      -277.6228
   4   2.0000     -10.201831      -277.6059
   5   2.0000     -10.193020      -277.3662
   6   2.0000     -10.190140      -277.2878
   7   2.0000     -10.189537      -277.2714
   8   2.0000     -10.187068      -277.2042
   9   2.0000     -10.184775      -277.1418
  10   2.0000      -7.961745      -216.6501
  11   2.0000      -5.929819      -161.3586
  12   2.0000      -5.925703      -161.2466
  13   2.0000      -5.923268      -161.1803
  14   2.0000      -0.887624       -24.1535
  15   2.0000      -0.866836       -23.5878
  16   2.0000      -0.786747       -21.4085
  17   2.0000      -0.752662       -20.4810
  18   2.0000      -0.715297       -19.4642
  19   2.0000      -0.685301       -18.6480
  20   2.0000      -0.624409       -16.9910
  21   2.0000      -0.574020       -15.6199
  22   2.0000      -0.564379       -15.3575
  23   2.0000      -0.505475       -13.7547
  24   2.0000      -0.499460       -13.5910
  25   2.0000      -0.481990       -13.1156
  26   2.0000      -0.453845       -12.3497
  27   2.0000      -0.442357       -12.0371
  28   2.0000      -0.414284       -11.2732
  29   2.0000      -0.404622       -11.0103
  30   2.0000      -0.397143       -10.8068
  31   2.0000      -0.395359       -10.7583
  32   2.0000      -0.389244       -10.5919
  33   2.0000      -0.361781        -9.8446
  34   2.0000      -0.348783        -9.4909
  35   2.0000      -0.336845        -9.1660
  36   2.0000      -0.326861        -8.8943
  37   2.0000      -0.322444        -8.7741
  38   2.0000      -0.241154        -6.5621
  39   2.0000      -0.231203        -6.2914
  40   2.0000      -0.229098        -6.2341
  41   0.0000      -0.015634        -0.4254
  42   0.0000       0.038633         1.0512
  43   0.0000       0.054321         1.4781
  44   0.0000       0.060050         1.6341
  45   0.0000       0.074872         2.0374

MULLIKEN ATOMIC CHARGES
-----------------------
   0 C :   -0.143355
   1 S :    0.091988
   2 C :   -0.141230
   3 C :   -0.070368
   4 C :   -0.047736
   5 C :    0.130084
   6 C :    0.040662
   7 C :   -0.025479
   8 N :   -0.180215
   9 C :    0.179712
  10 H :    0.007719
  11 H :    0.009835
  12 H :   -0.005633
  13 H :    0.001892
  14 H :   -0.013887
  15 H :   -0.001928
  16 H :   -0.016187
  17 H :    0.093998
  18 H :    0.081342
  19 H :   -0.002062
  20 H :    0.010851
Sum of atomic charges:    0.0000000

LOEWDIN ATOMIC CHARGES
----------------------
   0 C :   -0.205025
   1 S :    0.422379
   2 C :   -0.204445
   3 C :   -0.072200
   4 C :   -0.072644
   5 C :   -0.027298
   6 C :   -0.042416
   7 C :    0.015066
   8 N :   -0.106257
   9 C :   -0.020759
  10 H :    0.020259
  11 H :    0.021335
  12 H :    0.022493
  13 H :    0.030046
  14 H :    0.016850
  15 H :    0.021304
  16 H :    0.016710
  17 H :    0.052163
  18 H :    0.050465
  19 H :    0.029664
  20 H :    0.032309

  Mayer bond orders larger than 0.100000
B(  0-C ,  1-S ) :   1.1630 B(  0-C ,  4-C ) :   1.5521 B(  0-C , 10-H ) :   0.9659
B(  1-S ,  2-C ) :   1.1603 B(  2-C ,  3-C ) :   1.5487 B(  2-C , 11-H ) :   0.9643
B(  3-C ,  4-C ) :   1.2878 B(  3-C ,  9-C ) :   1.0318 B(  4-C ,  5-C ) :   1.0395
B(  5-C ,  6-C ) :   1.0758 B(  5-C , 12-H ) :   0.9139 B(  5-C , 13-H ) :   0.9182
B(  6-C ,  7-C ) :   1.0234 B(  6-C , 14-H ) :   0.9271 B(  6-C , 15-H ) :   0.9293
B(  7-C ,  8-N ) :   1.0967 B(  7-C ,  9-C ) :   1.0633 B(  7-C , 16-H ) :   0.9156
B(  8-N , 17-H ) :   0.9682 B(  8-N , 18-H ) :   0.9695 B(  9-C , 19-H ) :   0.9098
B(  9-C , 20-H ) :   0.9151

Dispersion correction           -0.043014700
FINAL SINGLE POINT ENERGY      -764.079680538185

DIPOLE MOMENT
-------------
                                X             Y             Z
Electronic contribution:     12.88902      -0.38532      -0.59783
Nuclear contribution   :    -13.16417       0.82841       0.71820
                        -----------------------------------------
Total Dipole Moment    :     -0.27515       0.44309       0.12036
                        -----------------------------------------
Magnitude (a.u.)       :      0.53528
Magnitude (Debye)      :      1.36058

Rotational constants in cm-1:     0.081773     0.027442     0.023440
Rotational constants in MHz :  2451.496275   822.683163   702.716284

                             ****ORCA TERMINATED NORMALLY****
TOTAL RUN TIME: 0 days 0 hours 12 minutes 35 seconds 761 msec
