                         Program Version 4.2.0 -  RELEASE  -
|  1> # ORCA input file
|  2> # SCF done        -39.126415019907          0.000952087093
|  3> ! B3LYP/G D3BJ Opt RIJCOSX def2-SVP def2/J
|  4> * xyz 0 1
|  5>    C        0.80482        -1.06846         0.13367
|  6>    C        1.18770         0.21570        -0.00659
|  7>    C        0.00126         1.05480         0.00234
|  8>    C       -1.11288         0.11776         0.16325
|  9>    C       -0.64739        -1.13948         0.24317
| 10>    F       -2.39672         0.49880         0.22161
| 11>    C       -0.07613         2.40883        -0.11318
| 12>    C       -1.25237         3.23952        -0.11786
| 13>    C       -0.88238         4.54405        -0.26356
| 14>    C        0.58452         4.60524        -0.35533
| 15>    C        1.04283         3.35031        -0.26729
| 16>    F        2.32560         2.96999        -0.30730
| 17>    C       -1.77625         5.66534        -0.32685
| 18>    C       -1.41058         6.93769        -0.48947
| 19>    H        1.44358        -1.93148         0.16398
| 20>    H        2.18799         0.58585        -0.11152
| 21>    H       -1.21716        -2.04000         0.36502
| 22>    H       -2.25497         2.87097        -0.02572
| 23>    H        1.16668         5.49781        -0.47086
| 24>    H       -2.82607         5.41570        -0.24097
| 25>    H       -0.37977         7.23340        -0.57942
| 26>    H       -2.13910         7.72864        -0.53432
| 27> *
| 28>
| 29>                          ****END OF INPUT****
 Total Charge           Charge          ....    0
 Multiplicity           Mult            ....    1
 Number of Electrons    NEL             ....   98
Dispersion correction           -0.043147381
FINAL SINGLE POINT ENERGY      -661.224088115477
Dispersion correction            ... done
Dispersion correction           -0.043047656
FINAL SINGLE POINT ENERGY      -661.227331629820
Dispersion correction            ... done
Dispersion correction           -0.043045076
FINAL SINGLE POINT ENERGY      -661.227448836232
Dispersion correction            ... done
FINAL SINGLE POINT ENERGY      -661.227475951195
Dispersion correction            ... done
Dispersion correction           -0.043053000
FINAL SINGLE POINT ENERGY      -661.227485076200
Dispersion correction            ... done
Dispersion correction           -0.043052431
FINAL SINGLE POINT ENERGY      -661.227485693472
Dispersion correction            ... done
                    ***********************HURRAY********************

CARTESIAN COORDINATES (ANGSTROEM)
---------------------------------
  C      0.824081   -1.089338    0.149422
  C      1.211553    0.206081    0.005432
  C      0.002946    1.042440    0.001070
  C     -1.118476    0.091652    0.161292
  C     -0.647019   -1.171735    0.250159
  F     -2.397123    0.469423    0.211564
  C     -0.087177    2.400373   -0.125584
  C     -1.281642    3.237292   -0.135795
  C     -0.900806    4.547156   -0.281382
  C      0.582201    4.613738   -0.374109
  C      1.041225    3.351001   -0.282935
  F      2.316372    2.969648   -0.326744
  C     -1.787592    5.689463   -0.334103
  C     -1.401487    6.972186   -0.466687
  H      1.484091   -1.955941    0.188642
  H      2.221151    0.592223   -0.096639
  H     -1.239683   -2.075272    0.379196
  H     -2.296364    2.862378   -0.036942
  H      1.184944    5.509586   -0.499151
  H     -2.855835    5.459752   -0.253877
  H     -0.349595    7.256089   -0.551661
  H     -2.132555    7.782783   -0.498366

 Multiplicity           Mult            ....    1
 Number of Electrons    NEL             ....   98
 Basis Dimension        Dim             ....  236

ORBITAL ENERGIES
----------------

  NO   OCC          E(Eh)            E(eV)
   0   2.0000     -24.714878      -672.5260
   1   2.0000     -24.709838      -672.3889
   2   2.0000     -10.279658      -279.7237
   3   2.0000     -10.272375      -279.5255
   4   2.0000     -10.230942      -278.3981
   5   2.0000     -10.227236      -278.2972
   6   2.0000     -10.215466      -277.9770
   7   2.0000     -10.209179      -277.8059
   8   2.0000     -10.204542      -277.6797
   9   2.0000     -10.204125      -277.6684
  10   2.0000     -10.201525      -277.5976
  11   2.0000     -10.197300      -277.4827
  12   2.0000     -10.193160      -277.3700
  13   2.0000     -10.189145      -277.2607
  14   2.0000      -1.223932       -33.3049
  15   2.0000      -1.217897       -33.1407
  16   2.0000      -0.890010       -24.2184
  17   2.0000      -0.867846       -23.6153
  18   2.0000      -0.793182       -21.5836
  19   2.0000      -0.755114       -20.5477
  20   2.0000      -0.716591       -19.4994
  21   2.0000      -0.708293       -19.2736
  22   2.0000      -0.666352       -18.1324
  23   2.0000      -0.612488       -16.6666
  24   2.0000      -0.592320       -16.1178
  25   2.0000      -0.580217       -15.7885
  26   2.0000      -0.573816       -15.6143
  27   2.0000      -0.544215       -14.8088
  28   2.0000      -0.537926       -14.6377
  29   2.0000      -0.493825       -13.4377
  30   2.0000      -0.484381       -13.1807
  31   2.0000      -0.476689       -12.9714
  32   2.0000      -0.475743       -12.9456
  33   2.0000      -0.468294       -12.7429
  34   2.0000      -0.459379       -12.5003
  35   2.0000      -0.448987       -12.2176
  36   2.0000      -0.432192       -11.7606
  37   2.0000      -0.410436       -11.1685
  38   2.0000      -0.399227       -10.8635
  39   2.0000      -0.393298       -10.7022
  40   2.0000      -0.388213       -10.5638
  41   2.0000      -0.385139       -10.4802
  42   2.0000      -0.366863        -9.9828
  43   2.0000      -0.363645        -9.8953
  44   2.0000      -0.341488        -9.2924
  45   2.0000      -0.307432        -8.3657
  46   2.0000      -0.256860        -6.9895
  47   2.0000      -0.226247        -6.1565
  48   2.0000      -0.220893        -6.0108
  49   0.0000      -0.121791        -3.3141
  50   0.0000      -0.021809        -0.5935
  51   0.0000       0.022352         0.6082
  52   0.0000       0.063027         1.7150
  53   0.0000       0.068403         1.8613

MULLIKEN ATOMIC CHARGES
-----------------------
   0 C :    0.038303
   1 C :   -0.003218
   2 C :   -0.049722
   3 C :    0.249364
   4 C :   -0.060711
   5 F :   -0.181931
   6 C :   -0.000762
   7 C :   -0.067048
   8 C :    0.087753
   9 C :   -0.069006
  10 C :    0.255985
  11 F :   -0.175534
  12 C :   -0.001683
  13 C :   -0.013918
  14 H :   -0.005975
  15 H :   -0.007661
  16 H :   -0.011748
  17 H :   -0.009364
  18 H :   -0.017515
  19 H :   -0.007768
  20 H :    0.019986
  21 H :    0.032175
Sum of atomic charges:    0.0000000

LOEWDIN ATOMIC CHARGES
----------------------
   0 C :    0.001202
   1 C :   -0.057361
   2 C :    0.000408
   3 C :    0.064001
   4 C :   -0.063603
   5 F :   -0.051318
   6 C :    0.006041
   7 C :   -0.050402
   8 C :    0.000254
   9 C :   -0.054033
  10 C :    0.074888
  11 F :   -0.045134
  12 C :   -0.021818
  13 C :   -0.027491
  14 H :    0.026627
  15 H :    0.024596
  16 H :    0.030264
  17 H :    0.025751
  18 H :    0.030162
  19 H :    0.033981
  20 H :    0.023353
  21 H :    0.029632

  Mayer bond orders larger than 0.100000
B(  0-C ,  1-C ) :   1.6469 B(  0-C ,  4-C ) :   1.0301 B(  0-C , 14-H ) :   0.9940
B(  1-C ,  2-C ) :   1.0851 B(  1-C , 15-H ) :   1.0057 B(  2-C ,  3-C ) :   1.0274
B(  2-C ,  6-C ) :   1.5282 B(  3-C ,  4-C ) :   1.6462 B(  3-C ,  5-F ) :   1.1033
B(  4-C , 16-H ) :   1.0004 B(  6-C ,  7-C ) :   1.0881 B(  6-C , 10-C ) :   1.0213
B(  7-C ,  8-C ) :   1.5380 B(  7-C , 13-C ) :   0.1104 B(  7-C , 17-H ) :   1.0163
B(  8-C ,  9-C ) :   1.0064 B(  8-C , 12-C ) :   1.1328 B(  9-C , 10-C ) :   1.6495
B(  9-C , 18-H ) :   1.0064 B( 10-C , 11-F ) :   1.1140 B( 12-C , 13-C ) :   1.8624
B( 12-C , 19-H ) :   0.9631 B( 13-C , 20-H ) :   0.9493 B( 13-C , 21-H ) :   0.9466

Dispersion correction           -0.043051318
FINAL SINGLE POINT ENERGY      -661.227484797856

DIPOLE MOMENT
-------------
                                X             Y             Z
Electronic contribution:      2.16603      -7.00359       0.53515
Nuclear contribution   :     -2.22625       7.29980      -0.55982
                        -----------------------------------------
Total Dipole Moment    :     -0.06022       0.29621      -0.02467
                        -----------------------------------------
Magnitude (a.u.)       :      0.30327
Magnitude (Debye)      :      0.77085

Rotational constants in cm-1:     0.044842     0.014452     0.010930
Rotational constants in MHz :  1344.339400   433.260184   327.661898

                             ****ORCA TERMINATED NORMALLY****
TOTAL RUN TIME: 0 days 0 hours 12 minutes 40 seconds 294 msec
