                         Program Version 4.2.0 -  RELEASE  -
|  1> # ORCA input file
|  2> # SCF done        -55.481301118247          0.000603196156
|  3> ! B3LYP/G D3BJ Opt RIJCOSX def2-SVP def2/J
|  4> * xyz 0 1
|  5>    C        2.37820         0.69284        -1.02997
|  6>    C        3.63357         0.28943        -0.73883
|  7>    C        3.54654        -0.57448         0.41495
|  8>    C        2.22521        -0.71513         0.77136
|  9>    O        1.82235        -1.46124         1.88335
| 10>    C        2.88270        -2.06765         2.47829
| 11>    C        4.15670        -1.94331         2.11453
| 12>    O        4.58681        -1.16015         1.04822
| 13>    C        1.43423         0.07193        -0.08960
| 14>    C        0.04637         0.18553        -0.12411
| 15>    C       -0.89436        -0.70714         0.41164
| 16>    C       -2.16324        -0.29832         0.04477
| 17>    O       -3.30171        -0.95296         0.35787
| 18>    C       -3.04870        -2.08741         1.12234
| 19>    C       -1.82834        -2.50285         1.45164
| 20>    O       -0.66292        -1.89685         1.10234
| 21>    C       -2.07112         0.91608        -0.69869
| 22>    C       -0.74701         1.24337        -0.80825
| 23>    C       -0.21710         2.46865        -1.34186
| 24>    C       -0.85584         3.25018        -2.21436
| 25>    H        2.07990         1.29250        -1.86652
| 26>    H        4.54731         0.53426        -1.24326
| 27>    H        2.58692        -2.68366         3.31141
| 28>    H        4.97095        -2.43737         2.61126
| 29>    H       -3.95140        -2.59146         1.41423
| 30>    H       -1.66781        -3.38984         2.04196
| 31>    H       -2.91614         1.47721        -1.04451
| 32>    H        0.75619         2.76532        -0.97810
| 33>    H       -1.81936         2.98580        -2.61445
| 34>    H       -0.42386         4.17081        -2.56633
| 35> *
| 36>
| 37>                          ****END OF INPUT****
 Total Charge           Charge          ....    0
 Multiplicity           Mult            ....    1
 Number of Electrons    NEL             ....  138
Dispersion correction           -0.065968891
FINAL SINGLE POINT ENERGY      -915.795620733017
Dispersion correction            ... done
Dispersion correction           -0.065880043
FINAL SINGLE POINT ENERGY      -915.800767991123
Dispersion correction            ... done
Dispersion correction           -0.065761724
FINAL SINGLE POINT ENERGY      -915.801256112159
Dispersion correction            ... done
FINAL SINGLE POINT ENERGY      -915.801717090969
FINAL SINGLE POINT ENERGY      -915.801899222660
FINAL SINGLE POINT ENERGY      -915.801941868290
Dispersion correction            ... done
Dispersion correction           -0.065837718
FINAL SINGLE POINT ENERGY      -915.801999499805
Dispersion correction            ... done
Dispersion correction           -0.065837174
FINAL SINGLE POINT ENERGY      -915.802004074807
Dispersion correction            ... done
                    ***********************HURRAY********************

CARTESIAN COORDINATES (ANGSTROEM)
---------------------------------
  C      2.350559    0.914482   -0.826143
  C      3.624170    0.526515   -0.565589
  C      3.559717   -0.512347    0.465149
  C      2.258647   -0.763559    0.795019
  O      1.886708   -1.671169    1.772176
  C      2.973897   -2.313001    2.303969
  C      4.247987   -2.076946    1.967484
  O      4.632947   -1.129193    1.017056
  C      1.410454    0.115867    0.018319
  C      0.035353    0.211314   -0.027976
  C     -0.953954   -0.681125    0.526440
  C     -2.189086   -0.293509    0.085281
  O     -3.345830   -0.941283    0.360310
  C     -3.135709   -2.043155    1.189917
  C     -1.925281   -2.437830    1.601845
  O     -0.745327   -1.821246    1.278616
  C     -2.078710    0.913976   -0.715093
  C     -0.755201    1.249862   -0.797232
  C     -0.247169    2.480282   -1.397460
  C     -0.762822    3.070484   -2.488662
  H      2.037319    1.626242   -1.582011
  H      4.540014    0.883741   -1.032646
  H      2.703111   -3.061083    3.048743
  H      5.090938   -2.605744    2.405172
  H     -4.056874   -2.550902    1.465105
  H     -1.787758   -3.308184    2.242297
  H     -2.920289    1.488276   -1.097380
  H      0.587329    2.966385   -0.885514
  H     -1.576713    2.611383   -3.056743
  H     -0.373387    4.025559   -2.849129

 Multiplicity           Mult            ....    1
 Number of Electrons    NEL             ....  138
 Basis Dimension        Dim             ....  330

ORBITAL ENERGIES
----------------

  NO   OCC          E(Eh)            E(eV)
   0   2.0000     -19.192678      -522.2593
   1   2.0000     -19.191062      -522.2153
   2   2.0000     -19.177315      -521.8413
   3   2.0000     -19.175151      -521.7824
   4   2.0000     -10.258015      -279.1348
   5   2.0000     -10.255827      -279.0753
   6   2.0000     -10.253289      -279.0062
   7   2.0000     -10.252587      -278.9871
   8   2.0000     -10.248185      -278.8673
   9   2.0000     -10.246984      -278.8346
  10   2.0000     -10.237214      -278.5687
  11   2.0000     -10.234900      -278.5058
  12   2.0000     -10.224170      -278.2138
  13   2.0000     -10.222626      -278.1718
  14   2.0000     -10.207155      -277.7508
  15   2.0000     -10.200981      -277.5828
  16   2.0000     -10.200861      -277.5795
  17   2.0000     -10.199548      -277.5438
  18   2.0000     -10.196326      -277.4561
  19   2.0000     -10.190703      -277.3031
  20   2.0000      -1.101099       -29.9624
  21   2.0000      -1.098118       -29.8813
  22   2.0000      -1.063669       -28.9439
  23   2.0000      -1.059594       -28.8330
  24   2.0000      -0.885771       -24.1031
  25   2.0000      -0.864974       -23.5371
  26   2.0000      -0.786718       -21.4077
  27   2.0000      -0.766697       -20.8629
  28   2.0000      -0.759102       -20.6562
  29   2.0000      -0.752447       -20.4751
  30   2.0000      -0.706822       -19.2336
  31   2.0000      -0.700125       -19.0514
  32   2.0000      -0.682216       -18.5641
  33   2.0000      -0.658832       -17.9277
  34   2.0000      -0.618350       -16.8261
  35   2.0000      -0.608362       -16.5544
  36   2.0000      -0.587084       -15.9754
  37   2.0000      -0.576637       -15.6911
  38   2.0000      -0.555749       -15.1227
  39   2.0000      -0.543498       -14.7893
  40   2.0000      -0.520669       -14.1681
  41   2.0000      -0.505069       -13.7436
  42   2.0000      -0.487652       -13.2697
  43   2.0000      -0.480400       -13.0723
  44   2.0000      -0.474301       -12.9064
  45   2.0000      -0.470270       -12.7967
  46   2.0000      -0.467271       -12.7151
  47   2.0000      -0.449649       -12.2356
  48   2.0000      -0.442578       -12.0432
  49   2.0000      -0.431639       -11.7455
  50   2.0000      -0.426734       -11.6120
  51   2.0000      -0.423278       -11.5180
  52   2.0000      -0.415580       -11.3085
  53   2.0000      -0.407195       -11.0803
  54   2.0000      -0.405498       -11.0342
  55   2.0000      -0.400969       -10.9109
  56   2.0000      -0.397496       -10.8164
  57   2.0000      -0.382968       -10.4211
  58   2.0000      -0.373275       -10.1573
  59   2.0000      -0.363280        -9.8853
  60   2.0000      -0.350866        -9.5476
  61   2.0000      -0.343213        -9.3393
  62   2.0000      -0.328493        -8.9387
  63   2.0000      -0.293487        -7.9862
  64   2.0000      -0.266201        -7.2437
  65   2.0000      -0.253566        -6.8999
  66   2.0000      -0.241525        -6.5722
  67   2.0000      -0.182866        -4.9760
  68   2.0000      -0.176852        -4.8124
  69   0.0000      -0.115549        -3.1443
  70   0.0000      -0.018725        -0.5095
  71   0.0000       0.004177         0.1137
  72   0.0000       0.018131         0.4934
  73   0.0000       0.045653         1.2423

MULLIKEN ATOMIC CHARGES
-----------------------
   0 C :   -0.012053
   1 C :    0.002448
   2 C :    0.133375
   3 C :    0.108849
   4 O :   -0.263531
   5 C :    0.150701
   6 C :    0.121117
   7 O :   -0.252188
   8 C :   -0.040269
   9 C :    0.052148
  10 C :    0.075969
  11 C :    0.164915
  12 O :   -0.250557
  13 C :    0.119102
  14 C :    0.153116
  15 O :   -0.259998
  16 C :   -0.068895
  17 C :    0.045517
  18 C :   -0.034406
  19 C :   -0.022358
  20 H :   -0.009124
  21 H :   -0.015461
  22 H :    0.017680
  23 H :    0.015560
  24 H :    0.016407
  25 H :    0.017715
  26 H :   -0.018665
  27 H :    0.011883
  28 H :    0.019658
  29 H :    0.021345
Sum of atomic charges:   -0.0000000

LOEWDIN ATOMIC CHARGES
----------------------
   0 C :   -0.023017
   1 C :   -0.026268
   2 C :    0.038380
   3 C :   -0.024522
   4 O :   -0.071946
   5 C :    0.032532
   6 C :    0.006433
   7 O :   -0.063158
   8 C :    0.004824
   9 C :    0.009627
  10 C :   -0.021478
  11 C :    0.041348
  12 O :   -0.060922
  13 C :    0.006278
  14 C :    0.033234
  15 O :   -0.067960
  16 C :   -0.024427
  17 C :   -0.016977
  18 C :   -0.028418
  19 C :   -0.045629
  20 H :    0.028253
  21 H :    0.031285
  22 H :    0.034383
  23 H :    0.031768
  24 H :    0.032095
  25 H :    0.034649
  26 H :    0.030996
  27 H :    0.031164
  28 H :    0.022589
  29 H :    0.024884

  Mayer bond orders larger than 0.100000
B(  0-C ,  1-C ) :   1.6378 B(  0-C ,  8-C ) :   1.0501 B(  0-C , 20-H ) :   0.9934
B(  1-C ,  2-C ) :   1.0791 B(  1-C , 21-H ) :   1.0159 B(  2-C ,  3-C ) :   1.5176
B(  2-C ,  7-O ) :   1.0981 B(  3-C ,  4-O ) :   1.0365 B(  3-C ,  8-C ) :   1.1573
B(  4-O ,  5-C ) :   1.0557 B(  5-C ,  6-C ) :   1.7912 B(  5-C , 22-H ) :   0.9766
B(  6-C ,  7-O ) :   0.9859 B(  6-C , 23-H ) :   0.9758 B(  8-C ,  9-C ) :   1.4643
B(  9-C , 10-C ) :   1.1603 B(  9-C , 17-C ) :   1.0353 B( 10-C , 11-C ) :   1.4997
B( 10-C , 15-O ) :   1.0423 B( 11-C , 12-O ) :   1.1002 B( 11-C , 16-C ) :   1.0784
B( 12-O , 13-C ) :   0.9860 B( 13-C , 14-C ) :   1.7900 B( 13-C , 24-H ) :   0.9769
B( 14-C , 15-O ) :   1.0547 B( 14-C , 25-H ) :   0.9770 B( 16-C , 17-C ) :   1.5986
B( 16-C , 26-H ) :   1.0205 B( 17-C , 18-C ) :   1.0760 B( 18-C , 19-C ) :   1.9152
B( 18-C , 27-H ) :   0.9473 B( 19-C , 28-H ) :   0.9549 B( 19-C , 29-H ) :   0.9450

Dispersion correction           -0.065836325
FINAL SINGLE POINT ENERGY      -915.802011252821

DIPOLE MOMENT
-------------
                                X             Y             Z
Electronic contribution:      1.04663      -5.93658       4.80409
Nuclear contribution   :     -1.09510       5.64463      -4.56717
                        -----------------------------------------
Total Dipole Moment    :     -0.04847      -0.29195       0.23692
                        -----------------------------------------
Magnitude (a.u.)       :      0.37910
Magnitude (Debye)      :      0.96359

Rotational constants in cm-1:     0.017135     0.009598     0.006199
Rotational constants in MHz :   513.706200   287.748552   185.828849

                             ****ORCA TERMINATED NORMALLY****
TOTAL RUN TIME: 0 days 0 hours 41 minutes 10 seconds 344 msec
