                         Program Version 4.2.0 -  RELEASE  -
|  1> # ORCA input file
|  2> # SCF done        -34.430947651238          0.000467989083
|  3> ! B3LYP/G D3BJ Opt RIJCOSX def2-SVP def2/J
|  4> * xyz 0 1
|  5>    C        1.12943         0.25995        -0.00087
|  6>    C        0.68004        -1.00499         0.00001
|  7>    C       -0.79121        -0.97368        -0.00143
|  8>    C       -1.59713        -2.11928        -0.00262
|  9>    N       -2.24657        -3.06589        -0.00444
| 10>    C       -1.20066         0.32111        -0.00252
| 11>    C       -0.01807         1.16130        -0.00323
| 12>    C        0.00893         2.52347        -0.00851
| 13>    C       -1.13963         3.42364        -0.01279
| 14>    C       -0.69155         4.68897        -0.02194
| 15>    C        0.77960         4.65924        -0.02360
| 16>    C        1.19058         3.36483        -0.01479
| 17>    C        1.58531         5.80492        -0.03375
| 18>    N        2.23882         6.74864        -0.04368
| 19>    H        2.15259         0.58132        -0.00002
| 20>    H        1.25292        -1.91340         0.00145
| 21>    H       -2.21370         0.67365        -0.00369
| 22>    H       -2.16237         3.10108        -0.00904
| 23>    H       -1.26563         5.59664        -0.02738
| 24>    H        2.20394         3.01318        -0.01355
| 25> *
| 26>
| 27>                          ****END OF INPUT****
 Total Charge           Charge          ....    0
 Multiplicity           Mult            ....    1
 Number of Electrons    NEL             ....   92
Dispersion correction           -0.042524193
FINAL SINGLE POINT ENERGY      -569.907480821365
Dispersion correction            ... done
Dispersion correction           -0.042354581
FINAL SINGLE POINT ENERGY      -569.911595333194
Dispersion correction            ... done
Dispersion correction           -0.042331318
FINAL SINGLE POINT ENERGY      -569.911683490080
Dispersion correction            ... done
FINAL SINGLE POINT ENERGY      -569.911693493515
FINAL SINGLE POINT ENERGY      -569.911692476936
Dispersion correction            ... done
Dispersion correction           -0.042326471
FINAL SINGLE POINT ENERGY      -569.911688423485
Dispersion correction            ... done
Dispersion correction           -0.042327690
FINAL SINGLE POINT ENERGY      -569.911685337370
Dispersion correction            ... done
                    ***********************HURRAY********************

CARTESIAN COORDINATES (ANGSTROEM)
---------------------------------
  C      1.141408    0.253796   -0.005544
  C      0.682885   -1.020583   -0.000306
  C     -0.802879   -0.986792   -0.000127
  C     -1.620131   -2.151016    0.004918
  N     -2.258184   -3.122292    0.008464
  C     -1.217756    0.315752   -0.005559
  C     -0.018283    1.157441   -0.008821
  C      0.007796    2.527039   -0.013908
  C     -1.151873    3.430703   -0.017295
  C     -0.693325    4.705077   -0.021967
  C      0.792438    4.671260   -0.022083
  C      1.207291    3.368707   -0.017249
  C      1.609716    5.835468   -0.026821
  N      2.247900    6.806650   -0.032018
  H      2.180664    0.574818   -0.006950
  H      1.267447   -1.939141    0.003372
  H     -2.245160    0.670810   -0.006942
  H     -2.191141    3.109713   -0.016189
  H     -1.277870    5.623646   -0.025376
  H      2.234696    3.013646   -0.015991

 Multiplicity           Mult            ....    1
 Number of Electrons    NEL             ....   92
 Basis Dimension        Dim             ....  226

ORBITAL ENERGIES
----------------

  NO   OCC          E(Eh)            E(eV)
   0   2.0000     -14.345168      -390.3519
   1   2.0000     -14.345161      -390.3517
   2   2.0000     -10.258327      -279.1433
   3   2.0000     -10.258322      -279.1431
   4   2.0000     -10.255376      -279.0630
   5   2.0000     -10.254936      -279.0510
   6   2.0000     -10.244300      -278.7616
   7   2.0000     -10.244294      -278.7614
   8   2.0000     -10.236143      -278.5396
   9   2.0000     -10.236125      -278.5391
  10   2.0000     -10.235480      -278.5216
  11   2.0000     -10.235475      -278.5214
  12   2.0000     -10.224944      -278.2349
  13   2.0000     -10.224938      -278.2347
  14   2.0000      -0.925660       -25.1885
  15   2.0000      -0.917588       -24.9688
  16   2.0000      -0.906594       -24.6697
  17   2.0000      -0.892439       -24.2845
  18   2.0000      -0.797373       -21.6976
  19   2.0000      -0.764115       -20.7926
  20   2.0000      -0.750571       -20.4241
  21   2.0000      -0.717330       -19.5195
  22   2.0000      -0.651296       -17.7227
  23   2.0000      -0.623229       -16.9589
  24   2.0000      -0.592267       -16.1164
  25   2.0000      -0.569000       -15.4833
  26   2.0000      -0.566097       -15.4043
  27   2.0000      -0.527155       -14.3446
  28   2.0000      -0.467129       -12.7112
  29   2.0000      -0.460903       -12.5418
  30   2.0000      -0.451684       -12.2910
  31   2.0000      -0.445768       -12.1300
  32   2.0000      -0.442796       -12.0491
  33   2.0000      -0.429281       -11.6813
  34   2.0000      -0.429024       -11.6743
  35   2.0000      -0.418485       -11.3876
  36   2.0000      -0.393640       -10.7115
  37   2.0000      -0.377696       -10.2776
  38   2.0000      -0.375236       -10.2107
  39   2.0000      -0.374118       -10.1803
  40   2.0000      -0.353322        -9.6144
  41   2.0000      -0.349775        -9.5179
  42   2.0000      -0.348546        -9.4844
  43   2.0000      -0.285523        -7.7695
  44   2.0000      -0.270206        -7.3527
  45   2.0000      -0.263315        -7.1652
  46   0.0000      -0.158054        -4.3009
  47   0.0000      -0.041787        -1.1371
  48   0.0000      -0.022636        -0.6159
  49   0.0000       0.001833         0.0499
  50   0.0000       0.011778         0.3205

MULLIKEN ATOMIC CHARGES
-----------------------
   0 C :   -0.005349
   1 C :    0.064919
   2 C :   -0.106500
   3 C :   -0.111586
   4 N :    0.099319
   5 C :    0.009536
   6 C :    0.048582
   7 C :    0.048530
   8 C :   -0.005376
   9 C :    0.064972
  10 C :   -0.106468
  11 C :    0.009535
  12 C :   -0.111718
  13 N :    0.099407
  14 H :   -0.003185
  15 H :    0.004412
  16 H :   -0.000124
  17 H :   -0.003187
  18 H :    0.004406
  19 H :   -0.000123
Sum of atomic charges:   -0.0000000

LOEWDIN ATOMIC CHARGES
----------------------
   0 C :   -0.031663
   1 C :    0.020086
   2 C :   -0.052151
   3 C :   -0.028229
   4 N :   -0.047391
   5 C :    0.005244
   6 C :    0.029344
   7 C :    0.029346
   8 C :   -0.031667
   9 C :    0.020090
  10 C :   -0.052148
  11 C :    0.005243
  12 C :   -0.028228
  13 N :   -0.047394
  14 H :    0.031890
  15 H :    0.037089
  16 H :    0.035780
  17 H :    0.031890
  18 H :    0.037088
  19 H :    0.035781

  Mayer bond orders larger than 0.100000
B(  0-C ,  1-C ) :   1.6489 B(  0-C ,  6-C ) :   1.0845 B(  0-C , 14-H ) :   1.0030
B(  1-C ,  2-C ) :   1.0705 B(  1-C , 15-H ) :   1.0061 B(  2-C ,  3-C ) :   1.0766
B(  2-C ,  5-C ) :   1.6288 B(  3-C ,  4-N ) :   2.9964 B(  5-C ,  6-C ) :   1.0623
B(  5-C , 16-H ) :   1.0139 B(  6-C ,  7-C ) :   1.4506 B(  7-C ,  8-C ) :   1.0844
B(  7-C , 11-C ) :   1.0623 B(  8-C ,  9-C ) :   1.6489 B(  8-C , 17-H ) :   1.0030
B(  9-C , 10-C ) :   1.0704 B(  9-C , 18-H ) :   1.0060 B( 10-C , 11-C ) :   1.6288
B( 10-C , 12-C ) :   1.0766 B( 11-C , 19-H ) :   1.0139 B( 12-C , 13-N ) :   2.9965

Dispersion correction           -0.042328133
FINAL SINGLE POINT ENERGY      -569.911684819104

DIPOLE MOMENT
-------------
                                X             Y             Z
Electronic contribution:     -0.00001      -0.00004       0.00086
Nuclear contribution   :     -0.00008       0.00011      -0.00015
                        -----------------------------------------
Total Dipole Moment    :     -0.00009       0.00008       0.00071
                        -----------------------------------------
Magnitude (a.u.)       :      0.00072
Magnitude (Debye)      :      0.00184

Rotational constants in cm-1:     0.098027     0.009498     0.008659
Rotational constants in MHz :  2938.781294   284.754034   259.600023

                             ****ORCA TERMINATED NORMALLY****
TOTAL RUN TIME: 0 days 0 hours 13 minutes 7 seconds 703 msec
