                         Program Version 4.2.0 -  RELEASE  -
|  1> # ORCA input file
|  2> # SCF done        -28.870383192751          0.000261161890
|  3> ! B3LYP/G D3BJ Opt RIJCOSX def2-SVP def2/J
|  4> * xyz 0 1
|  5>    C        1.47571        -0.71618        -0.01138
|  6>    S       -0.01664        -1.49765        -0.36948
|  7>    C       -0.73748         0.00533        -0.77355
|  8>    C        0.12292         1.04146        -0.64148
|  9>    C        1.41752         0.64169        -0.18627
| 10>    N        2.47075         1.51470         0.02798
| 11>    C        3.80835         0.97679         0.15065
| 12>    C        4.40256         0.59238        -1.20299
| 13>    C        2.27404         2.87904         0.03562
| 14>    C        3.19943         3.82734        -0.08251
| 15>    H        2.29415        -1.32918         0.30399
| 16>    H       -1.75880         0.03301        -1.09694
| 17>    H       -0.15078         2.05192        -0.88260
| 18>    H        3.78032         0.10370         0.80876
| 19>    H        4.43017         1.73146         0.63482
| 20>    H        3.78948        -0.16863        -1.68019
| 21>    H        5.40850         0.20150        -1.07479
| 22>    H        4.44292         1.46101        -1.85566
| 23>    H        1.24457         3.16964         0.18674
| 24>    H        4.24324         3.63410        -0.25021
| 25>    H        2.91537         4.86072        -0.01063
| 26> *
| 27>
| 28>                          ****END OF INPUT****
 Total Charge           Charge          ....    0
 Multiplicity           Mult            ....    1
 Number of Electrons    NEL             ....   82
Dispersion correction           -0.040520862
FINAL SINGLE POINT ENERGY      -764.041644611270
Dispersion correction            ... done
Dispersion correction           -0.040154415
FINAL SINGLE POINT ENERGY      -764.044670109496
Dispersion correction            ... done
Dispersion correction           -0.040102006
FINAL SINGLE POINT ENERGY      -764.044817382885
Dispersion correction            ... done
FINAL SINGLE POINT ENERGY      -764.044814687338
FINAL SINGLE POINT ENERGY      -764.044842095853
FINAL SINGLE POINT ENERGY      -764.044921659323
FINAL SINGLE POINT ENERGY      -764.045032049956
FINAL SINGLE POINT ENERGY      -764.045087063482
FINAL SINGLE POINT ENERGY      -764.045204400382
FINAL SINGLE POINT ENERGY      -764.045232291159
FINAL SINGLE POINT ENERGY      -764.045286190485
FINAL SINGLE POINT ENERGY      -764.045276839034
Dispersion correction            ... done
Dispersion correction           -0.040184897
FINAL SINGLE POINT ENERGY      -764.045288416879
Dispersion correction            ... done
Dispersion correction           -0.040180426
FINAL SINGLE POINT ENERGY      -764.045290167086
Dispersion correction            ... done
                    ***********************HURRAY********************

CARTESIAN COORDINATES (ANGSTROEM)
---------------------------------
  C      1.476619   -0.750259   -0.354048
  S     -0.064545   -1.528260   -0.529167
  C     -0.881899   -0.011184   -0.505361
  C     -0.018025    1.040511   -0.362644
  C      1.360592    0.627134   -0.268819
  N      2.435716    1.504448   -0.086269
  C      3.755629    0.955275    0.195177
  C      4.575828    0.648106   -1.058295
  C      2.299090    2.870367   -0.278759
  C      3.245962    3.820361   -0.169995
  H      2.380651   -1.351862   -0.347547
  H     -1.966751    0.033944   -0.585688
  H     -0.362546    2.071031   -0.299742
  H      3.623251    0.048973    0.804106
  H      4.291926    1.674709    0.832174
  H      4.045903   -0.056796   -1.716304
  H      5.544038    0.201112   -0.780602
  H      4.772941    1.565003   -1.634115
  H      1.293034    3.175830   -0.566282
  H      4.286017    3.616821    0.088345
  H      2.962872    4.858884   -0.346285

 Multiplicity           Mult            ....    1
 Number of Electrons    NEL             ....   82
 Basis Dimension        Dim             ....  199

ORBITAL ENERGIES
----------------

  NO   OCC          E(Eh)            E(eV)
   0   2.0000     -88.869534     -2418.2630
   1   2.0000     -14.361634      -390.7999
   2   2.0000     -10.233166      -278.4586
   3   2.0000     -10.226265      -278.2708
   4   2.0000     -10.221449      -278.1398
   5   2.0000     -10.212769      -277.9036
   6   2.0000     -10.200226      -277.5622
   7   2.0000     -10.193818      -277.3879
   8   2.0000     -10.186393      -277.1858
   9   2.0000     -10.166893      -276.6552
  10   2.0000      -7.964560      -216.7267
  11   2.0000      -5.932841      -161.4408
  12   2.0000      -5.928707      -161.3283
  13   2.0000      -5.925671      -161.2457
  14   2.0000      -0.958164       -26.0730
  15   2.0000      -0.869356       -23.6564
  16   2.0000      -0.766083       -20.8462
  17   2.0000      -0.754248       -20.5241
  18   2.0000      -0.721487       -19.6327
  19   2.0000      -0.694629       -18.9018
  20   2.0000      -0.640321       -17.4240
  21   2.0000      -0.588311       -16.0088
  22   2.0000      -0.561588       -15.2816
  23   2.0000      -0.539599       -14.6832
  24   2.0000      -0.527138       -14.3441
  25   2.0000      -0.485962       -13.2237
  26   2.0000      -0.452831       -12.3222
  27   2.0000      -0.440611       -11.9896
  28   2.0000      -0.432045       -11.7565
  29   2.0000      -0.415352       -11.3023
  30   2.0000      -0.405380       -11.0309
  31   2.0000      -0.395896       -10.7729
  32   2.0000      -0.386940       -10.5292
  33   2.0000      -0.381381       -10.3779
  34   2.0000      -0.358090        -9.7441
  35   2.0000      -0.355792        -9.6816
  36   2.0000      -0.346732        -9.4351
  37   2.0000      -0.334049        -9.0899
  38   2.0000      -0.260988        -7.1019
  39   2.0000      -0.244783        -6.6609
  40   2.0000      -0.189022        -5.1435
  41   0.0000      -0.013730        -0.3736
  42   0.0000       0.020203         0.5498
  43   0.0000       0.045107         1.2274
  44   0.0000       0.057349         1.5606
  45   0.0000       0.072603         1.9756

MULLIKEN ATOMIC CHARGES
-----------------------
   0 C :   -0.187808
   1 S :    0.092364
   2 C :   -0.088835
   3 C :    0.002977
   4 C :    0.166442
   5 N :   -0.214300
   6 C :    0.091041
   7 C :    0.014068
   8 C :    0.082081
   9 C :   -0.095364
  10 H :    0.012066
  11 H :    0.030837
  12 H :   -0.014357
  13 H :    0.012107
  14 H :    0.017832
  15 H :    0.019338
  16 H :    0.012853
  17 H :    0.022633
  18 H :    0.003641
  19 H :    0.008842
  20 H :    0.011543
Sum of atomic charges:    0.0000000

LOEWDIN ATOMIC CHARGES
----------------------
   0 C :   -0.254261
   1 S :    0.419088
   2 C :   -0.184298
   3 C :   -0.086953
   4 C :   -0.005687
   5 N :   -0.015413
   6 C :    0.044880
   7 C :   -0.061785
   8 C :    0.026512
   9 C :   -0.148225
  10 H :    0.018328
  11 H :    0.026229
  12 H :    0.027521
  13 H :    0.022571
  14 H :    0.024756
  15 H :    0.024728
  16 H :    0.026773
  17 H :    0.028064
  18 H :    0.026299
  19 H :    0.015202
  20 H :    0.025669

  Mayer bond orders larger than 0.100000
B(  0-C ,  1-S ) :   1.1100 B(  0-C ,  4-C ) :   1.5074 B(  0-C , 10-H ) :   0.9642
B(  1-S ,  2-C ) :   1.1902 B(  2-C ,  3-C ) :   1.5604 B(  2-C , 11-H ) :   0.9626
B(  3-C ,  4-C ) :   1.2309 B(  3-C , 12-H ) :   0.9920 B(  4-C ,  5-N ) :   1.0734
B(  5-N ,  6-C ) :   0.9895 B(  5-N ,  8-C ) :   1.1077 B(  6-C ,  7-C ) :   1.1200
B(  6-C , 13-H ) :   0.9345 B(  6-C , 14-H ) :   0.9379 B(  7-C , 15-H ) :   0.9638
B(  7-C , 16-H ) :   0.9622 B(  7-C , 17-H ) :   0.9612 B(  8-C ,  9-C ) :   1.8736
B(  8-C , 18-H ) :   0.9550 B(  9-C , 19-H ) :   0.9523 B(  9-C , 20-H ) :   0.9397

Dispersion correction           -0.040177629
FINAL SINGLE POINT ENERGY      -764.045288329004

DIPOLE MOMENT
-------------
                                X             Y             Z
Electronic contribution:    -11.83846      -8.34169       0.47889
Nuclear contribution   :     11.97171       8.28966      -0.46441
                        -----------------------------------------
Total Dipole Moment    :      0.13325      -0.05203       0.01448
                        -----------------------------------------
Magnitude (a.u.)       :      0.14378
Magnitude (Debye)      :      0.36546

Rotational constants in cm-1:     0.076402     0.023849     0.018858
Rotational constants in MHz :  2290.464051   714.973383   565.340977

                             ****ORCA TERMINATED NORMALLY****
TOTAL RUN TIME: 0 days 0 hours 21 minutes 14 seconds 663 msec
