                         Program Version 4.2.0 -  RELEASE  -
|  1> # ORCA input file
|  2> # SCF done        -38.066230688234          0.000743416374
|  3> ! B3LYP/G D3BJ Opt RIJCOSX def2-SVP def2/J
|  4> * xyz 0 1
|  5>    C        1.50015        -1.33097        -0.03899
|  6>    S        2.73751        -0.14870        -0.03406
|  7>    C        1.56931         1.14248         0.04352
|  8>    C        0.28806         0.64340         0.04235
|  9>    C        0.25534        -0.77812         0.00182
| 10>    C       -1.00844        -1.56534        -0.04424
| 11>    S       -1.20388        -2.34272        -1.71514
| 12>    C       -2.22322        -0.71578         0.31203
| 13>    C       -2.17293         0.63940        -0.38610
| 14>    C       -0.96918         1.46985         0.08015
| 15>    O       -1.19655         2.02628         1.36383
| 16>    C        2.07119         2.49518         0.07103
| 17>    C        1.42408         3.56652         0.51979
| 18>    H        1.75245        -2.37192        -0.08372
| 19>    H       -0.94548        -2.43943         0.60955
| 20>    H       -1.00899        -1.23092        -2.41976
| 21>    H       -2.24708        -0.57561         1.39712
| 22>    H       -3.13267        -1.24835         0.02925
| 23>    H       -3.08135         1.20370        -0.16890
| 24>    H       -2.11423         0.49745        -1.46701
| 25>    H       -0.85264         2.34207        -0.57476
| 26>    H       -1.23336         1.31119         2.00815
| 27>    H        3.08664         2.59434        -0.29277
| 28>    H        0.43961         3.51243         0.94774
| 29>    H        1.88737         4.53809         0.49362
| 30> *
| 31>
| 32>                          ****END OF INPUT****
 Total Charge           Charge          ....    0
 Multiplicity           Mult            ....    1
 Number of Electrons    NEL             ....  112
Dispersion correction           -0.059824526
FINAL SINGLE POINT ENERGY     -1259.367602166350
Dispersion correction            ... done
Dispersion correction           -0.059227318
FINAL SINGLE POINT ENERGY     -1259.371230503556
Dispersion correction            ... done
Dispersion correction           -0.059213224
FINAL SINGLE POINT ENERGY     -1259.371534704561
Dispersion correction            ... done
FINAL SINGLE POINT ENERGY     -1259.371600374288
FINAL SINGLE POINT ENERGY     -1259.371634139534
FINAL SINGLE POINT ENERGY     -1259.371673666854
FINAL SINGLE POINT ENERGY     -1259.371636697794
FINAL SINGLE POINT ENERGY     -1259.371589318688
FINAL SINGLE POINT ENERGY     -1259.371624889693
FINAL SINGLE POINT ENERGY     -1259.371674633542
FINAL SINGLE POINT ENERGY     -1259.371687241968
FINAL SINGLE POINT ENERGY     -1259.371698781222
FINAL SINGLE POINT ENERGY     -1259.371748629368
Dispersion correction            ... done
Dispersion correction           -0.059436357
FINAL SINGLE POINT ENERGY     -1259.371784323408
Dispersion correction            ... done
Dispersion correction           -0.059430862
FINAL SINGLE POINT ENERGY     -1259.371804705695
Dispersion correction            ... done
                    ***********************HURRAY********************

CARTESIAN COORDINATES (ANGSTROEM)
---------------------------------
  C      1.491198   -1.375886    0.059891
  S      2.721578   -0.172386    0.107898
  C      1.553461    1.126110    0.101829
  C      0.259346    0.614567    0.058276
  C      0.231511   -0.822432    0.025780
  C     -1.052658   -1.592947   -0.127895
  S     -1.224513   -2.253927   -1.866785
  C     -2.263488   -0.750291    0.297985
  C     -2.233529    0.638720   -0.334703
  C     -0.998530    1.447038    0.086920
  O     -1.199753    2.031214    1.382644
  C      2.049907    2.497127    0.088153
  C      1.388191    3.606649    0.460341
  H      1.751462   -2.432308    0.016965
  H     -1.011800   -2.515897    0.468088
  H     -0.731296   -1.163819   -2.494984
  H     -2.251368   -0.648984    1.398337
  H     -3.188114   -1.282779    0.030708
  H     -3.121975    1.218776   -0.043319
  H     -2.252355    0.538196   -1.433270
  H     -0.876276    2.302954   -0.598264
  H     -0.755819    1.470154    2.031851
  H      3.077924    2.603956   -0.277351
  H      0.386224    3.568689    0.891318
  H      1.872382    4.582025    0.364085

 Multiplicity           Mult            ....    1
 Number of Electrons    NEL             ....  112
 Basis Dimension        Dim             ....  250

ORBITAL ENERGIES
----------------

  NO   OCC          E(Eh)            E(eV)
   0   2.0000     -88.880376     -2418.5580
   1   2.0000     -88.837973     -2417.4042
   2   2.0000     -19.136090      -520.7195
   3   2.0000     -10.244121      -278.7567
   4   2.0000     -10.232895      -278.4512
   5   2.0000     -10.225242      -278.2430
   6   2.0000     -10.216572      -278.0071
   7   2.0000     -10.207281      -277.7543
   8   2.0000     -10.205590      -277.7082
   9   2.0000     -10.201407      -277.5944
  10   2.0000     -10.195411      -277.4312
  11   2.0000     -10.188601      -277.2459
  12   2.0000     -10.187051      -277.2038
  13   2.0000      -7.975483      -217.0239
  14   2.0000      -7.932233      -215.8470
  15   2.0000      -5.943389      -161.7278
  16   2.0000      -5.939435      -161.6202
  17   2.0000      -5.937135      -161.5577
  18   2.0000      -5.901632      -160.5916
  19   2.0000      -5.897840      -160.4884
  20   2.0000      -5.890869      -160.2987
  21   2.0000      -1.012911       -27.5627
  22   2.0000      -0.892857       -24.2959
  23   2.0000      -0.830501       -22.5991
  24   2.0000      -0.786940       -21.4137
  25   2.0000      -0.762290       -20.7430
  26   2.0000      -0.739036       -20.1102
  27   2.0000      -0.709024       -19.2935
  28   2.0000      -0.685800       -18.6616
  29   2.0000      -0.624621       -16.9968
  30   2.0000      -0.611826       -16.6486
  31   2.0000      -0.585547       -15.9336
  32   2.0000      -0.553461       -15.0604
  33   2.0000      -0.539406       -14.6780
  34   2.0000      -0.495267       -13.4769
  35   2.0000      -0.478144       -13.0110
  36   2.0000      -0.469843       -12.7851
  37   2.0000      -0.458355       -12.4725
  38   2.0000      -0.442373       -12.0376
  39   2.0000      -0.439742       -11.9660
  40   2.0000      -0.424120       -11.5409
  41   2.0000      -0.415495       -11.3062
  42   2.0000      -0.402272       -10.9464
  43   2.0000      -0.384234       -10.4555
  44   2.0000      -0.379118       -10.3163
  45   2.0000      -0.370463       -10.0808
  46   2.0000      -0.355026        -9.6607
  47   2.0000      -0.352946        -9.6042
  48   2.0000      -0.343762        -9.3542
  49   2.0000      -0.333605        -9.0778
  50   2.0000      -0.322446        -8.7742
  51   2.0000      -0.301420        -8.2020
  52   2.0000      -0.278725        -7.5845
  53   2.0000      -0.257334        -7.0024
  54   2.0000      -0.241021        -6.5585
  55   2.0000      -0.220359        -5.9963
  56   0.0000      -0.052311        -1.4235
  57   0.0000       0.000107         0.0029
  58   0.0000       0.026145         0.7115
  59   0.0000       0.030476         0.8293
  60   0.0000       0.048226         1.3123

MULLIKEN ATOMIC CHARGES
-----------------------
   0 C :   -0.110587
   1 S :    0.116857
   2 C :   -0.145826
   3 C :   -0.079041
   4 C :    0.019756
   5 C :   -0.126774
   6 S :   -0.055004
   7 C :    0.100299
   8 C :    0.075840
   9 C :    0.208104
  10 O :   -0.299403
  11 C :    0.011393
  12 C :   -0.042065
  13 H :    0.018261
  14 H :    0.034393
  15 H :    0.058051
  16 H :   -0.000343
  17 H :    0.002784
  18 H :    0.002894
  19 H :   -0.007316
  20 H :   -0.005758
  21 H :    0.166596
  22 H :   -0.007246
  23 H :    0.043762
  24 H :    0.020376
Sum of atomic charges:    0.0000000

LOEWDIN ATOMIC CHARGES
----------------------
   0 C :   -0.192576
   1 S :    0.444038
   2 C :   -0.173094
   3 C :   -0.088927
   4 C :   -0.083629
   5 C :   -0.110009
   6 S :    0.141388
   7 C :   -0.038984
   8 C :   -0.039436
   9 C :    0.073654
  10 O :   -0.128369
  11 C :   -0.051257
  12 C :   -0.041889
  13 H :    0.025962
  14 H :    0.030039
  15 H :   -0.030314
  16 H :    0.020120
  17 H :    0.024316
  18 H :    0.029570
  19 H :    0.018422
  20 H :    0.022117
  21 H :    0.071695
  22 H :    0.027642
  23 H :    0.024082
  24 H :    0.025438

  Mayer bond orders larger than 0.100000
B(  0-C ,  1-S ) :   1.1596 B(  0-C ,  4-C ) :   1.5245 B(  0-C , 13-H ) :   0.9648
B(  1-S ,  2-C ) :   1.1442 B(  2-C ,  3-C ) :   1.4863 B(  2-C , 11-C ) :   1.0991
B(  3-C ,  4-C ) :   1.2941 B(  3-C ,  9-C ) :   1.0272 B(  4-C ,  5-C ) :   0.9762
B(  5-C ,  6-S ) :   1.0344 B(  5-C ,  7-C ) :   1.0171 B(  5-C , 14-H ) :   0.9114
B(  6-S , 15-H ) :   0.9521 B(  7-C ,  8-C ) :   1.0651 B(  7-C , 16-H ) :   0.9281
B(  7-C , 17-H ) :   0.9270 B(  8-C ,  9-C ) :   1.0401 B(  8-C , 18-H ) :   0.9189
B(  8-C , 19-H ) :   0.9278 B(  9-C , 10-O ) :   1.0149 B(  9-C , 20-H ) :   0.8951
B( 10-O , 21-H ) :   0.9706 B( 11-C , 12-C ) :   1.9245 B( 11-C , 22-H ) :   0.9447
B( 12-C , 23-H ) :   0.9312 B( 12-C , 24-H ) :   0.9410

Dispersion correction           -0.059428868
FINAL SINGLE POINT ENERGY     -1259.371797255667

DIPOLE MOMENT
-------------
                                X             Y             Z
Electronic contribution:      8.39531      -6.49280      -1.53062
Nuclear contribution   :     -8.13617       6.36654       1.74026
                        -----------------------------------------
Total Dipole Moment    :      0.25915      -0.12626       0.20964
                        -----------------------------------------
Magnitude (a.u.)       :      0.35644
Magnitude (Debye)      :      0.90599

Rotational constants in cm-1:     0.029644     0.017779     0.012463
Rotational constants in MHz :   888.713249   532.992936   373.627930

                             ****ORCA TERMINATED NORMALLY****
TOTAL RUN TIME: 0 days 0 hours 35 minutes 44 seconds 354 msec
