                         Program Version 4.2.0 -  RELEASE  -
|  1> # ORCA input file
|  2> # SCF done        -34.905747413412          0.000836970355
|  3> ! B3LYP/G D3BJ Opt RIJCOSX def2-SVP def2/J
|  4> * xyz 0 1
|  5>    C       -2.18146         0.68757        -0.01315
|  6>    O       -1.01983         1.39281         0.03898
|  7>    C        0.15275         0.69922         0.09846
|  8>    C        1.35905         1.33039         0.15315
|  9>    F        1.55512         2.64945         0.15667
| 10>    S        2.70888         0.25091         0.22262
| 11>    C       -2.34222        -0.62873        -0.01457
| 12>    S       -1.04771        -1.82372         0.05206
| 13>    C        0.31694        -0.71380         0.11282
| 14>    C        1.62360        -1.12075         0.17701
| 15>    C        2.10278        -2.47338         0.20707
| 16>    C        3.38470        -2.82215         0.26639
| 17>    H       -3.02345         1.36244        -0.05562
| 18>    H       -3.31804        -1.07497        -0.05845
| 19>    H        1.32185        -3.22306         0.17713
| 20>    H        4.16435        -2.07990         0.29724
| 21>    H        3.68842        -3.85286         0.28689
| 22> *
| 23>
| 24>                          ****END OF INPUT****
 Total Charge           Charge          ....    0
 Multiplicity           Mult            ....    1
 Number of Electrons    NEL             ....  102
Dispersion correction           -0.041644421
FINAL SINGLE POINT ENERGY     -1278.686482133428
Dispersion correction            ... done
Dispersion correction           -0.041450405
FINAL SINGLE POINT ENERGY     -1278.688726277333
Dispersion correction            ... done
Dispersion correction           -0.041405263
FINAL SINGLE POINT ENERGY     -1278.688892187464
Dispersion correction            ... done
FINAL SINGLE POINT ENERGY     -1278.688936840706
Dispersion correction            ... done
Dispersion correction           -0.041394608
FINAL SINGLE POINT ENERGY     -1278.688948542707
Dispersion correction            ... done
Dispersion correction           -0.041398400
FINAL SINGLE POINT ENERGY     -1278.688952290119
Dispersion correction            ... done
                    ***********************HURRAY********************

CARTESIAN COORDINATES (ANGSTROEM)
---------------------------------
  C     -2.209066    0.701335   -0.021177
  O     -1.035120    1.399024    0.023893
  C      0.143732    0.715306    0.095833
  C      1.347411    1.360342    0.158823
  F      1.536522    2.670973    0.161675
  S      2.713454    0.280535    0.238664
  C     -2.355933   -0.628229   -0.009944
  S     -1.058630   -1.827873    0.060391
  C      0.310868   -0.711723    0.115422
  C      1.632065   -1.109541    0.186700
  C      2.134695   -2.468243    0.213888
  C      3.419717   -2.856172    0.260340
  H     -3.061499    1.378719   -0.073205
  H     -3.356157   -1.060203   -0.055215
  H      1.352030   -3.234378    0.188466
  H      4.243087   -2.136357    0.284684
  H      3.688554   -3.914047    0.275463

 Multiplicity           Mult            ....    1
 Number of Electrons    NEL             ....  102
 Basis Dimension        Dim             ....  201

ORBITAL ENERGIES
----------------

  NO   OCC          E(Eh)            E(eV)
   0   2.0000     -88.888949     -2418.7913
   1   2.0000     -88.876052     -2418.4403
   2   2.0000     -24.725686      -672.8201
   3   2.0000     -19.200358      -522.4683
   4   2.0000     -10.300766      -280.2981
   5   2.0000     -10.270890      -279.4851
   6   2.0000     -10.264342      -279.3070
   7   2.0000     -10.240545      -278.6594
   8   2.0000     -10.234027      -278.4820
   9   2.0000     -10.223892      -278.2062
  10   2.0000     -10.213226      -277.9160
  11   2.0000     -10.197522      -277.4887
  12   2.0000      -7.984231      -217.2620
  13   2.0000      -7.970330      -216.8837
  14   2.0000      -5.952535      -161.9767
  15   2.0000      -5.949055      -161.8820
  16   2.0000      -5.944388      -161.7550
  17   2.0000      -5.939543      -161.6232
  18   2.0000      -5.935653      -161.5173
  19   2.0000      -5.929224      -161.3424
  20   2.0000      -1.237181       -33.6654
  21   2.0000      -1.097623       -29.8678
  22   2.0000      -0.903666       -24.5900
  23   2.0000      -0.834266       -22.7015
  24   2.0000      -0.797639       -21.7049
  25   2.0000      -0.775553       -21.1039
  26   2.0000      -0.724657       -19.7189
  27   2.0000      -0.696762       -18.9598
  28   2.0000      -0.644183       -17.5291
  29   2.0000      -0.630064       -17.1449
  30   2.0000      -0.571588       -15.5537
  31   2.0000      -0.557597       -15.1730
  32   2.0000      -0.528817       -14.3898
  33   2.0000      -0.525063       -14.2877
  34   2.0000      -0.499678       -13.5969
  35   2.0000      -0.488203       -13.2847
  36   2.0000      -0.477682       -12.9984
  37   2.0000      -0.455965       -12.4074
  38   2.0000      -0.441065       -12.0020
  39   2.0000      -0.434844       -11.8327
  40   2.0000      -0.398974       -10.8566
  41   2.0000      -0.394004       -10.7214
  42   2.0000      -0.391225       -10.6458
  43   2.0000      -0.381914       -10.3924
  44   2.0000      -0.364204        -9.9105
  45   2.0000      -0.341333        -9.2882
  46   2.0000      -0.339206        -9.2303
  47   2.0000      -0.306651        -8.3444
  48   2.0000      -0.286648        -7.8001
  49   2.0000      -0.220011        -5.9868
  50   2.0000      -0.201921        -5.4945
  51   0.0000      -0.055443        -1.5087
  52   0.0000      -0.008032        -0.2186
  53   0.0000       0.008323         0.2265
  54   0.0000       0.022805         0.6205
  55   0.0000       0.042847         1.1659

MULLIKEN ATOMIC CHARGES
-----------------------
   0 C :    0.170182
   1 O :   -0.253633
   2 C :    0.201801
   3 C :    0.057699
   4 F :   -0.152395
   5 S :    0.093509
   6 C :   -0.102835
   7 S :    0.079695
   8 C :   -0.021313
   9 C :   -0.160123
  10 C :    0.002598
  11 C :   -0.038960
  12 H :    0.024515
  13 H :    0.043680
  14 H :    0.004669
  15 H :    0.022368
  16 H :    0.028543
Sum of atomic charges:   -0.0000000

LOEWDIN ATOMIC CHARGES
----------------------
   0 C :    0.033357
   1 O :   -0.052871
   2 C :   -0.035934
   3 C :   -0.099347
   4 F :   -0.039478
   5 S :    0.408091
   6 C :   -0.227616
   7 S :    0.348565
   8 C :   -0.196683
   9 C :   -0.196507
  10 C :   -0.042513
  11 C :   -0.054556
  12 H :    0.034601
  13 H :    0.038136
  14 H :    0.033433
  15 H :    0.019706
  16 H :    0.029617

  Mayer bond orders larger than 0.100000
B(  0-C ,  1-O ) :   1.0581 B(  0-C ,  6-C ) :   1.8107 B(  0-C , 12-H ) :   0.9744
B(  1-O ,  2-C ) :   1.0645 B(  2-C ,  3-C ) :   1.4792 B(  2-C ,  8-C ) :   1.1988
B(  3-C ,  4-F ) :   1.1422 B(  3-C ,  5-S ) :   1.1145 B(  5-S ,  9-C ) :   1.0676
B(  6-C ,  7-S ) :   1.0101 B(  6-C , 13-H ) :   0.9394 B(  7-S ,  8-C ) :   0.9995
B(  8-C ,  9-C ) :   1.5566 B(  9-C , 10-C ) :   1.1571 B( 10-C , 11-C ) :   1.8993
B( 10-C , 14-H ) :   0.9503 B( 11-C , 15-H ) :   0.9544 B( 11-C , 16-H ) :   0.9457

Dispersion correction           -0.041399393
FINAL SINGLE POINT ENERGY     -1278.688953213889

DIPOLE MOMENT
-------------
                                X             Y             Z
Electronic contribution:      0.68215       9.55774       0.03472
Nuclear contribution   :     -1.05969      -9.97496      -0.05340
                        -----------------------------------------
Total Dipole Moment    :     -0.37753      -0.41721      -0.01868
                        -----------------------------------------
Magnitude (a.u.)       :      0.56298
Magnitude (Debye)      :      1.43099

Rotational constants in cm-1:     0.032402     0.023997     0.013787
Rotational constants in MHz :   971.390682   719.414927   413.324108

                             ****ORCA TERMINATED NORMALLY****
TOTAL RUN TIME: 0 days 0 hours 7 minutes 48 seconds 82 msec
