                         Program Version 4.2.0 -  RELEASE  -
|  1> # ORCA input file
|  2> # SCF done        -19.924316131440          0.000601621320
|  3> ! B3LYP/G D3BJ Opt RIJCOSX def2-SVP def2/J
|  4> * xyz 0 1
|  5>    C       -0.26712         1.03660         0.17436
|  6>    O       -1.07710        -0.02758         0.07441
|  7>    C       -0.29343        -1.10790        -0.08948
|  8>    C        1.01628        -0.75264        -0.09861
|  9>    C        1.04880         0.66340         0.07708
| 10>    C        2.24260         1.47986         0.13277
| 11>    C        2.26698         2.78844         0.35211
| 12>    H       -0.73260         1.99274         0.30711
| 13>    H       -0.78088        -2.05788        -0.18638
| 14>    H        1.86157        -1.40040        -0.21167
| 15>    H        3.16776         0.93931        -0.02031
| 16>    H        1.36636         3.35702         0.50869
| 17>    H        3.19202         3.33802         0.37842
| 18> *
| 19>
| 20>                          ****END OF INPUT****
 Total Charge           Charge          ....    0
 Multiplicity           Mult            ....    1
 Number of Electrons    NEL             ....   50
Dispersion correction           -0.019129869
FINAL SINGLE POINT ENERGY      -307.217245379289
Dispersion correction            ... done
Dispersion correction           -0.019082945
FINAL SINGLE POINT ENERGY      -307.219414938167
Dispersion correction            ... done
Dispersion correction           -0.019068138
FINAL SINGLE POINT ENERGY      -307.219502073238
Dispersion correction            ... done
FINAL SINGLE POINT ENERGY      -307.219531710514
Dispersion correction            ... done
Dispersion correction           -0.019057671
FINAL SINGLE POINT ENERGY      -307.219537941298
Dispersion correction            ... done
Dispersion correction           -0.019059174
FINAL SINGLE POINT ENERGY      -307.219537595051
Dispersion correction            ... done
                    ***********************HURRAY********************

CARTESIAN COORDINATES (ANGSTROEM)
---------------------------------
  C     -0.287740    1.032255    0.179234
  O     -1.091824   -0.052118    0.075134
  C     -0.297034   -1.139923   -0.094438
  C      1.013450   -0.765298   -0.100151
  C      1.034896    0.666241    0.082670
  C      2.237576    1.494841    0.142911
  C      2.295139    2.818710    0.346174
  H     -0.787716    1.986214    0.320249
  H     -0.807037   -2.093167   -0.201763
  H      1.878575   -1.413032   -0.224045
  H      3.175350    0.946609    0.000481
  H      1.395700    3.422770    0.499367
  H      3.251905    3.344887    0.372677

 Multiplicity           Mult            ....    1
 Number of Electrons    NEL             ....   50
 Basis Dimension        Dim             ....  128

ORBITAL ENERGIES
----------------

  NO   OCC          E(Eh)            E(eV)
   0   2.0000     -19.204947      -522.5932
   1   2.0000     -10.239065      -278.6191
   2   2.0000     -10.238525      -278.6044
   3   2.0000     -10.198945      -277.5274
   4   2.0000     -10.194516      -277.4069
   5   2.0000     -10.189470      -277.2696
   6   2.0000     -10.187031      -277.2032
   7   2.0000      -1.107592       -30.1391
   8   2.0000      -0.814464       -22.1627
   9   2.0000      -0.758658       -20.6441
  10   2.0000      -0.731463       -19.9041
  11   2.0000      -0.617099       -16.7921
  12   2.0000      -0.588330       -16.0093
  13   2.0000      -0.558686       -15.2026
  14   2.0000      -0.511399       -13.9159
  15   2.0000      -0.460040       -12.5183
  16   2.0000      -0.458715       -12.4823
  17   2.0000      -0.447937       -12.1890
  18   2.0000      -0.425546       -11.5797
  19   2.0000      -0.397707       -10.8222
  20   2.0000      -0.375067       -10.2061
  21   2.0000      -0.354658        -9.6507
  22   2.0000      -0.326426        -8.8825
  23   2.0000      -0.259688        -7.0665
  24   2.0000      -0.222544        -6.0557
  25   0.0000      -0.028226        -0.7681
  26   0.0000       0.021604         0.5879
  27   0.0000       0.073065         1.9882
  28   0.0000       0.080255         2.1838
  29   0.0000       0.094443         2.5699

MULLIKEN ATOMIC CHARGES
-----------------------
   0 C :    0.070690
   1 O :   -0.203827
   2 C :    0.137122
   3 C :   -0.044389
   4 C :    0.037276
   5 C :    0.013419
   6 C :   -0.026115
   7 H :    0.002597
   8 H :    0.008603
   9 H :   -0.012492
  10 H :   -0.016283
  11 H :    0.012100
  12 H :    0.021299
Sum of atomic charges:    0.0000000

LOEWDIN ATOMIC CHARGES
----------------------
   0 C :    0.037205
   1 O :    0.009077
   2 C :    0.030171
   3 C :   -0.070534
   4 C :   -0.079089
   5 C :   -0.021603
   6 C :   -0.052833
   7 H :    0.021132
   8 H :    0.022424
   9 H :    0.029809
  10 H :    0.028656
  11 H :    0.020160
  12 H :    0.025422

  Mayer bond orders larger than 0.100000
B(  0-C ,  1-O ) :   1.1530 B(  0-C ,  4-C ) :   1.4978 B(  0-C ,  7-H ) :   1.0024
B(  1-O ,  2-C ) :   1.1325 B(  2-C ,  3-C ) :   1.5524 B(  2-C ,  8-H ) :   0.9990
B(  3-C ,  4-C ) :   1.2136 B(  3-C ,  9-H ) :   1.0022 B(  4-C ,  5-C ) :   1.0867
B(  5-C ,  6-C ) :   1.9487 B(  5-C , 10-H ) :   0.9600 B(  6-C , 11-H ) :   0.9494
B(  6-C , 12-H ) :   0.9450

Dispersion correction           -0.019060153
FINAL SINGLE POINT ENERGY      -307.219538179206

DIPOLE MOMENT
-------------
                                X             Y             Z
Electronic contribution:     -3.68112      -2.62601      -0.22418
Nuclear contribution   :      3.82790       2.52804       0.20145
                        -----------------------------------------
Total Dipole Moment    :      0.14678      -0.09798      -0.02274
                        -----------------------------------------
Magnitude (a.u.)       :      0.17793
Magnitude (Debye)      :      0.45227

Rotational constants in cm-1:     0.266030     0.064812     0.052119
Rotational constants in MHz :  7975.391233  1943.009694  1562.491932

                             ****ORCA TERMINATED NORMALLY****
TOTAL RUN TIME: 0 days 0 hours 3 minutes 39 seconds 468 msec
