                         Program Version 4.2.0 -  RELEASE  -
|  1> # ORCA input file
|  2> # SCF done        -61.581210791139          0.000607907067
|  3> ! B3LYP/G D3BJ Opt RIJCOSX def2-SVP def2/J
|  4> * xyz 0 1
|  5>    C       -0.75315         1.28936        -0.39567
|  6>    C       -0.50002         2.05126         0.72413
|  7>    C        0.10243         3.30219         0.62186
|  8>    O        0.27232         4.03481         1.76706
|  9>    C       -0.04035         5.36793         1.67219
| 10>    C        0.41650         6.26276         2.54595
| 11>    O        0.14754         7.60026         2.54716
| 12>    C       -0.18714         8.17103         1.35093
| 13>    C       -0.53822         9.44627         1.20761
| 14>    O       -0.85260        10.04841         0.01267
| 15>    C       -0.54826         9.38306        -1.15062
| 16>    C        0.65828         8.88802        -1.40089
| 17>    O        0.96456         8.07100        -2.46542
| 18>    C        1.53371         6.92275        -1.91837
| 19>    C        0.76669         5.91366        -1.51746
| 20>    O        1.25707         4.90452        -0.75528
| 21>    C        0.50839         3.74461        -0.64669
| 22>    C        0.22157         2.98613        -1.76811
| 23>    C       -0.42511         1.75470        -1.67069
| 24>    C       -0.71166         1.01539        -2.89285
| 25>    C       -1.40587        -0.11226        -2.99172
| 26>    H       -1.22353         0.32681        -0.27786
| 27>    H       -0.77866         1.70405         1.70673
| 28>    H       -0.72832         5.62417         0.87593
| 29>    H        1.04699         5.97774         3.37425
| 30>    H       -0.07972         7.53386         0.48577
| 31>    H       -0.66868        10.12608         2.03366
| 32>    H       -1.36635         9.33526        -1.85534
| 33>    H        1.45512         9.00535        -0.67028
| 34>    H        2.59508         6.96353        -1.70939
| 35>    H       -0.29361         5.89055        -1.75216
| 36>    H        0.53081         3.36381        -2.73284
| 37>    H       -0.31384         1.46629        -3.79351
| 38>    H       -1.83932        -0.60775        -2.14038
| 39>    H       -1.57138        -0.58297        -3.94522
| 40> *
| 41>
| 42>                          ****END OF INPUT****
 Total Charge           Charge          ....    0
 Multiplicity           Mult            ....    1
 Number of Electrons    NEL             ....  150
Dispersion correction           -0.074019476
FINAL SINGLE POINT ENERGY      -993.382175259038
Dispersion correction            ... done
Dispersion correction           -0.073134359
FINAL SINGLE POINT ENERGY      -993.386404761781
Dispersion correction            ... done
Dispersion correction           -0.073127813
FINAL SINGLE POINT ENERGY      -993.387227663294
Dispersion correction            ... done
FINAL SINGLE POINT ENERGY      -993.387925635440
FINAL SINGLE POINT ENERGY      -993.388536560268
FINAL SINGLE POINT ENERGY      -993.389155485926
FINAL SINGLE POINT ENERGY      -993.389756433766
FINAL SINGLE POINT ENERGY      -993.390255336920
FINAL SINGLE POINT ENERGY      -993.390565320470
FINAL SINGLE POINT ENERGY      -993.390885438987
FINAL SINGLE POINT ENERGY      -993.392557002470
FINAL SINGLE POINT ENERGY      -993.392694083245
FINAL SINGLE POINT ENERGY      -993.392897145624
FINAL SINGLE POINT ENERGY      -993.392974478098
FINAL SINGLE POINT ENERGY      -993.392930045472
FINAL SINGLE POINT ENERGY      -993.392891349209
FINAL SINGLE POINT ENERGY      -993.392893092168
Dispersion correction            ... done
Dispersion correction           -0.072993297
FINAL SINGLE POINT ENERGY      -993.392911179953
Dispersion correction            ... done
Dispersion correction           -0.072990776
FINAL SINGLE POINT ENERGY      -993.392926310700
Dispersion correction            ... done
                    ***********************HURRAY********************

CARTESIAN COORDINATES (ANGSTROEM)
---------------------------------
  C     -0.868281    1.400795   -0.402179
  C     -0.538984    2.210943    0.677469
  C      0.161710    3.408532    0.493838
  O      0.453445    4.150667    1.605470
  C      0.112930    5.477354    1.622133
  C      0.165202    6.188965    2.757501
  O     -0.119959    7.530278    2.835771
  C     -0.005584    8.224787    1.671357
  C     -0.775215    9.269946    1.330120
  O     -0.640367    9.875223    0.095993
  C     -0.230233    8.998673   -0.865629
  C      0.716185    9.199117   -1.786174
  O      1.098901    8.129461   -2.589694
  C      1.532976    7.057155   -1.843384
  C      0.874601    5.894959   -1.800849
  O      1.327654    4.894086   -0.979811
  C      0.564820    3.767337   -0.808105
  C      0.223561    2.951599   -1.887550
  C     -0.505198    1.763212   -1.713433
  C     -0.849356    0.957279   -2.893907
  C     -1.555306   -0.181844   -2.914853
  H     -1.425635    0.480599   -0.222182
  H     -0.835822    1.944860    1.693656
  H     -0.219649    5.907969    0.678953
  H      0.450040    5.756697    3.717525
  H      0.781583    7.868328    0.999570
  H     -1.550345    9.709432    1.959585
  H     -0.695443    8.009910   -0.799054
  H      1.246257   10.137893   -1.963589
  H      2.432444    7.216165   -1.237073
  H     -0.041791    5.707089   -2.368292
  H      0.562664    3.245513   -2.883774
  H     -0.479159    1.359506   -3.843525
  H     -1.952664   -0.641782   -2.006475
  H     -1.764714   -0.698062   -3.854259

 Multiplicity           Mult            ....    1
 Number of Electrons    NEL             ....  150
 Basis Dimension        Dim             ....  364

ORBITAL ENERGIES
----------------

  NO   OCC          E(Eh)            E(eV)
   0   2.0000     -19.190848      -522.2095
   1   2.0000     -19.188714      -522.1515
   2   2.0000     -19.188578      -522.1477
   3   2.0000     -19.187277      -522.1124
   4   2.0000     -19.173676      -521.7423
   5   2.0000     -10.266121      -279.3554
   6   2.0000     -10.264527      -279.3120
   7   2.0000     -10.255952      -279.0786
   8   2.0000     -10.249971      -278.9159
   9   2.0000     -10.249731      -278.9094
  10   2.0000     -10.248846      -278.8853
  11   2.0000     -10.248481      -278.8753
  12   2.0000     -10.246822      -278.8302
  13   2.0000     -10.245949      -278.8064
  14   2.0000     -10.245403      -278.7916
  15   2.0000     -10.211627      -277.8725
  16   2.0000     -10.207692      -277.7654
  17   2.0000     -10.205758      -277.7128
  18   2.0000     -10.204228      -277.6711
  19   2.0000     -10.204131      -277.6685
  20   2.0000     -10.195416      -277.4314
  21   2.0000      -1.096134       -29.8273
  22   2.0000      -1.087768       -29.5997
  23   2.0000      -1.081858       -29.4389
  24   2.0000      -1.075921       -29.2773
  25   2.0000      -1.066691       -29.0261
  26   2.0000      -0.870360       -23.6837
  27   2.0000      -0.806151       -21.9365
  28   2.0000      -0.796599       -21.6766
  29   2.0000      -0.778666       -21.1886
  30   2.0000      -0.768291       -20.9063
  31   2.0000      -0.745820       -20.2948
  32   2.0000      -0.740019       -20.1370
  33   2.0000      -0.709810       -19.3149
  34   2.0000      -0.668591       -18.1933
  35   2.0000      -0.640691       -17.4341
  36   2.0000      -0.629685       -17.1346
  37   2.0000      -0.618719       -16.8362
  38   2.0000      -0.592928       -16.1344
  39   2.0000      -0.579214       -15.7612
  40   2.0000      -0.571321       -15.5464
  41   2.0000      -0.563509       -15.3339
  42   2.0000      -0.552451       -15.0330
  43   2.0000      -0.538832       -14.6624
  44   2.0000      -0.527612       -14.3571
  45   2.0000      -0.522025       -14.2050
  46   2.0000      -0.509644       -13.8681
  47   2.0000      -0.495645       -13.4872
  48   2.0000      -0.489578       -13.3221
  49   2.0000      -0.475385       -12.9359
  50   2.0000      -0.469451       -12.7744
  51   2.0000      -0.463076       -12.6009
  52   2.0000      -0.450403       -12.2561
  53   2.0000      -0.444649       -12.0995
  54   2.0000      -0.432973       -11.7818
  55   2.0000      -0.424283       -11.5453
  56   2.0000      -0.419387       -11.4121
  57   2.0000      -0.411694       -11.2028
  58   2.0000      -0.410328       -11.1656
  59   2.0000      -0.400771       -10.9055
  60   2.0000      -0.385696       -10.4953
  61   2.0000      -0.380298       -10.3484
  62   2.0000      -0.376116       -10.2346
  63   2.0000      -0.371049       -10.0967
  64   2.0000      -0.363906        -9.9024
  65   2.0000      -0.361386        -9.8338
  66   2.0000      -0.346730        -9.4350
  67   2.0000      -0.327342        -8.9074
  68   2.0000      -0.308743        -8.4013
  69   2.0000      -0.278626        -7.5818
  70   2.0000      -0.271451        -7.3866
  71   2.0000      -0.250903        -6.8274
  72   2.0000      -0.231506        -6.2996
  73   2.0000      -0.229139        -6.2352
  74   2.0000      -0.207914        -5.6576
  75   0.0000      -0.050356        -1.3702
  76   0.0000      -0.023961        -0.6520
  77   0.0000      -0.003320        -0.0903
  78   0.0000       0.001911         0.0520
  79   0.0000       0.014114         0.3841

MULLIKEN ATOMIC CHARGES
-----------------------
   0 C :   -0.003274
   1 C :   -0.021167
   2 C :    0.174312
   3 O :   -0.267869
   4 C :    0.116912
   5 C :    0.141446
   6 O :   -0.260340
   7 C :    0.083561
   8 C :    0.127533
   9 O :   -0.266522
  10 C :    0.150581
  11 C :    0.098669
  12 O :   -0.301857
  13 C :    0.105791
  14 C :    0.156108
  15 O :   -0.285338
  16 C :    0.158036
  17 C :   -0.095773
  18 C :    0.108640
  19 C :    0.000752
  20 C :   -0.019642
  21 H :   -0.026893
  22 H :   -0.018906
  23 H :    0.019824
  24 H :    0.017452
  25 H :    0.035013
  26 H :    0.021399
  27 H :    0.007488
  28 H :    0.014424
  29 H :    0.013072
  30 H :    0.017478
  31 H :   -0.025857
  32 H :   -0.018649
  33 H :    0.017619
  34 H :    0.025975
Sum of atomic charges:   -0.0000000

LOEWDIN ATOMIC CHARGES
----------------------
   0 C :   -0.012430
   1 C :   -0.027261
   2 C :    0.031754
   3 O :   -0.057796
   4 C :    0.006546
   5 C :    0.017660
   6 O :   -0.058110
   7 C :    0.002443
   8 C :    0.020821
   9 O :   -0.066456
  10 C :    0.023736
  11 C :    0.018607
  12 O :   -0.101464
  13 C :    0.017851
  14 C :    0.016525
  15 O :   -0.065607
  16 C :    0.021833
  17 C :   -0.035420
  18 C :   -0.029340
  19 C :   -0.021235
  20 C :   -0.044237
  21 H :    0.028454
  22 H :    0.036301
  23 H :    0.015421
  24 H :    0.028489
  25 H :    0.019413
  26 H :    0.027988
  27 H :    0.014116
  28 H :    0.023112
  29 H :    0.017386
  30 H :    0.021023
  31 H :    0.032767
  32 H :    0.027722
  33 H :    0.021276
  34 H :    0.028111

  Mayer bond orders larger than 0.100000
B(  0-C ,  1-C ) :   1.3745 B(  0-C , 18-C ) :   1.3285 B(  0-C , 21-H ) :   0.9851
B(  1-C ,  2-C ) :   1.3720 B(  1-C , 22-H ) :   0.9882 B(  2-C ,  3-O ) :   1.0608
B(  2-C , 16-C ) :   1.3386 B(  3-O ,  4-C ) :   1.0146 B(  4-C ,  5-C ) :   1.7669
B(  4-C , 23-H ) :   0.9405 B(  5-C ,  6-O ) :   1.0430 B(  5-C , 24-H ) :   0.9800
B(  6-O ,  7-C ) :   1.0531 B(  7-C ,  8-C ) :   1.7623 B(  7-C , 25-H ) :   0.9246
B(  8-C ,  9-O ) :   1.0328 B(  8-C , 26-H ) :   0.9856 B(  9-O , 10-C ) :   1.0654
B( 10-C , 11-C ) :   1.7944 B( 10-C , 27-H ) :   0.9284 B( 11-C , 12-O ) :   1.0081
B( 11-C , 28-H ) :   0.9909 B( 12-O , 13-C ) :   1.0442 B( 13-C , 14-C ) :   1.8248
B( 13-C , 29-H ) :   0.9492 B( 14-C , 15-O ) :   1.0096 B( 14-C , 30-H ) :   0.9406
B( 15-O , 16-C ) :   1.0455 B( 16-C , 17-C ) :   1.3335 B( 17-C , 18-C ) :   1.2870
B( 17-C , 31-H ) :   0.9963 B( 18-C , 19-C ) :   1.0801 B( 19-C , 20-C ) :   1.9313
B( 19-C , 32-H ) :   0.9635 B( 20-C , 33-H ) :   0.9427 B( 20-C , 34-H ) :   0.9449

Dispersion correction           -0.072995057
FINAL SINGLE POINT ENERGY      -993.392932196189

DIPOLE MOMENT
-------------
                                X             Y             Z
Electronic contribution:      3.71391       8.00110       4.96970
Nuclear contribution   :     -4.10627      -8.60231      -5.09690
                        -----------------------------------------
Total Dipole Moment    :     -0.39235      -0.60121      -0.12719
                        -----------------------------------------
Magnitude (a.u.)       :      0.72909
Magnitude (Debye)      :      1.85320

Rotational constants in cm-1:     0.017145     0.005787     0.004692
Rotational constants in MHz :   513.999138   173.498976   140.673649

                             ****ORCA TERMINATED NORMALLY****
TOTAL RUN TIME: 0 days 1 hours 47 minutes 16 seconds 817 msec
