                         Program Version 4.2.0 -  RELEASE  -
|  1> # ORCA input file
|  2> # SCF done        -44.767820780533          0.000416085766
|  3> ! B3LYP/G D3BJ Opt RIJCOSX def2-SVP def2/J
|  4> * xyz 0 1
|  5>    C       -1.13418         1.36871         0.73833
|  6>    S       -2.49252         0.40673         0.33406
|  7>    C       -1.52114        -0.85310        -0.30063
|  8>    C       -0.19143        -0.54598        -0.20604
|  9>    C        0.03298         0.74295         0.39548
| 10>    N        1.29625         1.23115         0.57308
| 11>    C        2.26616         0.47095         0.17424
| 12>    O        3.53415         0.85354         0.29018
| 13>    C        3.75052         2.13686         0.86893
| 14>    C        5.23769         2.43463         0.81608
| 15>    C        2.03821        -0.84351        -0.42953
| 16>    O        3.12339        -1.52578        -0.78265
| 17>    C        2.89488        -2.80286        -1.37074
| 18>    C        4.24175        -3.45556        -1.62183
| 19>    N        0.85133        -1.32821        -0.61401
| 20>    H       -1.26444         2.32643         1.19803
| 21>    H       -1.97186        -1.73675        -0.70261
| 22>    H        3.37964         2.12837         1.90046
| 23>    H        3.17089         2.88112         0.31115
| 24>    H        5.78998         1.67400         1.36068
| 25>    H        5.43339         3.40573         1.26132
| 26>    H        5.58068         2.43905        -0.21476
| 27>    H        2.33410        -2.66861        -2.30313
| 28>    H        2.27715        -3.40207        -0.69216
| 29>    H        4.84538        -2.82644        -2.26980
| 30>    H        4.09767        -4.42189        -2.09556
| 31>    H        4.77146        -3.59361        -0.68350
| 32> *
| 33>
| 34>                          ****END OF INPUT****
 Total Charge           Charge          ....    0
 Multiplicity           Mult            ....    1
 Number of Electrons    NEL             ....  118
Dispersion correction           -0.050098879
FINAL SINGLE POINT ENERGY     -1045.885413682627
Dispersion correction            ... done
Dispersion correction           -0.049865012
FINAL SINGLE POINT ENERGY     -1045.888275598583
Dispersion correction            ... done
Dispersion correction           -0.049868752
FINAL SINGLE POINT ENERGY     -1045.888335437450
Dispersion correction            ... done
FINAL SINGLE POINT ENERGY     -1045.888190189231
FINAL SINGLE POINT ENERGY     -1045.888190143535
FINAL SINGLE POINT ENERGY     -1045.888235320630
FINAL SINGLE POINT ENERGY     -1045.888201883357
FINAL SINGLE POINT ENERGY     -1045.888151127890
Dispersion correction            ... done
Dispersion correction           -0.049865843
FINAL SINGLE POINT ENERGY     -1045.888096900143
Dispersion correction            ... done
Dispersion correction           -0.049864379
FINAL SINGLE POINT ENERGY     -1045.888082426160
Dispersion correction            ... done
                    ***********************HURRAY********************

CARTESIAN COORDINATES (ANGSTROEM)
---------------------------------
  C     -1.218380    1.410970    0.721050
  S     -2.579721    0.406517    0.398517
  C     -1.609585   -0.890229   -0.192869
  C     -0.266292   -0.561408   -0.150072
  C     -0.040389    0.771064    0.380299
  N      1.232996    1.276297    0.501641
  C      2.200526    0.506586    0.123784
  O      3.480542    0.873740    0.196677
  C      3.783175    2.178066    0.706002
  C      5.277259    2.226556    0.946810
  C      1.971595   -0.847707   -0.415661
  O      3.077680   -1.508827   -0.760705
  C      2.940296   -2.825791   -1.307172
  C      4.325115   -3.282796   -1.716729
  N      0.788189   -1.351746   -0.547029
  H     -1.332750    2.407153    1.142117
  H     -2.055873   -1.817403   -0.543390
  H      3.204415    2.356571    1.625953
  H      3.453113    2.932376   -0.028497
  H      5.575259    1.473584    1.691400
  H      5.573148    3.219670    1.319078
  H      5.829770    2.020585    0.017179
  H      2.240793   -2.796309   -2.158874
  H      2.486776   -3.485291   -0.547958
  H      4.747845   -2.608003   -2.476430
  H      4.282587   -4.298478   -2.139666
  H      5.003990   -3.289897   -0.850387

 Multiplicity           Mult            ....    1
 Number of Electrons    NEL             ....  118
 Basis Dimension        Dim             ....  274

ORBITAL ENERGIES
----------------

  NO   OCC          E(Eh)            E(eV)
   0   2.0000     -88.879755     -2418.5411
   1   2.0000     -19.174544      -521.7659
   2   2.0000     -19.174430      -521.7628
   3   2.0000     -14.327524      -389.8717
   4   2.0000     -14.327330      -389.8665
   5   2.0000     -10.290231      -280.0114
   6   2.0000     -10.290082      -280.0074
   7   2.0000     -10.244857      -278.7767
   8   2.0000     -10.244068      -278.7553
   9   2.0000     -10.221695      -278.1465
  10   2.0000     -10.221415      -278.1388
  11   2.0000     -10.206629      -277.7365
  12   2.0000     -10.206268      -277.7267
  13   2.0000     -10.188558      -277.2448
  14   2.0000     -10.188232      -277.2359
  15   2.0000      -7.974400      -216.9945
  16   2.0000      -5.942284      -161.6978
  17   2.0000      -5.938253      -161.5881
  18   2.0000      -5.936265      -161.5340
  19   2.0000      -1.090524       -29.6747
  20   2.0000      -1.067790       -29.0560
  21   2.0000      -0.962096       -26.1799
  22   2.0000      -0.898243       -24.4424
  23   2.0000      -0.868071       -23.6214
  24   2.0000      -0.787315       -21.4239
  25   2.0000      -0.764761       -20.8102
  26   2.0000      -0.724193       -19.7063
  27   2.0000      -0.716521       -19.4975
  28   2.0000      -0.678960       -18.4754
  29   2.0000      -0.634868       -17.2756
  30   2.0000      -0.600507       -16.3406
  31   2.0000      -0.595273       -16.1982
  32   2.0000      -0.577264       -15.7082
  33   2.0000      -0.552854       -15.0439
  34   2.0000      -0.536390       -14.5959
  35   2.0000      -0.531722       -14.4689
  36   2.0000      -0.500841       -13.6286
  37   2.0000      -0.484880       -13.1943
  38   2.0000      -0.455926       -12.4064
  39   2.0000      -0.445468       -12.1218
  40   2.0000      -0.442432       -12.0392
  41   2.0000      -0.418157       -11.3786
  42   2.0000      -0.409709       -11.1487
  43   2.0000      -0.404932       -11.0188
  44   2.0000      -0.397879       -10.8269
  45   2.0000      -0.395626       -10.7655
  46   2.0000      -0.394248       -10.7280
  47   2.0000      -0.393572       -10.7096
  48   2.0000      -0.364032        -9.9058
  49   2.0000      -0.357649        -9.7321
  50   2.0000      -0.350375        -9.5342
  51   2.0000      -0.346854        -9.4384
  52   2.0000      -0.343123        -9.3369
  53   2.0000      -0.313588        -8.5332
  54   2.0000      -0.308347        -8.3905
  55   2.0000      -0.305603        -8.3159
  56   2.0000      -0.256787        -6.9875
  57   2.0000      -0.227324        -6.1858
  58   2.0000      -0.218308        -5.9405
  59   0.0000      -0.059140        -1.6093
  60   0.0000       0.013552         0.3688
  61   0.0000       0.028392         0.7726
  62   0.0000       0.053078         1.4443
  63   0.0000       0.062598         1.7034

MULLIKEN ATOMIC CHARGES
-----------------------
   0 C :   -0.148854
   1 S :    0.119588
   2 C :   -0.155772
   3 C :    0.073274
   4 C :    0.063096
   5 N :   -0.080150
   6 C :    0.096118
   7 O :   -0.288527
   8 C :    0.190179
   9 C :    0.006003
  10 C :    0.095427
  11 O :   -0.288641
  12 C :    0.182768
  13 C :    0.004636
  14 N :   -0.080436
  15 H :    0.009866
  16 H :    0.009279
  17 H :    0.016278
  18 H :    0.012741
  19 H :    0.024512
  20 H :    0.013302
  21 H :    0.024558
  22 H :    0.017255
  23 H :    0.014593
  24 H :    0.026316
  25 H :    0.014765
  26 H :    0.027828
Sum of atomic charges:   -0.0000000

LOEWDIN ATOMIC CHARGES
----------------------
   0 C :   -0.213286
   1 S :    0.461075
   2 C :   -0.213247
   3 C :   -0.052618
   4 C :   -0.053404
   5 N :   -0.105965
   6 C :    0.037365
   7 O :   -0.076970
   8 C :    0.093899
   9 C :   -0.061133
  10 C :    0.037184
  11 O :   -0.077241
  12 C :    0.093374
  13 C :   -0.062738
  14 N :   -0.106230
  15 H :    0.026329
  16 H :    0.026019
  17 H :    0.016769
  18 H :    0.017450
  19 H :    0.028709
  20 H :    0.030203
  21 H :    0.029264
  22 H :    0.017485
  23 H :    0.017451
  24 H :    0.029416
  25 H :    0.030896
  26 H :    0.029943

  Mayer bond orders larger than 0.100000
B(  0-C ,  1-S ) :   1.1784 B(  0-C ,  2-C ) :   0.1130 B(  0-C ,  4-C ) :   1.4342
B(  0-C , 15-H ) :   0.9637 B(  1-S ,  2-C ) :   1.1787 B(  2-C ,  3-C ) :   1.4278
B(  2-C , 16-H ) :   0.9682 B(  3-C ,  4-C ) :   1.1925 B(  3-C , 14-N ) :   1.2824
B(  4-C ,  5-N ) :   1.2866 B(  5-N ,  6-C ) :   1.6669 B(  6-C ,  7-O ) :   1.2445
B(  6-C , 10-C ) :   1.0388 B(  7-O ,  8-C ) :   0.9023 B(  8-C ,  9-C ) :   1.1014
B(  8-C , 17-H ) :   0.9470 B(  8-C , 18-H ) :   0.9539 B(  9-C , 19-H ) :   0.9697
B(  9-C , 20-H ) :   0.9598 B(  9-C , 21-H ) :   0.9659 B( 10-C , 11-O ) :   1.2432
B( 10-C , 14-N ) :   1.6690 B( 11-O , 12-C ) :   0.9025 B( 12-C , 13-C ) :   1.1035
B( 12-C , 22-H ) :   0.9505 B( 12-C , 23-H ) :   0.9532 B( 13-C , 24-H ) :   0.9671
B( 13-C , 25-H ) :   0.9578 B( 13-C , 26-H ) :   0.9658

Dispersion correction           -0.049863438
FINAL SINGLE POINT ENERGY     -1045.888080466582

DIPOLE MOMENT
-------------
                                X             Y             Z
Electronic contribution:    -21.30274       2.71043       2.19532
Nuclear contribution   :     21.78578      -2.76776      -2.24854
                        -----------------------------------------
Total Dipole Moment    :      0.48304      -0.05732      -0.05322
                        -----------------------------------------
Magnitude (a.u.)       :      0.48933
Magnitude (Debye)      :      1.24378

Rotational constants in cm-1:     0.023901     0.011929     0.008013
Rotational constants in MHz :   716.524418   357.623091   240.215672

                             ****ORCA TERMINATED NORMALLY****
TOTAL RUN TIME: 0 days 0 hours 26 minutes 6 seconds 845 msec
