                         Program Version 4.2.0 -  RELEASE  -
|  1> # ORCA input file
|  2> # SCF done        -54.377567859581          0.000175859734
|  3> ! B3LYP/G D3BJ Opt RIJCOSX def2-SVP def2/J
|  4> * xyz 0 1
|  5>    C        1.22440        -0.05139         0.57366
|  6>    C        0.55456        -0.95949        -0.22335
|  7>    C       -0.78596        -0.78446        -0.56075
|  8>    C       -1.47238         0.31370        -0.01841
|  9>    C       -0.78842         1.22737         0.78076
| 10>    C        0.55188         1.05631         1.06492
| 11>    N       -2.85264         0.49025        -0.22734
| 12>    C       -3.32578         1.75224        -0.58736
| 13>    C       -2.55874         2.57156        -1.41736
| 14>    C       -3.01513         3.82468        -1.77585
| 15>    C       -4.24142         4.28179        -1.32210
| 16>    C       -5.00537         3.47479        -0.49464
| 17>    C       -4.55432         2.22363        -0.12297
| 18>    C       -3.71925        -0.57794         0.00919
| 19>    C       -3.41293        -1.52575         0.98551
| 20>    C       -4.25812        -2.59430         1.21023
| 21>    C       -5.42369        -2.73473         0.47564
| 22>    C       -5.73412        -1.79567        -0.49407
| 23>    C       -4.89099        -0.72866        -0.73276
| 24>    C       -1.39678        -1.73703        -1.49100
| 25>    C       -2.21652        -1.41903        -2.48217
| 26>    H        2.26666        -0.20446         0.80982
| 27>    H        1.08116        -1.81452        -0.62340
| 28>    H       -1.32891         2.07167         1.18432
| 29>    H        1.06532         1.77446         1.68662
| 30>    H       -1.60412         2.21592        -1.77790
| 31>    H       -2.41132         4.44578        -2.42134
| 32>    H       -4.59767         5.25975        -1.60817
| 33>    H       -5.95816         3.82655        -0.12654
| 34>    H       -5.14631         1.60552         0.53587
| 35>    H       -2.51017        -1.41579         1.56868
| 36>    H       -4.00840        -3.31843         1.97204
| 37>    H       -6.08442        -3.56887         0.65706
| 38>    H       -6.63752        -1.89964        -1.07731
| 39>    H       -5.13256        -0.00848        -1.50054
| 40>    H       -1.07530        -2.76461        -1.37075
| 41>    H       -2.52773        -0.40498        -2.66838
| 42>    H       -2.59808        -2.16500        -3.15796
| 43> *
| 44>
| 45>                          ****END OF INPUT****
 Total Charge           Charge          ....    0
 Multiplicity           Mult            ....    1
 Number of Electrons    NEL             ....  144
Dispersion correction           -0.096186789
FINAL SINGLE POINT ENERGY      -826.590761324872
Dispersion correction            ... done
Dispersion correction           -0.093574821
FINAL SINGLE POINT ENERGY      -826.597143279539
Dispersion correction            ... done
Dispersion correction           -0.094223550
FINAL SINGLE POINT ENERGY      -826.597851525247
Dispersion correction            ... done
FINAL SINGLE POINT ENERGY      -826.598035057990
FINAL SINGLE POINT ENERGY      -826.598229589326
FINAL SINGLE POINT ENERGY      -826.598351363327
FINAL SINGLE POINT ENERGY      -826.598416429559
FINAL SINGLE POINT ENERGY      -826.598427971366
Dispersion correction            ... done
Dispersion correction           -0.093945614
FINAL SINGLE POINT ENERGY      -826.598416719028
Dispersion correction            ... done
Dispersion correction           -0.093950945
FINAL SINGLE POINT ENERGY      -826.598408926486
Dispersion correction            ... done
                    ***********************HURRAY********************

CARTESIAN COORDINATES (ANGSTROEM)
---------------------------------
  C      1.198775   -0.133017    0.727989
  C      0.605780   -0.904231   -0.269665
  C     -0.723448   -0.694939   -0.687132
  C     -1.474118    0.292669   -0.002233
  C     -0.866625    1.083518    0.982813
  C      0.465236    0.886231    1.343524
  N     -2.866579    0.467202   -0.246372
  C     -3.330700    1.739330   -0.645946
  C     -2.596148    2.479154   -1.589682
  C     -3.038711    3.736492   -1.999866
  C     -4.217241    4.279882   -1.479683
  C     -4.942859    3.552372   -0.530438
  C     -4.502958    2.298429   -0.106420
  C     -3.745444   -0.591319    0.065976
  C     -3.405951   -1.524852    1.061642
  C     -4.253746   -2.596146    1.344618
  C     -5.456909   -2.756663    0.651108
  C     -5.798602   -1.828824   -0.338528
  C     -4.951544   -0.762440   -0.638752
  C     -1.220869   -1.507391   -1.811908
  C     -2.214135   -1.233169   -2.670516
  H      2.230002   -0.330622    1.029233
  H      1.187907   -1.684892   -0.766173
  H     -1.472877    1.841130    1.483109
  H      0.918720    1.505173    2.121189
  H     -1.681662    2.052080   -2.004250
  H     -2.458314    4.293834   -2.739471
  H     -4.570340    5.256949   -1.815809
  H     -5.855533    3.972043   -0.100458
  H     -5.068969    1.739738    0.640204
  H     -2.472173   -1.407326    1.611893
  H     -3.970976   -3.308617    2.123893
  H     -6.121692   -3.592334    0.879579
  H     -6.730256   -1.943847   -0.897720
  H     -5.220307   -0.054341   -1.423817
  H     -0.647816   -2.427095   -1.978082
  H     -2.816748   -0.327116   -2.605897
  H     -2.441420   -1.924307   -3.486051

 Multiplicity           Mult            ....    1
 Number of Electrons    NEL             ....  144
 Basis Dimension        Dim             ....  379

ORBITAL ENERGIES
----------------

  NO   OCC          E(Eh)            E(eV)
   0   2.0000     -14.355369      -390.6295
   1   2.0000     -10.231362      -278.4095
   2   2.0000     -10.230264      -278.3796
   3   2.0000     -10.227427      -278.3024
   4   2.0000     -10.202967      -277.6368
   5   2.0000     -10.197055      -277.4760
   6   2.0000     -10.195938      -277.4456
   7   2.0000     -10.194980      -277.4195
   8   2.0000     -10.194579      -277.4086
   9   2.0000     -10.194177      -277.3976
  10   2.0000     -10.191916      -277.3361
  11   2.0000     -10.191801      -277.3330
  12   2.0000     -10.188306      -277.2379
  13   2.0000     -10.188110      -277.2326
  14   2.0000     -10.187929      -277.2276
  15   2.0000     -10.187780      -277.2236
  16   2.0000     -10.186324      -277.1840
  17   2.0000     -10.185105      -277.1508
  18   2.0000     -10.184498      -277.1343
  19   2.0000     -10.182859      -277.0897
  20   2.0000     -10.182053      -277.0677
  21   2.0000      -0.962456       -26.1898
  22   2.0000      -0.856517       -23.3070
  23   2.0000      -0.847568       -23.0635
  24   2.0000      -0.829489       -22.5716
  25   2.0000      -0.784434       -21.3455
  26   2.0000      -0.753435       -20.5020
  27   2.0000      -0.749014       -20.3817
  28   2.0000      -0.737292       -20.0627
  29   2.0000      -0.733324       -19.9548
  30   2.0000      -0.724296       -19.7091
  31   2.0000      -0.698933       -19.0189
  32   2.0000      -0.631913       -17.1952
  33   2.0000      -0.622620       -16.9424
  34   2.0000      -0.611003       -16.6262
  35   2.0000      -0.598844       -16.2954
  36   2.0000      -0.595392       -16.2014
  37   2.0000      -0.576520       -15.6879
  38   2.0000      -0.555035       -15.1033
  39   2.0000      -0.534879       -14.5548
  40   2.0000      -0.523354       -14.2412
  41   2.0000      -0.500942       -13.6313
  42   2.0000      -0.486779       -13.2459
  43   2.0000      -0.478280       -13.0147
  44   2.0000      -0.473667       -12.8891
  45   2.0000      -0.454401       -12.3649
  46   2.0000      -0.453543       -12.3415
  47   2.0000      -0.445364       -12.1190
  48   2.0000      -0.435736       -11.8570
  49   2.0000      -0.434729       -11.8296
  50   2.0000      -0.429361       -11.6835
  51   2.0000      -0.422741       -11.5034
  52   2.0000      -0.420456       -11.4412
  53   2.0000      -0.418443       -11.3864
  54   2.0000      -0.383345       -10.4313
  55   2.0000      -0.379576       -10.3288
  56   2.0000      -0.374302       -10.1853
  57   2.0000      -0.369889       -10.0652
  58   2.0000      -0.369286       -10.0488
  59   2.0000      -0.361310        -9.8317
  60   2.0000      -0.357722        -9.7341
  61   2.0000      -0.351281        -9.5588
  62   2.0000      -0.345229        -9.3942
  63   2.0000      -0.341220        -9.2851
  64   2.0000      -0.307058        -8.3555
  65   2.0000      -0.302952        -8.2437
  66   2.0000      -0.267892        -7.2897
  67   2.0000      -0.260404        -7.0860
  68   2.0000      -0.254222        -6.9177
  69   2.0000      -0.252000        -6.8573
  70   2.0000      -0.233786        -6.3616
  71   2.0000      -0.192191        -5.2298
  72   0.0000      -0.044876        -1.2211
  73   0.0000      -0.022957        -0.6247
  74   0.0000      -0.016642        -0.4528
  75   0.0000      -0.011508        -0.3131
  76   0.0000       0.000208         0.0057

MULLIKEN ATOMIC CHARGES
-----------------------
   0 C :    0.040965
   1 C :   -0.050183
   2 C :    0.116796
   3 C :    0.003891
   4 C :    0.033613
   5 C :    0.020091
   6 N :   -0.215212
   7 C :    0.120480
   8 C :    0.013631
   9 C :    0.001464
  10 C :    0.035342
  11 C :    0.016163
  12 C :   -0.028057
  13 C :    0.151566
  14 C :   -0.002207
  15 C :    0.009980
  16 C :    0.026629
  17 C :    0.010275
  18 C :   -0.029199
  19 C :   -0.040597
  20 C :    0.001713
  21 H :   -0.018110
  22 H :   -0.027359
  23 H :   -0.020644
  24 H :   -0.015045
  25 H :   -0.019888
  26 H :   -0.015536
  27 H :   -0.023696
  28 H :   -0.020154
  29 H :   -0.012616
  30 H :   -0.017488
  31 H :   -0.019521
  32 H :   -0.023189
  33 H :   -0.022730
  34 H :   -0.013560
  35 H :   -0.013990
  36 H :    0.026594
  37 H :    0.019788
Sum of atomic charges:   -0.0000000

LOEWDIN ATOMIC CHARGES
----------------------
   0 C :   -0.028968
   1 C :   -0.015276
   2 C :   -0.031339
   3 C :    0.022419
   4 C :   -0.024065
   5 C :   -0.023302
   6 N :   -0.017034
   7 C :    0.022692
   8 C :   -0.041944
   9 C :   -0.020939
  10 C :   -0.041317
  11 C :   -0.019409
  12 C :   -0.044391
  13 C :    0.032063
  14 C :   -0.044966
  15 C :   -0.019739
  16 C :   -0.045939
  17 C :   -0.019926
  18 C :   -0.044850
  19 C :   -0.027059
  20 C :   -0.032948
  21 H :    0.027807
  22 H :    0.026231
  23 H :    0.032880
  24 H :    0.028457
  25 H :    0.029910
  26 H :    0.027764
  27 H :    0.024712
  28 H :    0.026879
  29 H :    0.030570
  30 H :    0.030093
  31 H :    0.026581
  32 H :    0.024086
  33 H :    0.026086
  34 H :    0.027697
  35 H :    0.027508
  36 H :    0.023036
  37 H :    0.025941

  Mayer bond orders larger than 0.100000
B(  0-C ,  1-C ) :   1.3780 B(  0-C ,  5-C ) :   1.3541 B(  0-C , 21-H ) :   0.9839
B(  1-C ,  2-C ) :   1.3262 B(  1-C , 22-H ) :   0.9829 B(  2-C ,  3-C ) :   1.3533
B(  2-C , 19-C ) :   1.0783 B(  3-C ,  4-C ) :   1.4063 B(  3-C ,  6-N ) :   0.9779
B(  4-C ,  5-C ) :   1.3440 B(  4-C , 23-H ) :   0.9813 B(  5-C , 24-H ) :   0.9835
B(  6-N ,  7-C ) :   0.9937 B(  6-N , 13-C ) :   1.0093 B(  7-C ,  8-C ) :   1.3754
B(  7-C , 12-C ) :   1.3674 B(  8-C ,  9-C ) :   1.3645 B(  8-C , 25-H ) :   0.9798
B(  9-C , 10-C ) :   1.3726 B(  9-C , 26-H ) :   0.9811 B( 10-C , 11-C ) :   1.3703
B( 10-C , 27-H ) :   0.9868 B( 11-C , 12-C ) :   1.3679 B( 11-C , 28-H ) :   0.9795
B( 12-C , 29-H ) :   0.9891 B( 13-C , 14-C ) :   1.3774 B( 13-C , 18-C ) :   1.3605
B( 14-C , 15-C ) :   1.3651 B( 14-C , 30-H ) :   0.9771 B( 15-C , 16-C ) :   1.3717
B( 15-C , 31-H ) :   0.9803 B( 16-C , 17-C ) :   1.3687 B( 16-C , 32-H ) :   0.9873
B( 17-C , 18-C ) :   1.3835 B( 17-C , 33-H ) :   0.9778 B( 18-C , 34-H ) :   0.9819
B( 19-C , 20-C ) :   1.9374 B( 19-C , 35-H ) :   0.9508 B( 20-C , 36-H ) :   0.9433
B( 20-C , 37-H ) :   0.9392

Dispersion correction           -0.093951246
FINAL SINGLE POINT ENERGY      -826.598407617726

DIPOLE MOMENT
-------------
                                X             Y             Z
Electronic contribution:      0.90034       1.30711       2.16765
Nuclear contribution   :     -0.66763      -1.27143      -2.11116
                        -----------------------------------------
Total Dipole Moment    :      0.23270       0.03568       0.05650
                        -----------------------------------------
Magnitude (a.u.)       :      0.24211
Magnitude (Debye)      :      0.61539

Rotational constants in cm-1:     0.011916     0.011016     0.007218
Rotational constants in MHz :   357.240332   330.256062   216.404191

                             ****ORCA TERMINATED NORMALLY****
TOTAL RUN TIME: 0 days 1 hours 4 minutes 49 seconds 965 msec
