                         Program Version 4.2.0 -  RELEASE  -
|  1> # ORCA input file
|  2> # SCF done        -20.836877070884          0.000349059007
|  3> ! B3LYP/G D3BJ Opt RIJCOSX def2-SVP def2/J
|  4> * xyz 0 1
|  5>    C       -0.22188         1.10003         0.05829
|  6>    O       -1.04707         0.05864         0.04153
|  7>    C       -0.29222        -1.05634        -0.02218
|  8>    C        1.02689        -0.74168        -0.04704
|  9>    C        1.08865         0.68362         0.00599
| 10>    C        2.27802         1.51861         0.00513
| 11>    O        2.28486         2.72261         0.05096
| 12>    H       -0.64155         2.08535         0.10767
| 13>    H       -0.80748        -1.99591        -0.04367
| 14>    H        1.85576        -1.41688        -0.09599
| 15>    H        3.22151         0.94001        -0.04583
| 16> *
| 17>
| 18>                          ****END OF INPUT****
 Total Charge           Charge          ....    0
 Multiplicity           Mult            ....    1
 Number of Electrons    NEL             ....   50
Dispersion correction           -0.015952107
FINAL SINGLE POINT ENERGY      -343.109710226966
Dispersion correction            ... done
Dispersion correction           -0.015978293
FINAL SINGLE POINT ENERGY      -343.111289295735
Dispersion correction            ... done
Dispersion correction           -0.015983332
FINAL SINGLE POINT ENERGY      -343.111402029986
Dispersion correction            ... done
FINAL SINGLE POINT ENERGY      -343.111441901855
Dispersion correction            ... done
Dispersion correction           -0.015986457
FINAL SINGLE POINT ENERGY      -343.111386205337
Dispersion correction            ... done
Dispersion correction           -0.015984511
FINAL SINGLE POINT ENERGY      -343.111457751361
Dispersion correction            ... done
                    ***********************HURRAY********************

CARTESIAN COORDINATES (ANGSTROEM)
---------------------------------
  C     -0.209183    1.110963    0.061186
  O     -1.048671    0.061714    0.045261
  C     -0.297250   -1.076241   -0.022885
  C      1.027825   -0.761681   -0.046565
  C      1.095033    0.677427    0.006808
  C      2.288320    1.532170    0.004087
  O      2.264499    2.742710    0.034780
  H     -0.647216    2.103677    0.114242
  H     -0.851434   -2.010004   -0.050337
  H      1.864542   -1.454609   -0.101417
  H      3.259025    0.971934   -0.030301

 Multiplicity           Mult            ....    1
 Number of Electrons    NEL             ....   50
 Basis Dimension        Dim             ....  118

ORBITAL ENERGIES
----------------

  NO   OCC          E(Eh)            E(eV)
   0   2.0000     -19.226452      -523.1783
   1   2.0000     -19.130639      -520.5712
   2   2.0000     -10.279861      -279.7292
   3   2.0000     -10.263752      -279.2909
   4   2.0000     -10.257278      -279.1147
   5   2.0000     -10.210114      -277.8313
   6   2.0000     -10.205224      -277.6983
   7   2.0000      -1.129575       -30.7373
   8   2.0000      -1.033905       -28.1340
   9   2.0000      -0.820330       -22.3223
  10   2.0000      -0.765576       -20.8324
  11   2.0000      -0.662606       -18.0304
  12   2.0000      -0.608017       -16.5450
  13   2.0000      -0.577384       -15.7114
  14   2.0000      -0.525562       -14.3013
  15   2.0000      -0.479751       -13.0547
  16   2.0000      -0.473768       -12.8919
  17   2.0000      -0.457820       -12.4579
  18   2.0000      -0.438035       -11.9195
  19   2.0000      -0.419562       -11.4169
  20   2.0000      -0.401127       -10.9152
  21   2.0000      -0.388229       -10.5643
  22   2.0000      -0.301615        -8.2074
  23   2.0000      -0.261772        -7.1232
  24   2.0000      -0.255429        -6.9506
  25   0.0000      -0.059109        -1.6084
  26   0.0000       0.000198         0.0054
  27   0.0000       0.074301         2.0218
  28   0.0000       0.085809         2.3350
  29   0.0000       0.092084         2.5057

MULLIKEN ATOMIC CHARGES
-----------------------
   0 C :    0.127839
   1 O :   -0.194183
   2 C :    0.137234
   3 C :   -0.020631
   4 C :   -0.047274
   5 C :    0.176226
   6 O :   -0.200435
   7 H :    0.028794
   8 H :    0.019073
   9 H :    0.001017
  10 H :   -0.027662
Sum of atomic charges:    0.0000000

LOEWDIN ATOMIC CHARGES
----------------------
   0 C :    0.085432
   1 O :    0.020759
   2 C :    0.038427
   3 C :   -0.059183
   4 C :   -0.133099
   5 C :    0.107267
   6 O :   -0.146738
   7 H :    0.033858
   8 H :    0.026699
   9 H :    0.035384
  10 H :   -0.008807

  Mayer bond orders larger than 0.100000
B(  0-C ,  1-O ) :   1.1889 B(  0-C ,  4-C ) :   1.4761 B(  0-C ,  7-H ) :   1.0023
B(  1-O ,  2-C ) :   1.1134 B(  2-C ,  3-C ) :   1.5719 B(  2-C ,  8-H ) :   0.9998
B(  3-C ,  4-C ) :   1.1941 B(  3-C ,  9-H ) :   1.0028 B(  4-C ,  5-C ) :   0.9995
B(  5-C ,  6-O ) :   2.1515 B(  5-C , 10-H ) :   0.9468

Dispersion correction           -0.015984276
FINAL SINGLE POINT ENERGY      -343.111458000419

DIPOLE MOMENT
-------------
                                X             Y             Z
Electronic contribution:     -0.95765       1.64818       0.08419
Nuclear contribution   :      0.66309      -2.77521      -0.11140
                        -----------------------------------------
Total Dipole Moment    :     -0.29456      -1.12704      -0.02721
                        -----------------------------------------
Magnitude (a.u.)       :      1.16521
Magnitude (Debye)      :      2.96174

Rotational constants in cm-1:     0.271984     0.066160     0.053216
Rotational constants in MHz :  8153.885042  1983.421187  1595.380291

                             ****ORCA TERMINATED NORMALLY****
TOTAL RUN TIME: 0 days 0 hours 3 minutes 16 seconds 448 msec
