                         Program Version 4.2.0 -  RELEASE  -
|  1> # ORCA input file
|  2> # SCF done        -22.214835866019          0.000581138541
|  3> ! B3LYP/G D3BJ Opt RIJCOSX def2-SVP def2/J
|  4> * xyz 0 1
|  5>    C        1.36037        -0.23961        -0.06249
|  6>    C        0.88684         1.06623        -0.08437
|  7>    C        1.84109         2.22412        -0.15948
|  8>    C        2.17650         2.55162        -1.61644
|  9>    C       -0.48595         1.27768        -0.07817
| 10>    C       -1.36562         0.21029        -0.04385
| 11>    C       -0.88274        -1.08680        -0.01817
| 12>    C        0.48367        -1.30920        -0.02870
| 13>    H        2.42677        -0.41809        -0.06805
| 14>    H        2.76194         1.97970         0.37414
| 15>    H        1.39573         3.10224         0.31251
| 16>    H        2.63483         1.69253        -2.10119
| 17>    H        2.86715         3.39030        -1.66896
| 18>    H        1.27260         2.81030        -2.16339
| 19>    H       -0.86802         2.28901        -0.09654
| 20>    H       -2.43100         0.39094        -0.03482
| 21>    H       -1.56838        -1.92097         0.01231
| 22>    H        0.86727        -2.31923        -0.00792
| 23> *
| 24>
| 25>                          ****END OF INPUT****
 Total Charge           Charge          ....    0
 Multiplicity           Mult            ....    1
 Number of Electrons    NEL             ....   58
Dispersion correction           -0.029959137
FINAL SINGLE POINT ENERGY      -310.686147905453
Dispersion correction            ... done
Dispersion correction           -0.029656877
FINAL SINGLE POINT ENERGY      -310.688525253208
Dispersion correction            ... done
Dispersion correction           -0.029598091
FINAL SINGLE POINT ENERGY      -310.688592216822
Dispersion correction            ... done
Dispersion correction           -0.029577358
FINAL SINGLE POINT ENERGY      -310.688602596780
Dispersion correction            ... done
Dispersion correction           -0.029575642
FINAL SINGLE POINT ENERGY      -310.688603609647
Dispersion correction            ... done
                    ***********************HURRAY********************

CARTESIAN COORDINATES (ANGSTROEM)
---------------------------------
  C      1.359060   -0.257608   -0.053964
  C      0.886409    1.063392   -0.087543
  C      1.844833    2.228149   -0.181070
  C      2.204350    2.590213   -1.630335
  C     -0.500946    1.271806   -0.075225
  C     -1.390331    0.195626   -0.035249
  C     -0.904973   -1.114701   -0.006778
  C      0.474801   -1.337793   -0.015044
  H      2.437642   -0.441545   -0.053754
  H      2.765612    1.985124    0.374811
  H      1.400933    3.105373    0.318222
  H      2.663264    1.732442   -2.147664
  H      2.915023    3.431391   -1.671085
  H      1.305937    2.878245   -2.198856
  H     -0.889216    2.294570   -0.092369
  H     -2.467583    0.382834   -0.020891
  H     -1.598096   -1.958416    0.028036
  H      0.866331   -2.358042    0.015177

 Multiplicity           Mult            ....    1
 Number of Electrons    NEL             ....   58
 Basis Dimension        Dim             ....  162

ORBITAL ENERGIES
----------------

  NO   OCC          E(Eh)            E(eV)
   0   2.0000     -10.192216      -277.3443
   1   2.0000     -10.189613      -277.2735
   2   2.0000     -10.188644      -277.2471
   3   2.0000     -10.188511      -277.2435
   4   2.0000     -10.187057      -277.2039
   5   2.0000     -10.186142      -277.1790
   6   2.0000     -10.186089      -277.1776
   7   2.0000     -10.182432      -277.0781
   8   2.0000      -0.847780       -23.0693
   9   2.0000      -0.778157       -21.1747
  10   2.0000      -0.734529       -19.9876
  11   2.0000      -0.713139       -19.4055
  12   2.0000      -0.625655       -17.0249
  13   2.0000      -0.598242       -16.2790
  14   2.0000      -0.569971       -15.5097
  15   2.0000      -0.507248       -13.8029
  16   2.0000      -0.466839       -12.7033
  17   2.0000      -0.453802       -12.3486
  18   2.0000      -0.428743       -11.6667
  19   2.0000      -0.422280       -11.4908
  20   2.0000      -0.414939       -11.2911
  21   2.0000      -0.396878       -10.7996
  22   2.0000      -0.372217       -10.1285
  23   2.0000      -0.352941        -9.6040
  24   2.0000      -0.351816        -9.5734
  25   2.0000      -0.333587        -9.0774
  26   2.0000      -0.332738        -9.0543
  27   2.0000      -0.253082        -6.8867
  28   2.0000      -0.244896        -6.6640
  29   0.0000      -0.007636        -0.2078
  30   0.0000      -0.006312        -0.1718
  31   0.0000       0.058097         1.5809
  32   0.0000       0.075416         2.0522
  33   0.0000       0.088790         2.4161

MULLIKEN ATOMIC CHARGES
-----------------------
   0 C :   -0.014642
   1 C :   -0.026652
   2 C :    0.064577
   3 C :    0.012065
   4 C :   -0.010172
   5 C :    0.016468
   6 C :    0.018506
   7 C :    0.025329
   8 H :   -0.029223
   9 H :   -0.001678
  10 H :   -0.000762
  11 H :    0.010435
  12 H :    0.016781
  13 H :    0.009561
  14 H :   -0.032712
  15 H :   -0.017271
  16 H :   -0.017328
  17 H :   -0.023283
Sum of atomic charges:   -0.0000000

LOEWDIN ATOMIC CHARGES
----------------------
   0 C :   -0.030225
   1 C :   -0.019942
   2 C :   -0.026942
   3 C :   -0.051195
   4 C :   -0.029471
   5 C :   -0.025794
   6 C :   -0.032616
   7 C :   -0.024097
   8 H :    0.022967
   9 H :    0.024991
  10 H :    0.024896
  11 H :    0.022701
  12 H :    0.022812
  13 H :    0.022795
  14 H :    0.022284
  15 H :    0.026217
  16 H :    0.025587
  17 H :    0.025032

  Mayer bond orders larger than 0.100000
B(  0-C ,  1-C ) :   1.3927 B(  0-C ,  7-C ) :   1.3784 B(  0-C ,  8-H ) :   0.9864
B(  1-C ,  2-C ) :   1.0420 B(  1-C ,  4-C ) :   1.3940 B(  2-C ,  3-C ) :   1.1035
B(  2-C ,  9-H ) :   0.9300 B(  2-C , 10-H ) :   0.9322 B(  3-C , 11-H ) :   0.9681
B(  3-C , 12-H ) :   0.9659 B(  3-C , 13-H ) :   0.9672 B(  4-C ,  5-C ) :   1.3776
B(  4-C , 14-H ) :   0.9876 B(  5-C ,  6-C ) :   1.3832 B(  5-C , 15-H ) :   0.9848
B(  6-C ,  7-C ) :   1.3835 B(  6-C , 16-H ) :   0.9857 B(  7-C , 17-H ) :   0.9859

Dispersion correction           -0.029577386
FINAL SINGLE POINT ENERGY      -310.688603780001

DIPOLE MOMENT
-------------
                                X             Y             Z
Electronic contribution:     -3.68239      -4.36176       2.38891
Nuclear contribution   :      3.76436       4.46044      -2.41303
                        -----------------------------------------
Total Dipole Moment    :      0.08198       0.09868      -0.02412
                        -----------------------------------------
Magnitude (a.u.)       :      0.13053
Magnitude (Debye)      :      0.33179

Rotational constants in cm-1:     0.150460     0.048491     0.040222
Rotational constants in MHz :  4510.678657  1453.726839  1205.819102

                             ****ORCA TERMINATED NORMALLY****
TOTAL RUN TIME: 0 days 0 hours 4 minutes 55 seconds 134 msec
