                         Program Version 4.2.0 -  RELEASE  -
|  1> # ORCA input file
|  2> # SCF done        -19.100590748970          0.000337986704
|  3> ! B3LYP/G D3BJ Opt RIJCOSX def2-SVP def2/J
|  4> * xyz 0 1
|  5>    C        0.13804         1.25679        -0.10301
|  6>    C        1.38400         0.75847         0.10758
|  7>    C        1.40991        -0.64955         0.10155
|  8>    C        0.18135        -1.21511        -0.11668
|  9>    S       -1.03142         0.01761        -0.31575
| 10>    C       -0.13031        -2.61755        -0.18349
| 11>    C       -1.33815        -3.12257        -0.41445
| 12>    H       -0.17126         2.28225        -0.14666
| 13>    H        2.25313         1.37285         0.26292
| 14>    H        2.30292        -1.23041         0.25181
| 15>    H        0.71745        -3.27323        -0.02756
| 16>    H       -2.19234        -2.48481        -0.57253
| 17>    H       -1.50986        -4.18358        -0.45387
| 18> *
| 19>
| 20>                          ****END OF INPUT****
 Total Charge           Charge          ....    0
 Multiplicity           Mult            ....    1
 Number of Electrons    NEL             ....   58
Dispersion correction           -0.024396015
FINAL SINGLE POINT ENERGY      -630.155325859320
Dispersion correction            ... done
Dispersion correction           -0.024236377
FINAL SINGLE POINT ENERGY      -630.157624835919
Dispersion correction            ... done
Dispersion correction           -0.024209098
FINAL SINGLE POINT ENERGY      -630.157697463962
Dispersion correction            ... done
FINAL SINGLE POINT ENERGY      -630.157667307605
Dispersion correction            ... done
Dispersion correction           -0.024201684
FINAL SINGLE POINT ENERGY      -630.157676576197
Dispersion correction            ... done
Dispersion correction           -0.024205430
FINAL SINGLE POINT ENERGY      -630.157663034773
Dispersion correction            ... done
                    ***********************HURRAY********************

CARTESIAN COORDINATES (ANGSTROEM)
---------------------------------
  C      0.149994    1.290921   -0.125223
  C      1.396607    0.780550    0.139335
  C      1.418701   -0.644187    0.109130
  C      0.187213   -1.207291   -0.169798
  S     -1.008727    0.042233   -0.417140
  C     -0.140202   -2.621928   -0.238451
  C     -1.363130   -3.158389   -0.378180
  H     -0.159672    2.334400   -0.167341
  H      2.264946    1.403175    0.356971
  H      2.306814   -1.247284    0.304707
  H      0.727737   -3.284933   -0.149478
  H     -2.259354   -2.536041   -0.456883
  H     -1.507468   -4.240065   -0.417789

 Multiplicity           Mult            ....    1
 Number of Electrons    NEL             ....   58
 Basis Dimension        Dim             ....  132

ORBITAL ENERGIES
----------------

  NO   OCC          E(Eh)            E(eV)
   0   2.0000     -88.871663     -2418.3209
   1   2.0000     -10.217308      -278.0271
   2   2.0000     -10.214281      -277.9447
   3   2.0000     -10.204251      -277.6718
   4   2.0000     -10.195322      -277.4288
   5   2.0000     -10.194979      -277.4195
   6   2.0000     -10.190056      -277.2855
   7   2.0000      -7.966973      -216.7923
   8   2.0000      -5.935071      -161.5015
   9   2.0000      -5.931005      -161.3909
  10   2.0000      -5.928274      -161.3165
  11   2.0000      -0.879939       -23.9444
  12   2.0000      -0.782913       -21.3042
  13   2.0000      -0.732634       -19.9360
  14   2.0000      -0.704993       -19.1838
  15   2.0000      -0.604173       -16.4404
  16   2.0000      -0.556420       -15.1410
  17   2.0000      -0.529022       -14.3954
  18   2.0000      -0.507060       -13.7978
  19   2.0000      -0.453628       -12.3438
  20   2.0000      -0.425853       -11.5880
  21   2.0000      -0.400578       -10.9003
  22   2.0000      -0.390865       -10.6360
  23   2.0000      -0.383441       -10.4340
  24   2.0000      -0.369682       -10.0595
  25   2.0000      -0.339856        -9.2480
  26   2.0000      -0.305127        -8.3029
  27   2.0000      -0.256303        -6.9743
  28   2.0000      -0.220090        -5.9890
  29   0.0000      -0.046623        -1.2687
  30   0.0000       0.032414         0.8820
  31   0.0000       0.040251         1.0953
  32   0.0000       0.067055         1.8247
  33   0.0000       0.078098         2.1251

MULLIKEN ATOMIC CHARGES
-----------------------
   0 C :   -0.084018
   1 C :    0.041731
   2 C :    0.013443
   3 C :   -0.108485
   4 S :    0.100332
   5 C :    0.033514
   6 C :   -0.043270
   7 H :    0.031434
   8 H :   -0.007857
   9 H :   -0.015804
  10 H :   -0.008870
  11 H :    0.020429
  12 H :    0.027421
Sum of atomic charges:   -0.0000000

LOEWDIN ATOMIC CHARGES
----------------------
   0 C :   -0.185809
   1 C :   -0.067432
   2 C :   -0.060182
   3 C :   -0.178974
   4 S :    0.423534
   5 C :   -0.037248
   6 C :   -0.058148
   7 H :    0.025388
   8 H :    0.029954
   9 H :    0.028537
  10 H :    0.034100
  11 H :    0.018924
  12 H :    0.027357

  Mayer bond orders larger than 0.100000
B(  0-C ,  1-C ) :   1.5564 B(  0-C ,  4-S ) :   1.1639 B(  0-C ,  7-H ) :   0.9700
B(  1-C ,  2-C ) :   1.2509 B(  1-C ,  8-H ) :   0.9893 B(  2-C ,  3-C ) :   1.5066
B(  2-C ,  9-H ) :   0.9893 B(  3-C ,  4-S ) :   1.1247 B(  3-C ,  5-C ) :   1.1378
B(  5-C ,  6-C ) :   1.9044 B(  5-C , 10-H ) :   0.9572 B(  6-C , 11-H ) :   0.9520
B(  6-C , 12-H ) :   0.9484

Dispersion correction           -0.024205330
FINAL SINGLE POINT ENERGY      -630.157658409093

DIPOLE MOMENT
-------------
                                X             Y             Z
Electronic contribution:     -1.67311       3.46173      -0.56257
Nuclear contribution   :      1.88394      -3.39018       0.62682
                        -----------------------------------------
Total Dipole Moment    :      0.21084       0.07155       0.06425
                        -----------------------------------------
Magnitude (a.u.)       :      0.23173
Magnitude (Debye)      :      0.58901

Rotational constants in cm-1:     0.165764     0.061767     0.045047
Rotational constants in MHz :  4969.470041  1851.736168  1350.469904

                             ****ORCA TERMINATED NORMALLY****
TOTAL RUN TIME: 0 days 0 hours 4 minutes 9 seconds 315 msec
