                         Program Version 4.2.0 -  RELEASE  -
|  1> # ORCA input file
|  2> # SCF done        -23.675691041246          0.000700202326
|  3> ! B3LYP/G D3BJ Opt RIJCOSX def2-SVP def2/J
|  4> * xyz 0 1
|  5>    C       -1.53751         1.22140         0.16831
|  6>    C       -0.25235         0.74549         0.07592
|  7>    C       -0.21195        -0.70007         0.07097
|  8>    N        0.94164        -1.40303        -0.01272
|  9>    C        2.04147        -0.72090        -0.09056
| 10>    C        2.12007         0.69807        -0.09426
| 11>    C        0.97943         1.43763        -0.01135
| 12>    C       -1.46951        -1.25153         0.15999
| 13>    S       -2.67569        -0.05016         0.25103
| 14>    H       -1.86929         2.24030         0.19298
| 15>    H        2.95171        -1.30340        -0.15763
| 16>    H        3.08816         1.16948        -0.16371
| 17>    H        0.99213         2.51859        -0.01114
| 18>    H       -1.73157        -2.28935         0.17674
| 19> *
| 20>
| 21>                          ****END OF INPUT****
 Total Charge           Charge          ....    0
 Multiplicity           Mult            ....    1
 Number of Electrons    NEL             ....   70
Dispersion correction           -0.030398786
FINAL SINGLE POINT ENERGY      -722.361117129195
Dispersion correction            ... done
Dispersion correction           -0.030337825
FINAL SINGLE POINT ENERGY      -722.363336385500
Dispersion correction            ... done
Dispersion correction           -0.030330932
FINAL SINGLE POINT ENERGY      -722.363402515587
Dispersion correction            ... done
Dispersion correction           -0.030328900
FINAL SINGLE POINT ENERGY      -722.363416296555
Dispersion correction            ... done
Dispersion correction           -0.030328285
FINAL SINGLE POINT ENERGY      -722.363420734654
Dispersion correction            ... done
                    ***********************HURRAY********************

CARTESIAN COORDINATES (ANGSTROEM)
---------------------------------
  C     -1.556818    1.235776    0.172000
  C     -0.259927    0.749172    0.071123
  C     -0.218277   -0.706681    0.065493
  N      0.943926   -1.420328   -0.020175
  C      2.054664   -0.734235   -0.090694
  C      2.131484    0.700768   -0.091741
  C      0.983165    1.444884   -0.016410
  C     -1.489635   -1.265821    0.162839
  S     -2.690240   -0.049888    0.259826
  H     -1.890130    2.271531    0.197919
  H      2.987212   -1.308923   -0.155772
  H      3.110119    1.181002   -0.156858
  H      1.007233    2.537839   -0.019896
  H     -1.746037   -2.322577    0.176917

 Multiplicity           Mult            ....    1
 Number of Electrons    NEL             ....   70
 Basis Dimension        Dim             ....  155

ORBITAL ENERGIES
----------------

  NO   OCC          E(Eh)            E(eV)
   0   2.0000     -88.892740     -2418.8944
   1   2.0000     -14.321654      -389.7120
   2   2.0000     -10.226872      -278.2873
   3   2.0000     -10.224307      -278.2175
   4   2.0000     -10.219861      -278.0966
   5   2.0000     -10.213692      -277.9287
   6   2.0000     -10.213585      -277.9258
   7   2.0000     -10.206598      -277.7356
   8   2.0000     -10.201020      -277.5839
   9   2.0000      -7.987260      -217.3444
  10   2.0000      -5.954858      -162.0399
  11   2.0000      -5.950789      -161.9292
  12   2.0000      -5.949808      -161.9025
  13   2.0000      -0.940280       -25.5863
  14   2.0000      -0.877318       -23.8730
  15   2.0000      -0.801854       -21.8196
  16   2.0000      -0.743609       -20.2346
  17   2.0000      -0.716208       -19.4890
  18   2.0000      -0.637022       -17.3343
  19   2.0000      -0.599510       -16.3135
  20   2.0000      -0.578475       -15.7411
  21   2.0000      -0.521627       -14.1942
  22   2.0000      -0.487726       -13.2717
  23   2.0000      -0.481601       -13.1050
  24   2.0000      -0.429743       -11.6939
  25   2.0000      -0.422369       -11.4932
  26   2.0000      -0.420056       -11.4303
  27   2.0000      -0.403338       -10.9754
  28   2.0000      -0.384320       -10.4579
  29   2.0000      -0.359213        -9.7747
  30   2.0000      -0.358398        -9.7525
  31   2.0000      -0.312225        -8.4961
  32   2.0000      -0.259261        -7.0549
  33   2.0000      -0.256516        -6.9801
  34   2.0000      -0.221802        -6.0355
  35   0.0000      -0.071968        -1.9583
  36   0.0000       0.010380         0.2825
  37   0.0000       0.013213         0.3595
  38   0.0000       0.046803         1.2736
  39   0.0000       0.064305         1.7498

MULLIKEN ATOMIC CHARGES
-----------------------
   0 C :   -0.144199
   1 C :    0.077676
   2 C :    0.044888
   3 N :   -0.074636
   4 C :    0.033511
   5 C :   -0.014696
   6 C :    0.047079
   7 C :   -0.124772
   8 S :    0.143810
   9 H :    0.020618
  10 H :   -0.000840
  11 H :   -0.011136
  12 H :   -0.013949
  13 H :    0.016646
Sum of atomic charges:   -0.0000000

LOEWDIN ATOMIC CHARGES
----------------------
   0 C :   -0.211442
   1 C :   -0.069574
   2 C :   -0.035101
   3 N :   -0.078789
   4 C :    0.020583
   5 C :   -0.056247
   6 C :    0.008123
   7 C :   -0.206376
   8 S :    0.493313
   9 H :    0.024877
  10 H :    0.019142
  11 H :    0.029617
  12 H :    0.031576
  13 H :    0.030299

  Mayer bond orders larger than 0.100000
B(  0-C ,  1-C ) :   1.3878 B(  0-C ,  7-C ) :   0.1228 B(  0-C ,  8-S ) :   1.2087
B(  0-C ,  9-H ) :   0.9667 B(  1-C ,  2-C ) :   1.1831 B(  1-C ,  6-C ) :   1.2105
B(  2-C ,  3-N ) :   1.3365 B(  2-C ,  7-C ) :   1.4005 B(  3-N ,  4-C ) :   1.7063
B(  4-C ,  5-C ) :   1.1855 B(  4-C , 10-H ) :   0.9678 B(  5-C ,  6-C ) :   1.5780
B(  5-C , 11-H ) :   0.9667 B(  6-C , 12-H ) :   0.9847 B(  7-C ,  8-S ) :   1.2094
B(  7-C , 13-H ) :   0.9668

Dispersion correction           -0.030328325
FINAL SINGLE POINT ENERGY      -722.363422839445

DIPOLE MOMENT
-------------
                                X             Y             Z
Electronic contribution:     -5.14442      -1.48343       0.37081
Nuclear contribution   :      5.05569       2.27620      -0.36031
                        -----------------------------------------
Total Dipole Moment    :     -0.08873       0.79277       0.01049
                        -----------------------------------------
Magnitude (a.u.)       :      0.79779
Magnitude (Debye)      :      2.02782

Rotational constants in cm-1:     0.123659     0.039295     0.029819
Rotational constants in MHz :  3707.209341  1178.022213   893.965569

                             ****ORCA TERMINATED NORMALLY****
TOTAL RUN TIME: 0 days 0 hours 4 minutes 43 seconds 307 msec
