                         Program Version 4.2.0 -  RELEASE  -
|  1> # ORCA input file
|  2> # SCF done        -26.457891335262          0.000519634120
|  3> ! B3LYP/G D3BJ Opt RIJCOSX def2-SVP def2/J
|  4> * xyz 0 1
|  5>    C       -0.98565        -1.47261        -0.03351
|  6>    C       -2.14448        -0.77631        -0.04046
|  7>    C       -2.16284         0.65487        -0.02568
|  8>    C        0.25275        -0.76293        -0.00360
|  9>    C        1.53873        -1.18690         0.02542
| 10>    C        2.45192        -0.00259         0.05166
| 11>    C        3.41622        -0.00140         1.24085
| 12>    C        1.50867         1.15814         0.04861
| 13>    C        0.23396         0.70202         0.01106
| 14>    C       -1.02221         1.38028        -0.00439
| 15>    H       -0.97337        -2.55292        -0.04639
| 16>    H       -3.09366        -1.29288        -0.05873
| 17>    H       -3.12495         1.14722        -0.03302
| 18>    H        1.89264        -2.20124         0.03245
| 19>    H        3.04657         0.01393        -0.87088
| 20>    H        2.85242        -0.02325         2.17031
| 21>    H        4.03273         0.89410         1.22708
| 22>    H        4.06374        -0.87412         1.20422
| 23>    H        1.83651         2.18085         0.07618
| 24>    H       -1.03744         2.46059         0.00527
| 25> *
| 26>
| 27>                          ****END OF INPUT****
 Total Charge           Charge          ....    0
 Multiplicity           Mult            ....    1
 Number of Electrons    NEL             ....   70
Dispersion correction           -0.037769093
FINAL SINGLE POINT ENERGY      -386.800051502336
Dispersion correction            ... done
Dispersion correction           -0.037565851
FINAL SINGLE POINT ENERGY      -386.802979481092
Dispersion correction            ... done
Dispersion correction           -0.037537538
FINAL SINGLE POINT ENERGY      -386.803058244868
Dispersion correction            ... done
Dispersion correction           -0.037532378
FINAL SINGLE POINT ENERGY      -386.803065710102
Dispersion correction            ... done
Dispersion correction           -0.037533066
FINAL SINGLE POINT ENERGY      -386.803066647057
Dispersion correction            ... done
                    ***********************HURRAY********************

CARTESIAN COORDINATES (ANGSTROEM)
---------------------------------
  C     -0.994577   -1.488520   -0.036864
  C     -2.162180   -0.787445   -0.032724
  C     -2.180923    0.664927   -0.019120
  C      0.257327   -0.771561   -0.018971
  C      1.553421   -1.197359    0.003625
  C      2.465336   -0.001835    0.045698
  C      3.421120   -0.002321    1.253300
  C      1.522923    1.170399    0.028194
  C      0.238184    0.712000   -0.004056
  C     -1.031973    1.396174   -0.009324
  H     -0.990999   -2.581602   -0.048034
  H     -3.117168   -1.318668   -0.039642
  H     -3.149304    1.171502   -0.016177
  H      1.902227   -2.230782    0.011663
  H      3.077480    0.016480   -0.881334
  H      2.843955   -0.024246    2.190424
  H      4.055345    0.898240    1.257255
  H      4.084494   -0.881463    1.233385
  H      1.845394    2.212003    0.058052
  H     -1.057820    2.488928    0.001100

 Multiplicity           Mult            ....    1
 Number of Electrons    NEL             ....   70
 Basis Dimension        Dim             ....  190

ORBITAL ENERGIES
----------------

  NO   OCC          E(Eh)            E(eV)
   0   2.0000     -10.197547      -277.4894
   1   2.0000     -10.191904      -277.3358
   2   2.0000     -10.191766      -277.3320
   3   2.0000     -10.190928      -277.3092
   4   2.0000     -10.190856      -277.3073
   5   2.0000     -10.190478      -277.2970
   6   2.0000     -10.186543      -277.1899
   7   2.0000     -10.186432      -277.1869
   8   2.0000     -10.180422      -277.0234
   9   2.0000     -10.180367      -277.0219
  10   2.0000      -0.867471       -23.6051
  11   2.0000      -0.811201       -22.0739
  12   2.0000      -0.749889       -20.4055
  13   2.0000      -0.736237       -20.0340
  14   2.0000      -0.679064       -18.4783
  15   2.0000      -0.657422       -17.8894
  16   2.0000      -0.589980       -16.0542
  17   2.0000      -0.559816       -15.2334
  18   2.0000      -0.551155       -14.9977
  19   2.0000      -0.500981       -13.6324
  20   2.0000      -0.470663       -12.8074
  21   2.0000      -0.463777       -12.6200
  22   2.0000      -0.439072       -11.9478
  23   2.0000      -0.430881       -11.7249
  24   2.0000      -0.405129       -11.0241
  25   2.0000      -0.401590       -10.9278
  26   2.0000      -0.388695       -10.5769
  27   2.0000      -0.373831       -10.1724
  28   2.0000      -0.360727        -9.8159
  29   2.0000      -0.345593        -9.4041
  30   2.0000      -0.339772        -9.2457
  31   2.0000      -0.326026        -8.8716
  32   2.0000      -0.278587        -7.5807
  33   2.0000      -0.276669        -7.5285
  34   2.0000      -0.189096        -5.1456
  35   0.0000      -0.069633        -1.8948
  36   0.0000       0.029628         0.8062
  37   0.0000       0.032056         0.8723
  38   0.0000       0.069999         1.9048
  39   0.0000       0.071971         1.9584

MULLIKEN ATOMIC CHARGES
-----------------------
   0 C :    0.011954
   1 C :    0.017419
   2 C :    0.016884
   3 C :    0.074266
   4 C :   -0.104213
   5 C :    0.018825
   6 C :    0.042934
   7 C :   -0.105021
   8 C :    0.076227
   9 C :    0.012032
  10 H :   -0.027762
  11 H :   -0.018966
  12 H :   -0.019374
  13 H :   -0.026159
  14 H :    0.036975
  15 H :    0.021464
  16 H :    0.013018
  17 H :    0.013583
  18 H :   -0.026165
  19 H :   -0.027922
Sum of atomic charges:   -0.0000000

LOEWDIN ATOMIC CHARGES
----------------------
   0 C :   -0.017269
   1 C :   -0.029249
   2 C :   -0.029263
   3 C :   -0.027505
   4 C :   -0.032522
   5 C :   -0.027438
   6 C :   -0.029452
   7 C :   -0.032777
   8 C :   -0.027369
   9 C :   -0.017202
  10 H :    0.027313
  11 H :    0.025612
  12 H :    0.025524
  13 H :    0.017899
  14 H :    0.054238
  15 H :    0.028283
  16 H :    0.022921
  17 H :    0.023028
  18 H :    0.017931
  19 H :    0.027296

  Mayer bond orders larger than 0.100000
B(  0-C ,  1-C ) :   1.6250 B(  0-C ,  3-C ) :   1.1038 B(  0-C , 10-H ) :   0.9925
B(  1-C ,  2-C ) :   1.1183 B(  1-C , 11-H ) :   0.9789 B(  2-C ,  9-C ) :   1.6254
B(  2-C , 12-H ) :   0.9789 B(  3-C ,  4-C ) :   1.6146 B(  3-C ,  8-C ) :   1.0820
B(  4-C ,  5-C ) :   1.0074 B(  4-C , 13-H ) :   0.9940 B(  5-C ,  6-C ) :   1.0337
B(  5-C ,  7-C ) :   1.0069 B(  5-C , 14-H ) :   0.8695 B(  6-C , 15-H ) :   0.9706
B(  6-C , 16-H ) :   0.9664 B(  6-C , 17-H ) :   0.9665 B(  7-C ,  8-C ) :   1.6145
B(  7-C , 18-H ) :   0.9937 B(  8-C ,  9-C ) :   1.1036 B(  9-C , 19-H ) :   0.9924

Dispersion correction           -0.037534699
FINAL SINGLE POINT ENERGY      -386.803065555767

DIPOLE MOMENT
-------------
                                X             Y             Z
Electronic contribution:     -5.32669      -0.04623      -2.18083
Nuclear contribution   :      5.54372       0.04841       2.21312
                        -----------------------------------------
Total Dipole Moment    :      0.21703       0.00218       0.03230
                        -----------------------------------------
Magnitude (a.u.)       :      0.21943
Magnitude (Debye)      :      0.55776

Rotational constants in cm-1:     0.109714     0.033827     0.027230
Rotational constants in MHz :  3289.130899  1014.109149   816.335599

                             ****ORCA TERMINATED NORMALLY****
TOTAL RUN TIME: 0 days 0 hours 6 minutes 56 seconds 223 msec
