                         Program Version 4.2.0 -  RELEASE  -
|  1> # ORCA input file
|  2> # SCF done        -32.399394069334          0.000520835701
|  3> ! B3LYP/G D3BJ Opt RIJCOSX def2-SVP def2/J
|  4> * xyz 0 1
|  5>    C       -1.44846         1.36852        -0.12430
|  6>    C       -0.19817         0.79937        -0.06777
|  7>    C       -0.25437        -0.64097        -0.08828
|  8>    N        0.87542        -1.38110        -0.03748
|  9>    C        1.98917        -0.71236         0.02539
| 10>    C        2.05937         0.71565         0.04063
| 11>    C        3.38033         1.41059         0.10815
| 12>    N        0.98427         1.45538        -0.00318
| 13>    C       -1.55117        -1.13555        -0.16349
| 14>    S       -2.67315         0.18067        -0.20339
| 15>    C       -1.93447        -2.51398        -0.20780
| 16>    C       -3.18729        -2.95813        -0.29047
| 17>    H       -1.70033         2.40922        -0.12422
| 18>    H        2.89725        -1.29998         0.06523
| 19>    H        4.19963         0.69719         0.08942
| 20>    H        3.43803         2.00135         1.02072
| 21>    H        3.47737         2.09734        -0.73053
| 22>    H       -1.09642        -3.19738        -0.16969
| 23>    H       -4.02351        -2.27854        -0.32762
| 24>    H       -3.41216        -4.00900        -0.32342
| 25> *
| 26>
| 27>                          ****END OF INPUT****
 Total Charge           Charge          ....    0
 Multiplicity           Mult            ....    1
 Number of Electrons    NEL             ....   92
Dispersion correction           -0.042865981
FINAL SINGLE POINT ENERGY      -855.033859967394
Dispersion correction            ... done
Dispersion correction           -0.042642649
FINAL SINGLE POINT ENERGY      -855.036799961383
Dispersion correction            ... done
Dispersion correction           -0.042600323
FINAL SINGLE POINT ENERGY      -855.036918804796
Dispersion correction            ... done
FINAL SINGLE POINT ENERGY      -855.036924145608
FINAL SINGLE POINT ENERGY      -855.036962612637
FINAL SINGLE POINT ENERGY      -855.036966742505
FINAL SINGLE POINT ENERGY      -855.036966602913
FINAL SINGLE POINT ENERGY      -855.036959980914
FINAL SINGLE POINT ENERGY      -855.036973080144
FINAL SINGLE POINT ENERGY      -855.037063581489
FINAL SINGLE POINT ENERGY      -855.037659299897
FINAL SINGLE POINT ENERGY      -855.037611684723
FINAL SINGLE POINT ENERGY      -855.037160855709
FINAL SINGLE POINT ENERGY      -855.037697400666
FINAL SINGLE POINT ENERGY      -855.037744971050
FINAL SINGLE POINT ENERGY      -855.037738438672
FINAL SINGLE POINT ENERGY      -855.037741712203
Dispersion correction            ... done
Dispersion correction           -0.042617944
FINAL SINGLE POINT ENERGY      -855.037755570739
Dispersion correction            ... done
Dispersion correction           -0.042618434
FINAL SINGLE POINT ENERGY      -855.037764619907
Dispersion correction            ... done
                    ***********************HURRAY********************

CARTESIAN COORDINATES (ANGSTROEM)
---------------------------------
  C     -1.458442    1.408795   -0.305550
  C     -0.203798    0.830783   -0.168767
  C     -0.271150   -0.615440   -0.125780
  N      0.856385   -1.371133   -0.001241
  C      1.976666   -0.706060    0.074836
  C      2.059652    0.743745    0.040594
  C      3.404769    1.402705    0.156802
  N      0.990089    1.490189   -0.078979
  C     -1.576356   -1.115965   -0.221766
  S     -2.685349    0.207132   -0.377579
  C     -1.958400   -2.511094   -0.180728
  C     -3.205850   -3.010765   -0.193351
  H     -1.702402    2.467094   -0.367242
  H      2.904979   -1.282785    0.172370
  H      4.122627    0.977428   -0.562891
  H      3.830487    1.248862    1.163855
  H      3.304532    2.481191   -0.023412
  H     -1.096058   -3.182975   -0.121474
  H     -4.088429   -2.365795   -0.237743
  H     -3.382613   -4.087621   -0.154055

 Multiplicity           Mult            ....    1
 Number of Electrons    NEL             ....   92
 Basis Dimension        Dim             ....  212

ORBITAL ENERGIES
----------------

  NO   OCC          E(Eh)            E(eV)
   0   2.0000     -88.894354     -2418.9383
   1   2.0000     -14.344276      -390.3276
   2   2.0000     -14.336046      -390.1037
   3   2.0000     -10.242733      -278.7189
   4   2.0000     -10.236779      -278.5569
   5   2.0000     -10.230401      -278.3834
   6   2.0000     -10.229332      -278.3543
   7   2.0000     -10.226279      -278.2712
   8   2.0000     -10.220927      -278.1256
   9   2.0000     -10.204815      -277.6871
  10   2.0000     -10.196139      -277.4510
  11   2.0000     -10.192960      -277.3645
  12   2.0000      -7.988769      -217.3855
  13   2.0000      -5.956422      -162.0825
  14   2.0000      -5.952496      -161.9757
  15   2.0000      -5.951011      -161.9352
  16   2.0000      -0.978213       -26.6185
  17   2.0000      -0.908973       -24.7344
  18   2.0000      -0.885266       -24.0893
  19   2.0000      -0.789376       -21.4800
  20   2.0000      -0.772290       -21.0151
  21   2.0000      -0.726079       -19.7576
  22   2.0000      -0.701897       -19.0996
  23   2.0000      -0.650322       -17.6962
  24   2.0000      -0.617749       -16.8098
  25   2.0000      -0.599431       -16.3113
  26   2.0000      -0.551690       -15.0123
  27   2.0000      -0.529615       -14.4115
  28   2.0000      -0.504460       -13.7271
  29   2.0000      -0.474757       -12.9188
  30   2.0000      -0.454079       -12.3561
  31   2.0000      -0.451500       -12.2860
  32   2.0000      -0.435251       -11.8438
  33   2.0000      -0.420316       -11.4374
  34   2.0000      -0.419276       -11.4091
  35   2.0000      -0.402534       -10.9535
  36   2.0000      -0.397668       -10.8211
  37   2.0000      -0.375551       -10.2193
  38   2.0000      -0.366154        -9.9636
  39   2.0000      -0.352719        -9.5980
  40   2.0000      -0.349138        -9.5005
  41   2.0000      -0.312706        -8.5092
  42   2.0000      -0.298284        -8.1167
  43   2.0000      -0.261922        -7.1272
  44   2.0000      -0.248406        -6.7595
  45   2.0000      -0.214289        -5.8311
  46   0.0000      -0.089427        -2.4334
  47   0.0000      -0.026804        -0.7294
  48   0.0000      -0.001943        -0.0529
  49   0.0000       0.035056         0.9539
  50   0.0000       0.059394         1.6162

MULLIKEN ATOMIC CHARGES
-----------------------
   0 C :   -0.154950
   1 C :    0.097454
   2 C :    0.030480
   3 N :   -0.035648
   4 C :    0.033821
   5 C :   -0.143283
   6 C :    0.084565
   7 N :   -0.036977
   8 C :   -0.164092
   9 S :    0.150347
  10 C :    0.018529
  11 C :   -0.036385
  12 H :    0.018616
  13 H :   -0.007319
  14 H :    0.028775
  15 H :    0.033291
  16 H :    0.029003
  17 H :    0.007800
  18 H :    0.016219
  19 H :    0.029755
Sum of atomic charges:    0.0000000

LOEWDIN ATOMIC CHARGES
----------------------
   0 C :   -0.199433
   1 C :   -0.049615
   2 C :   -0.049709
   3 N :   -0.045478
   4 C :    0.003250
   5 C :   -0.009723
   6 C :   -0.054432
   7 N :   -0.063155
   8 C :   -0.190205
   9 S :    0.491670
  10 C :   -0.032824
  11 C :   -0.053164
  12 H :    0.030513
  13 H :    0.020452
  14 H :    0.036683
  15 H :    0.040177
  16 H :    0.037819
  17 H :    0.040768
  18 H :    0.017807
  19 H :    0.028599

  Mayer bond orders larger than 0.100000
B(  0-C ,  1-C ) :   1.3871 B(  0-C ,  8-C ) :   0.1197 B(  0-C ,  9-S ) :   1.1873
B(  0-C , 12-H ) :   0.9713 B(  1-C ,  2-C ) :   1.1833 B(  1-C ,  7-N ) :   1.3336
B(  2-C ,  3-N ) :   1.3854 B(  2-C ,  8-C ) :   1.3319 B(  3-N ,  4-C ) :   1.7207
B(  4-C ,  5-C ) :   1.1302 B(  4-C , 13-H ) :   0.9683 B(  5-C ,  6-C ) :   1.0564
B(  5-C ,  7-N ) :   1.7290 B(  6-C , 14-H ) :   0.9522 B(  6-C , 15-H ) :   0.9504
B(  6-C , 16-H ) :   0.9516 B(  8-C ,  9-S ) :   1.1625 B(  8-C , 10-C ) :   1.1744
B( 10-C , 11-C ) :   1.8670 B( 10-C , 17-H ) :   0.9501 B( 11-C , 18-H ) :   0.9541
B( 11-C , 19-H ) :   0.9486

Dispersion correction           -0.042618415
FINAL SINGLE POINT ENERGY      -855.037765559567

DIPOLE MOMENT
-------------
                                X             Y             Z
Electronic contribution:     -6.56468       1.97704      -0.89427
Nuclear contribution   :      6.76159      -1.88763       0.92696
                        -----------------------------------------
Total Dipole Moment    :      0.19691       0.08940       0.03268
                        -----------------------------------------
Magnitude (a.u.)       :      0.21871
Magnitude (Debye)      :      0.55592

Rotational constants in cm-1:     0.063555     0.018958     0.014646
Rotational constants in MHz :  1905.326294   568.355633   439.073277

                             ****ORCA TERMINATED NORMALLY****
TOTAL RUN TIME: 0 days 0 hours 35 minutes 33 seconds 790 msec
