                         Program Version 4.2.0 -  RELEASE  -
|  1> # ORCA input file
|  2> # SCF done        -50.461432265718          0.000499899992
|  3> ! B3LYP/G D3BJ Opt RIJCOSX def2-SVP def2/J
|  4> * xyz 0 1
|  5>    C       -0.01974         1.41901         0.10271
|  6>    C        1.14917         0.67559         0.05690
|  7>    C        2.49916         1.28146         0.09922
|  8>    O        2.77286         2.43869         0.17498
|  9>    S        3.71678        -0.03344         0.01849
| 10>    C        2.47169        -1.33346        -0.04934
| 11>    O        2.75165        -2.49202        -0.09759
| 12>    C        1.12993        -0.71445        -0.02889
| 13>    C       -0.06982        -1.44492        -0.06777
| 14>    C       -1.24830        -0.67949        -0.05450
| 15>    C       -1.21090         0.71191         0.03491
| 16>    C       -2.53172         1.38109         0.03655
| 17>    O       -2.74931         2.54922         0.13233
| 18>    S       -3.80232         0.13342        -0.14014
| 19>    C       -2.61616        -1.22598        -0.21473
| 20>    O       -2.96005        -2.35151        -0.39816
| 21>    C       -0.05067        -2.90369        -0.12135
| 22>    C       -0.69743        -3.68726         0.72830
| 23>    H       -0.00577         2.49513         0.17634
| 24>    H        0.60266        -3.32844        -0.87157
| 25>    H       -1.30382        -3.29426         1.52697
| 26>    H       -0.62589        -4.75791         0.66127
| 27> *
| 28>
| 29>                          ****END OF INPUT****
 Total Charge           Charge          ....    0
 Multiplicity           Mult            ....    1
 Number of Electrons    NEL             ....  140
Dispersion correction           -0.063545734
FINAL SINGLE POINT ENERGY     -1556.244837924768
Dispersion correction            ... done
Dispersion correction           -0.063116086
FINAL SINGLE POINT ENERGY     -1556.249025522633
Dispersion correction            ... done
Dispersion correction           -0.063133371
FINAL SINGLE POINT ENERGY     -1556.249239137177
Dispersion correction            ... done
FINAL SINGLE POINT ENERGY     -1556.249257623713
FINAL SINGLE POINT ENERGY     -1556.249581762007
FINAL SINGLE POINT ENERGY     -1556.249586810681
FINAL SINGLE POINT ENERGY     -1556.249627005689
FINAL SINGLE POINT ENERGY     -1556.249686925692
FINAL SINGLE POINT ENERGY     -1556.249664580950
Dispersion correction            ... done
Dispersion correction           -0.063112238
FINAL SINGLE POINT ENERGY     -1556.249695853129
Dispersion correction            ... done
Dispersion correction           -0.063105091
FINAL SINGLE POINT ENERGY     -1556.249701419359
Dispersion correction            ... done
                    ***********************HURRAY********************

CARTESIAN COORDINATES (ANGSTROEM)
---------------------------------
  C     -0.017333    1.423628    0.113264
  C      1.157628    0.681268    0.047824
  C      2.516889    1.309660    0.056757
  O      2.750944    2.484503    0.112774
  S      3.778751    0.013809   -0.031741
  C      2.522870   -1.310573   -0.067346
  O      2.820774   -2.471771   -0.116853
  C      1.145848   -0.717715   -0.030691
  C     -0.060344   -1.464867   -0.041635
  C     -1.253063   -0.693887   -0.019894
  C     -1.210866    0.707750    0.063694
  C     -2.539215    1.398179    0.054019
  O     -2.713522    2.580899    0.154552
  S     -3.850580    0.176986   -0.147953
  C     -2.658975   -1.211457   -0.196660
  O     -3.023328   -2.337577   -0.373972
  C     -0.012318   -2.936689   -0.069150
  C     -0.766091   -3.742951    0.686228
  H     -0.008097    2.512433    0.184409
  H      0.773948   -3.369631   -0.689174
  H     -1.519761   -3.366513    1.380035
  H     -0.632158   -4.826795    0.636443

 Multiplicity           Mult            ....    1
 Number of Electrons    NEL             ....  140
 Basis Dimension        Dim             ....  280

ORBITAL ENERGIES
----------------

  NO   OCC          E(Eh)            E(eV)
   0   2.0000     -88.888505     -2418.7792
   1   2.0000     -88.887799     -2418.7600
   2   2.0000     -19.178664      -521.8780
   3   2.0000     -19.176558      -521.8207
   4   2.0000     -19.176426      -521.8171
   5   2.0000     -19.174758      -521.7717
   6   2.0000     -10.338913      -281.3361
   7   2.0000     -10.338534      -281.3258
   8   2.0000     -10.335525      -281.2439
   9   2.0000     -10.334072      -281.2044
  10   2.0000     -10.272179      -279.5202
  11   2.0000     -10.264599      -279.3139
  12   2.0000     -10.261832      -279.2386
  13   2.0000     -10.261268      -279.2233
  14   2.0000     -10.261172      -279.2207
  15   2.0000     -10.254591      -279.0416
  16   2.0000     -10.220692      -278.1192
  17   2.0000     -10.218806      -278.0678
  18   2.0000      -7.986048      -217.3114
  19   2.0000      -7.985438      -217.2948
  20   2.0000      -5.953638      -162.0067
  21   2.0000      -5.953000      -161.9894
  22   2.0000      -5.950768      -161.9286
  23   2.0000      -5.950158      -161.9120
  24   2.0000      -5.946331      -161.8079
  25   2.0000      -5.945727      -161.7915
  26   2.0000      -1.090735       -29.6804
  27   2.0000      -1.090074       -29.6624
  28   2.0000      -1.086388       -29.5621
  29   2.0000      -1.085224       -29.5305
  30   2.0000      -0.932826       -25.3835
  31   2.0000      -0.878921       -23.9167
  32   2.0000      -0.841991       -22.9117
  33   2.0000      -0.825252       -22.4563
  34   2.0000      -0.774630       -21.0787
  35   2.0000      -0.770263       -20.9599
  36   2.0000      -0.715763       -19.4769
  37   2.0000      -0.684746       -18.6329
  38   2.0000      -0.646741       -17.5987
  39   2.0000      -0.633185       -17.2298
  40   2.0000      -0.587657       -15.9910
  41   2.0000      -0.569371       -15.4934
  42   2.0000      -0.562262       -15.2999
  43   2.0000      -0.542941       -14.7742
  44   2.0000      -0.535541       -14.5728
  45   2.0000      -0.504402       -13.7255
  46   2.0000      -0.503068       -13.6892
  47   2.0000      -0.490408       -13.3447
  48   2.0000      -0.482416       -13.1272
  49   2.0000      -0.476121       -12.9559
  50   2.0000      -0.474614       -12.9149
  51   2.0000      -0.471530       -12.8310
  52   2.0000      -0.465152       -12.6574
  53   2.0000      -0.455657       -12.3991
  54   2.0000      -0.444902       -12.1064
  55   2.0000      -0.443272       -12.0620
  56   2.0000      -0.436696       -11.8831
  57   2.0000      -0.419500       -11.4152
  58   2.0000      -0.413411       -11.2495
  59   2.0000      -0.407914       -11.0999
  60   2.0000      -0.387095       -10.5334
  61   2.0000      -0.340539        -9.2665
  62   2.0000      -0.327378        -8.9084
  63   2.0000      -0.317973        -8.6525
  64   2.0000      -0.309004        -8.4084
  65   2.0000      -0.302891        -8.2421
  66   2.0000      -0.297564        -8.0971
  67   2.0000      -0.294845        -8.0231
  68   2.0000      -0.293509        -7.9868
  69   2.0000      -0.272616        -7.4183
  70   0.0000      -0.143665        -3.9093
  71   0.0000      -0.110214        -2.9991
  72   0.0000      -0.085997        -2.3401
  73   0.0000      -0.017577        -0.4783
  74   0.0000      -0.014244        -0.3876

MULLIKEN ATOMIC CHARGES
-----------------------
   0 C :   -0.072437
   1 C :    0.055599
   2 C :    0.061625
   3 O :   -0.130288
   4 S :    0.022805
   5 C :    0.046264
   6 O :   -0.137925
   7 C :    0.061022
   8 C :    0.009710
   9 C :    0.043791
  10 C :    0.051863
  11 C :    0.062593
  12 O :   -0.133860
  13 S :    0.020928
  14 C :    0.038332
  15 O :   -0.123239
  16 C :   -0.034174
  17 C :    0.019958
  18 H :    0.024943
  19 H :    0.032338
  20 H :    0.033476
  21 H :    0.046676
Sum of atomic charges:   -0.0000000

LOEWDIN ATOMIC CHARGES
----------------------
   0 C :    0.037714
   1 C :   -0.047006
   2 C :   -0.046094
   3 O :   -0.110168
   4 S :    0.298114
   5 C :   -0.038400
   6 O :   -0.108037
   7 C :   -0.052426
   8 C :    0.038483
   9 C :   -0.053563
  10 C :   -0.045844
  11 C :   -0.050047
  12 O :   -0.113164
  13 S :    0.298522
  14 C :   -0.039266
  15 O :   -0.101164
  16 C :   -0.035182
  17 C :    0.013089
  18 H :    0.052545
  19 H :    0.039110
  20 H :    0.026067
  21 H :    0.036717

  Mayer bond orders larger than 0.100000
B(  0-C ,  1-C ) :   1.3198 B(  0-C , 10-C ) :   1.3262 B(  0-C , 18-H ) :   1.0239
B(  1-C ,  2-C ) :   0.8481 B(  1-C ,  7-C ) :   1.3308 B(  2-C ,  3-O ) :   2.1804
B(  2-C ,  4-S ) :   1.0149 B(  3-O ,  4-S ) :   0.1235 B(  4-S ,  5-C ) :   1.0144
B(  4-S ,  6-O ) :   0.1175 B(  5-C ,  6-O ) :   2.1278 B(  5-C ,  7-C ) :   0.8600
B(  7-C ,  8-C ) :   1.3596 B(  8-C ,  9-C ) :   1.3413 B(  8-C , 16-C ) :   1.0964
B(  9-C , 10-C ) :   1.3323 B(  9-C , 14-C ) :   0.8448 B( 10-C , 11-C ) :   0.8499
B( 11-C , 12-O ) :   2.1731 B( 11-C , 13-S ) :   1.0201 B( 12-O , 13-S ) :   0.1236
B( 13-S , 14-C ) :   1.0045 B( 13-S , 15-O ) :   0.1176 B( 14-C , 15-O ) :   2.1662
B( 16-C , 17-C ) :   1.9343 B( 16-C , 19-H ) :   0.9324 B( 17-C , 20-H ) :   0.9582
B( 17-C , 21-H ) :   0.9464

Dispersion correction           -0.063102992
FINAL SINGLE POINT ENERGY     -1556.249702418879

DIPOLE MOMENT
-------------
                                X             Y             Z
Electronic contribution:      0.96945       6.86151      -1.27901
Nuclear contribution   :     -1.02281      -7.43732       1.42898
                        -----------------------------------------
Total Dipole Moment    :     -0.05336      -0.57581       0.14996
                        -----------------------------------------
Magnitude (a.u.)       :      0.59740
Magnitude (Debye)      :      1.51847

Rotational constants in cm-1:     0.019531     0.009107     0.006271
Rotational constants in MHz :   585.518122   273.035484   187.998339

                             ****ORCA TERMINATED NORMALLY****
TOTAL RUN TIME: 0 days 0 hours 27 minutes 32 seconds 849 msec
