                         Program Version 4.2.0 -  RELEASE  -
|  1> # ORCA input file
|  2> # SCF done        -25.567687362059          0.000952958210
|  3> ! B3LYP/G D3BJ Opt RIJCOSX def2-SVP def2/J
|  4> * xyz 0 1
|  5>    C        1.32445        -1.12015         0.00730
|  6>    S        1.88644         0.49077         0.19796
|  7>    C        0.30287         1.10084         0.05612
|  8>    C       -0.63135         0.11049        -0.12857
|  9>    C       -0.03010        -1.19364        -0.15698
| 10>    O       -0.62664        -2.39552        -0.31648
| 11>    C       -2.02708        -2.44041        -0.47989
| 12>    C       -1.99296         0.43180        -0.26539
| 13>    N       -3.09145         0.74705        -0.37330
| 14>    H        2.00860        -1.94306         0.02653
| 15>    H        0.11497         2.15482         0.11360
| 16>    H       -2.27343        -3.49631        -0.57953
| 17>    H       -2.34568        -1.90658        -1.38014
| 18>    H       -2.54875        -2.02588         0.38827
| 19> *
| 20>
| 21>                          ****END OF INPUT****
 Total Charge           Charge          ....    0
 Multiplicity           Mult            ....    1
 Number of Electrons    NEL             ....   72
Dispersion correction           -0.027829274
FINAL SINGLE POINT ENERGY      -759.412994077936
Dispersion correction            ... done
Dispersion correction           -0.027542787
FINAL SINGLE POINT ENERGY      -759.415303905307
Dispersion correction            ... done
Dispersion correction           -0.027600183
FINAL SINGLE POINT ENERGY      -759.415349918976
Dispersion correction            ... done
FINAL SINGLE POINT ENERGY      -759.415362500487
FINAL SINGLE POINT ENERGY      -759.415378094965
Dispersion correction            ... done
Dispersion correction           -0.027591213
FINAL SINGLE POINT ENERGY      -759.415377086144
Dispersion correction            ... done
Dispersion correction           -0.027592728
FINAL SINGLE POINT ENERGY      -759.415376687271
Dispersion correction            ... done
                    ***********************HURRAY********************

CARTESIAN COORDINATES (ANGSTROEM)
---------------------------------
  C      1.340273   -1.128415    0.012911
  S      1.903529    0.493010    0.197035
  C      0.321045    1.123894    0.055532
  C     -0.628126    0.130153   -0.127656
  C     -0.026086   -1.191498   -0.156135
  O     -0.626739   -2.382515   -0.322426
  C     -2.031972   -2.466716   -0.481130
  C     -2.007517    0.467584   -0.267116
  N     -3.120438    0.782380   -0.378694
  H      2.021722   -1.975084    0.035069
  H      0.127175    2.193402    0.115301
  H     -2.262244   -3.533599   -0.594979
  H     -2.374773   -1.925230   -1.377198
  H     -2.565960   -2.073146    0.398986

 Multiplicity           Mult            ....    1
 Number of Electrons    NEL             ....   72
 Basis Dimension        Dim             ....  155

ORBITAL ENERGIES
----------------

  NO   OCC          E(Eh)            E(eV)
   0   2.0000     -88.900649     -2419.1096
   1   2.0000     -19.180958      -521.9404
   2   2.0000     -14.330541      -389.9538
   3   2.0000     -10.277400      -279.6623
   4   2.0000     -10.253478      -279.0113
   5   2.0000     -10.244542      -278.7681
   6   2.0000     -10.243796      -278.7479
   7   2.0000     -10.235094      -278.5111
   8   2.0000     -10.220498      -278.1139
   9   2.0000      -7.995624      -217.5720
  10   2.0000      -5.963596      -162.2777
  11   2.0000      -5.959537      -162.1672
  12   2.0000      -5.957209      -162.1039
  13   2.0000      -1.077357       -29.3164
  14   2.0000      -0.911284       -24.7973
  15   2.0000      -0.893835       -24.3225
  16   2.0000      -0.776063       -21.1178
  17   2.0000      -0.766336       -20.8531
  18   2.0000      -0.694605       -18.9012
  19   2.0000      -0.620665       -16.8892
  20   2.0000      -0.596221       -16.2240
  21   2.0000      -0.564878       -15.3711
  22   2.0000      -0.488854       -13.3024
  23   2.0000      -0.485530       -13.2119
  24   2.0000      -0.483166       -13.1476
  25   2.0000      -0.435199       -11.8424
  26   2.0000      -0.427625       -11.6363
  27   2.0000      -0.419419       -11.4130
  28   2.0000      -0.382278       -10.4023
  29   2.0000      -0.369412       -10.0522
  30   2.0000      -0.368426       -10.0254
  31   2.0000      -0.361760        -9.8440
  32   2.0000      -0.344627        -9.3778
  33   2.0000      -0.327313        -8.9066
  34   2.0000      -0.266169        -7.2428
  35   2.0000      -0.236774        -6.4429
  36   0.0000      -0.054636        -1.4867
  37   0.0000       0.003311         0.0901
  38   0.0000       0.010134         0.2758
  39   0.0000       0.050715         1.3800
  40   0.0000       0.066809         1.8180

MULLIKEN ATOMIC CHARGES
-----------------------
   0 C :   -0.178012
   1 S :    0.146136
   2 C :   -0.064050
   3 C :   -0.176463
   4 C :    0.296796
   5 O :   -0.305206
   6 C :    0.184513
   7 C :   -0.156219
   8 N :    0.068266
   9 H :    0.029447
  10 H :    0.044105
  11 H :    0.033712
  12 H :    0.037885
  13 H :    0.039091
Sum of atomic charges:   -0.0000000

LOEWDIN ATOMIC CHARGES
----------------------
   0 C :   -0.230506
   1 S :    0.475191
   2 C :   -0.158925
   3 C :   -0.138232
   4 C :    0.029855
   5 O :   -0.096152
   6 C :    0.086746
   7 C :   -0.033093
   8 N :   -0.076826
   9 H :    0.032374
  10 H :    0.037430
  11 H :    0.029342
  12 H :    0.021285
  13 H :    0.021509

  Mayer bond orders larger than 0.100000
B(  0-C ,  1-S ) :   1.1498 B(  0-C ,  4-C ) :   1.5009 B(  0-C ,  9-H ) :   0.9570
B(  1-S ,  2-C ) :   1.2195 B(  1-S ,  3-C ) :   0.1198 B(  2-C ,  3-C ) :   1.4867
B(  2-C , 10-H ) :   0.9692 B(  3-C ,  4-C ) :   1.1865 B(  3-C ,  7-C ) :   1.1388
B(  4-C ,  5-O ) :   1.1880 B(  5-O ,  6-C ) :   0.9332 B(  6-C , 11-H ) :   0.9734
B(  6-C , 12-H ) :   0.9659 B(  6-C , 13-H ) :   0.9663 B(  7-C ,  8-N ) :   2.9680

Dispersion correction           -0.027593130
FINAL SINGLE POINT ENERGY      -759.415376402482

DIPOLE MOMENT
-------------
                                X             Y             Z
Electronic contribution:      4.59383       4.65508       0.86277
Nuclear contribution   :     -3.67174      -5.03818      -0.77030
                        -----------------------------------------
Total Dipole Moment    :      0.92209      -0.38310       0.09248
                        -----------------------------------------
Magnitude (a.u.)       :      1.00278
Magnitude (Debye)      :      2.54886

Rotational constants in cm-1:     0.075690     0.039778     0.026206
Rotational constants in MHz :  2269.117785  1192.509068   785.637301

                             ****ORCA TERMINATED NORMALLY****
TOTAL RUN TIME: 0 days 0 hours 5 minutes 11 seconds 721 msec
