                         Program Version 4.2.0 -  RELEASE  -
|  1> # ORCA input file
|  2> # SCF done        -33.148727526681          0.000570444164
|  3> ! B3LYP/G D3BJ Opt RIJCOSX def2-SVP def2/J
|  4> * xyz 0 1
|  5>    C        2.53347         0.92775         0.00334
|  6>    C        3.15986        -0.28176         0.00337
|  7>    O        4.48688        -0.54413         0.00417
|  8>    S        2.08378        -1.65848         0.00219
|  9>    C        0.72514        -0.58132         0.00160
| 10>    C        1.13084         0.75775         0.00233
| 11>    N        0.02938         1.56874         0.00169
| 12>    C       -1.08094         0.76275         0.00057
| 13>    C       -0.67727        -0.58051         0.00049
| 14>    S       -2.03605        -1.64210        -0.00110
| 15>    C       -3.10954        -0.27723        -0.00165
| 16>    C       -2.48006         0.92750        -0.00068
| 17>    H        3.04535         1.87340         0.00400
| 18>    H        4.98510         0.28149         0.00427
| 19>    H        0.03207         2.57354         0.00208
| 20>    H       -4.16487        -0.46284        -0.00270
| 21>    H       -2.99093         1.87302        -0.00084
| 22> *
| 23>
| 24>                          ****END OF INPUT****
 Total Charge           Charge          ....    0
 Multiplicity           Mult            ....    1
 Number of Electrons    NEL             ....  100
Dispersion correction           -0.041438671
FINAL SINGLE POINT ENERGY     -1233.683538576958
Dispersion correction            ... done
Dispersion correction           -0.041459179
FINAL SINGLE POINT ENERGY     -1233.686203696882
Dispersion correction            ... done
Dispersion correction           -0.041460990
FINAL SINGLE POINT ENERGY     -1233.686327919847
Dispersion correction            ... done
Dispersion correction           -0.041455033
FINAL SINGLE POINT ENERGY     -1233.686347819071
Dispersion correction            ... done
Dispersion correction           -0.041449211
FINAL SINGLE POINT ENERGY     -1233.686352124774
Dispersion correction            ... done
                    ***********************HURRAY********************

CARTESIAN COORDINATES (ANGSTROEM)
---------------------------------
  C      2.561863    0.941575    0.003227
  C      3.200609   -0.276212    0.003401
  O      4.521483   -0.557329    0.004506
  S      2.110320   -1.664153    0.001918
  C      0.734769   -0.587535    0.001252
  C      1.144623    0.754776    0.002000
  N      0.027920    1.566426    0.001293
  C     -1.096782    0.757058    0.000224
  C     -0.685987   -0.590251    0.000009
  S     -2.060561   -1.651100   -0.001762
  C     -3.152025   -0.281922   -0.001161
  C     -2.509257    0.932956   -0.000666
  H      3.082020    1.900010    0.004052
  H      5.017856    0.272212    0.005335
  H      0.029904    2.576210    0.001781
  H     -4.225191   -0.466479   -0.001674
  H     -3.029353    1.891328   -0.000605

 Multiplicity           Mult            ....    1
 Number of Electrons    NEL             ....  100
 Basis Dimension        Dim             ....  201

ORBITAL ENERGIES
----------------

  NO   OCC          E(Eh)            E(eV)
   0   2.0000     -88.869220     -2418.2544
   1   2.0000     -88.864527     -2418.1267
   2   2.0000     -19.182581      -521.9846
   3   2.0000     -14.376090      -391.1933
   4   2.0000     -10.273291      -279.5505
   5   2.0000     -10.223004      -278.1821
   6   2.0000     -10.216029      -277.9923
   7   2.0000     -10.204900      -277.6895
   8   2.0000     -10.202707      -277.6298
   9   2.0000     -10.201048      -277.5846
  10   2.0000     -10.194410      -277.4040
  11   2.0000     -10.193994      -277.3927
  12   2.0000      -7.963577      -216.7000
  13   2.0000      -7.958487      -216.5615
  14   2.0000      -5.932296      -161.4260
  15   2.0000      -5.928427      -161.3207
  16   2.0000      -5.927091      -161.2844
  17   2.0000      -5.923540      -161.1877
  18   2.0000      -5.922993      -161.1728
  19   2.0000      -5.919096      -161.0668
  20   2.0000      -1.069397       -29.0998
  21   2.0000      -0.975669       -26.5493
  22   2.0000      -0.858760       -23.3680
  23   2.0000      -0.855176       -23.2705
  24   2.0000      -0.757512       -20.6130
  25   2.0000      -0.736138       -20.0313
  26   2.0000      -0.715271       -19.4635
  27   2.0000      -0.680293       -18.5117
  28   2.0000      -0.622847       -16.9485
  29   2.0000      -0.579784       -15.7767
  30   2.0000      -0.574710       -15.6387
  31   2.0000      -0.542028       -14.7493
  32   2.0000      -0.517256       -14.0753
  33   2.0000      -0.504981       -13.7412
  34   2.0000      -0.478872       -13.0308
  35   2.0000      -0.441993       -12.0272
  36   2.0000      -0.431427       -11.7397
  37   2.0000      -0.422763       -11.5040
  38   2.0000      -0.414637       -11.2828
  39   2.0000      -0.397187       -10.8080
  40   2.0000      -0.386342       -10.5129
  41   2.0000      -0.374126       -10.1805
  42   2.0000      -0.350656        -9.5418
  43   2.0000      -0.347960        -9.4685
  44   2.0000      -0.337459        -9.1827
  45   2.0000      -0.323386        -8.7998
  46   2.0000      -0.261689        -7.1209
  47   2.0000      -0.253197        -6.8898
  48   2.0000      -0.210522        -5.7286
  49   2.0000      -0.181231        -4.9315
  50   0.0000      -0.016424        -0.4469
  51   0.0000       0.025724         0.7000
  52   0.0000       0.028995         0.7890
  53   0.0000       0.030813         0.8385
  54   0.0000       0.055135         1.5003

MULLIKEN ATOMIC CHARGES
-----------------------
   0 C :   -0.031129
   1 C :    0.007246
   2 O :   -0.185663
   3 S :    0.117086
   4 C :   -0.127098
   5 C :    0.067229
   6 N :   -0.052164
   7 C :    0.070277
   8 C :   -0.132623
   9 S :    0.111350
  10 C :   -0.115711
  11 C :    0.012210
  12 H :   -0.040328
  13 H :    0.186290
  14 H :    0.114325
  15 H :    0.026331
  16 H :   -0.027628
Sum of atomic charges:    0.0000000

LOEWDIN ATOMIC CHARGES
----------------------
   0 C :   -0.155998
   1 C :   -0.093021
   2 O :   -0.054958
   3 S :    0.385699
   4 C :   -0.237848
   5 C :   -0.018269
   6 N :    0.051917
   7 C :   -0.034441
   8 C :   -0.224723
   9 S :    0.396413
  10 C :   -0.194069
  11 C :   -0.084431
  12 H :    0.023561
  13 H :    0.102267
  14 H :    0.086839
  15 H :    0.022564
  16 H :    0.028497

  Mayer bond orders larger than 0.100000
B(  0-C ,  1-C ) :   1.4642 B(  0-C ,  5-C ) :   1.1718 B(  0-C , 12-H ) :   0.9943
B(  1-C ,  2-O ) :   1.1875 B(  1-C ,  3-S ) :   1.1180 B(  2-O , 13-H ) :   0.9592
B(  3-S ,  4-C ) :   0.9993 B(  4-C ,  5-C ) :   1.4338 B(  4-C ,  8-C ) :   1.4059
B(  5-C ,  6-N ) :   1.1730 B(  6-N ,  7-C ) :   1.1437 B(  6-N , 14-H ) :   0.9376
B(  7-C ,  8-C ) :   1.4075 B(  7-C , 11-C ) :   1.2265 B(  8-C ,  9-S ) :   1.0501
B(  9-S , 10-C ) :   1.1360 B( 10-C , 11-C ) :   1.5386 B( 10-C , 15-H ) :   0.9623
B( 11-C , 16-H ) :   1.0050

Dispersion correction           -0.041447168
FINAL SINGLE POINT ENERGY     -1233.686352360030

DIPOLE MOMENT
-------------
                                X             Y             Z
Electronic contribution:      1.38371      -5.90772      -0.00250
Nuclear contribution   :     -0.96226       7.48989       0.00355
                        -----------------------------------------
Total Dipole Moment    :      0.42145       1.58217       0.00106
                        -----------------------------------------
Magnitude (a.u.)       :      1.63734
Magnitude (Debye)      :      4.16178

Rotational constants in cm-1:     0.067036     0.015657     0.012692
Rotational constants in MHz :  2009.680984   469.382656   380.510366

                             ****ORCA TERMINATED NORMALLY****
TOTAL RUN TIME: 0 days 0 hours 7 minutes 59 seconds 33 msec
