                         Program Version 4.2.0 -  RELEASE  -
|  1> # ORCA input file
|  2> # SCF done        -39.255824498099          0.000457835583
|  3> ! B3LYP/G D3BJ Opt RIJCOSX def2-SVP def2/J
|  4> * xyz 0 1
|  5>    C       -1.60317        -1.18242         0.14972
|  6>    S       -2.73377         0.09061         0.22931
|  7>    C       -1.51995         1.28063         0.14930
|  8>    C       -0.26253         0.72673         0.06254
|  9>    C       -0.30967        -0.71757         0.06279
| 10>    C        0.92499        -1.41961        -0.02264
| 11>    C        1.02882        -2.91712        -0.03326
| 12>    F       -0.13298        -3.57683         0.05274
| 13>    F        1.62597        -3.36635        -1.15643
| 14>    F        1.78680        -3.37038         0.98639
| 15>    C        2.10110        -0.72505        -0.10171
| 16>    C        2.12900         0.68634        -0.10085
| 17>    C        0.97623         1.40432        -0.02064
| 18>    H       -1.95712        -2.19195         0.17163
| 19>    H       -1.77905         2.31992         0.16910
| 20>    H        3.03201        -1.26831        -0.16621
| 21>    H        3.08373         1.18396        -0.16507
| 22>    H        0.98253         2.48365        -0.01889
| 23> *
| 24>
| 25>                          ****END OF INPUT****
 Total Charge           Charge          ....    0
 Multiplicity           Mult            ....    1
 Number of Electrons    NEL             ....  102
Dispersion correction           -0.039932115
FINAL SINGLE POINT ENERGY     -1043.133120011377
Dispersion correction            ... done
Dispersion correction           -0.039809782
FINAL SINGLE POINT ENERGY     -1043.135686855905
Dispersion correction            ... done
Dispersion correction           -0.039779817
FINAL SINGLE POINT ENERGY     -1043.135792648183
Dispersion correction            ... done
FINAL SINGLE POINT ENERGY     -1043.135819105004
FINAL SINGLE POINT ENERGY     -1043.135975114768
FINAL SINGLE POINT ENERGY     -1043.136253413417
FINAL SINGLE POINT ENERGY     -1043.136534719432
FINAL SINGLE POINT ENERGY     -1043.136773971285
FINAL SINGLE POINT ENERGY     -1043.135864852599
FINAL SINGLE POINT ENERGY     -1043.137386602230
FINAL SINGLE POINT ENERGY     -1043.138898834203
FINAL SINGLE POINT ENERGY     -1043.138880475416
FINAL SINGLE POINT ENERGY     -1043.138789085803
FINAL SINGLE POINT ENERGY     -1043.138661278469
FINAL SINGLE POINT ENERGY     -1043.139099548180
FINAL SINGLE POINT ENERGY     -1043.139395633338
FINAL SINGLE POINT ENERGY     -1043.139470471544
Dispersion correction            ... done
Dispersion correction           -0.040012698
FINAL SINGLE POINT ENERGY     -1043.139481726942
Dispersion correction            ... done
Dispersion correction           -0.040009953
FINAL SINGLE POINT ENERGY     -1043.139485543922
Dispersion correction            ... done
                    ***********************HURRAY********************

CARTESIAN COORDINATES (ANGSTROEM)
---------------------------------
  C     -1.558090   -1.232196   -0.033463
  S     -2.722885    0.023283   -0.051189
  C     -1.542923    1.262321   -0.009242
  C     -0.256302    0.733635    0.018871
  C     -0.266340   -0.720239    0.003005
  C      0.986866   -1.421323    0.019520
  C      0.983826   -2.925101   -0.006665
  F      0.354519   -3.444915    1.069137
  F      0.336803   -3.402087   -1.091700
  F      2.220946   -3.438966   -0.028425
  C      2.160464   -0.709435    0.052672
  C      2.162706    0.721269    0.072557
  C      0.990189    1.431221    0.056198
  H     -1.866200   -2.274454   -0.052880
  H     -1.834995    2.310495   -0.005262
  H      3.110890   -1.243853    0.063347
  H      3.119513    1.246999    0.100631
  H      0.993955    2.523913    0.070709

 Multiplicity           Mult            ....    1
 Number of Electrons    NEL             ....  102
 Basis Dimension        Dim             ....  211

ORBITAL ENERGIES
----------------

  NO   OCC          E(Eh)            E(eV)
   0   2.0000     -88.896856     -2419.0064
   1   2.0000     -24.719681      -672.6567
   2   2.0000     -24.713081      -672.4771
   3   2.0000     -24.712808      -672.4697
   4   2.0000     -10.431978      -283.8685
   5   2.0000     -10.223582      -278.1978
   6   2.0000     -10.221870      -278.1512
   7   2.0000     -10.218051      -278.0473
   8   2.0000     -10.215196      -277.9696
   9   2.0000     -10.213150      -277.9139
  10   2.0000     -10.212402      -277.8936
  11   2.0000     -10.211365      -277.8654
  12   2.0000     -10.206047      -277.7206
  13   2.0000      -7.991464      -217.4588
  14   2.0000      -5.959096      -162.1552
  15   2.0000      -5.954927      -162.0418
  16   2.0000      -5.954029      -162.0174
  17   2.0000      -1.294645       -35.2291
  18   2.0000      -1.204891       -32.7868
  19   2.0000      -1.197946       -32.5978
  20   2.0000      -0.904905       -24.6237
  21   2.0000      -0.847340       -23.0573
  22   2.0000      -0.792021       -21.5520
  23   2.0000      -0.746573       -20.3153
  24   2.0000      -0.722956       -19.6726
  25   2.0000      -0.690300       -18.7840
  26   2.0000      -0.633972       -17.2513
  27   2.0000      -0.604639       -16.4531
  28   2.0000      -0.599748       -16.3200
  29   2.0000      -0.587525       -15.9874
  30   2.0000      -0.580555       -15.7977
  31   2.0000      -0.554844       -15.0981
  32   2.0000      -0.510073       -13.8798
  33   2.0000      -0.482406       -13.1269
  34   2.0000      -0.476491       -12.9660
  35   2.0000      -0.466651       -12.6982
  36   2.0000      -0.465672       -12.6716
  37   2.0000      -0.438392       -11.9293
  38   2.0000      -0.431937       -11.7536
  39   2.0000      -0.423252       -11.5173
  40   2.0000      -0.415821       -11.3151
  41   2.0000      -0.412008       -11.2113
  42   2.0000      -0.410876       -11.1805
  43   2.0000      -0.405966       -11.0469
  44   2.0000      -0.381742       -10.3877
  45   2.0000      -0.366811        -9.9814
  46   2.0000      -0.354502        -9.6465
  47   2.0000      -0.352334        -9.5875
  48   2.0000      -0.301264        -8.1978
  49   2.0000      -0.264682        -7.2024
  50   2.0000      -0.221775        -6.0348
  51   0.0000      -0.075868        -2.0645
  52   0.0000       0.003145         0.0856
  53   0.0000       0.006217         0.1692
  54   0.0000       0.040998         1.1156
  55   0.0000       0.061061         1.6615

MULLIKEN ATOMIC CHARGES
-----------------------
   0 C :   -0.129098
   1 S :    0.153731
   2 C :   -0.140022
   3 C :    0.086657
   4 C :    0.063682
   5 C :   -0.082897
   6 C :    0.534767
   7 F :   -0.179662
   8 F :   -0.180158
   9 F :   -0.161829
  10 C :   -0.013717
  11 C :    0.020679
  12 C :    0.012541
  13 H :    0.032035
  14 H :    0.022016
  15 H :   -0.008871
  16 H :   -0.011496
  17 H :   -0.018359
Sum of atomic charges:   -0.0000000

LOEWDIN ATOMIC CHARGES
----------------------
   0 C :   -0.206703
   1 S :    0.499783
   2 C :   -0.207457
   3 C :   -0.050146
   4 C :   -0.044523
   5 C :   -0.079047
   6 C :    0.177811
   7 F :   -0.071217
   8 F :   -0.070652
   9 F :   -0.054449
  10 C :   -0.007002
  11 C :   -0.032046
  12 C :   -0.003245
  13 H :    0.027034
  14 H :    0.026888
  15 H :    0.032428
  16 H :    0.030656
  17 H :    0.031886

  Mayer bond orders larger than 0.100000
B(  0-C ,  1-S ) :   1.2037 B(  0-C ,  2-C ) :   0.1147 B(  0-C ,  4-C ) :   1.4495
B(  0-C , 13-H ) :   0.9422 B(  1-S ,  2-C ) :   1.2173 B(  2-C ,  3-C ) :   1.3970
B(  2-C , 14-H ) :   0.9650 B(  3-C ,  4-C ) :   1.2049 B(  3-C , 12-C ) :   1.1856
B(  4-C ,  5-C ) :   1.1939 B(  5-C ,  6-C ) :   0.9512 B(  5-C , 10-C ) :   1.5684
B(  6-C ,  7-F ) :   1.1296 B(  6-C ,  8-F ) :   1.1252 B(  6-C ,  9-F ) :   1.1506
B( 10-C , 11-C ) :   1.1795 B( 10-C , 15-H ) :   0.9859 B( 11-C , 12-C ) :   1.5404
B( 11-C , 16-H ) :   0.9831 B( 12-C , 17-H ) :   0.9943

Dispersion correction           -0.040008465
FINAL SINGLE POINT ENERGY     -1043.139487207661

DIPOLE MOMENT
-------------
                                X             Y             Z
Electronic contribution:     -0.67062     -12.99689      -0.20669
Nuclear contribution   :      0.54111      14.04225       0.21760
                        -----------------------------------------
Total Dipole Moment    :     -0.12951       1.04536       0.01091
                        -----------------------------------------
Magnitude (a.u.)       :      1.05341
Magnitude (Debye)      :      2.67754

Rotational constants in cm-1:     0.037975     0.019496     0.013820
Rotational constants in MHz :  1138.451083   584.486866   414.306706

                             ****ORCA TERMINATED NORMALLY****
TOTAL RUN TIME: 0 days 0 hours 41 minutes 41 seconds 548 msec
