                         Program Version 4.2.0 -  RELEASE  -
|  1> # ORCA input file
|  2> # SCF done        -35.580326140342          0.000741498036
|  3> ! B3LYP/G D3BJ Opt RIJCOSX def2-SVP def2/J
|  4> * xyz 0 1
|  5>    C        2.59457         0.78617        -0.20929
|  6>    C        2.81715        -0.64978        -0.16676
|  7>    N        1.72966        -1.36227        -0.03698
|  8>    C        0.71418        -0.45959         0.01626
|  9>    C        1.25081         0.92643        -0.09560
| 10>    C        0.16296         1.87984        -0.03084
| 11>    S        0.25620         3.51505        -0.11705
| 12>    C       -1.01242         1.06440         0.12579
| 13>    C       -0.64018        -0.36945         0.14710
| 14>    N       -1.75350        -1.14459         0.29888
| 15>    C       -2.75006        -0.31210         0.37399
| 16>    C       -2.37484         1.10482         0.27705
| 17>    C       -3.23996         2.24755         0.33524
| 18>    C       -4.56432         2.19135         0.47654
| 19>    H        3.35811         1.53197        -0.30982
| 20>    H        3.77762        -1.13133        -0.23282
| 21>    H       -3.75168        -0.68489         0.49817
| 22>    H       -2.73863         3.20382         0.25748
| 23>    H       -5.09660         1.25900         0.55505
| 24>    H       -5.15980         3.08661         0.51551
| 25> *
| 26>
| 27>                          ****END OF INPUT****
 Total Charge           Charge          ....    0
 Multiplicity           Mult            ....    1
 Number of Electrons    NEL             ....  102
Dispersion correction           -0.046093259
FINAL SINGLE POINT ENERGY      -929.907918352993
Dispersion correction            ... done
Dispersion correction           -0.046067425
FINAL SINGLE POINT ENERGY      -929.911959421311
Dispersion correction            ... done
Dispersion correction           -0.046018491
FINAL SINGLE POINT ENERGY      -929.912234297088
Dispersion correction            ... done
FINAL SINGLE POINT ENERGY      -929.912268586947
Dispersion correction            ... done
Dispersion correction           -0.045976506
FINAL SINGLE POINT ENERGY      -929.912282288292
Dispersion correction            ... done
Dispersion correction           -0.045977749
FINAL SINGLE POINT ENERGY      -929.912280174117
Dispersion correction            ... done
                    ***********************HURRAY********************

CARTESIAN COORDINATES (ANGSTROEM)
---------------------------------
  C      2.614216    0.783514   -0.205365
  C      2.828277   -0.674840   -0.156097
  N      1.727487   -1.392936   -0.027755
  C      0.727159   -0.454928    0.014670
  C      1.264660    0.929093   -0.098250
  C      0.171934    1.917072   -0.045026
  S      0.269050    3.553667   -0.149566
  C     -1.013213    1.070562    0.117583
  C     -0.637636   -0.362922    0.139562
  N     -1.741503   -1.173602    0.290155
  C     -2.748816   -0.333801    0.364182
  C     -2.377357    1.106288    0.271654
  C     -3.255858    2.254619    0.342111
  C     -4.591959    2.198698    0.488303
  H      3.382493    1.547403   -0.308769
  H      3.805175   -1.163965   -0.220599
  H     -3.770315   -0.705580    0.488405
  H     -2.752143    3.222777    0.267488
  H     -5.132120    1.251012    0.566020
  H     -5.190262    3.110880    0.539193

 Multiplicity           Mult            ....    1
 Number of Electrons    NEL             ....  102
 Basis Dimension        Dim             ....  230

ORBITAL ENERGIES
----------------

  NO   OCC          E(Eh)            E(eV)
   0   2.0000     -88.828587     -2417.1487
   1   2.0000     -14.347966      -390.4280
   2   2.0000     -14.341603      -390.2549
   3   2.0000     -10.269031      -279.4345
   4   2.0000     -10.267401      -279.3902
   5   2.0000     -10.261921      -279.2411
   6   2.0000     -10.260674      -279.2071
   7   2.0000     -10.256190      -279.0851
   8   2.0000     -10.232968      -278.4532
   9   2.0000     -10.226374      -278.2738
  10   2.0000     -10.224976      -278.2358
  11   2.0000     -10.223711      -278.2013
  12   2.0000     -10.218347      -278.0554
  13   2.0000     -10.215478      -277.9773
  14   2.0000      -7.923686      -215.6145
  15   2.0000      -5.891350      -160.3118
  16   2.0000      -5.891181      -160.3072
  17   2.0000      -5.882068      -160.0592
  18   2.0000      -0.992842       -27.0166
  19   2.0000      -0.973890       -26.5009
  20   2.0000      -0.871594       -23.7173
  21   2.0000      -0.821916       -22.3655
  22   2.0000      -0.784972       -21.3602
  23   2.0000      -0.768782       -20.9196
  24   2.0000      -0.749207       -20.3870
  25   2.0000      -0.690235       -18.7823
  26   2.0000      -0.661430       -17.9984
  27   2.0000      -0.623945       -16.9784
  28   2.0000      -0.612354       -16.6630
  29   2.0000      -0.569006       -15.4834
  30   2.0000      -0.553763       -15.0686
  31   2.0000      -0.520212       -14.1557
  32   2.0000      -0.499612       -13.5951
  33   2.0000      -0.490597       -13.3498
  34   2.0000      -0.474031       -12.8990
  35   2.0000      -0.464723       -12.6458
  36   2.0000      -0.441950       -12.0261
  37   2.0000      -0.429449       -11.6859
  38   2.0000      -0.417696       -11.3661
  39   2.0000      -0.415237       -11.2992
  40   2.0000      -0.408209       -11.1079
  41   2.0000      -0.389014       -10.5856
  42   2.0000      -0.371857       -10.1187
  43   2.0000      -0.360840        -9.8190
  44   2.0000      -0.334415        -9.0999
  45   2.0000      -0.296212        -8.0603
  46   2.0000      -0.292902        -7.9703
  47   2.0000      -0.284545        -7.7429
  48   2.0000      -0.265478        -7.2240
  49   2.0000      -0.249439        -6.7876
  50   2.0000      -0.228872        -6.2279
  51   0.0000      -0.145942        -3.9713
  52   0.0000      -0.116215        -3.1624
  53   0.0000      -0.033039        -0.8990
  54   0.0000       0.011071         0.3013
  55   0.0000       0.058843         1.6012

MULLIKEN ATOMIC CHARGES
-----------------------
   0 C :   -0.088371
   1 C :    0.105179
   2 N :   -0.081218
   3 C :    0.004601
   4 C :    0.062520
   5 C :    0.014831
   6 S :   -0.122266
   7 C :    0.009240
   8 C :    0.042740
   9 N :   -0.066432
  10 C :    0.079150
  11 C :   -0.039647
  12 C :   -0.007091
  13 C :   -0.007396
  14 H :    0.002025
  15 H :    0.014486
  16 H :    0.009777
  17 H :    0.003800
  18 H :    0.024688
  19 H :    0.039384
Sum of atomic charges:   -0.0000000

LOEWDIN ATOMIC CHARGES
----------------------
   0 C :   -0.031742
   1 C :    0.084782
   2 N :   -0.097944
   3 C :    0.034306
   4 C :   -0.024193
   5 C :   -0.148449
   6 S :    0.053108
   7 C :   -0.034729
   8 C :    0.047573
   9 N :   -0.085514
  10 C :    0.098065
  11 C :   -0.037762
  12 C :   -0.019254
  13 C :   -0.016677
  14 H :    0.036947
  15 H :    0.025552
  16 H :    0.025058
  17 H :    0.033860
  18 H :    0.023862
  19 H :    0.033151

  Mayer bond orders larger than 0.100000
B(  0-C ,  1-C ) :   1.0458 B(  0-C ,  4-C ) :   1.5740 B(  0-C , 14-H ) :   0.9992
B(  1-C ,  2-N ) :   1.6324 B(  1-C , 15-H ) :   0.9810 B(  2-N ,  3-C ) :   1.2828
B(  3-C ,  4-C ) :   1.0515 B(  3-C ,  8-C ) :   1.4953 B(  4-C ,  5-C ) :   0.9939
B(  5-C ,  6-S ) :   1.6912 B(  5-C ,  7-C ) :   1.0362 B(  7-C ,  8-C ) :   1.0564
B(  7-C , 11-C ) :   1.5158 B(  8-C ,  9-N ) :   1.2627 B(  9-N , 10-C ) :   1.6814
B( 10-C , 11-C ) :   1.0153 B( 10-C , 16-H ) :   0.9812 B( 11-C , 12-C ) :   1.1280
B( 12-C , 13-C ) :   1.8636 B( 12-C , 17-H ) :   0.9541 B( 13-C , 18-H ) :   0.9497
B( 13-C , 19-H ) :   0.9476

Dispersion correction           -0.045979715
FINAL SINGLE POINT ENERGY      -929.912281876128

DIPOLE MOMENT
-------------
                                X             Y             Z
Electronic contribution:      6.33281      -1.02364      -0.78294
Nuclear contribution   :     -6.64500       1.41510       0.82959
                        -----------------------------------------
Total Dipole Moment    :     -0.31219       0.39146       0.04665
                        -----------------------------------------
Magnitude (a.u.)       :      0.50287
Magnitude (Debye)      :      1.27820

Rotational constants in cm-1:     0.035392     0.017418     0.011675
Rotational constants in MHz :  1061.026460   522.184234   350.006672

                             ****ORCA TERMINATED NORMALLY****
TOTAL RUN TIME: 0 days 0 hours 10 minutes 59 seconds 121 msec
