                         Program Version 4.2.0 -  RELEASE  -
|  1> # ORCA input file
|  2> # SCF done        -35.071718288273          0.000507442304
|  3> ! B3LYP/G D3BJ Opt RIJCOSX def2-SVP def2/J
|  4> * xyz 0 1
|  5>    C        2.81377         0.86179        -0.00142
|  6>    C        3.53247        -0.30540         0.00510
|  7>    C        2.85977        -1.52778         0.01573
|  8>    C        1.48719        -1.56739         0.01497
|  9>    C        0.72100        -0.39038         0.00591
| 10>    C        1.40965         0.84579         0.00189
| 11>    C        0.67636         2.06670         0.00558
| 12>    C       -0.67485         2.06745         0.01784
| 13>    C       -1.40956         0.84739         0.01697
| 14>    C       -0.72237        -0.38954         0.00447
| 15>    C       -1.48994        -1.56558        -0.01046
| 16>    C       -2.86247        -1.52439        -0.00645
| 17>    C       -3.53371        -0.30133         0.01457
| 18>    C       -2.81365         0.86498         0.02499
| 19>    H        3.32058         1.81668        -0.00758
| 20>    H        4.61245        -0.28518         0.00390
| 21>    H        3.42498        -2.44849         0.02537
| 22>    H        0.99911        -2.52924         0.02478
| 23>    H        1.23239         2.99368         0.00178
| 24>    H       -1.22981         2.99504         0.02572
| 25>    H       -1.00302        -2.52792        -0.02813
| 26>    H       -3.42878        -2.44439        -0.01988
| 27>    H       -4.61367        -0.27987         0.02067
| 28>    H       -3.31933         1.82040         0.03863
| 29> *
| 30>
| 31>                          ****END OF INPUT****
 Total Charge           Charge          ....    0
 Multiplicity           Mult            ....    1
 Number of Electrons    NEL             ....   94
Dispersion correction           -0.055375931
FINAL SINGLE POINT ENERGY      -539.208404437341
Dispersion correction            ... done
Dispersion correction           -0.055021452
FINAL SINGLE POINT ENERGY      -539.211604802844
Dispersion correction            ... done
Dispersion correction           -0.054977653
FINAL SINGLE POINT ENERGY      -539.211665813046
Dispersion correction            ... done
                    ***********************HURRAY********************

CARTESIAN COORDINATES (ANGSTROEM)
---------------------------------
  C      2.839401    0.867436    0.008762
  C      3.561064   -0.311659    0.005286
  C      2.879654   -1.544678    0.002680
  C      1.495605   -1.578551    0.003548
  C      0.727708   -0.389148    0.006918
  C      1.423683    0.857708    0.009666
  C      0.681603    2.087384    0.013383
  C     -0.680085    2.088173    0.014216
  C     -1.423590    0.859359    0.011328
  C     -0.729069   -0.388301    0.007675
  C     -1.498350   -1.576807    0.004905
  C     -2.882358   -1.541323    0.005759
  C     -3.562334   -0.307516    0.009294
  C     -2.839296    0.870738    0.011957
  H      3.354884    1.831405    0.010937
  H      4.653661   -0.290234    0.004465
  H      3.445685   -2.478999   -0.000075
  H      0.996187   -2.547163    0.001657
  H      1.239747    3.027121    0.015527
  H     -1.237148    3.028547    0.017513
  H     -1.000065   -2.545994    0.001490
  H     -3.449457   -2.474992    0.003334
  H     -4.654905   -0.284790    0.009981
  H     -3.353666    1.835304    0.014742

 Multiplicity           Mult            ....    1
 Number of Electrons    NEL             ....   94
 Basis Dimension        Dim             ....  246

ORBITAL ENERGIES
----------------

  NO   OCC          E(Eh)            E(eV)
   0   2.0000     -10.201291      -277.5912
   1   2.0000     -10.201150      -277.5874
   2   2.0000     -10.198846      -277.5247
   3   2.0000     -10.198750      -277.5221
   4   2.0000     -10.193616      -277.3824
   5   2.0000     -10.193504      -277.3794
   6   2.0000     -10.193482      -277.3787
   7   2.0000     -10.193269      -277.3730
   8   2.0000     -10.193223      -277.3717
   9   2.0000     -10.193075      -277.3677
  10   2.0000     -10.192867      -277.3620
  11   2.0000     -10.192776      -277.3595
  12   2.0000     -10.192768      -277.3593
  13   2.0000     -10.192761      -277.3591
  14   2.0000      -0.876756       -23.8577
  15   2.0000      -0.843086       -22.9415
  16   2.0000      -0.802989       -21.8504
  17   2.0000      -0.770326       -20.9616
  18   2.0000      -0.750096       -20.4112
  19   2.0000      -0.718362       -19.5476
  20   2.0000      -0.712373       -19.3846
  21   2.0000      -0.629169       -17.1205
  22   2.0000      -0.622006       -16.9256
  23   2.0000      -0.608046       -16.5458
  24   2.0000      -0.580061       -15.7843
  25   2.0000      -0.530507       -14.4358
  26   2.0000      -0.530090       -14.4245
  27   2.0000      -0.497693       -13.5429
  28   2.0000      -0.478946       -13.0328
  29   2.0000      -0.475971       -12.9518
  30   2.0000      -0.439938       -11.9713
  31   2.0000      -0.434163       -11.8142
  32   2.0000      -0.428939       -11.6720
  33   2.0000      -0.424777       -11.5588
  34   2.0000      -0.413713       -11.2577
  35   2.0000      -0.405200       -11.0261
  36   2.0000      -0.394891       -10.7455
  37   2.0000      -0.367482        -9.9997
  38   2.0000      -0.364508        -9.9188
  39   2.0000      -0.363985        -9.9045
  40   2.0000      -0.338901        -9.2220
  41   2.0000      -0.328899        -8.9498
  42   2.0000      -0.320178        -8.7125
  43   2.0000      -0.290271        -7.8987
  44   2.0000      -0.268642        -7.3101
  45   2.0000      -0.230854        -6.2819
  46   2.0000      -0.220128        -5.9900
  47   0.0000      -0.047171        -1.2836
  48   0.0000      -0.041691        -1.1345
  49   0.0000      -0.003302        -0.0899
  50   0.0000       0.025146         0.6843
  51   0.0000       0.060415         1.6440

MULLIKEN ATOMIC CHARGES
-----------------------
   0 C :   -0.018510
   1 C :    0.020272
   2 C :    0.033371
   3 C :   -0.040907
   4 C :    0.093626
   5 C :    0.053477
   6 C :   -0.003920
   7 C :   -0.003943
   8 C :    0.053469
   9 C :    0.093585
  10 C :   -0.040912
  11 C :    0.033388
  12 C :    0.020273
  13 C :   -0.018527
  14 H :   -0.034011
  15 H :   -0.012276
  16 H :   -0.021842
  17 H :   -0.036753
  18 H :   -0.032491
  19 H :   -0.032503
  20 H :   -0.036757
  21 H :   -0.021822
  22 H :   -0.012284
  23 H :   -0.034004
Sum of atomic charges:    0.0000000

LOEWDIN ATOMIC CHARGES
----------------------
   0 C :   -0.016391
   1 C :   -0.028539
   2 C :   -0.024539
   3 C :   -0.016542
   4 C :   -0.008974
   5 C :   -0.017611
   6 C :   -0.018369
   7 C :   -0.018372
   8 C :   -0.017609
   9 C :   -0.008974
  10 C :   -0.016541
  11 C :   -0.024540
  12 C :   -0.028538
  13 C :   -0.016394
  14 H :    0.025443
  15 H :    0.028203
  16 H :    0.026712
  17 H :    0.023912
  18 H :    0.026698
  19 H :    0.026696
  20 H :    0.023910
  21 H :    0.026715
  22 H :    0.028202
  23 H :    0.025443

  Mayer bond orders larger than 0.100000
B(  0-C ,  1-C ) :   1.4357 B(  0-C ,  5-C ) :   1.2823 B(  0-C , 14-H ) :   0.9897
B(  1-C ,  2-C ) :   1.2885 B(  1-C , 15-H ) :   0.9857 B(  2-C ,  3-C ) :   1.4484
B(  2-C , 16-H ) :   0.9803 B(  3-C ,  4-C ) :   1.2968 B(  3-C , 17-H ) :   0.9827
B(  4-C ,  5-C ) :   1.2810 B(  4-C ,  9-C ) :   1.1168 B(  5-C ,  6-C ) :   1.1491
B(  6-C ,  7-C ) :   1.5428 B(  6-C , 18-H ) :   0.9899 B(  7-C ,  8-C ) :   1.1491
B(  7-C , 19-H ) :   0.9899 B(  8-C ,  9-C ) :   1.2810 B(  8-C , 13-C ) :   1.2823
B(  9-C , 10-C ) :   1.2968 B( 10-C , 11-C ) :   1.4483 B( 10-C , 20-H ) :   0.9827
B( 11-C , 12-C ) :   1.2885 B( 11-C , 21-H ) :   0.9803 B( 12-C , 13-C ) :   1.4357
B( 12-C , 22-H ) :   0.9857 B( 13-C , 23-H ) :   0.9897

Dispersion correction           -0.054975144
FINAL SINGLE POINT ENERGY      -539.211669199807

DIPOLE MOMENT
-------------
                                X             Y             Z
Electronic contribution:      0.00047       0.77525       0.00239
Nuclear contribution   :     -0.00047      -0.79188      -0.00251
                        -----------------------------------------
Total Dipole Moment    :     -0.00000      -0.01663      -0.00012
                        -----------------------------------------
Magnitude (a.u.)       :      0.01663
Magnitude (Debye)      :      0.04227

Rotational constants in cm-1:     0.053629     0.018331     0.013662
Rotational constants in MHz :  1607.747182   549.563829   409.565287

                             ****ORCA TERMINATED NORMALLY****
TOTAL RUN TIME: 0 days 0 hours 7 minutes 6 seconds 760 msec
