                         Program Version 4.2.0 -  RELEASE  -
|  1> # ORCA input file
|  2> # SCF done        -25.516603341283          0.000618659445
|  3> ! B3LYP/G D3BJ Opt RIJCOSX def2-SVP def2/J
|  4> * xyz 0 1
|  5>    C        1.61927        -0.93333        -0.00099
|  6>    S        2.49249         0.54815         0.00118
|  7>    C        1.04360         1.47449         0.00401
|  8>    C       -0.05301         0.67270         0.00325
|  9>    C        0.27857        -0.71424         0.00038
| 10>    S       -1.05464        -1.83961        -0.00118
| 11>    C       -2.34353        -0.60806         0.00308
| 12>    O       -3.50053        -0.88460         0.00238
| 13>    S       -1.75105         1.07337         0.00486
| 14>    H        2.13813        -1.86917        -0.00322
| 15>    H        1.08319         2.54382         0.00593
| 16> *
| 17>
| 18>                          ****END OF INPUT****
 Total Charge           Charge          ....    0
 Multiplicity           Mult            ....    1
 Number of Electrons    NEL             ....   88
Dispersion correction           -0.032383674
FINAL SINGLE POINT ENERGY     -1461.030159112074
Dispersion correction            ... done
Dispersion correction           -0.032345043
FINAL SINGLE POINT ENERGY     -1461.032012314112
Dispersion correction            ... done
Dispersion correction           -0.032323189
FINAL SINGLE POINT ENERGY     -1461.029523274529
Dispersion correction            ... done
FINAL SINGLE POINT ENERGY     -1461.032207976717
FINAL SINGLE POINT ENERGY     -1461.032239320114
Dispersion correction            ... done
Dispersion correction           -0.032324274
FINAL SINGLE POINT ENERGY     -1461.032237202015
Dispersion correction            ... done
Dispersion correction           -0.032321712
FINAL SINGLE POINT ENERGY     -1461.032249049823
Dispersion correction            ... done
                    ***********************HURRAY********************

CARTESIAN COORDINATES (ANGSTROEM)
---------------------------------
  C      1.633011   -0.943039   -0.000982
  S      2.506316    0.553994    0.001277
  C      1.050775    1.488953    0.003955
  C     -0.056584    0.678988    0.003150
  C      0.279006   -0.722269    0.000203
  S     -1.052914   -1.862653   -0.001420
  C     -2.371876   -0.614499    0.002353
  O     -3.531983   -0.892527    0.003031
  S     -1.760021    1.094562    0.005185
  H      2.161258   -1.894179   -0.003042
  H      1.095501    2.576190    0.005969

 Multiplicity           Mult            ....    1
 Number of Electrons    NEL             ....   88
 Basis Dimension        Dim             ....  148

ORBITAL ENERGIES
----------------

  NO   OCC          E(Eh)            E(eV)
   0   2.0000     -88.897747     -2419.0307
   1   2.0000     -88.888627     -2418.7825
   2   2.0000     -88.888234     -2418.7718
   3   2.0000     -19.157913      -521.3133
   4   2.0000     -10.330563      -281.1089
   5   2.0000     -10.246310      -278.8163
   6   2.0000     -10.246040      -278.8089
   7   2.0000     -10.237117      -278.5661
   8   2.0000     -10.236999      -278.5629
   9   2.0000      -7.992549      -217.4883
  10   2.0000      -7.984301      -217.2639
  11   2.0000      -7.984117      -217.2589
  12   2.0000      -5.960836      -162.2026
  13   2.0000      -5.956623      -162.0880
  14   2.0000      -5.953646      -162.0069
  15   2.0000      -5.952769      -161.9831
  16   2.0000      -5.952591      -161.9782
  17   2.0000      -5.949327      -161.8894
  18   2.0000      -5.949157      -161.8848
  19   2.0000      -5.943851      -161.7404
  20   2.0000      -5.943587      -161.7332
  21   2.0000      -1.074624       -29.2420
  22   2.0000      -0.918922       -25.0051
  23   2.0000      -0.845316       -23.0022
  24   2.0000      -0.797177       -21.6923
  25   2.0000      -0.726797       -19.7772
  26   2.0000      -0.720546       -19.6070
  27   2.0000      -0.594856       -16.1869
  28   2.0000      -0.568710       -15.4754
  29   2.0000      -0.564572       -15.3628
  30   2.0000      -0.497029       -13.5248
  31   2.0000      -0.477612       -12.9965
  32   2.0000      -0.461406       -12.5555
  33   2.0000      -0.451350       -12.2819
  34   2.0000      -0.428864       -11.6700
  35   2.0000      -0.415756       -11.3133
  36   2.0000      -0.396366       -10.7857
  37   2.0000      -0.374209       -10.1827
  38   2.0000      -0.366150        -9.9635
  39   2.0000      -0.327466        -8.9108
  40   2.0000      -0.320840        -8.7305
  41   2.0000      -0.290281        -7.8990
  42   2.0000      -0.244162        -6.6440
  43   2.0000      -0.242511        -6.5991
  44   0.0000      -0.046110        -1.2547
  45   0.0000      -0.026670        -0.7257
  46   0.0000      -0.024845        -0.6761
  47   0.0000       0.014005         0.3811
  48   0.0000       0.029232         0.7955

MULLIKEN ATOMIC CHARGES
-----------------------
   0 C :   -0.142453
   1 S :    0.119394
   2 C :   -0.149663
   3 C :    0.005600
   4 C :    0.002237
   5 S :    0.096451
   6 C :    0.055983
   7 O :   -0.157982
   8 S :    0.096125
   9 H :    0.035763
  10 H :    0.038545
Sum of atomic charges:   -0.0000000

LOEWDIN ATOMIC CHARGES
----------------------
   0 C :   -0.210414
   1 S :    0.451309
   2 C :   -0.212198
   3 C :   -0.218150
   4 C :   -0.218119
   5 S :    0.340081
   6 C :   -0.193781
   7 O :   -0.142685
   8 S :    0.339926
   9 H :    0.031849
  10 H :    0.032181

  Mayer bond orders larger than 0.100000
B(  0-C ,  1-S ) :   1.1680 B(  0-C ,  4-C ) :   1.5771 B(  0-C ,  9-H ) :   0.9709
B(  1-S ,  2-C ) :   1.1704 B(  2-C ,  3-C ) :   1.5753 B(  2-C , 10-H ) :   0.9701
B(  3-C ,  4-C ) :   1.2329 B(  3-C ,  8-S ) :   0.9963 B(  4-C ,  5-S ) :   0.9959
B(  5-S ,  6-C ) :   0.9695 B(  5-S ,  7-O ) :   0.1171 B(  6-C ,  7-O ) :   2.0946
B(  6-C ,  8-S ) :   0.9680 B(  7-O ,  8-S ) :   0.1170

Dispersion correction           -0.032321954
FINAL SINGLE POINT ENERGY     -1461.032249319542

DIPOLE MOMENT
-------------
                                X             Y             Z
Electronic contribution:     -2.34710      -0.56014       0.00015
Nuclear contribution   :      3.59852       0.85857      -0.00064
                        -----------------------------------------
Total Dipole Moment    :      1.25142       0.29843      -0.00049
                        -----------------------------------------
Magnitude (a.u.)       :      1.28651
Magnitude (Debye)      :      3.27005

Rotational constants in cm-1:     0.080709     0.025474     0.019363
Rotational constants in MHz :  2419.601053   763.690448   580.476606

                             ****ORCA TERMINATED NORMALLY****
TOTAL RUN TIME: 0 days 0 hours 4 minutes 27 seconds 711 msec
