                         Program Version 4.2.0 -  RELEASE  -
|  1> # ORCA input file
|  2> # SCF done        -35.854744785562          0.000958097506
|  3> ! B3LYP/G D3BJ Opt RIJCOSX def2-SVP def2/J
|  4> * xyz 0 1
|  5>    C        1.37309         0.70896         0.08068
|  6>    C        0.02275         0.94551        -0.09330
|  7>    C       -0.69943         2.17983        -0.20272
|  8>    O       -1.89129         2.29992        -0.34942
|  9>    C        0.19599         3.45210        -0.11704
| 10>    F        1.12499         3.47117        -1.08928
| 11>    F       -0.51354         4.56891        -0.22655
| 12>    F        0.86409         3.51332         1.04756
| 13>    S       -0.87306        -0.54486        -0.17999
| 14>    C        0.56019        -1.44181         0.01371
| 15>    C        1.67297        -0.65438         0.14156
| 16>    H        2.11371         1.48331         0.16081
| 17>    H        0.51831        -2.51368         0.02598
| 18>    H        2.66581        -1.04379         0.27366
| 19> *
| 20>
| 21>                          ****END OF INPUT****
 Total Charge           Charge          ....    0
 Multiplicity           Mult            ....    1
 Number of Electrons    NEL             ....   90
Dispersion correction           -0.027893415
FINAL SINGLE POINT ENERGY     -1002.836257158709
Dispersion correction            ... done
Dispersion correction           -0.027717618
FINAL SINGLE POINT ENERGY     -1002.838322628791
Dispersion correction            ... done
Dispersion correction           -0.027698195
FINAL SINGLE POINT ENERGY     -1002.838461741686
Dispersion correction            ... done
FINAL SINGLE POINT ENERGY     -1002.838490042599
Dispersion correction            ... done
Dispersion correction           -0.027712623
FINAL SINGLE POINT ENERGY     -1002.838516297221
Dispersion correction            ... done
Dispersion correction           -0.027714425
FINAL SINGLE POINT ENERGY     -1002.838517612039
Dispersion correction            ... done
                    ***********************HURRAY********************

CARTESIAN COORDINATES (ANGSTROEM)
---------------------------------
  C      1.392120    0.691955    0.105481
  C      0.042383    0.944795   -0.084800
  C     -0.677914    2.209015   -0.198063
  O     -1.874543    2.300884   -0.357090
  C      0.184201    3.501659   -0.128648
  F      1.052528    3.531564   -1.155392
  F     -0.571126    4.589355   -0.185649
  F      0.900999    3.541263    1.011323
  S     -0.870836   -0.537289   -0.202129
  C      0.555538   -1.470735    0.004992
  C      1.684994   -0.693510    0.155458
  H      2.136857    1.479373    0.212239
  H      0.495820   -2.558893    0.003346
  H      2.683559   -1.104927    0.304590

 Multiplicity           Mult            ....    1
 Number of Electrons    NEL             ....   90
 Basis Dimension        Dim             ....  173

ORBITAL ENERGIES
----------------

  NO   OCC          E(Eh)            E(eV)
   0   2.0000     -88.901504     -2419.1329
   1   2.0000     -24.732122      -672.9953
   2   2.0000     -24.731600      -672.9811
   3   2.0000     -24.730609      -672.9541
   4   2.0000     -19.154762      -521.2276
   5   2.0000     -10.441423      -284.1256
   6   2.0000     -10.308671      -280.5132
   7   2.0000     -10.245054      -278.7821
   8   2.0000     -10.240386      -278.6551
   9   2.0000     -10.229306      -278.3536
  10   2.0000     -10.221153      -278.1317
  11   2.0000      -7.996316      -217.5908
  12   2.0000      -5.964328      -162.2976
  13   2.0000      -5.960118      -162.1831
  14   2.0000      -5.957887      -162.1223
  15   2.0000      -1.311782       -35.6954
  16   2.0000      -1.220870       -33.2216
  17   2.0000      -1.218087       -33.1458
  18   2.0000      -1.063861       -28.9491
  19   2.0000      -0.907456       -24.6931
  20   2.0000      -0.781185       -21.2571
  21   2.0000      -0.762638       -20.7524
  22   2.0000      -0.727787       -19.8041
  23   2.0000      -0.656319       -17.8594
  24   2.0000      -0.612485       -16.6666
  25   2.0000      -0.605501       -16.4765
  26   2.0000      -0.600517       -16.3409
  27   2.0000      -0.579029       -15.7562
  28   2.0000      -0.548872       -14.9356
  29   2.0000      -0.489590       -13.3224
  30   2.0000      -0.482798       -13.1376
  31   2.0000      -0.481740       -13.1088
  32   2.0000      -0.457069       -12.4375
  33   2.0000      -0.455466       -12.3939
  34   2.0000      -0.440720       -11.9926
  35   2.0000      -0.438213       -11.9244
  36   2.0000      -0.428011       -11.6468
  37   2.0000      -0.426504       -11.6058
  38   2.0000      -0.421307       -11.4644
  39   2.0000      -0.403626       -10.9832
  40   2.0000      -0.393585       -10.7100
  41   2.0000      -0.374345       -10.1864
  42   2.0000      -0.289265        -7.8713
  43   2.0000      -0.283704        -7.7200
  44   2.0000      -0.271272        -7.3817
  45   0.0000      -0.094127        -2.5613
  46   0.0000      -0.006626        -0.1803
  47   0.0000       0.021602         0.5878
  48   0.0000       0.042655         1.1607
  49   0.0000       0.060508         1.6465

MULLIKEN ATOMIC CHARGES
-----------------------
   0 C :    0.075423
   1 C :   -0.224762
   2 C :    0.069551
   3 O :   -0.164273
   4 C :    0.507722
   5 F :   -0.176137
   6 F :   -0.136258
   7 F :   -0.178239
   8 S :    0.183812
   9 C :   -0.062447
  10 C :    0.036661
  11 H :    0.016804
  12 H :    0.048842
  13 H :    0.003301
Sum of atomic charges:   -0.0000000

LOEWDIN ATOMIC CHARGES
----------------------
   0 C :   -0.018942
   1 C :   -0.229780
   2 C :    0.008965
   3 O :   -0.121608
   4 C :    0.145851
   5 F :   -0.062519
   6 F :   -0.029499
   7 F :   -0.064132
   8 S :    0.488588
   9 C :   -0.159518
  10 C :   -0.062287
  11 H :    0.036213
  12 H :    0.033034
  13 H :    0.035634

  Mayer bond orders larger than 0.100000
B(  0-C ,  1-C ) :   1.4888 B(  0-C , 10-C ) :   1.2879 B(  0-C , 11-H ) :   0.9700
B(  1-C ,  2-C ) :   1.0229 B(  1-C ,  8-S ) :   1.1317 B(  2-C ,  3-O ) :   2.1677
B(  2-C ,  4-C ) :   0.8734 B(  4-C ,  5-F ) :   1.1174 B(  4-C ,  6-F ) :   1.1831
B(  4-C ,  7-F ) :   1.1051 B(  8-S ,  9-C ) :   1.2161 B(  9-C , 10-C ) :   1.5117
B(  9-C , 12-H ) :   0.9678 B( 10-C , 13-H ) :   0.9882

Dispersion correction           -0.027716165
FINAL SINGLE POINT ENERGY     -1002.838516541239

DIPOLE MOMENT
-------------
                                X             Y             Z
Electronic contribution:     -2.76037      11.56905      -0.63517
Nuclear contribution   :      3.70284     -12.83994       0.79635
                        -----------------------------------------
Total Dipole Moment    :      0.94247      -1.27090       0.16118
                        -----------------------------------------
Magnitude (a.u.)       :      1.59041
Magnitude (Debye)      :      4.04251

Rotational constants in cm-1:     0.067778     0.021739     0.018039
Rotational constants in MHz :  2031.940918   651.721210   540.783814

                             ****ORCA TERMINATED NORMALLY****
TOTAL RUN TIME: 0 days 0 hours 5 minutes 59 seconds 925 msec
