                         Program Version 4.2.0 -  RELEASE  -
|  1> # ORCA input file
|  2> # SCF done        -43.608294286269          0.000905090645
|  3> ! B3LYP/G D3BJ Opt RIJCOSX def2-SVP def2/J
|  4> * xyz 0 1
|  5>    N       -3.40802        -0.08204         0.13161
|  6>    N       -2.68339         1.14731         0.05171
|  7>    C       -1.39391         0.84800        -0.58039
|  8>    C       -0.19155         1.52112         0.08852
|  9>    C       -0.15975         1.42330         1.61635
| 10>    C        1.09381         1.00878        -0.60292
| 11>    C        1.15324        -0.55203        -0.81354
| 12>    N        2.41394        -1.04377        -0.28127
| 13>    S        2.85919         0.02931         0.97599
| 14>    N        2.26672         1.42203         0.15372
| 15>    C        0.00527        -1.29835        -0.12795
| 16>    C        0.07383        -2.79049        -0.44486
| 17>    C       -1.32339        -0.71827        -0.58866
| 18>    N       -2.46383        -1.13858         0.22532
| 19>    H       -3.88800        -0.19810        -0.76412
| 20>    H       -2.54424         1.47064         1.00619
| 21>    H       -1.44679         1.20392        -1.61859
| 22>    H       -0.24598         2.59136        -0.14393
| 23>    H       -0.38839         0.42925         1.98839
| 24>    H       -0.86907         2.12595         2.05093
| 25>    H        0.83123         1.69918         1.96595
| 26>    H        1.13129         1.48512        -1.58997
| 27>    H        1.11406        -0.77486        -1.88557
| 28>    H        3.14127        -1.09698        -0.98801
| 29>    H        2.98770         1.82118        -0.43867
| 30>    H        0.12652        -1.18210         0.95108
| 31>    H        0.00468        -2.95728        -1.51786
| 32>    H       -0.75119        -3.30769         0.03723
| 33>    H        1.01429        -3.20077        -0.08781
| 34>    H       -1.52213        -1.06896        -1.61104
| 35>    H       -2.18925        -1.21689         1.20512
| 36> *
| 37>
| 38>                          ****END OF INPUT****
 Total Charge           Charge          ....    0
 Multiplicity           Mult            ....    1
 Number of Electrons    NEL             ....  116
Dispersion correction           -0.070488175
FINAL SINGLE POINT ENERGY      -986.453526525659
Dispersion correction            ... done
Dispersion correction           -0.069417669
FINAL SINGLE POINT ENERGY      -986.456935259429
Dispersion correction            ... done
Dispersion correction           -0.069488075
FINAL SINGLE POINT ENERGY      -986.457418303640
Dispersion correction            ... done
FINAL SINGLE POINT ENERGY      -986.457560960592
FINAL SINGLE POINT ENERGY      -986.457590433735
FINAL SINGLE POINT ENERGY      -986.457598352920
Dispersion correction            ... done
Dispersion correction           -0.069532665
FINAL SINGLE POINT ENERGY      -986.457604271340
Dispersion correction            ... done
Dispersion correction           -0.069527921
FINAL SINGLE POINT ENERGY      -986.457610453687
Dispersion correction            ... done
                    ***********************HURRAY********************

CARTESIAN COORDINATES (ANGSTROEM)
---------------------------------
  N     -3.417755   -0.071235    0.141419
  N     -2.692008    1.158323    0.019229
  C     -1.384233    0.856190   -0.581887
  C     -0.188176    1.522955    0.117170
  C     -0.183508    1.424427    1.647005
  C      1.099186    1.016497   -0.577047
  C      1.165020   -0.563045   -0.793423
  N      2.458676   -1.048702   -0.287553
  S      2.921628    0.053613    0.964700
  N      2.318190    1.452756    0.127074
  C     -0.002822   -1.319396   -0.141651
  C      0.054554   -2.818824   -0.431229
  C     -1.326201   -0.711075   -0.602534
  N     -2.478042   -1.140413    0.198263
  H     -3.932301   -0.193201   -0.731541
  H     -2.567094    1.513487    0.964405
  H     -1.379485    1.208382   -1.628683
  H     -0.230765    2.600361   -0.116132
  H     -0.319804    0.405156    2.031283
  H     -0.975848    2.051865    2.082182
  H      0.770263    1.805851    2.034077
  H      1.118339    1.487837   -1.571379
  H      1.140374   -0.771214   -1.876272
  H      3.161938   -1.033712   -1.027995
  H      3.020267    1.762429   -0.545982
  H      0.096545   -1.177659    0.946108
  H     -0.075780   -3.012604   -1.509829
  H     -0.750149   -3.349878    0.096212
  H      1.022525   -3.233207   -0.115949
  H     -1.501128   -1.041837   -1.642880
  H     -2.194248   -1.234838    1.175789

 Multiplicity           Mult            ....    1
 Number of Electrons    NEL             ....  116
 Basis Dimension        Dim             ....  285

ORBITAL ENERGIES
----------------

  NO   OCC          E(Eh)            E(eV)
   0   2.0000     -88.877979     -2418.4928
   1   2.0000     -14.351749      -390.5309
   2   2.0000     -14.345542      -390.3621
   3   2.0000     -14.344926      -390.3453
   4   2.0000     -14.330818      -389.9614
   5   2.0000     -14.326556      -389.8454
   6   2.0000     -10.231375      -278.4099
   7   2.0000     -10.231188      -278.4048
   8   2.0000     -10.210102      -277.8310
   9   2.0000     -10.209909      -277.8258
  10   2.0000     -10.197263      -277.4816
  11   2.0000     -10.193947      -277.3914
  12   2.0000     -10.180522      -277.0261
  13   2.0000     -10.174781      -276.8699
  14   2.0000      -7.969213      -216.8533
  15   2.0000      -5.941019      -161.6634
  16   2.0000      -5.935063      -161.5013
  17   2.0000      -5.925307      -161.2358
  18   2.0000      -1.009187       -27.4614
  19   2.0000      -0.962023       -26.1780
  20   2.0000      -0.870721       -23.6935
  21   2.0000      -0.853299       -23.2195
  22   2.0000      -0.834121       -22.6976
  23   2.0000      -0.762688       -20.7538
  24   2.0000      -0.752070       -20.4649
  25   2.0000      -0.711769       -19.3682
  26   2.0000      -0.669593       -18.2205
  27   2.0000      -0.653639       -17.7864
  28   2.0000      -0.637059       -17.3353
  29   2.0000      -0.601316       -16.3626
  30   2.0000      -0.583714       -15.8837
  31   2.0000      -0.543891       -14.8000
  32   2.0000      -0.527148       -14.3444
  33   2.0000      -0.502549       -13.6751
  34   2.0000      -0.490381       -13.3440
  35   2.0000      -0.488685       -13.2978
  36   2.0000      -0.483315       -13.1517
  37   2.0000      -0.475746       -12.9457
  38   2.0000      -0.446234       -12.1426
  39   2.0000      -0.442000       -12.0274
  40   2.0000      -0.424187       -11.5427
  41   2.0000      -0.411468       -11.1966
  42   2.0000      -0.403460       -10.9787
  43   2.0000      -0.397514       -10.8169
  44   2.0000      -0.384673       -10.4675
  45   2.0000      -0.374391       -10.1877
  46   2.0000      -0.369267       -10.0483
  47   2.0000      -0.357028        -9.7152
  48   2.0000      -0.344070        -9.3626
  49   2.0000      -0.331558        -9.0222
  50   2.0000      -0.326809        -8.8929
  51   2.0000      -0.320120        -8.7109
  52   2.0000      -0.296218        -8.0605
  53   2.0000      -0.264383        -7.1942
  54   2.0000      -0.258889        -7.0447
  55   2.0000      -0.240251        -6.5376
  56   2.0000      -0.229952        -6.2573
  57   2.0000      -0.227046        -6.1782
  58   0.0000       0.010124         0.2755
  59   0.0000       0.014850         0.4041
  60   0.0000       0.047589         1.2950
  61   0.0000       0.054500         1.4830
  62   0.0000       0.070018         1.9053

MULLIKEN ATOMIC CHARGES
-----------------------
   0 N :   -0.105815
   1 N :   -0.152438
   2 C :    0.072429
   3 C :    0.026478
   4 C :    0.027334
   5 C :    0.073459
   6 C :   -0.022583
   7 N :   -0.296908
   8 S :    0.192127
   9 N :   -0.308100
  10 C :    0.085734
  11 C :    0.104551
  12 C :   -0.015015
  13 N :   -0.147888
  14 H :    0.115720
  15 H :    0.097311
  16 H :   -0.032341
  17 H :   -0.005605
  18 H :    0.001741
  19 H :    0.007737
  20 H :    0.026506
  21 H :   -0.013413
  22 H :   -0.014362
  23 H :    0.122036
  24 H :    0.122219
  25 H :   -0.040191
  26 H :   -0.011877
  27 H :    0.009657
  28 H :    0.013168
  29 H :   -0.028446
  30 H :    0.096777
Sum of atomic charges:   -0.0000000

LOEWDIN ATOMIC CHARGES
----------------------
   0 N :   -0.023781
   1 N :   -0.076082
   2 C :   -0.000774
   3 C :   -0.037246
   4 C :   -0.057421
   5 C :    0.000378
   6 C :   -0.001116
   7 N :   -0.221738
   8 S :    0.342729
   9 N :   -0.225545
  10 C :   -0.040208
  11 C :   -0.042222
  12 C :    0.001729
  13 N :   -0.068852
  14 H :    0.048100
  15 H :    0.041840
  16 H :    0.008862
  17 H :    0.028632
  18 H :    0.013157
  19 H :    0.019668
  20 H :    0.028094
  21 H :    0.018654
  22 H :    0.016742
  23 H :    0.044755
  24 H :    0.044783
  25 H :    0.018701
  26 H :    0.017239
  27 H :    0.024518
  28 H :    0.022743
  29 H :    0.009853
  30 H :    0.043807

  Mayer bond orders larger than 0.100000
B(  0-N ,  1-N ) :   1.0219 B(  0-N , 13-N ) :   1.0309 B(  0-N , 14-H ) :   0.9538
B(  1-N ,  2-C ) :   1.0795 B(  1-N , 15-H ) :   0.9430 B(  2-C ,  3-C ) :   1.0443
B(  2-C , 12-C ) :   0.9653 B(  2-C , 16-H ) :   0.8894 B(  3-C ,  4-C ) :   1.0547
B(  3-C ,  5-C ) :   1.0305 B(  3-C , 17-H ) :   0.9006 B(  4-C , 18-H ) :   0.9664
B(  4-C , 19-H ) :   0.9510 B(  4-C , 20-H ) :   0.9425 B(  5-C ,  6-C ) :   0.9683
B(  5-C ,  9-N ) :   1.0423 B(  5-C , 21-H ) :   0.9064 B(  6-C ,  7-N ) :   1.0570
B(  6-C , 10-C ) :   1.0327 B(  6-C , 22-H ) :   0.9019 B(  7-N ,  8-S ) :   0.9857
B(  7-N , 23-H ) :   0.9387 B(  8-S ,  9-N ) :   0.9757 B(  9-N , 24-H ) :   0.9383
B( 10-C , 11-C ) :   1.0721 B( 10-C , 12-C ) :   1.0443 B( 10-C , 25-H ) :   0.8271
B( 11-C , 26-H ) :   0.9571 B( 11-C , 27-H ) :   0.9605 B( 11-C , 28-H ) :   0.9552
B( 12-C , 13-N ) :   1.0475 B( 12-C , 29-H ) :   0.8874 B( 13-N , 30-H ) :   0.9425

Dispersion correction           -0.069528790
FINAL SINGLE POINT ENERGY      -986.457616904978

DIPOLE MOMENT
-------------
                                X             Y             Z
Electronic contribution:      6.45478       2.14519       1.72105
Nuclear contribution   :     -5.51339      -1.87468      -2.55086
                        -----------------------------------------
Total Dipole Moment    :      0.94139       0.27050      -0.82982
                        -----------------------------------------
Magnitude (a.u.)       :      1.28374
Magnitude (Debye)      :      3.26301

Rotational constants in cm-1:     0.037016     0.016584     0.013223
Rotational constants in MHz :  1109.725366   497.162655   396.418438

                             ****ORCA TERMINATED NORMALLY****
TOTAL RUN TIME: 0 days 0 hours 23 minutes 39 seconds 180 msec
