                         Program Version 4.2.0 -  RELEASE  -
|  1> # ORCA input file
|  2> # SCF done        -46.743911097116          0.000866422284
|  3> ! B3LYP/G D3BJ Opt RIJCOSX def2-SVP def2/J
|  4> * xyz 0 1
|  5>    C       -1.19901         0.61927        -0.72846
|  6>    C       -0.05365         1.33678        -0.54483
|  7>    C        0.99281         0.53021        -0.07364
|  8>    C        0.61059        -0.79103         0.09026
|  9>    S       -1.03359        -1.05631        -0.33161
| 10>    C        1.72153        -1.53890         0.56750
| 11>    C        2.81043        -0.68844         0.70614
| 12>    C        2.44170         0.72062         0.30520
| 13>    C        2.59822         1.70462         1.47871
| 14>    C        1.79236         1.30060         2.70752
| 15>    C        3.28156         1.20898        -0.88920
| 16>    C        3.18062         0.29330        -2.10325
| 17>    C        3.95130        -1.34102         1.17191
| 18>    C        3.73804        -2.68626         1.38908
| 19>    S        2.09079        -3.15253         1.00934
| 20>    C        4.64260        -3.69694         1.85958
| 21>    C        5.91872        -3.50259         2.18843
| 22>    H       -2.14939         0.97110        -1.07785
| 23>    H        0.02080         2.39113        -0.74275
| 24>    H        2.27939         2.69458         1.14447
| 25>    H        3.65679         1.76278         1.74203
| 26>    H        0.73139         1.25307         2.47313
| 27>    H        1.93664         2.02806         3.50281
| 28>    H        2.10738         0.32538         3.07204
| 29>    H        4.32480         1.27823        -0.57270
| 30>    H        2.94484         2.21192        -1.16148
| 31>    H        3.52993        -0.70797        -1.86147
| 32>    H        3.78991         0.68332        -2.91498
| 33>    H        2.15169         0.22385        -2.44836
| 34>    H        4.89849        -0.86434         1.34693
| 35>    H        4.21419        -4.68776         1.94127
| 36>    H        6.38726        -2.53587         2.12488
| 37>    H        6.53511        -4.31269         2.53568
| 38> *
| 39>
| 40>                          ****END OF INPUT****
 Total Charge           Charge          ....    0
 Multiplicity           Mult            ....    1
 Number of Electrons    NEL             ....  138
Dispersion correction           -0.081505963
FINAL SINGLE POINT ENERGY     -1377.014140637531
Dispersion correction            ... done
Dispersion correction           -0.080479309
FINAL SINGLE POINT ENERGY     -1377.019292960596
Dispersion correction            ... done
Dispersion correction           -0.080349979
FINAL SINGLE POINT ENERGY     -1377.019426757756
Dispersion correction            ... done
FINAL SINGLE POINT ENERGY     -1377.019346626517
FINAL SINGLE POINT ENERGY     -1377.019273910189
FINAL SINGLE POINT ENERGY     -1377.019281545436
FINAL SINGLE POINT ENERGY     -1377.019226614538
FINAL SINGLE POINT ENERGY     -1377.019139106871
Dispersion correction            ... done
Dispersion correction           -0.080362673
FINAL SINGLE POINT ENERGY     -1377.019085463194
Dispersion correction            ... done
Dispersion correction           -0.080349197
FINAL SINGLE POINT ENERGY     -1377.019058624737
Dispersion correction            ... done
                    ***********************HURRAY********************

CARTESIAN COORDINATES (ANGSTROEM)
---------------------------------
  C     -1.262251    0.627294   -0.791008
  C     -0.101440    1.346559   -0.594763
  C      0.947602    0.532478   -0.095784
  C      0.563897   -0.792413    0.069927
  S     -1.083670   -1.057466   -0.371971
  C      1.695222   -1.550101    0.547730
  C      2.791463   -0.698952    0.675753
  C      2.413124    0.728133    0.280675
  C      2.570349    1.708121    1.472164
  C      1.942595    1.245247    2.785095
  C      3.234589    1.249881   -0.925555
  C      3.218679    0.350869   -2.158314
  C      3.937076   -1.355523    1.172644
  C      3.718767   -2.707598    1.417125
  S      2.061259   -3.161779    1.026451
  C      4.621276   -3.726505    1.924178
  C      5.909850   -3.550336    2.265129
  H     -2.219100    0.986253   -1.165769
  H     -0.018773    2.412228   -0.813756
  H      2.137403    2.676489    1.167244
  H      3.648655    1.888774    1.623826
  H      0.872335    1.014742    2.662931
  H      2.039956    2.026569    3.555544
  H      2.436070    0.337967    3.164810
  H      4.274553    1.403334   -0.589195
  H      2.846823    2.250104   -1.187226
  H      3.660823   -0.632925   -1.938695
  H      3.796719    0.805242   -2.977953
  H      2.192990    0.182610   -2.520827
  H      4.896623   -0.874976    1.364872
  H      4.186763   -4.725974    2.038221
  H      6.408384   -2.581051    2.177510
  H      6.505627   -4.382148    2.645318

 Multiplicity           Mult            ....    1
 Number of Electrons    NEL             ....  138
 Basis Dimension        Dim             ....  326

ORBITAL ENERGIES
----------------

  NO   OCC          E(Eh)            E(eV)
   0   2.0000     -88.878597     -2418.5096
   1   2.0000     -88.877663     -2418.4842
   2   2.0000     -10.218192      -278.0511
   3   2.0000     -10.218029      -278.0467
   4   2.0000     -10.216669      -278.0097
   5   2.0000     -10.213950      -277.9357
   6   2.0000     -10.211425      -277.8670
   7   2.0000     -10.203111      -277.6408
   8   2.0000     -10.198012      -277.5020
   9   2.0000     -10.195651      -277.4378
  10   2.0000     -10.191205      -277.3168
  11   2.0000     -10.191153      -277.3154
  12   2.0000     -10.191141      -277.3150
  13   2.0000     -10.189446      -277.2689
  14   2.0000     -10.187198      -277.2078
  15   2.0000     -10.175144      -276.8797
  16   2.0000     -10.174643      -276.8661
  17   2.0000      -7.972867      -216.9528
  18   2.0000      -7.971942      -216.9276
  19   2.0000      -5.941062      -161.6645
  20   2.0000      -5.940009      -161.6359
  21   2.0000      -5.937052      -161.5554
  22   2.0000      -5.936259      -161.5338
  23   2.0000      -5.934118      -161.4756
  24   2.0000      -5.933183      -161.4501
  25   2.0000      -0.907608       -24.6973
  26   2.0000      -0.870543       -23.6887
  27   2.0000      -0.827456       -22.5162
  28   2.0000      -0.785267       -21.3682
  29   2.0000      -0.752108       -20.4659
  30   2.0000      -0.747278       -20.3345
  31   2.0000      -0.734835       -19.9959
  32   2.0000      -0.731258       -19.8985
  33   2.0000      -0.676524       -18.4092
  34   2.0000      -0.670240       -18.2382
  35   2.0000      -0.618105       -16.8195
  36   2.0000      -0.595805       -16.2127
  37   2.0000      -0.593186       -16.1414
  38   2.0000      -0.562282       -15.3005
  39   2.0000      -0.537141       -14.6163
  40   2.0000      -0.535395       -14.5688
  41   2.0000      -0.511796       -13.9267
  42   2.0000      -0.484159       -13.1746
  43   2.0000      -0.467306       -12.7160
  44   2.0000      -0.462953       -12.5976
  45   2.0000      -0.445006       -12.1092
  46   2.0000      -0.441055       -12.0017
  47   2.0000      -0.437259       -11.8984
  48   2.0000      -0.431732       -11.7480
  49   2.0000      -0.403493       -10.9796
  50   2.0000      -0.397111       -10.8059
  51   2.0000      -0.397069       -10.8048
  52   2.0000      -0.391011       -10.6399
  53   2.0000      -0.381497       -10.3811
  54   2.0000      -0.374739       -10.1972
  55   2.0000      -0.372588       -10.1386
  56   2.0000      -0.363703        -9.8969
  57   2.0000      -0.358308        -9.7501
  58   2.0000      -0.356579        -9.7030
  59   2.0000      -0.351517        -9.5653
  60   2.0000      -0.337669        -9.1884
  61   2.0000      -0.332513        -9.0481
  62   2.0000      -0.323459        -8.8018
  63   2.0000      -0.321303        -8.7431
  64   2.0000      -0.310013        -8.4359
  65   2.0000      -0.258904        -7.0451
  66   2.0000      -0.254913        -6.9365
  67   2.0000      -0.252576        -6.8729
  68   2.0000      -0.190702        -5.1893
  69   0.0000      -0.059648        -1.6231
  70   0.0000      -0.009985        -0.2717
  71   0.0000       0.024535         0.6676
  72   0.0000       0.027752         0.7552
  73   0.0000       0.046568         1.2672

MULLIKEN ATOMIC CHARGES
-----------------------
   0 C :   -0.099812
   1 C :    0.020753
   2 C :   -0.010115
   3 C :   -0.096674
   4 S :    0.128080
   5 C :   -0.084100
   6 C :   -0.021408
   7 C :   -0.111976
   8 C :    0.067547
   9 C :    0.018718
  10 C :    0.067023
  11 C :    0.028352
  12 C :   -0.000339
  13 C :   -0.109299
  14 S :    0.129272
  15 C :    0.038438
  16 C :   -0.038708
  17 H :    0.022522
  18 H :   -0.018336
  19 H :   -0.007440
  20 H :   -0.005648
  21 H :    0.022911
  22 H :    0.012455
  23 H :    0.019443
  24 H :   -0.004497
  25 H :   -0.009065
  26 H :    0.021043
  27 H :    0.006435
  28 H :    0.019882
  29 H :   -0.031634
  30 H :   -0.013329
  31 H :    0.014994
  32 H :    0.024512
Sum of atomic charges:    0.0000000

LOEWDIN ATOMIC CHARGES
----------------------
   0 C :   -0.189035
   1 C :   -0.065619
   2 C :   -0.044827
   3 C :   -0.201570
   4 S :    0.423303
   5 C :   -0.197613
   6 C :   -0.040243
   7 C :   -0.027166
   8 C :   -0.010829
   9 C :   -0.058587
  10 C :   -0.011514
  11 C :   -0.055775
  12 C :   -0.054216
  13 C :   -0.174651
  14 S :    0.427823
  15 C :   -0.043930
  16 C :   -0.058014
  17 H :    0.023147
  18 H :    0.029804
  19 H :    0.019283
  20 H :    0.018937
  21 H :    0.026794
  22 H :    0.024410
  23 H :    0.025330
  24 H :    0.019009
  25 H :    0.018874
  26 H :    0.025663
  27 H :    0.023390
  28 H :    0.025559
  29 H :    0.027654
  30 H :    0.027831
  31 H :    0.020347
  32 H :    0.026430

  Mayer bond orders larger than 0.100000
B(  0-C ,  1-C ) :   1.5110 B(  0-C ,  4-S ) :   1.1515 B(  0-C , 17-H ) :   0.9629
B(  1-C ,  2-C ) :   1.2944 B(  1-C , 18-H ) :   0.9949 B(  2-C ,  3-C ) :   1.5129
B(  2-C ,  7-C ) :   0.9401 B(  3-C ,  4-S ) :   1.0919 B(  3-C ,  5-C ) :   1.1725
B(  5-C ,  6-C ) :   1.4979 B(  5-C , 14-S ) :   1.0929 B(  6-C ,  7-C ) :   0.9411
B(  6-C , 12-C ) :   1.3094 B(  7-C ,  8-C ) :   1.0281 B(  7-C , 10-C ) :   1.0346
B(  8-C ,  9-C ) :   1.1138 B(  8-C , 19-H ) :   0.9367 B(  8-C , 20-H ) :   0.9333
B(  9-C , 21-H ) :   0.9640 B(  9-C , 22-H ) :   0.9620 B(  9-C , 23-H ) :   0.9577
B( 10-C , 11-C ) :   1.1091 B( 10-C , 24-H ) :   0.9346 B( 10-C , 25-H ) :   0.9347
B( 11-C , 26-H ) :   0.9617 B( 11-C , 27-H ) :   0.9608 B( 11-C , 28-H ) :   0.9635
B( 12-C , 13-C ) :   1.4517 B( 12-C , 29-H ) :   0.9948 B( 13-C , 14-S ) :   1.1029
B( 13-C , 15-C ) :   1.1182 B( 15-C , 16-C ) :   1.9159 B( 15-C , 30-H ) :   0.9469
B( 16-C , 31-H ) :   0.9495 B( 16-C , 32-H ) :   0.9431

Dispersion correction           -0.080343227
FINAL SINGLE POINT ENERGY     -1377.019070040752

DIPOLE MOMENT
-------------
                                X             Y             Z
Electronic contribution:    -15.03234     -14.35554      -1.41068
Nuclear contribution   :     15.16550      14.88980       1.33259
                        -----------------------------------------
Total Dipole Moment    :      0.13316       0.53425      -0.07809
                        -----------------------------------------
Magnitude (a.u.)       :      0.55610
Magnitude (Debye)      :      1.41351

Rotational constants in cm-1:     0.020098     0.010016     0.008404
Rotational constants in MHz :   602.524609   300.271681   251.956041

                             ****ORCA TERMINATED NORMALLY****
TOTAL RUN TIME: 0 days 0 hours 41 minutes 20 seconds 721 msec
