                         Program Version 4.2.0 -  RELEASE  -
|  1> # ORCA input file
|  2> # SCF done        -42.178068806858          0.000404624775
|  3> ! B3LYP/G D3BJ Opt RIJCOSX def2-SVP def2/J
|  4> * xyz 0 1
|  5>    C       -0.01241         0.79552         0.05592
|  6>    S       -1.00885        -0.59792        -0.06691
|  7>    C        0.35653        -1.66047        -0.05319
|  8>    C        1.52326        -0.94261         0.08043
|  9>    C        1.31155         0.47191         0.12524
| 10>    O        2.36099         1.31201         0.21017
| 11>    C        2.07892         2.69144         0.25346
| 12>    C        2.88041        -1.54658         0.23330
| 13>    F        2.85842        -2.69556         0.93648
| 14>    F        3.45642        -1.85208        -0.95071
| 15>    F        3.74568        -0.75299         0.87009
| 16>    C        0.11061        -3.07690        -0.21147
| 17>    C        0.91575        -3.94109        -0.81847
| 18>    H       -0.46854         1.76336         0.06587
| 19>    H        3.04454         3.18619         0.33128
| 20>    H        1.46528         2.94377         1.12337
| 21>    H        1.56932         3.01913        -0.65803
| 22>    H       -0.85399        -3.40172         0.15652
| 23>    H        1.85861        -3.65694        -1.24977
| 24>    H        0.64196        -4.97708        -0.91070
| 25> *
| 26>
| 27>                          ****END OF INPUT****
 Total Charge           Charge          ....    0
 Multiplicity           Mult            ....    1
 Number of Electrons    NEL             ....  106
Dispersion correction           -0.039145322
FINAL SINGLE POINT ENERGY     -1081.383104304831
Dispersion correction            ... done
Dispersion correction           -0.038889757
FINAL SINGLE POINT ENERGY     -1081.385564305026
Dispersion correction            ... done
Dispersion correction           -0.038948537
FINAL SINGLE POINT ENERGY     -1081.385704654770
Dispersion correction            ... done
FINAL SINGLE POINT ENERGY     -1081.385788026273
FINAL SINGLE POINT ENERGY     -1081.385764608135
FINAL SINGLE POINT ENERGY     -1081.385639467454
FINAL SINGLE POINT ENERGY     -1081.385729277157
FINAL SINGLE POINT ENERGY     -1081.385752337354
FINAL SINGLE POINT ENERGY     -1081.385748404169
Dispersion correction            ... done
Dispersion correction           -0.038883740
FINAL SINGLE POINT ENERGY     -1081.385752642720
Dispersion correction            ... done
Dispersion correction           -0.038879543
FINAL SINGLE POINT ENERGY     -1081.385757272352
Dispersion correction            ... done
                    ***********************HURRAY********************

CARTESIAN COORDINATES (ANGSTROEM)
---------------------------------
  C      0.002601    0.821719    0.003432
  S     -0.980728   -0.587831   -0.139020
  C      0.394123   -1.652029   -0.096138
  C      1.572100   -0.929202    0.051703
  C      1.339770    0.494553    0.093369
  O      2.362725    1.359253    0.218138
  C      2.045288    2.728494    0.339185
  C      2.939005   -1.551697    0.152622
  F      2.932777   -2.659390    0.918852
  F      3.406479   -1.928970   -1.061848
  F      3.849067   -0.722473    0.673114
  C      0.094643   -3.074902   -0.243774
  C      0.894007   -4.042169   -0.715875
  H     -0.449516    1.808863    0.010735
  H      2.991153    3.258534    0.506195
  H      1.370568    2.909743    1.194748
  H      1.567525    3.115227   -0.579137
  H     -0.929948   -3.344216    0.037313
  H      1.912556   -3.855117   -1.056751
  H      0.520265   -5.067000   -0.783983

 Multiplicity           Mult            ....    1
 Number of Electrons    NEL             ....  106
 Basis Dimension        Dim             ....  221

ORBITAL ENERGIES
----------------

  NO   OCC          E(Eh)            E(eV)
   0   2.0000     -88.886161     -2418.7154
   1   2.0000     -24.709509      -672.3799
   2   2.0000     -24.708193      -672.3441
   3   2.0000     -24.707281      -672.3193
   4   2.0000     -19.177851      -521.8559
   5   2.0000     -10.431235      -283.8483
   6   2.0000     -10.268738      -279.4266
   7   2.0000     -10.255667      -279.0709
   8   2.0000     -10.240249      -278.6513
   9   2.0000     -10.216018      -277.9920
  10   2.0000     -10.215996      -277.9914
  11   2.0000     -10.211600      -277.8718
  12   2.0000     -10.197766      -277.4953
  13   2.0000      -7.981263      -217.1812
  14   2.0000      -5.949374      -161.8907
  15   2.0000      -5.945420      -161.7831
  16   2.0000      -5.942427      -161.7017
  17   2.0000      -1.289284       -35.0832
  18   2.0000      -1.197334       -32.5811
  19   2.0000      -1.192950       -32.4618
  20   2.0000      -1.076933       -29.3048
  21   2.0000      -0.896805       -24.4033
  22   2.0000      -0.792626       -21.5684
  23   2.0000      -0.780911       -21.2497
  24   2.0000      -0.736469       -20.0403
  25   2.0000      -0.700625       -19.0650
  26   2.0000      -0.677711       -18.4415
  27   2.0000      -0.623194       -16.9580
  28   2.0000      -0.595466       -16.2035
  29   2.0000      -0.591951       -16.1078
  30   2.0000      -0.582944       -15.8627
  31   2.0000      -0.565149       -15.3785
  32   2.0000      -0.534402       -14.5418
  33   2.0000      -0.503721       -13.7069
  34   2.0000      -0.485163       -13.2019
  35   2.0000      -0.481611       -13.1053
  36   2.0000      -0.464393       -12.6368
  37   2.0000      -0.460613       -12.5339
  38   2.0000      -0.455914       -12.4060
  39   2.0000      -0.435461       -11.8495
  40   2.0000      -0.425999       -11.5920
  41   2.0000      -0.422208       -11.4889
  42   2.0000      -0.406332       -11.0569
  43   2.0000      -0.402762       -10.9597
  44   2.0000      -0.400192       -10.8898
  45   2.0000      -0.397669       -10.8211
  46   2.0000      -0.369969       -10.0674
  47   2.0000      -0.362082        -9.8528
  48   2.0000      -0.349475        -9.5097
  49   2.0000      -0.342214        -9.3121
  50   2.0000      -0.301273        -8.1981
  51   2.0000      -0.254625        -6.9287
  52   2.0000      -0.224870        -6.1190
  53   0.0000      -0.058532        -1.5927
  54   0.0000       0.019806         0.5389
  55   0.0000       0.023949         0.6517
  56   0.0000       0.052663         1.4330
  57   0.0000       0.058187         1.5833

MULLIKEN ATOMIC CHARGES
-----------------------
   0 C :   -0.199024
   1 S :    0.124319
   2 C :   -0.149169
   3 C :   -0.085805
   4 C :    0.205208
   5 O :   -0.291512
   6 C :    0.180533
   7 C :    0.547743
   8 F :   -0.174353
   9 F :   -0.181821
  10 F :   -0.151208
  11 C :    0.022786
  12 C :   -0.017261
  13 H :    0.019843
  14 H :    0.040338
  15 H :    0.021491
  16 H :    0.022536
  17 H :   -0.001479
  18 H :    0.038725
  19 H :    0.028110
Sum of atomic charges:   -0.0000000

LOEWDIN ATOMIC CHARGES
----------------------
   0 C :   -0.261646
   1 S :    0.453186
   2 C :   -0.147626
   3 C :   -0.140393
   4 C :    0.022110
   5 O :   -0.089581
   6 C :    0.084465
   7 C :    0.178606
   8 F :   -0.062880
   9 F :   -0.075956
  10 F :   -0.047588
  11 C :   -0.055331
  12 C :   -0.023449
  13 H :    0.024369
  14 H :    0.029928
  15 H :    0.014514
  16 H :    0.014507
  17 H :    0.029781
  18 H :    0.023145
  19 H :    0.029840

  Mayer bond orders larger than 0.100000
B(  0-C ,  1-S ) :   1.0984 B(  0-C ,  4-C ) :   1.4726 B(  0-C , 13-H ) :   0.9723
B(  1-S ,  2-C ) :   1.1798 B(  2-C ,  3-C ) :   1.5134 B(  2-C , 11-C ) :   1.0943
B(  3-C ,  4-C ) :   1.2467 B(  3-C ,  7-C ) :   0.9384 B(  4-C ,  5-O ) :   1.1969
B(  5-O ,  6-C ) :   0.9586 B(  6-C , 14-H ) :   0.9779 B(  6-C , 15-H ) :   0.9632
B(  6-C , 16-H ) :   0.9658 B(  7-C ,  8-F ) :   1.1347 B(  7-C ,  9-F ) :   1.1217
B(  7-C , 10-F ) :   1.1718 B( 11-C , 12-C ) :   1.9439 B( 11-C , 17-H ) :   0.9410
B( 12-C , 18-H ) :   0.9468 B( 12-C , 19-H ) :   0.9415

Dispersion correction           -0.038878843
FINAL SINGLE POINT ENERGY     -1081.385763305502

DIPOLE MOMENT
-------------
                                X             Y             Z
Electronic contribution:      7.73243      -6.36826       1.16649
Nuclear contribution   :     -8.59708       7.22248      -1.17563
                        -----------------------------------------
Total Dipole Moment    :     -0.86465       0.85422      -0.00914
                        -----------------------------------------
Magnitude (a.u.)       :      1.21548
Magnitude (Debye)      :      3.08951

Rotational constants in cm-1:     0.028704     0.023658     0.014038
Rotational constants in MHz :   860.536061   709.250574   420.847262

                             ****ORCA TERMINATED NORMALLY****
TOTAL RUN TIME: 0 days 0 hours 15 minutes 4 seconds 877 msec
