                         Program Version 4.2.0 -  RELEASE  -
|  1> # ORCA input file
|  2> # SCF done        -35.849744376324          0.000537833692
|  3> ! B3LYP/G D3BJ Opt RIJCOSX def2-SVP def2/J
|  4> * xyz 0 1
|  5>    C        0.02246         1.36358        -0.00395
|  6>    S       -1.18065         0.12956         0.07793
|  7>    C        0.00437        -1.07681         0.03599
|  8>    C        1.28773        -0.56663        -0.03852
|  9>    C        1.27640         0.86070        -0.06031
| 10>    C        2.40032        -1.49667        -0.08092
| 11>    O        2.27860        -2.69881        -0.05255
| 12>    C        3.86842        -0.97363        -0.16434
| 13>    F        4.03832         0.35416        -0.23168
| 14>    F        4.55450        -1.38600         0.90936
| 15>    F        4.46771        -1.48348        -1.24744
| 16>    H       -0.27589         2.39284        -0.00514
| 17>    H       -0.25700        -2.11662         0.06636
| 18>    H        2.14834         1.48263        -0.11467
| 19> *
| 20>
| 21>                          ****END OF INPUT****
 Total Charge           Charge          ....    0
 Multiplicity           Mult            ....    1
 Number of Electrons    NEL             ....   90
Dispersion correction           -0.027160218
FINAL SINGLE POINT ENERGY     -1002.830818136244
Dispersion correction            ... done
Dispersion correction           -0.027061145
FINAL SINGLE POINT ENERGY     -1002.832847757122
Dispersion correction            ... done
Dispersion correction           -0.027041525
FINAL SINGLE POINT ENERGY     -1002.833076116756
Dispersion correction            ... done
FINAL SINGLE POINT ENERGY     -1002.833232726680
FINAL SINGLE POINT ENERGY     -1002.833444044374
FINAL SINGLE POINT ENERGY     -1002.833713053688
FINAL SINGLE POINT ENERGY     -1002.833909974480
FINAL SINGLE POINT ENERGY     -1002.834301302847
FINAL SINGLE POINT ENERGY     -1002.834702682526
FINAL SINGLE POINT ENERGY     -1002.835053702855
FINAL SINGLE POINT ENERGY     -1002.836343411851
FINAL SINGLE POINT ENERGY     -1002.836328820393
FINAL SINGLE POINT ENERGY     -1002.836357459095
FINAL SINGLE POINT ENERGY     -1002.836357332733
FINAL SINGLE POINT ENERGY     -1002.836357853505
FINAL SINGLE POINT ENERGY     -1002.836363779264
FINAL SINGLE POINT ENERGY     -1002.836381665153
Dispersion correction            ... done
Dispersion correction           -0.027449800
FINAL SINGLE POINT ENERGY     -1002.836400501515
Dispersion correction            ... done
Dispersion correction           -0.027451068
FINAL SINGLE POINT ENERGY     -1002.836413701905
Dispersion correction            ... done
                    ***********************HURRAY********************

CARTESIAN COORDINATES (ANGSTROEM)
---------------------------------
  C      0.094846    1.350940    0.243501
  S     -1.149414    0.141339    0.234993
  C     -0.013385   -1.109319   -0.028855
  C      1.280488   -0.624639   -0.101806
  C      1.334806    0.802943    0.061311
  C      2.408270   -1.545365   -0.324575
  O      2.292082   -2.720821   -0.581650
  C      3.833348   -0.937977   -0.205546
  F      4.030722   -0.025174   -1.177110
  F      3.986675   -0.308033    0.973108
  F      4.766340   -1.874225   -0.302609
  H     -0.165766    2.397842    0.389808
  H     -0.317354   -2.150508   -0.122554
  H      2.251973    1.387818    0.032103

 Multiplicity           Mult            ....    1
 Number of Electrons    NEL             ....   90
 Basis Dimension        Dim             ....  173

ORBITAL ENERGIES
----------------

  NO   OCC          E(Eh)            E(eV)
   0   2.0000     -88.904603     -2419.2172
   1   2.0000     -24.731366      -672.9747
   2   2.0000     -24.731221      -672.9707
   3   2.0000     -24.730008      -672.9377
   4   2.0000     -19.155268      -521.2413
   5   2.0000     -10.439281      -284.0673
   6   2.0000     -10.305906      -280.4380
   7   2.0000     -10.243736      -278.7462
   8   2.0000     -10.236426      -278.5473
   9   2.0000     -10.223823      -278.2044
  10   2.0000     -10.220957      -278.1264
  11   2.0000      -7.999794      -217.6855
  12   2.0000      -5.967690      -162.3891
  13   2.0000      -5.963397      -162.2723
  14   2.0000      -5.961741      -162.2272
  15   2.0000      -1.311008       -35.6743
  16   2.0000      -1.220509       -33.2117
  17   2.0000      -1.217207       -33.1219
  18   2.0000      -1.063470       -28.9385
  19   2.0000      -0.907821       -24.7031
  20   2.0000      -0.786149       -21.3922
  21   2.0000      -0.749390       -20.3919
  22   2.0000      -0.732393       -19.9294
  23   2.0000      -0.653930       -17.7943
  24   2.0000      -0.607864       -16.5408
  25   2.0000      -0.604735       -16.4557
  26   2.0000      -0.597988       -16.2721
  27   2.0000      -0.580974       -15.8091
  28   2.0000      -0.550047       -14.9675
  29   2.0000      -0.489321       -13.3151
  30   2.0000      -0.482692       -13.1347
  31   2.0000      -0.480853       -13.0847
  32   2.0000      -0.454126       -12.3574
  33   2.0000      -0.449707       -12.2372
  34   2.0000      -0.444261       -12.0890
  35   2.0000      -0.436725       -11.8839
  36   2.0000      -0.427648       -11.6369
  37   2.0000      -0.426412       -11.6033
  38   2.0000      -0.421083       -11.4582
  39   2.0000      -0.405390       -11.0312
  40   2.0000      -0.395839       -10.7713
  41   2.0000      -0.375962       -10.2305
  42   2.0000      -0.287398        -7.8205
  43   2.0000      -0.284227        -7.7342
  44   2.0000      -0.269031        -7.3207
  45   0.0000      -0.085817        -2.3352
  46   0.0000      -0.027303        -0.7430
  47   0.0000       0.024583         0.6690
  48   0.0000       0.057737         1.5711
  49   0.0000       0.066882         1.8199

MULLIKEN ATOMIC CHARGES
-----------------------
   0 C :   -0.091362
   1 S :    0.143778
   2 C :   -0.087726
   3 C :   -0.051713
   4 C :    0.078010
   5 C :    0.043419
   6 O :   -0.159119
   7 C :    0.511123
   8 F :   -0.180077
   9 F :   -0.175314
  10 F :   -0.135988
  11 H :    0.041176
  12 H :    0.049789
  13 H :    0.014002
Sum of atomic charges:    0.0000000

LOEWDIN ATOMIC CHARGES
----------------------
   0 C :   -0.182936
   1 S :    0.474960
   2 C :   -0.141427
   3 C :   -0.117827
   4 C :   -0.045939
   5 C :    0.034461
   6 O :   -0.112550
   7 C :    0.143409
   8 F :   -0.064476
   9 F :   -0.061818
  10 F :   -0.029770
  11 H :    0.031040
  12 H :    0.038259
  13 H :    0.034614

  Mayer bond orders larger than 0.100000
B(  0-C ,  1-S ) :   1.1598 B(  0-C ,  4-C ) :   1.5768 B(  0-C , 11-H ) :   0.9609
B(  1-S ,  2-C ) :   1.2283 B(  2-C ,  3-C ) :   1.4889 B(  2-C , 12-H ) :   0.9665
B(  3-C ,  4-C ) :   1.2451 B(  3-C ,  5-C ) :   0.9748 B(  4-C , 13-H ) :   0.9756
B(  5-C ,  6-O ) :   2.1744 B(  5-C ,  7-C ) :   0.8734 B(  7-C ,  8-F ) :   1.1010
B(  7-C ,  9-F ) :   1.1173 B(  7-C , 10-F ) :   1.1837

Dispersion correction           -0.027450964
FINAL SINGLE POINT ENERGY     -1002.836417866630

DIPOLE MOMENT
-------------
                                X             Y             Z
Electronic contribution:      9.18150      -2.63942      -0.50998
Nuclear contribution   :    -10.15846       3.54699       0.73661
                        -----------------------------------------
Total Dipole Moment    :     -0.97695       0.90757       0.22663
                        -----------------------------------------
Magnitude (a.u.)       :      1.35258
Magnitude (Debye)      :      3.43799

Rotational constants in cm-1:     0.075057     0.019200     0.016664
Rotational constants in MHz :  2250.148021   575.603557   499.566521

                             ****ORCA TERMINATED NORMALLY****
TOTAL RUN TIME: 0 days 0 hours 22 minutes 37 seconds 892 msec
