                         Program Version 4.2.0 -  RELEASE  -
|  1> # ORCA input file
|  2> # SCF done        -41.039991375721          0.000442381853
|  3> ! B3LYP/G D3BJ Opt RIJCOSX def2-SVP def2/J
|  4> * xyz 0 1
|  5>    C        1.43931        -1.30203         0.26281
|  6>    S        2.69220        -0.13456         0.19691
|  7>    C        1.54293         1.14702        -0.08086
|  8>    C        0.25666         0.65499        -0.09734
|  9>    C        0.20461        -0.75365         0.09819
| 10>    C       -1.08110        -1.51971         0.16438
| 11>    C       -2.23487        -0.71234        -0.42591
| 12>    C       -2.24936         0.71781         0.13488
| 13>    C       -2.44774         0.65714         1.64801
| 14>    O       -3.53219         0.53210         2.14255
| 15>    O       -1.34906         0.73481         2.40908
| 16>    C       -0.98791         1.46855        -0.30346
| 17>    C        2.06783         2.48107        -0.23359
| 18>    C        1.45826         3.53562        -0.76797
| 19>    H        1.68361        -2.33342         0.42150
| 20>    H       -1.29946        -1.76134         1.21005
| 21>    H       -0.97542        -2.46749        -0.36751
| 22>    H       -3.18196        -1.20240        -0.19757
| 23>    H       -2.12960        -0.65797        -1.51176
| 24>    H       -3.13096         1.23242        -0.26015
| 25>    H       -0.53732         0.78751         1.87831
| 26>    H       -0.91021         2.42267         0.22716
| 27>    H       -1.08536         1.69850        -1.36958
| 28>    H        3.08794         2.58836         0.11521
| 29>    H        0.46752         3.49991        -1.18179
| 30>    H        1.96187         4.48477        -0.82624
| 31> *
| 32>
| 33>                          ****END OF INPUT****
 Total Charge           Charge          ....    0
 Multiplicity           Mult            ....    1
 Number of Electrons    NEL             ....  110
Dispersion correction           -0.059809672
FINAL SINGLE POINT ENERGY      -974.555705731772
Dispersion correction            ... done
Dispersion correction           -0.059083036
FINAL SINGLE POINT ENERGY      -974.558609287493
Dispersion correction            ... done
Dispersion correction           -0.058979963
FINAL SINGLE POINT ENERGY      -974.558642384067
Dispersion correction            ... done
FINAL SINGLE POINT ENERGY      -974.558730253307
FINAL SINGLE POINT ENERGY      -974.558760881217
FINAL SINGLE POINT ENERGY      -974.558760686346
Dispersion correction            ... done
Dispersion correction           -0.059088187
FINAL SINGLE POINT ENERGY      -974.558770136972
Dispersion correction            ... done
Dispersion correction           -0.059103755
FINAL SINGLE POINT ENERGY      -974.558773599165
Dispersion correction            ... done
                    ***********************HURRAY********************

CARTESIAN COORDINATES (ANGSTROEM)
---------------------------------
  C      1.472611   -1.331416    0.221150
  S      2.713282   -0.138487    0.189626
  C      1.562194    1.148663   -0.068220
  C      0.266092    0.642703   -0.120346
  C      0.220204   -0.784706    0.059095
  C     -1.078581   -1.549096    0.148854
  C     -2.269511   -0.744541   -0.385423
  C     -2.253244    0.712188    0.122945
  C     -2.458674    0.708502    1.640003
  O     -3.546885    0.592645    2.135746
  O     -1.356674    0.790352    2.415349
  C     -0.988981    1.448581   -0.351130
  C      2.083695    2.501968   -0.200392
  C      1.476656    3.579727   -0.727494
  H      1.721794   -2.378913    0.385116
  H     -1.262429   -1.808687    1.206450
  H     -0.993863   -2.507765   -0.385638
  H     -3.211694   -1.222167   -0.078017
  H     -2.254086   -0.727403   -1.488207
  H     -3.139640    1.225557   -0.275458
  H     -0.546070    0.828999    1.879205
  H     -0.911244    2.435066    0.133953
  H     -1.096002    1.657641   -1.430657
  H      3.105674    2.630601    0.174764
  H      0.478322    3.548218   -1.164289
  H      1.997273    4.540107   -0.751675

 Multiplicity           Mult            ....    1
 Number of Electrons    NEL             ....  110
 Basis Dimension        Dim             ....  260

ORBITAL ENERGIES
----------------

  NO   OCC          E(Eh)            E(eV)
   0   2.0000     -88.885624     -2418.7008
   1   2.0000     -19.173077      -521.7259
   2   2.0000     -19.110807      -520.0315
   3   2.0000     -10.308866      -280.5185
   4   2.0000     -10.232105      -278.4297
   5   2.0000     -10.221904      -278.1522
   6   2.0000     -10.217072      -278.0207
   7   2.0000     -10.214709      -277.9564
   8   2.0000     -10.213742      -277.9301
   9   2.0000     -10.213263      -277.9170
  10   2.0000     -10.211451      -277.8677
  11   2.0000     -10.206664      -277.7374
  12   2.0000     -10.205585      -277.7081
  13   2.0000     -10.202762      -277.6313
  14   2.0000      -7.980816      -217.1691
  15   2.0000      -5.948786      -161.8747
  16   2.0000      -5.944800      -161.7662
  17   2.0000      -5.942320      -161.6988
  18   2.0000      -1.084364       -29.5070
  19   2.0000      -1.001643       -27.2561
  20   2.0000      -0.901019       -24.5180
  21   2.0000      -0.837470       -22.7887
  22   2.0000      -0.800737       -21.7892
  23   2.0000      -0.763762       -20.7830
  24   2.0000      -0.752214       -20.4688
  25   2.0000      -0.705971       -19.2105
  26   2.0000      -0.654753       -17.8167
  27   2.0000      -0.632270       -17.2049
  28   2.0000      -0.610916       -16.6239
  29   2.0000      -0.598693       -16.2913
  30   2.0000      -0.570224       -15.5166
  31   2.0000      -0.540983       -14.7209
  32   2.0000      -0.502381       -13.6705
  33   2.0000      -0.491394       -13.3715
  34   2.0000      -0.475580       -12.9412
  35   2.0000      -0.470689       -12.8081
  36   2.0000      -0.459376       -12.5003
  37   2.0000      -0.443726       -12.0744
  38   2.0000      -0.432287       -11.7631
  39   2.0000      -0.428379       -11.6568
  40   2.0000      -0.418359       -11.3841
  41   2.0000      -0.413021       -11.2389
  42   2.0000      -0.405371       -11.0307
  43   2.0000      -0.404450       -11.0057
  44   2.0000      -0.382203       -10.4003
  45   2.0000      -0.374063       -10.1788
  46   2.0000      -0.359536        -9.7835
  47   2.0000      -0.354787        -9.6543
  48   2.0000      -0.344532        -9.3752
  49   2.0000      -0.337287        -9.1780
  50   2.0000      -0.312079        -8.4921
  51   2.0000      -0.310955        -8.4615
  52   2.0000      -0.267211        -7.2712
  53   2.0000      -0.259624        -7.0647
  54   2.0000      -0.231667        -6.3040
  55   0.0000      -0.059699        -1.6245
  56   0.0000       0.004098         0.1115
  57   0.0000       0.010248         0.2789
  58   0.0000       0.022549         0.6136
  59   0.0000       0.036071         0.9815

MULLIKEN ATOMIC CHARGES
-----------------------
   0 C :   -0.115444
   1 S :    0.121237
   2 C :   -0.154613
   3 C :   -0.145872
   4 C :   -0.053403
   5 C :    0.113456
   6 C :    0.047476
   7 C :   -0.100475
   8 C :    0.137760
   9 O :   -0.196126
  10 O :   -0.165996
  11 C :    0.121793
  12 C :    0.037886
  13 C :   -0.035942
  14 H :    0.017731
  15 H :    0.032730
  16 H :    0.006957
  17 H :    0.019430
  18 H :    0.013881
  19 H :    0.015307
  20 H :    0.183709
  21 H :    0.027383
  22 H :    0.027954
  23 H :   -0.005439
  24 H :    0.019415
  25 H :    0.029206
Sum of atomic charges:   -0.0000000

LOEWDIN ATOMIC CHARGES
----------------------
   0 C :   -0.194275
   1 S :    0.445466
   2 C :   -0.183242
   3 C :   -0.089976
   4 C :   -0.069609
   5 C :   -0.027830
   6 C :   -0.012164
   7 C :   -0.062397
   8 C :    0.079905
   9 O :   -0.165177
  10 O :   -0.031877
  11 C :   -0.029282
  12 C :   -0.042427
  13 C :   -0.048085
  14 H :    0.025961
  15 H :    0.036486
  16 H :    0.034471
  17 H :    0.032291
  18 H :    0.025085
  19 H :    0.042154
  20 H :    0.081949
  21 H :    0.031993
  22 H :    0.038584
  23 H :    0.030482
  24 H :    0.021863
  25 H :    0.029652

  Mayer bond orders larger than 0.100000
B(  0-C ,  1-S ) :   1.1574 B(  0-C ,  4-C ) :   1.5454 B(  0-C , 14-H ) :   0.9657
B(  1-S ,  2-C ) :   1.1457 B(  2-C ,  3-C ) :   1.4789 B(  2-C , 12-C ) :   1.1091
B(  3-C ,  4-C ) :   1.2723 B(  3-C , 11-C ) :   1.0437 B(  4-C ,  5-C ) :   1.0352
B(  5-C ,  6-C ) :   1.0908 B(  5-C , 15-H ) :   0.9121 B(  5-C , 16-H ) :   0.9117
B(  6-C ,  7-C ) :   1.0461 B(  6-C , 17-H ) :   0.9298 B(  6-C , 18-H ) :   0.9438
B(  7-C ,  8-C ) :   0.9241 B(  7-C , 11-C ) :   1.0122 B(  7-C , 19-H ) :   0.8940
B(  8-C ,  9-O ) :   2.1557 B(  8-C , 10-O ) :   1.2016 B( 10-O , 20-H ) :   0.9444
B( 11-C , 21-H ) :   0.9203 B( 11-C , 22-H ) :   0.8925 B( 12-C , 13-C ) :   1.9175
B( 12-C , 23-H ) :   0.9404 B( 13-C , 24-H ) :   0.9509 B( 13-C , 25-H ) :   0.9403

Dispersion correction           -0.059111170
FINAL SINGLE POINT ENERGY      -974.558781563951

DIPOLE MOMENT
-------------
                                X             Y             Z
Electronic contribution:      5.81381      -2.34250       4.71866
Nuclear contribution   :     -4.73607       2.22177      -6.00874
                        -----------------------------------------
Total Dipole Moment    :      1.07775      -0.12073      -1.29009
                        -----------------------------------------
Magnitude (a.u.)       :      1.68536
Magnitude (Debye)      :      4.28384

Rotational constants in cm-1:     0.032940     0.015757     0.012867
Rotational constants in MHz :   987.517949   472.372307   385.728067

                             ****ORCA TERMINATED NORMALLY****
TOTAL RUN TIME: 0 days 0 hours 18 minutes 21 seconds 583 msec
