                         Program Version 4.2.0 -  RELEASE  -
|  1> # ORCA input file
|  2> # SCF done        -26.310142666263          0.000410595630
|  3> ! B3LYP/G D3BJ Opt RIJCOSX def2-SVP def2/J
|  4> * xyz 0 1
|  5>    C        1.59392        -1.16482         0.00133
|  6>    C        0.31287        -0.74638         0.00137
|  7>    C       -0.92794        -1.46174         0.00308
|  8>    C       -2.08735        -0.77325         0.00254
|  9>    C       -2.11810         0.66858         0.00033
| 10>    C       -0.98909         1.40587        -0.00133
| 11>    C        0.28109         0.74404        -0.00092
| 12>    C        1.54315         1.21666        -0.00233
| 13>    C        2.47133         0.04513        -0.00050
| 14>    O        3.67761         0.07090        -0.00115
| 15>    H        1.97293        -2.16824         0.00253
| 16>    H       -0.90671        -2.54121         0.00465
| 17>    H       -3.03404        -1.29348         0.00363
| 18>    H       -3.08610         1.14796        -0.00012
| 19>    H       -1.01392         2.48527        -0.00308
| 20>    H        1.87916         2.23529        -0.00425
| 21> *
| 22>
| 23>                          ****END OF INPUT****
 Total Charge           Charge          ....    0
 Multiplicity           Mult            ....    1
 Number of Electrons    NEL             ....   68
Dispersion correction           -0.031891398
FINAL SINGLE POINT ENERGY      -421.454462645855
Dispersion correction            ... done
Dispersion correction           -0.031749894
FINAL SINGLE POINT ENERGY      -421.456916099967
Dispersion correction            ... done
Dispersion correction           -0.031729179
FINAL SINGLE POINT ENERGY      -421.456980395506
Dispersion correction            ... done
Dispersion correction           -0.031725182
FINAL SINGLE POINT ENERGY      -421.456983103261
Dispersion correction            ... done
Dispersion correction           -0.031725269
FINAL SINGLE POINT ENERGY      -421.456987507227
Dispersion correction            ... done
                    ***********************HURRAY********************

CARTESIAN COORDINATES (ANGSTROEM)
---------------------------------
  C      1.607002   -1.182633    0.001331
  C      0.320588   -0.756888    0.001341
  C     -0.932875   -1.477919    0.003019
  C     -2.099313   -0.783660    0.002475
  C     -2.130385    0.678149    0.000213
  C     -0.994834    1.421992   -0.001398
  C      0.288601    0.755729   -0.000928
  C      1.555980    1.235402   -0.002225
  C      2.482668    0.045170   -0.000649
  O      3.693483    0.069993   -0.001307
  H      1.990874   -2.200794    0.002660
  H     -0.920580   -2.570327    0.004824
  H     -3.052360   -1.317789    0.003823
  H     -3.105358    1.171376   -0.000177
  H     -1.031230    2.513829   -0.003156
  H      1.896548    2.268949   -0.004065

 Multiplicity           Mult            ....    1
 Number of Electrons    NEL             ....   68
 Basis Dimension        Dim             ....  170

ORBITAL ENERGIES
----------------

  NO   OCC          E(Eh)            E(eV)
   0   2.0000     -19.142069      -520.8822
   1   2.0000     -10.279134      -279.7094
   2   2.0000     -10.219003      -278.0732
   3   2.0000     -10.218854      -278.0691
   4   2.0000     -10.216900      -278.0160
   5   2.0000     -10.216771      -278.0125
   6   2.0000     -10.212957      -277.9087
   7   2.0000     -10.212855      -277.9059
   8   2.0000     -10.194546      -277.4077
   9   2.0000     -10.194439      -277.4048
  10   2.0000      -1.040914       -28.3247
  11   2.0000      -0.883787       -24.0491
  12   2.0000      -0.820197       -22.3187
  13   2.0000      -0.775228       -21.0950
  14   2.0000      -0.705538       -19.1987
  15   2.0000      -0.690814       -18.7980
  16   2.0000      -0.598428       -16.2840
  17   2.0000      -0.585206       -15.9243
  18   2.0000      -0.550379       -14.9766
  19   2.0000      -0.518477       -14.1085
  20   2.0000      -0.488861       -13.3026
  21   2.0000      -0.473342       -12.8803
  22   2.0000      -0.453656       -12.3446
  23   2.0000      -0.429129       -11.6772
  24   2.0000      -0.425825       -11.5873
  25   2.0000      -0.424079       -11.5398
  26   2.0000      -0.414165       -11.2700
  27   2.0000      -0.391234       -10.6460
  28   2.0000      -0.382301       -10.4029
  29   2.0000      -0.350391        -9.5346
  30   2.0000      -0.307668        -8.3721
  31   2.0000      -0.303881        -8.2690
  32   2.0000      -0.262057        -7.1309
  33   2.0000      -0.212530        -5.7832
  34   0.0000      -0.129386        -3.5208
  35   0.0000      -0.014622        -0.3979
  36   0.0000       0.010785         0.2935
  37   0.0000       0.054597         1.4857
  38   0.0000       0.081243         2.2107

MULLIKEN ATOMIC CHARGES
-----------------------
   0 C :   -0.102009
   1 C :    0.082160
   2 C :    0.022425
   3 C :    0.025207
   4 C :    0.024550
   5 C :    0.022687
   6 C :    0.084773
   7 C :   -0.103083
   8 C :    0.157125
   9 O :   -0.146771
  10 H :   -0.014552
  11 H :   -0.013554
  12 H :   -0.004966
  13 H :   -0.005629
  14 H :   -0.013852
  15 H :   -0.014508
Sum of atomic charges:    0.0000000

LOEWDIN ATOMIC CHARGES
----------------------
   0 C :   -0.063272
   1 C :    0.002871
   2 C :   -0.014941
   3 C :   -0.011080
   4 C :   -0.011027
   5 C :   -0.014871
   6 C :    0.003112
   7 C :   -0.063660
   8 C :    0.084539
   9 O :   -0.100386
  10 H :    0.029144
  11 H :    0.033808
  12 H :    0.031464
  13 H :    0.031324
  14 H :    0.033763
  15 H :    0.029211

  Mayer bond orders larger than 0.100000
B(  0-C ,  1-C ) :   1.5995 B(  0-C ,  8-C ) :   0.9472 B(  0-C , 10-H ) :   1.0141
B(  1-C ,  2-C ) :   1.0893 B(  1-C ,  6-C ) :   1.0154 B(  2-C ,  3-C ) :   1.6546
B(  2-C , 11-H ) :   0.9924 B(  3-C ,  4-C ) :   1.0788 B(  3-C , 12-H ) :   0.9789
B(  4-C ,  5-C ) :   1.6551 B(  4-C , 13-H ) :   0.9790 B(  5-C ,  6-C ) :   1.0890
B(  5-C , 14-H ) :   0.9923 B(  6-C ,  7-C ) :   1.5991 B(  7-C ,  8-C ) :   0.9469
B(  7-C , 15-H ) :   1.0139 B(  8-C ,  9-O ) :   2.1282

Dispersion correction           -0.031726302
FINAL SINGLE POINT ENERGY      -421.456987261041

DIPOLE MOMENT
-------------
                                X             Y             Z
Electronic contribution:      4.85538       0.10314      -0.00200
Nuclear contribution   :     -6.33520      -0.13438       0.00273
                        -----------------------------------------
Total Dipole Moment    :     -1.47982      -0.03124       0.00072
                        -----------------------------------------
Magnitude (a.u.)       :      1.48015
Magnitude (Debye)      :      3.76224

Rotational constants in cm-1:     0.121739     0.034465     0.026861
Rotational constants in MHz :  3649.658049  1033.242620   805.266334

                             ****ORCA TERMINATED NORMALLY****
TOTAL RUN TIME: 0 days 0 hours 6 minutes 0 seconds 731 msec
