                         Program Version 4.2.0 -  RELEASE  -
|  1> # ORCA input file
|  2> # SCF done        -43.627000299454          0.000305364522
|  3> ! B3LYP/G D3BJ Opt RIJCOSX def2-SVP def2/J
|  4> * xyz 0 1
|  5>    C       -2.68884         0.17350        -0.03906
|  6>    C       -2.97012        -1.14504        -0.09455
|  7>    S       -1.56334        -2.14958        -0.14948
|  8>    C       -0.54734        -0.74222        -0.09238
|  9>    C       -1.28778         0.44938        -0.03589
| 10>    C       -0.63255         1.70242         0.01489
| 11>    C       -1.48717         2.94139         0.07452
| 12>    C       -1.90686         3.24792         1.51385
| 13>    C        0.74798         1.75033         0.04318
| 14>    C        1.51260         3.04647         0.10835
| 15>    C        1.89709         3.52294        -1.29408
| 16>    C        1.49120         0.54863        -0.03191
| 17>    C        2.90838         0.37488        -0.05624
| 18>    C        3.28328        -0.91880        -0.13735
| 19>    S        1.95201        -2.02174        -0.18749
| 20>    C        0.83795        -0.69233        -0.09964
| 21>    H       -3.45349         0.92758         0.00413
| 22>    H       -3.93481        -1.61353        -0.10672
| 23>    H       -2.37836         2.79245        -0.53713
| 24>    H       -0.95366         3.79627        -0.33918
| 25>    H       -2.47008         2.41628         1.93093
| 26>    H       -2.52804         4.14050         1.54661
| 27>    H       -1.03229         3.41045         2.13989
| 28>    H        2.41743         2.90021         0.70024
| 29>    H        0.92431         3.81586         0.60684
| 30>    H        2.49825         2.77023        -1.79891
| 31>    H        2.46906         4.44666        -1.23912
| 32>    H        1.00703         3.70085        -1.89372
| 33>    H        3.61715         1.18210        -0.02104
| 34>    H        4.27900        -1.31566        -0.17395
| 35> *
| 36>
| 37>                          ****END OF INPUT****
 Total Charge           Charge          ....    0
 Multiplicity           Mult            ....    1
 Number of Electrons    NEL             ....  130
Dispersion correction           -0.074702883
FINAL SINGLE POINT ENERGY     -1337.781020224233
Dispersion correction            ... done
Dispersion correction           -0.074065617
FINAL SINGLE POINT ENERGY     -1337.785442692884
Dispersion correction            ... done
Dispersion correction           -0.073962074
FINAL SINGLE POINT ENERGY     -1337.785565502375
Dispersion correction            ... done
FINAL SINGLE POINT ENERGY     -1337.785564927033
Dispersion correction            ... done
Dispersion correction           -0.073929954
FINAL SINGLE POINT ENERGY     -1337.785575560173
Dispersion correction            ... done
Dispersion correction           -0.073935739
FINAL SINGLE POINT ENERGY     -1337.785579268655
Dispersion correction            ... done
                    ***********************HURRAY********************

CARTESIAN COORDINATES (ANGSTROEM)
---------------------------------
  C     -2.717957    0.156389   -0.058985
  C     -3.003825   -1.174751   -0.132904
  S     -1.575433   -2.176065   -0.184598
  C     -0.554705   -0.761874   -0.105203
  C     -1.301133    0.437068   -0.040072
  C     -0.643566    1.705087    0.026063
  C     -1.503029    2.949619    0.127660
  C     -1.927003    3.267741    1.569875
  C      0.752240    1.754615    0.038446
  C      1.519367    3.061439    0.062660
  C      1.930674    3.529580   -1.341803
  C      1.500816    0.538168   -0.031694
  C      2.934274    0.363155   -0.039969
  C      3.317402   -0.943555   -0.112266
  S      1.967390   -2.046789   -0.177927
  C      0.844501   -0.711580   -0.103078
  H     -3.492904    0.921153   -0.017114
  H     -3.985389   -1.645449   -0.163894
  H     -2.402664    2.815885   -0.492912
  H     -0.977523    3.813389   -0.302605
  H     -2.460793    2.416017    2.020146
  H     -2.591335    4.145955    1.610873
  H     -1.049746    3.475174    2.201859
  H      2.419878    2.941287    0.685204
  H      0.926279    3.845161    0.554213
  H      2.543264    2.768061   -1.849441
  H      2.513726    4.463597   -1.300116
  H      1.044307    3.707738   -1.969943
  H      3.649557    1.183142    0.010902
  H      4.331318   -1.340958   -0.127788

 Multiplicity           Mult            ....    1
 Number of Electrons    NEL             ....  130
 Basis Dimension        Dim             ....  302

ORBITAL ENERGIES
----------------

  NO   OCC          E(Eh)            E(eV)
   0   2.0000     -88.871089     -2418.3053
   1   2.0000     -88.870945     -2418.3014
   2   2.0000     -10.218222      -278.0520
   3   2.0000     -10.217889      -278.0429
   4   2.0000     -10.215845      -277.9873
   5   2.0000     -10.215819      -277.9866
   6   2.0000     -10.196477      -277.4602
   7   2.0000     -10.196319      -277.4560
   8   2.0000     -10.195280      -277.4277
   9   2.0000     -10.195112      -277.4231
  10   2.0000     -10.194691      -277.4116
  11   2.0000     -10.194320      -277.4015
  12   2.0000     -10.191094      -277.3138
  13   2.0000     -10.190849      -277.3071
  14   2.0000     -10.183501      -277.1071
  15   2.0000     -10.183425      -277.1051
  16   2.0000      -7.965913      -216.7635
  17   2.0000      -7.965820      -216.7610
  18   2.0000      -5.934311      -161.4808
  19   2.0000      -5.934240      -161.4789
  20   2.0000      -5.930268      -161.3708
  21   2.0000      -5.930217      -161.3694
  22   2.0000      -5.926636      -161.2720
  23   2.0000      -5.926527      -161.2690
  24   2.0000      -0.897892       -24.4329
  25   2.0000      -0.866032       -23.5659
  26   2.0000      -0.826259       -22.4836
  27   2.0000      -0.773501       -21.0480
  28   2.0000      -0.768410       -20.9095
  29   2.0000      -0.743572       -20.2336
  30   2.0000      -0.727486       -19.7959
  31   2.0000      -0.693923       -18.8826
  32   2.0000      -0.692141       -18.8341
  33   2.0000      -0.634147       -17.2560
  34   2.0000      -0.613162       -16.6850
  35   2.0000      -0.598927       -16.2976
  36   2.0000      -0.563324       -15.3288
  37   2.0000      -0.553217       -15.0538
  38   2.0000      -0.537795       -14.6341
  39   2.0000      -0.526526       -14.3275
  40   2.0000      -0.469053       -12.7636
  41   2.0000      -0.459841       -12.5129
  42   2.0000      -0.457862       -12.4591
  43   2.0000      -0.445418       -12.1204
  44   2.0000      -0.428232       -11.6528
  45   2.0000      -0.424950       -11.5635
  46   2.0000      -0.416885       -11.3440
  47   2.0000      -0.408622       -11.1192
  48   2.0000      -0.406783       -11.0691
  49   2.0000      -0.397769       -10.8239
  50   2.0000      -0.384151       -10.4533
  51   2.0000      -0.379492       -10.3265
  52   2.0000      -0.372217       -10.1286
  53   2.0000      -0.367472        -9.9994
  54   2.0000      -0.359480        -9.7820
  55   2.0000      -0.352692        -9.5972
  56   2.0000      -0.352603        -9.5948
  57   2.0000      -0.346159        -9.4195
  58   2.0000      -0.336173        -9.1477
  59   2.0000      -0.318958        -8.6793
  60   2.0000      -0.302939        -8.2434
  61   2.0000      -0.279576        -7.6076
  62   2.0000      -0.260503        -7.0886
  63   2.0000      -0.213168        -5.8006
  64   2.0000      -0.212970        -5.7952
  65   0.0000      -0.040141        -1.0923
  66   0.0000      -0.012870        -0.3502
  67   0.0000       0.016441         0.4474
  68   0.0000       0.017016         0.4630
  69   0.0000       0.052710         1.4343

MULLIKEN ATOMIC CHARGES
-----------------------
   0 C :   -0.001225
   1 C :   -0.062439
   2 S :    0.106460
   3 C :   -0.133147
   4 C :    0.070923
   5 C :   -0.099225
   6 C :    0.057328
   7 C :    0.017015
   8 C :   -0.097081
   9 C :    0.051025
  10 C :    0.018312
  11 C :    0.068577
  12 C :   -0.000716
  13 C :   -0.061069
  14 S :    0.107044
  15 C :   -0.130269
  16 H :   -0.012785
  17 H :    0.024255
  18 H :   -0.001788
  19 H :   -0.004493
  20 H :    0.013096
  21 H :    0.014329
  22 H :    0.010224
  23 H :   -0.000233
  24 H :   -0.002511
  25 H :    0.014041
  26 H :    0.012807
  27 H :    0.010597
  28 H :   -0.013437
  29 H :    0.024384
Sum of atomic charges:   -0.0000000

LOEWDIN ATOMIC CHARGES
----------------------
   0 C :   -0.064570
   1 C :   -0.172550
   2 S :    0.395870
   3 C :   -0.180339
   4 C :   -0.047373
   5 C :   -0.024314
   6 C :   -0.027374
   7 C :   -0.051214
   8 C :   -0.024156
   9 C :   -0.028144
  10 C :   -0.051132
  11 C :   -0.047477
  12 C :   -0.064267
  13 C :   -0.172635
  14 S :    0.396143
  15 C :   -0.180341
  16 H :    0.029188
  17 H :    0.025441
  18 H :    0.024529
  19 H :    0.023481
  20 H :    0.023650
  21 H :    0.022809
  22 H :    0.022579
  23 H :    0.024682
  24 H :    0.023772
  25 H :    0.023680
  26 H :    0.022604
  27 H :    0.022891
  28 H :    0.029099
  29 H :    0.025467

  Mayer bond orders larger than 0.100000
B(  0-C ,  1-C ) :   1.6086 B(  0-C ,  4-C ) :   1.1934 B(  0-C , 16-H ) :   0.9796
B(  1-C ,  2-S ) :   1.1110 B(  1-C , 17-H ) :   0.9637 B(  2-S ,  3-C ) :   1.0752
B(  3-C ,  4-C ) :   1.3550 B(  3-C , 15-C ) :   1.3946 B(  4-C ,  5-C ) :   1.2420
B(  5-C ,  6-C ) :   1.0820 B(  5-C ,  8-C ) :   1.5041 B(  6-C ,  7-C ) :   1.1124
B(  6-C , 18-H ) :   0.9110 B(  6-C , 19-H ) :   0.9133 B(  7-C , 20-H ) :   0.9651
B(  7-C , 21-H ) :   0.9643 B(  7-C , 22-H ) :   0.9634 B(  8-C ,  9-C ) :   1.0855
B(  8-C , 11-C ) :   1.2406 B(  9-C , 10-C ) :   1.1139 B(  9-C , 23-H ) :   0.9103
B(  9-C , 24-H ) :   0.9131 B( 10-C , 25-H ) :   0.9650 B( 10-C , 26-H ) :   0.9631
B( 10-C , 27-H ) :   0.9629 B( 11-C , 12-C ) :   1.1958 B( 11-C , 15-C ) :   1.3548
B( 12-C , 13-C ) :   1.6063 B( 12-C , 28-H ) :   0.9803 B( 13-C , 14-S ) :   1.1113
B( 13-C , 29-H ) :   0.9632 B( 14-S , 15-C ) :   1.0738

Dispersion correction           -0.073935481
FINAL SINGLE POINT ENERGY     -1337.785576500895

DIPOLE MOMENT
-------------
                                X             Y             Z
Electronic contribution:      0.97606     -27.36131      -1.44761
Nuclear contribution   :     -0.99612      27.91970       1.47768
                        -----------------------------------------
Total Dipole Moment    :     -0.02006       0.55838       0.03007
                        -----------------------------------------
Magnitude (a.u.)       :      0.55955
Magnitude (Debye)      :      1.42227

Rotational constants in cm-1:     0.016459     0.015620     0.008539
Rotational constants in MHz :   493.436563   468.272210   256.003394

                             ****ORCA TERMINATED NORMALLY****
TOTAL RUN TIME: 0 days 0 hours 18 minutes 6 seconds 500 msec
