                         Program Version 4.2.0 -  RELEASE  -
|  1> # ORCA input file
|  2> # SCF done        -29.013812398844          0.000946323018
|  3> ! B3LYP/G D3BJ Opt RIJCOSX def2-SVP def2/J
|  4> * xyz 0 2
|  5>    C        1.15811         0.34201        -0.08520
|  6>    S        0.69616        -1.29165         0.03239
|  7>    C       -1.01322        -0.99508         0.06210
|  8>    C       -1.40432         0.32406         0.09487
|  9>    S       -0.09264         1.51594         0.09082
| 10>    C       -2.77324         0.82381         0.14391
| 11>    O       -3.75213         0.09460         0.16198
| 12>    C       -2.89546         2.32675         0.17278
| 13>    C       -1.91420        -2.12131         0.06594
| 14>    C       -1.52260        -3.39346         0.07948
| 15>    H        2.18397         0.62738         0.01068
| 16>    H       -2.45390         2.75609        -0.72550
| 17>    H       -2.36475         2.72921         1.03504
| 18>    H       -3.94538         2.60113         0.22904
| 19>    H       -2.96292        -1.85760         0.06078
| 20>    H       -0.48099        -3.67461         0.08771
| 21>    H       -2.23893        -4.19529         0.08099
| 22> *
| 23>
| 24>                          ****END OF INPUT****
 Total Charge           Charge          ....    0
 Multiplicity           Mult            ....    2
 Number of Electrons    NEL             ....   89
Dispersion correction           -0.039499688
FINAL SINGLE POINT ENERGY     -1142.048650141077
Dispersion correction            ... done
Dispersion correction           -0.039096622
FINAL SINGLE POINT ENERGY     -1142.051764718531
Dispersion correction            ... done
Dispersion correction           -0.039018636
FINAL SINGLE POINT ENERGY     -1142.052108757450
Dispersion correction            ... done
FINAL SINGLE POINT ENERGY     -1142.052253219392
FINAL SINGLE POINT ENERGY     -1142.052235913345
FINAL SINGLE POINT ENERGY     -1142.052255883875
Dispersion correction            ... done
Dispersion correction           -0.039016828
FINAL SINGLE POINT ENERGY     -1142.052268914172
Dispersion correction            ... done
Dispersion correction           -0.039016540
FINAL SINGLE POINT ENERGY     -1142.052266674747
Dispersion correction            ... done
                    ***********************HURRAY********************

CARTESIAN COORDINATES (ANGSTROEM)
---------------------------------
  C      1.216475    0.354506   -0.140451
  S      0.729372   -1.314120   -0.003060
  C     -1.003227   -1.001264    0.047480
  C     -1.380456    0.323106    0.064710
  S     -0.068513    1.516025    0.038302
  C     -2.777061    0.845307    0.123328
  O     -3.755868    0.119584    0.127007
  C     -2.929177    2.352126    0.180003
  C     -1.910899   -2.142222    0.083946
  C     -1.528747   -3.430484    0.079834
  H      2.231133    0.637489    0.141378
  H     -2.508083    2.818223   -0.726216
  H     -2.379396    2.771053    1.038889
  H     -3.994155    2.599921    0.262990
  H     -2.966441   -1.870422    0.122019
  H     -0.479452   -3.737171    0.037810
  H     -2.271944   -4.229677    0.119840

 Multiplicity           Mult            ....    2
 Number of Electrons    NEL             ....   89
 Basis Dimension        Dim             ....  183

ORBITAL ENERGIES
----------------
                 SPIN UP ORBITALS
  NO   OCC          E(Eh)            E(eV)
   0   1.0000     -88.886547     -2418.7259
   1   1.0000     -88.884807     -2418.6786
   2   1.0000     -19.130960      -520.5799
   3   1.0000     -10.290119      -280.0084
   4   1.0000     -10.252564      -278.9865
   5   1.0000     -10.237101      -278.5657
   6   1.0000     -10.230575      -278.3881
   7   1.0000     -10.209188      -277.8061
   8   1.0000     -10.207074      -277.7486
   9   1.0000     -10.199770      -277.5499
  10   1.0000      -7.981071      -217.1760
  11   1.0000      -7.978767      -217.1133
  12   1.0000      -5.949470      -161.8933
  13   1.0000      -5.947346      -161.8355
  14   1.0000      -5.945281      -161.7793
  15   1.0000      -5.943038      -161.7183
  16   1.0000      -5.942552      -161.7051
  17   1.0000      -5.940292      -161.6436
  18   1.0000      -1.038938       -28.2709
  19   1.0000      -0.895832       -24.3768
  20   1.0000      -0.808236       -21.9932
  21   1.0000      -0.785076       -21.3630
  22   1.0000      -0.741250       -20.1704
  23   1.0000      -0.732579       -19.9345
  24   1.0000      -0.628801       -17.1105
  25   1.0000      -0.614081       -16.7100
  26   1.0000      -0.570974       -15.5370
  27   1.0000      -0.526816       -14.3354
  28   1.0000      -0.491532       -13.3753
  29   1.0000      -0.460415       -12.5285
  30   1.0000      -0.457900       -12.4601
  31   1.0000      -0.444646       -12.0994
  32   1.0000      -0.437087       -11.8937
  33   1.0000      -0.430612       -11.7175
  34   1.0000      -0.408366       -11.1122
  35   1.0000      -0.405932       -11.0460
  36   1.0000      -0.389430       -10.5969
  37   1.0000      -0.377050       -10.2601
  38   1.0000      -0.371227       -10.1016
  39   1.0000      -0.340619        -9.2687
  40   1.0000      -0.330605        -8.9962
  41   1.0000      -0.298317        -8.1176
  42   1.0000      -0.263156        -7.1608
  43   1.0000      -0.258176        -7.0253
  44   1.0000      -0.159207        -4.3322
  45   0.0000      -0.087641        -2.3848
  46   0.0000      -0.012427        -0.3382
  47   0.0000       0.007354         0.2001
  48   0.0000       0.059881         1.6294
  49   0.0000       0.068074         1.8524

                 SPIN DOWN ORBITALS
  NO   OCC          E(Eh)            E(eV)
   0   1.0000     -88.885616     -2418.7006
   1   1.0000     -88.883697     -2418.6483
   2   1.0000     -19.130407      -520.5648
   3   1.0000     -10.290069      -280.0070
   4   1.0000     -10.253027      -278.9990
   5   1.0000     -10.236754      -278.5562
   6   1.0000     -10.219173      -278.0778
   7   1.0000     -10.208981      -277.8005
   8   1.0000     -10.207341      -277.7559
   9   1.0000     -10.199772      -277.5499
  10   1.0000      -7.980165      -217.1513
  11   1.0000      -7.977691      -217.0840
  12   1.0000      -5.949016      -161.8810
  13   1.0000      -5.946803      -161.8207
  14   1.0000      -5.944834      -161.7672
  15   1.0000      -5.942502      -161.7037
  16   1.0000      -5.939401      -161.6193
  17   1.0000      -5.936542      -161.5415
  18   1.0000      -1.038044       -28.2466
  19   1.0000      -0.891106       -24.2482
  20   1.0000      -0.805450       -21.9174
  21   1.0000      -0.779657       -21.2155
  22   1.0000      -0.738286       -20.0898
  23   1.0000      -0.730116       -19.8675
  24   1.0000      -0.627927       -17.0868
  25   1.0000      -0.602289       -16.3891
  26   1.0000      -0.567334       -15.4379
  27   1.0000      -0.525295       -14.2940
  28   1.0000      -0.490472       -13.3464
  29   1.0000      -0.457981       -12.4623
  30   1.0000      -0.456154       -12.4126
  31   1.0000      -0.443961       -12.0808
  32   1.0000      -0.435244       -11.8436
  33   1.0000      -0.423991       -11.5374
  34   1.0000      -0.406853       -11.0710
  35   1.0000      -0.398514       -10.8441
  36   1.0000      -0.387286       -10.5386
  37   1.0000      -0.375515       -10.2183
  38   1.0000      -0.365622        -9.9491
  39   1.0000      -0.335108        -9.1188
  40   1.0000      -0.315760        -8.5923
  41   1.0000      -0.279189        -7.5971
  42   1.0000      -0.262475        -7.1423
  43   1.0000      -0.244949        -6.6654
  44   0.0000      -0.085611        -2.3296
  45   0.0000      -0.057280        -1.5587
  46   0.0000      -0.006612        -0.1799
  47   0.0000       0.010292         0.2801
  48   0.0000       0.063977         1.7409

MULLIKEN ATOMIC CHARGES AND SPIN POPULATIONS
--------------------------------------------
   0 C :   -0.180028    0.705831
   1 S :    0.109770    0.141328
   2 C :   -0.060316   -0.035182
   3 C :   -0.096908    0.018421
   4 S :    0.091101    0.170788
   5 C :    0.031537    0.002952
   6 O :   -0.199003    0.018999
   7 C :    0.025106   -0.001596
   8 C :   -0.006475    0.017349
   9 C :   -0.016546   -0.019013
  10 H :    0.074101   -0.024175
  11 H :    0.045528    0.001781
  12 H :    0.042552    0.002536
  13 H :    0.035279   -0.000239
  14 H :    0.033580   -0.000879
  15 H :    0.032216    0.000236
  16 H :    0.038505    0.000863
Sum of atomic charges         :   -0.0000000

LOEWDIN ATOMIC CHARGES AND SPIN POPULATIONS
-------------------------------------------
   0 C :   -0.424249    0.625591
   1 S :    0.405681    0.159519
   2 C :   -0.135591   -0.022230
   3 C :   -0.228309    0.017914
   4 S :    0.388218    0.188825
   5 C :    0.066330    0.004987
   6 O :   -0.152482    0.018494
   7 C :   -0.083458   -0.000043
   8 C :   -0.040228    0.011820
   9 C :   -0.024334   -0.015133
  10 H :    0.015737    0.007635
  11 H :    0.041389    0.001229
  12 H :    0.038034    0.001694
  13 H :    0.039914   -0.000139
  14 H :    0.040563   -0.000127
  15 H :    0.019494   -0.000091
  16 H :    0.033291    0.000054

  Mayer bond orders larger than 0.100000
B(  0-C ,  1-S ) :   1.1376 B(  0-C ,  4-S ) :   1.1490 B(  0-C , 10-H ) :   0.9622
B(  1-S ,  2-C ) :   1.0875 B(  2-C ,  3-C ) :   1.5891 B(  2-C ,  8-C ) :   1.1652
B(  3-C ,  4-S ) :   1.0484 B(  3-C ,  5-C ) :   0.9949 B(  5-C ,  6-O ) :   2.0843
B(  5-C ,  7-C ) :   1.0687 B(  7-C , 11-H ) :   0.9412 B(  7-C , 12-H ) :   0.9421
B(  7-C , 13-H ) :   0.9480 B(  8-C ,  9-C ) :   1.8695 B(  8-C , 14-H ) :   0.9410
B(  9-C , 15-H ) :   0.9474 B(  9-C , 16-H ) :   0.9471

Dispersion correction           -0.039015663
FINAL SINGLE POINT ENERGY     -1142.052265862806

DIPOLE MOMENT
-------------
                                X             Y             Z
Electronic contribution:      5.56610       0.15095      -0.40196
Nuclear contribution   :     -5.00227       0.00211       0.57641
                        -----------------------------------------
Total Dipole Moment    :      0.56383       0.15305       0.17445
                        -----------------------------------------
Magnitude (a.u.)       :      0.60972
Magnitude (Debye)      :      1.54979

Rotational constants in cm-1:     0.043167     0.032682     0.018676
Rotational constants in MHz :  1294.124955   979.783709   559.880050

                             ****ORCA TERMINATED NORMALLY****
TOTAL RUN TIME: 0 days 0 hours 12 minutes 23 seconds 310 msec
