                         Program Version 4.2.0 -  RELEASE  -
|  1> # ORCA input file
|  2> # SCF done        -38.742147519566          0.000395388194
|  3> ! B3LYP/G D3BJ Opt RIJCOSX def2-SVP def2/J
|  4> * xyz 0 1
|  5>    C       -1.00188         0.01530         0.72574
|  6>    O       -1.01541        -1.32435         0.93343
|  7>    C       -0.05572        -1.82089         0.16161
|  8>    C        0.59158        -0.81995        -0.55445
|  9>    C       -0.03883         0.38377        -0.17570
| 10>    C        1.66259        -1.40523        -1.41159
| 11>    O        2.42122        -0.84964        -2.16051
| 12>    C        1.55208        -2.86373        -1.10057
| 13>    C        0.53569        -3.08269        -0.17456
| 14>    O        0.41275        -4.36980         0.11913
| 15>    C        1.35927        -5.02601        -0.61888
| 16>    C        2.08590        -4.12804        -1.38759
| 17>    C        1.43505        -6.45438        -0.48104
| 18>    C        2.29935        -7.23860        -1.12085
| 19>    H       -1.71915         0.59442         1.27209
| 20>    H        0.17842         1.37600        -0.51234
| 21>    H        2.88568        -4.36622        -2.05698
| 22>    H        0.71298        -6.87329         0.20675
| 23>    H        3.02570        -6.84333        -1.80898
| 24>    H        2.30215        -8.30346        -0.97286
| 25> *
| 26>
| 27>                          ****END OF INPUT****
 Total Charge           Charge          ....    0
 Multiplicity           Mult            ....    1
 Number of Electrons    NEL             ....   96
Dispersion correction           -0.038249544
FINAL SINGLE POINT ENERGY      -647.912549137199
Dispersion correction            ... done
Dispersion correction           -0.038339583
FINAL SINGLE POINT ENERGY      -647.916274674788
Dispersion correction            ... done
Dispersion correction           -0.038329132
FINAL SINGLE POINT ENERGY      -647.916669627558
Dispersion correction            ... done
FINAL SINGLE POINT ENERGY      -647.916820960491
FINAL SINGLE POINT ENERGY      -647.916844595005
Dispersion correction            ... done
Dispersion correction           -0.038301860
FINAL SINGLE POINT ENERGY      -647.916853739875
Dispersion correction            ... done
Dispersion correction           -0.038304595
FINAL SINGLE POINT ENERGY      -647.916849768253
Dispersion correction            ... done
                    ***********************HURRAY********************

CARTESIAN COORDINATES (ANGSTROEM)
---------------------------------
  C     -1.031639    0.031676    0.748008
  O     -1.012522   -1.337753    0.927316
  C     -0.036006   -1.794731    0.142842
  C      0.590658   -0.779055   -0.550149
  C     -0.064949    0.422501   -0.148357
  C      1.674101   -1.371281   -1.425058
  O      2.432491   -0.808850   -2.174711
  C      1.575233   -2.854460   -1.129602
  C      0.571024   -3.066631   -0.204807
  O      0.439809   -4.354935    0.102235
  C      1.390061   -5.037062   -0.651819
  C      2.109626   -4.133871   -1.423198
  C      1.431873   -6.469187   -0.478843
  C      2.288888   -7.298088   -1.099206
  H     -1.783777    0.565996    1.319728
  H      0.141055    1.439331   -0.474482
  H      2.917345   -4.383854   -2.106466
  H      0.689867   -6.867298    0.220432
  H      3.044037   -6.929046   -1.799284
  H      2.262243   -8.373521   -0.912731

 Multiplicity           Mult            ....    1
 Number of Electrons    NEL             ....   96
 Basis Dimension        Dim             ....  226

ORBITAL ENERGIES
----------------

  NO   OCC          E(Eh)            E(eV)
   0   2.0000     -19.233410      -523.3677
   1   2.0000     -19.231193      -523.3074
   2   2.0000     -19.143087      -520.9099
   3   2.0000     -10.298637      -280.2402
   4   2.0000     -10.273485      -279.5557
   5   2.0000     -10.272711      -279.5347
   6   2.0000     -10.260691      -279.2076
   7   2.0000     -10.258643      -279.1519
   8   2.0000     -10.215566      -277.9797
   9   2.0000     -10.213676      -277.9283
  10   2.0000     -10.212313      -277.8912
  11   2.0000     -10.201392      -277.5940
  12   2.0000     -10.200771      -277.5771
  13   2.0000     -10.199908      -277.5536
  14   2.0000      -1.136094       -30.9147
  15   2.0000      -1.130107       -30.7518
  16   2.0000      -1.047153       -28.4945
  17   2.0000      -0.875284       -23.8177
  18   2.0000      -0.819832       -22.3088
  19   2.0000      -0.807263       -21.9667
  20   2.0000      -0.775925       -21.1140
  21   2.0000      -0.720637       -19.6095
  22   2.0000      -0.689590       -18.7647
  23   2.0000      -0.636989       -17.3334
  24   2.0000      -0.606667       -16.5082
  25   2.0000      -0.587804       -15.9949
  26   2.0000      -0.569562       -15.4986
  27   2.0000      -0.566105       -15.4045
  28   2.0000      -0.521510       -14.1910
  29   2.0000      -0.509980       -13.8773
  30   2.0000      -0.501991       -13.6599
  31   2.0000      -0.473482       -12.8841
  32   2.0000      -0.467327       -12.7166
  33   2.0000      -0.453572       -12.3423
  34   2.0000      -0.449867       -12.2415
  35   2.0000      -0.438053       -11.9200
  36   2.0000      -0.425629       -11.5819
  37   2.0000      -0.424225       -11.5438
  38   2.0000      -0.418823       -11.3968
  39   2.0000      -0.396853       -10.7989
  40   2.0000      -0.385463       -10.4890
  41   2.0000      -0.375270       -10.2116
  42   2.0000      -0.332362        -9.0440
  43   2.0000      -0.314181        -8.5493
  44   2.0000      -0.302628        -8.2349
  45   2.0000      -0.271071        -7.3762
  46   2.0000      -0.270953        -7.3730
  47   2.0000      -0.203825        -5.5464
  48   0.0000      -0.094827        -2.5804
  49   0.0000      -0.049901        -1.3579
  50   0.0000       0.003911         0.1064
  51   0.0000       0.067488         1.8364
  52   0.0000       0.069067         1.8794

MULLIKEN ATOMIC CHARGES
-----------------------
   0 C :    0.138315
   1 O :   -0.187620
   2 C :    0.121932
   3 C :   -0.097969
   4 C :   -0.038596
   5 C :    0.200459
   6 O :   -0.118534
   7 C :   -0.082269
   8 C :    0.146035
   9 O :   -0.196515
  10 C :    0.168375
  11 C :   -0.088741
  12 C :   -0.005668
  13 C :   -0.038473
  14 H :    0.015960
  15 H :    0.002729
  16 H :   -0.002905
  17 H :    0.006142
  18 H :    0.023103
  19 H :    0.034237
Sum of atomic charges:   -0.0000000

LOEWDIN ATOMIC CHARGES
----------------------
   0 C :    0.039961
   1 O :    0.022139
   2 C :    0.026645
   3 C :   -0.105324
   4 C :   -0.040894
   5 C :    0.097101
   6 O :   -0.109483
   7 C :   -0.097328
   8 C :    0.027152
   9 O :    0.020928
  10 C :    0.034091
  11 C :   -0.031425
  12 C :   -0.039104
  13 C :   -0.044871
  14 H :    0.026838
  15 H :    0.040690
  16 H :    0.039050
  17 H :    0.039425
  18 H :    0.024281
  19 H :    0.030129

  Mayer bond orders larger than 0.100000
B(  0-C ,  1-O ) :   1.0705 B(  0-C ,  4-C ) :   1.5213 B(  0-C , 14-H ) :   1.0040
B(  1-O ,  2-C ) :   1.2135 B(  2-C ,  3-C ) :   1.4490 B(  2-C ,  8-C ) :   1.0624
B(  3-C ,  4-C ) :   1.2599 B(  3-C ,  5-C ) :   0.9061 B(  4-C , 15-H ) :   1.0048
B(  5-C ,  6-O ) :   2.2745 B(  5-C ,  7-C ) :   0.8964 B(  7-C ,  8-C ) :   1.4312
B(  7-C , 11-C ) :   1.2665 B(  8-C ,  9-O ) :   1.2122 B(  8-C , 10-C ) :   0.1019
B(  9-O , 10-C ) :   1.0467 B( 10-C , 11-C ) :   1.4465 B( 10-C , 12-C ) :   1.1325
B( 11-C , 16-H ) :   1.0125 B( 12-C , 13-C ) :   1.8920 B( 12-C , 17-H ) :   0.9498
B( 13-C , 18-H ) :   0.9521 B( 13-C , 19-H ) :   0.9466

Dispersion correction           -0.038305493
FINAL SINGLE POINT ENERGY      -647.916851731935

DIPOLE MOMENT
-------------
                                X             Y             Z
Electronic contribution:     -2.37221       7.08228       1.06477
Nuclear contribution   :      1.87568      -7.36147      -0.58728
                        -----------------------------------------
Total Dipole Moment    :     -0.49653      -0.27919       0.47749
                        -----------------------------------------
Magnitude (a.u.)       :      0.74329
Magnitude (Debye)      :      1.88930

Rotational constants in cm-1:     0.055751     0.015063     0.011859
Rotational constants in MHz :  1671.385988   451.584926   355.529660

                             ****ORCA TERMINATED NORMALLY****
TOTAL RUN TIME: 0 days 0 hours 10 minutes 43 seconds 30 msec
