                         Program Version 4.2.0 -  RELEASE  -
|  1> # ORCA input file
|  2> # SCF done        -44.592364525505          0.000572531111
|  3> ! B3LYP/G D3BJ Opt RIJCOSX def2-SVP def2/J
|  4> * xyz 0 1
|  5>    C       -2.46224         1.29232         0.01312
|  6>    S       -3.69694         0.10293         0.00621
|  7>    C       -1.21213         0.74584         0.01848
|  8>    C        0.03926         1.52730         0.02050
|  9>    O        0.07102         2.74419         0.03424
| 10>    C        1.21802         0.67108         0.00145
| 11>    C        2.54937         1.02345        -0.02781
| 12>    N        3.29786        -0.10488        -0.05417
| 13>    C        4.73847        -0.14831        -0.03287
| 14>    C        5.26813        -0.17995         1.39893
| 15>    C        2.48363        -1.18682        -0.02869
| 16>    C        1.17560        -0.75600         0.00097
| 17>    C       -0.05191        -1.54073         0.02007
| 18>    O       -0.09241        -2.75737         0.03362
| 19>    C       -1.25469        -0.68638         0.01841
| 20>    C       -2.53504        -1.15767         0.01303
| 21>    H       -2.71074         2.33524         0.01117
| 22>    H        2.99032         2.00035        -0.04070
| 23>    H        5.11922         0.73445        -0.55308
| 24>    H        5.06646        -1.04059        -0.57260
| 25>    H        4.94813         0.70670         1.94093
| 26>    H        6.35400        -0.21239         1.39253
| 27>    H        4.89537        -1.05760         1.92150
| 28>    H        2.86580        -2.18816        -0.04255
| 29>    H       -2.84502        -2.18400         0.01106
| 30> *
| 31>
| 32>                          ****END OF INPUT****
 Total Charge           Charge          ....    0
 Multiplicity           Mult            ....    1
 Number of Electrons    NEL             ....  120
Dispersion correction           -0.056818742
FINAL SINGLE POINT ENERGY     -1065.550152499234
Dispersion correction            ... done
Dispersion correction           -0.056687813
FINAL SINGLE POINT ENERGY     -1065.553975450632
Dispersion correction            ... done
Dispersion correction           -0.056688421
FINAL SINGLE POINT ENERGY     -1065.554134229133
Dispersion correction            ... done
FINAL SINGLE POINT ENERGY     -1065.553873440619
FINAL SINGLE POINT ENERGY     -1065.553937702564
FINAL SINGLE POINT ENERGY     -1065.553955470423
Dispersion correction            ... done
Dispersion correction           -0.056761711
FINAL SINGLE POINT ENERGY     -1065.553927918524
Dispersion correction            ... done
Dispersion correction           -0.056765412
FINAL SINGLE POINT ENERGY     -1065.553900750136
Dispersion correction            ... done
                    ***********************HURRAY********************

CARTESIAN COORDINATES (ANGSTROEM)
---------------------------------
  C     -2.472444    1.309947    0.118125
  S     -3.698558    0.100804    0.239750
  C     -1.222165    0.751679    0.001929
  C      0.042830    1.534636   -0.094455
  O      0.071421    2.755230   -0.120066
  C      1.238716    0.679536   -0.129596
  C      2.573148    1.046905   -0.142823
  N      3.329803   -0.099247   -0.149754
  C      4.778556   -0.142176    0.013677
  C      5.189685   -0.193041    1.483565
  C      2.509313   -1.200501   -0.136602
  C      1.198076   -0.758003   -0.125113
  C     -0.043384   -1.545067   -0.082227
  O     -0.082058   -2.765526   -0.097415
  C     -1.262822   -0.692087    0.008352
  C     -2.542717   -1.177285    0.129489
  H     -2.711754    2.371989    0.137986
  H      3.027259    2.034930   -0.144244
  H      5.198265    0.745073   -0.483071
  H      5.153681   -1.021129   -0.531709
  H      4.819053    0.692269    2.022343
  H      6.285876   -0.224390    1.581706
  H      4.772942   -1.085184    1.974676
  H      2.907380   -2.212256   -0.130854
  H     -2.840561   -2.224109    0.160081

 Multiplicity           Mult            ....    1
 Number of Electrons    NEL             ....  120
 Basis Dimension        Dim             ....  273

ORBITAL ENERGIES
----------------

  NO   OCC          E(Eh)            E(eV)
   0   2.0000     -88.891797     -2418.8688
   1   2.0000     -19.113980      -520.1178
   2   2.0000     -19.113888      -520.1153
   3   2.0000     -14.407423      -392.0459
   4   2.0000     -10.273428      -279.5542
   5   2.0000     -10.273291      -279.5505
   6   2.0000     -10.258092      -279.1369
   7   2.0000     -10.234678      -278.4997
   8   2.0000     -10.234445      -278.4934
   9   2.0000     -10.226303      -278.2719
  10   2.0000     -10.226205      -278.2692
  11   2.0000     -10.210216      -277.8341
  12   2.0000     -10.202680      -277.6290
  13   2.0000     -10.202499      -277.6241
  14   2.0000     -10.192092      -277.3409
  15   2.0000     -10.191872      -277.3349
  16   2.0000      -7.986756      -217.3307
  17   2.0000      -5.954643      -162.0341
  18   2.0000      -5.950454      -161.9201
  19   2.0000      -5.948679      -161.8718
  20   2.0000      -1.021642       -27.8003
  21   2.0000      -1.018537       -27.7158
  22   2.0000      -1.006437       -27.3865
  23   2.0000      -0.893842       -24.3227
  24   2.0000      -0.840037       -22.8586
  25   2.0000      -0.784793       -21.3553
  26   2.0000      -0.749403       -20.3923
  27   2.0000      -0.743579       -20.2338
  28   2.0000      -0.738847       -20.1050
  29   2.0000      -0.675862       -18.3912
  30   2.0000      -0.660917       -17.9845
  31   2.0000      -0.615308       -16.7434
  32   2.0000      -0.589089       -16.0299
  33   2.0000      -0.567157       -15.4331
  34   2.0000      -0.563325       -15.3289
  35   2.0000      -0.535701       -14.5772
  36   2.0000      -0.508442       -13.8354
  37   2.0000      -0.485469       -13.2103
  38   2.0000      -0.468896       -12.7593
  39   2.0000      -0.466505       -12.6942
  40   2.0000      -0.453672       -12.3450
  41   2.0000      -0.445011       -12.1094
  42   2.0000      -0.433426       -11.7941
  43   2.0000      -0.430856       -11.7242
  44   2.0000      -0.424932       -11.5630
  45   2.0000      -0.421725       -11.4757
  46   2.0000      -0.407615       -11.0918
  47   2.0000      -0.404209       -10.9991
  48   2.0000      -0.393279       -10.7017
  49   2.0000      -0.392870       -10.6905
  50   2.0000      -0.381713       -10.3869
  51   2.0000      -0.380113       -10.3434
  52   2.0000      -0.365597        -9.9484
  53   2.0000      -0.361983        -9.8501
  54   2.0000      -0.272036        -7.4025
  55   2.0000      -0.260620        -7.0918
  56   2.0000      -0.254503        -6.9254
  57   2.0000      -0.253512        -6.8984
  58   2.0000      -0.252271        -6.8646
  59   2.0000      -0.242703        -6.6043
  60   0.0000      -0.076873        -2.0918
  61   0.0000      -0.058191        -1.5835
  62   0.0000      -0.001120        -0.0305
  63   0.0000       0.037798         1.0285
  64   0.0000       0.038407         1.0451

MULLIKEN ATOMIC CHARGES
-----------------------
   0 C :   -0.124097
   1 S :    0.135862
   2 C :    0.000936
   3 C :    0.157751
   4 O :   -0.181713
   5 C :   -0.028173
   6 C :    0.017297
   7 N :   -0.168068
   8 C :    0.113651
   9 C :   -0.005784
  10 C :    0.016410
  11 C :   -0.023776
  12 C :    0.158809
  13 O :   -0.181911
  14 C :   -0.001228
  15 C :   -0.121193
  16 H :    0.037607
  17 H :    0.009520
  18 H :    0.024900
  19 H :    0.025949
  20 H :    0.030530
  21 H :    0.032754
  22 H :    0.029161
  23 H :    0.008601
  24 H :    0.036205
Sum of atomic charges:    0.0000000

LOEWDIN ATOMIC CHARGES
----------------------
   0 C :   -0.150206
   1 S :    0.466495
   2 C :   -0.092446
   3 C :    0.073452
   4 O :   -0.171434
   5 C :   -0.097887
   6 C :    0.028317
   7 N :    0.074465
   8 C :    0.048288
   9 C :   -0.057876
  10 C :    0.028227
  11 C :   -0.097234
  12 C :    0.073512
  13 O :   -0.171352
  14 C :   -0.092686
  15 C :   -0.149549
  16 H :    0.035408
  17 H :    0.030318
  18 H :    0.031024
  19 H :    0.031046
  20 H :    0.030836
  21 H :    0.033675
  22 H :    0.030310
  23 H :    0.030147
  24 H :    0.035151

  Mayer bond orders larger than 0.100000
B(  0-C ,  1-S ) :   1.1808 B(  0-C ,  2-C ) :   1.5272 B(  0-C , 16-H ) :   0.9596
B(  1-S , 15-C ) :   1.1805 B(  2-C ,  3-C ) :   0.9421 B(  2-C , 14-C ) :   1.2119
B(  3-C ,  4-O ) :   2.2287 B(  3-C ,  5-C ) :   0.9665 B(  5-C ,  6-C ) :   1.4145
B(  5-C , 11-C ) :   1.2802 B(  6-C ,  7-N ) :   1.2120 B(  6-C , 17-H ) :   0.9898
B(  7-N ,  8-C ) :   0.9562 B(  7-N , 10-C ) :   1.2118 B(  8-C ,  9-C ) :   1.1094
B(  8-C , 18-H ) :   0.9473 B(  8-C , 19-H ) :   0.9473 B(  9-C , 20-H ) :   0.9660
B(  9-C , 21-H ) :   0.9650 B(  9-C , 22-H ) :   0.9658 B( 10-C , 11-C ) :   1.4129
B( 10-C , 23-H ) :   0.9910 B( 11-C , 12-C ) :   0.9662 B( 12-C , 13-O ) :   2.2281
B( 12-C , 14-C ) :   0.9417 B( 14-C , 15-C ) :   1.5282 B( 15-C , 24-H ) :   0.9596

Dispersion correction           -0.056764204
FINAL SINGLE POINT ENERGY     -1065.553915270769

DIPOLE MOMENT
-------------
                                X             Y             Z
Electronic contribution:    -20.89111       0.68367      -3.35447
Nuclear contribution   :     22.36393      -0.72750       3.58807
                        -----------------------------------------
Total Dipole Moment    :      1.47282      -0.04383       0.23360
                        -----------------------------------------
Magnitude (a.u.)       :      1.49187
Magnitude (Debye)      :      3.79203

Rotational constants in cm-1:     0.037078     0.009570     0.007879
Rotational constants in MHz :  1111.572862   286.909860   236.191586

                             ****ORCA TERMINATED NORMALLY****
TOTAL RUN TIME: 0 days 0 hours 18 minutes 55 seconds 524 msec
