                         Program Version 4.2.0 -  RELEASE  -
|  1> # ORCA input file
|  2> # SCF done        -46.802197569143          0.000835151027
|  3> ! B3LYP/G D3BJ Opt RIJCOSX def2-SVP def2/J
|  4> * xyz 0 1
|  5>    C        3.06057        -1.32634         0.15351
|  6>    C        2.94822         0.01814         0.05251
|  7>    C        1.60194         0.47031         0.01977
|  8>    C        0.69869        -0.57843         0.09853
|  9>    S        1.52795        -2.10198         0.21310
| 10>    C       -0.71732        -0.54656         0.08986
| 11>    C       -1.57054         0.54461         0.00531
| 12>    C       -1.24943         1.96932        -0.09223
| 13>    O       -2.12463         2.80841        -0.15713
| 14>    N        0.06172         2.40979        -0.11469
| 15>    C        1.35126         1.90692        -0.08561
| 16>    O        2.26501         2.70419        -0.14786
| 17>    C       -2.93048         0.15991         0.01958
| 18>    C       -3.13416        -1.18857         0.11198
| 19>    S       -1.61275        -2.03091         0.18743
| 20>    C       -4.39495        -1.87818         0.14337
| 21>    C       -4.53406        -3.19760         0.23149
| 22>    H        3.95234        -1.91896         0.19696
| 23>    H        3.77491         0.70263        -0.00019
| 24>    H        0.08643         3.42701        -0.18658
| 25>    H       -3.72120         0.88585        -0.03911
| 26>    H       -5.26108        -1.23222         0.08570
| 27>    H       -3.67785        -3.85095         0.28828
| 28>    H       -5.50286        -3.66370         0.24865
| 29> *
| 30>
| 31>                          ****END OF INPUT****
 Total Charge           Charge          ....    0
 Multiplicity           Mult            ....    1
 Number of Electrons    NEL             ....  134
Dispersion correction           -0.064408308
FINAL SINGLE POINT ENERGY     -1462.436960528015
Dispersion correction            ... done
Dispersion correction           -0.064013523
FINAL SINGLE POINT ENERGY     -1462.440361772139
Dispersion correction            ... done
Dispersion correction           -0.063938909
FINAL SINGLE POINT ENERGY     -1462.440484974009
Dispersion correction            ... done
FINAL SINGLE POINT ENERGY     -1462.440536115916
FINAL SINGLE POINT ENERGY     -1462.440536772050
FINAL SINGLE POINT ENERGY     -1462.440529498308
Dispersion correction            ... done
Dispersion correction           -0.063949165
FINAL SINGLE POINT ENERGY     -1462.440535305939
Dispersion correction            ... done
Dispersion correction           -0.063946719
FINAL SINGLE POINT ENERGY     -1462.440537503969
Dispersion correction            ... done
                    ***********************HURRAY********************

CARTESIAN COORDINATES (ANGSTROEM)
---------------------------------
  C      3.114852   -1.318828    0.159771
  C      2.991892    0.038505    0.078960
  C      1.630402    0.476379    0.016019
  C      0.726248   -0.583975    0.054150
  S      1.573932   -2.107117    0.161827
  C     -0.709159   -0.557142    0.038361
  C     -1.569716    0.537470   -0.017765
  C     -1.247870    1.977985   -0.100238
  O     -2.141749    2.806310   -0.144083
  N      0.069843    2.436076   -0.133299
  C      1.368191    1.926793   -0.081272
  O      2.294245    2.719348   -0.120036
  C     -2.942844    0.153733    0.013691
  C     -3.146335   -1.204346    0.093607
  S     -1.613429   -2.048655    0.124086
  C     -4.419960   -1.898201    0.154009
  C     -4.605865   -3.223794    0.253150
  H      4.025596   -1.912026    0.222774
  H      3.821258    0.743662    0.062572
  H      0.090196    3.453313   -0.202759
  H     -3.745459    0.889089   -0.021680
  H     -5.290454   -1.234897    0.114238
  H     -3.766832   -3.924737    0.300722
  H     -5.609253   -3.652254    0.295826

 Multiplicity           Mult            ....    1
 Number of Electrons    NEL             ....  134
 Basis Dimension        Dim             ....  281

ORBITAL ENERGIES
----------------

  NO   OCC          E(Eh)            E(eV)
   0   2.0000     -88.902045     -2419.1476
   1   2.0000     -88.898750     -2419.0580
   2   2.0000     -19.120863      -520.3051
   3   2.0000     -19.120610      -520.2983
   4   2.0000     -14.381262      -391.3340
   5   2.0000     -10.316421      -280.7241
   6   2.0000     -10.316063      -280.7144
   7   2.0000     -10.260577      -279.2045
   8   2.0000     -10.259602      -279.1780
   9   2.0000     -10.241804      -278.6937
  10   2.0000     -10.237164      -278.5674
  11   2.0000     -10.226394      -278.2743
  12   2.0000     -10.226112      -278.2667
  13   2.0000     -10.220629      -278.1175
  14   2.0000     -10.214725      -277.9568
  15   2.0000     -10.214133      -277.9407
  16   2.0000     -10.208364      -277.7837
  17   2.0000      -7.997168      -217.6140
  18   2.0000      -7.993869      -217.5242
  19   2.0000      -5.965410      -162.3270
  20   2.0000      -5.962047      -162.2356
  21   2.0000      -5.961117      -162.2103
  22   2.0000      -5.958337      -162.1346
  23   2.0000      -5.958076      -162.1275
  24   2.0000      -5.954805      -162.0385
  25   2.0000      -1.059502       -28.8305
  26   2.0000      -1.040930       -28.3252
  27   2.0000      -0.927444       -25.2370
  28   2.0000      -0.917343       -24.9622
  29   2.0000      -0.898060       -24.4375
  30   2.0000      -0.814053       -22.1515
  31   2.0000      -0.780551       -21.2399
  32   2.0000      -0.775475       -21.1017
  33   2.0000      -0.758854       -20.6495
  34   2.0000      -0.722855       -19.6699
  35   2.0000      -0.668239       -18.1837
  36   2.0000      -0.656026       -17.8514
  37   2.0000      -0.630555       -17.1583
  38   2.0000      -0.591252       -16.0888
  39   2.0000      -0.585413       -15.9299
  40   2.0000      -0.580929       -15.8079
  41   2.0000      -0.544408       -14.8141
  42   2.0000      -0.522009       -14.2046
  43   2.0000      -0.488065       -13.2809
  44   2.0000      -0.478080       -13.0092
  45   2.0000      -0.471353       -12.8262
  46   2.0000      -0.469428       -12.7738
  47   2.0000      -0.446887       -12.1604
  48   2.0000      -0.443198       -12.0600
  49   2.0000      -0.432634       -11.7726
  50   2.0000      -0.427289       -11.6271
  51   2.0000      -0.424974       -11.5641
  52   2.0000      -0.421875       -11.4798
  53   2.0000      -0.408707       -11.1215
  54   2.0000      -0.400630       -10.9017
  55   2.0000      -0.389209       -10.5909
  56   2.0000      -0.385328       -10.4853
  57   2.0000      -0.380423       -10.3518
  58   2.0000      -0.360644        -9.8136
  59   2.0000      -0.335513        -9.1298
  60   2.0000      -0.297778        -8.1029
  61   2.0000      -0.292888        -7.9699
  62   2.0000      -0.284009        -7.7283
  63   2.0000      -0.281229        -7.6526
  64   2.0000      -0.274309        -7.4643
  65   2.0000      -0.268957        -7.3187
  66   2.0000      -0.226992        -6.1768
  67   0.0000      -0.099419        -2.7053
  68   0.0000      -0.048325        -1.3150
  69   0.0000      -0.036363        -0.9895
  70   0.0000      -0.021120        -0.5747
  71   0.0000      -0.006088        -0.1657

MULLIKEN ATOMIC CHARGES
-----------------------
   0 C :   -0.048996
   1 C :    0.032369
   2 C :   -0.012699
   3 C :   -0.102391
   4 S :    0.131761
   5 C :   -0.085153
   6 C :    0.003547
   7 C :    0.112089
   8 O :   -0.204814
   9 N :   -0.070554
  10 C :    0.113856
  11 O :   -0.205677
  12 C :   -0.018287
  13 C :   -0.036073
  14 S :    0.127942
  15 C :    0.021219
  16 C :   -0.030277
  17 H :    0.040831
  18 H :    0.015566
  19 H :    0.144300
  20 H :    0.006086
  21 H :    0.004141
  22 H :    0.027710
  23 H :    0.033502
Sum of atomic charges:    0.0000000

LOEWDIN ATOMIC CHARGES
----------------------
   0 C :   -0.171429
   1 C :   -0.025131
   2 C :   -0.096127
   3 C :   -0.173053
   4 S :    0.443673
   5 C :   -0.165755
   6 C :   -0.095354
   7 C :    0.085060
   8 O :   -0.190711
   9 N :    0.004836
  10 C :    0.084592
  11 O :   -0.190814
  12 C :   -0.019024
  13 C :   -0.160269
  14 S :    0.437158
  15 C :   -0.037275
  16 C :   -0.042119
  17 H :    0.032363
  18 H :    0.043450
  19 H :    0.100850
  20 H :    0.041983
  21 H :    0.039997
  22 H :    0.021468
  23 H :    0.031634

  Mayer bond orders larger than 0.100000
B(  0-C ,  1-C ) :   1.5463 B(  0-C ,  4-S ) :   1.1291 B(  0-C , 17-H ) :   0.9692
B(  1-C ,  2-C ) :   1.2653 B(  1-C , 18-H ) :   0.9918 B(  2-C ,  3-C ) :   1.4419
B(  2-C , 10-C ) :   0.9610 B(  3-C ,  4-S ) :   1.1500 B(  3-C ,  5-C ) :   1.1873
B(  5-C ,  6-C ) :   1.4432 B(  5-C , 14-S ) :   1.1398 B(  6-C ,  7-C ) :   0.9494
B(  6-C , 12-C ) :   1.2425 B(  7-C ,  8-O ) :   2.1581 B(  7-C ,  9-N ) :   1.0969
B(  9-N , 10-C ) :   1.0944 B(  9-N , 19-H ) :   0.8761 B( 10-C , 11-O ) :   2.1559
B( 12-C , 13-C ) :   1.4697 B( 12-C , 20-H ) :   1.0023 B( 13-C , 14-S ) :   1.0768
B( 13-C , 15-C ) :   1.1351 B( 15-C , 16-C ) :   1.8934 B( 15-C , 21-H ) :   0.9599
B( 16-C , 22-H ) :   0.9524 B( 16-C , 23-H ) :   0.9466

Dispersion correction           -0.063946026
FINAL SINGLE POINT ENERGY     -1462.440537954017

DIPOLE MOMENT
-------------
                                X             Y             Z
Electronic contribution:      6.85343       1.88466      -0.30180
Nuclear contribution   :     -6.96285      -3.55778       0.41534
                        -----------------------------------------
Total Dipole Moment    :     -0.10942      -1.67313       0.11354
                        -----------------------------------------
Magnitude (a.u.)       :      1.68054
Magnitude (Debye)      :      4.27159

Rotational constants in cm-1:     0.020504     0.010714     0.007038
Rotational constants in MHz :   614.705988   321.197146   210.983863

                             ****ORCA TERMINATED NORMALLY****
TOTAL RUN TIME: 0 days 0 hours 19 minutes 9 seconds 194 msec
