                         Program Version 4.2.0 -  RELEASE  -
|  1> # ORCA input file
|  2> # SCF done        -37.979275497513          0.000653747357
|  3> ! B3LYP/G D3BJ Opt RIJCOSX def2-SVP def2/J
|  4> * xyz 0 1
|  5>    C        1.06239        -1.07722        -0.34101
|  6>    S        2.39866        -0.03053        -0.12740
|  7>    C        1.34575         1.33623         0.13929
|  8>    C        0.02652         0.95568         0.06923
|  9>    C       -0.12617        -0.42830        -0.20867
| 10>    C       -1.45967        -1.11279        -0.33331
| 11>    O       -1.37509        -2.00829        -1.42802
| 12>    C       -2.42141        -2.93979        -1.50910
| 13>    C       -2.57530        -0.07066        -0.48791
| 14>    C       -2.41078         1.02218         0.56156
| 15>    C       -1.15718         1.84670         0.27828
| 16>    C        1.97230         2.60961         0.38893
| 17>    C        1.41724         3.81539         0.30198
| 18>    H        1.22014        -2.11201        -0.56757
| 19>    H       -1.64616        -1.69586         0.59027
| 20>    H       -2.14837        -3.63478        -2.30135
| 21>    H       -3.37724        -2.46767        -1.76266
| 22>    H       -2.53727        -3.48998        -0.56641
| 23>    H       -3.54912        -0.55164        -0.37951
| 24>    H       -2.51202         0.35884        -1.49011
| 25>    H       -2.33325         0.56281         1.55028
| 26>    H       -3.28548         1.67538         0.56137
| 27>    H       -0.96211         2.53398         1.10528
| 28>    H       -1.31909         2.44522        -0.62447
| 29>    H        3.02188         2.53511         0.64816
| 30>    H        0.39648         3.97333         0.00635
| 31>    H        1.99409         4.69968         0.51184
| 32> *
| 33>
| 34>                          ****END OF INPUT****
 Total Charge           Charge          ....    0
 Multiplicity           Mult            ....    1
 Number of Electrons    NEL             ....  104
Dispersion correction           -0.055236098
FINAL SINGLE POINT ENERGY      -900.557859196295
Dispersion correction            ... done
Dispersion correction           -0.054870872
FINAL SINGLE POINT ENERGY      -900.560998591105
Dispersion correction            ... done
Dispersion correction           -0.054824042
FINAL SINGLE POINT ENERGY      -900.561253486326
Dispersion correction            ... done
FINAL SINGLE POINT ENERGY      -900.561324153822
FINAL SINGLE POINT ENERGY      -900.561408520088
FINAL SINGLE POINT ENERGY      -900.561425589102
FINAL SINGLE POINT ENERGY      -900.561429980192
Dispersion correction            ... done
Dispersion correction           -0.054841095
FINAL SINGLE POINT ENERGY      -900.561432350675
Dispersion correction            ... done
Dispersion correction           -0.054840866
FINAL SINGLE POINT ENERGY      -900.561436918669
Dispersion correction            ... done
                    ***********************HURRAY********************

CARTESIAN COORDINATES (ANGSTROEM)
---------------------------------
  C      1.095141   -1.082530   -0.423066
  S      2.428563   -0.018087   -0.215045
  C      1.376801    1.342131    0.120477
  C      0.043725    0.949326    0.080537
  C     -0.106523   -0.440498   -0.236591
  C     -1.450078   -1.117798   -0.349535
  O     -1.371929   -2.078536   -1.387100
  C     -2.445646   -2.980369   -1.439945
  C     -2.562541   -0.080518   -0.546392
  C     -2.441565    1.031192    0.496970
  C     -1.149227    1.839356    0.310454
  C      1.998916    2.635126    0.359684
  C      1.421109    3.849846    0.409143
  H      1.240601   -2.122872   -0.704563
  H     -1.656460   -1.651289    0.605723
  H     -2.163849   -3.790937   -2.127076
  H     -3.377393   -2.516518   -1.815518
  H     -2.662360   -3.421109   -0.445339
  H     -3.546957   -0.568509   -0.473665
  H     -2.475538    0.337955   -1.564732
  H     -2.456117    0.579054    1.505313
  H     -3.310271    1.705848    0.445379
  H     -0.971262    2.492917    1.180493
  H     -1.269670    2.516566   -0.556413
  H      3.084753    2.590898    0.506742
  H      0.356322    4.014924    0.246600
  H      2.031193    4.735050    0.602783

 Multiplicity           Mult            ....    1
 Number of Electrons    NEL             ....  104
 Basis Dimension        Dim             ....  256

ORBITAL ENERGIES
----------------

  NO   OCC          E(Eh)            E(eV)
   0   2.0000     -88.866116     -2418.1700
   1   2.0000     -19.134795      -520.6842
   2   2.0000     -10.241170      -278.6764
   3   2.0000     -10.232979      -278.4535
   4   2.0000     -10.209200      -277.8065
   5   2.0000     -10.202935      -277.6360
   6   2.0000     -10.200876      -277.5800
   7   2.0000     -10.194116      -277.3960
   8   2.0000     -10.192774      -277.3595
   9   2.0000     -10.192161      -277.3428
  10   2.0000     -10.187289      -277.2102
  11   2.0000     -10.186778      -277.1963
  12   2.0000     -10.184908      -277.1454
  13   2.0000      -7.961337      -216.6390
  14   2.0000      -5.929307      -161.3447
  15   2.0000      -5.925407      -161.2385
  16   2.0000      -5.922760      -161.1665
  17   2.0000      -1.027994       -27.9731
  18   2.0000      -0.879850       -23.9419
  19   2.0000      -0.814721       -22.1697
  20   2.0000      -0.781395       -21.2629
  21   2.0000      -0.745569       -20.2880
  22   2.0000      -0.729571       -19.8526
  23   2.0000      -0.687291       -18.7021
  24   2.0000      -0.674887       -18.3646
  25   2.0000      -0.612839       -16.6762
  26   2.0000      -0.605118       -16.4661
  27   2.0000      -0.577420       -15.7124
  28   2.0000      -0.548453       -14.9242
  29   2.0000      -0.514402       -13.9976
  30   2.0000      -0.497479       -13.5371
  31   2.0000      -0.488651       -13.2969
  32   2.0000      -0.464129       -12.6296
  33   2.0000      -0.453311       -12.3352
  34   2.0000      -0.445924       -12.1342
  35   2.0000      -0.441508       -12.0141
  36   2.0000      -0.426148       -11.5961
  37   2.0000      -0.411906       -11.2085
  38   2.0000      -0.403325       -10.9750
  39   2.0000      -0.395119       -10.7517
  40   2.0000      -0.383838       -10.4448
  41   2.0000      -0.372001       -10.1227
  42   2.0000      -0.360535        -9.8106
  43   2.0000      -0.355958        -9.6861
  44   2.0000      -0.341269        -9.2864
  45   2.0000      -0.333538        -9.0760
  46   2.0000      -0.326178        -8.8757
  47   2.0000      -0.310960        -8.4616
  48   2.0000      -0.297067        -8.0836
  49   2.0000      -0.262652        -7.1471
  50   2.0000      -0.238603        -6.4927
  51   2.0000      -0.211109        -5.7446
  52   0.0000      -0.039384        -1.0717
  53   0.0000       0.020445         0.5563
  54   0.0000       0.038594         1.0502
  55   0.0000       0.052804         1.4369
  56   0.0000       0.067929         1.8484

MULLIKEN ATOMIC CHARGES
-----------------------
   0 C :   -0.104845
   1 S :    0.100396
   2 C :   -0.165506
   3 C :   -0.029804
   4 C :   -0.048924
   5 C :    0.230545
   6 O :   -0.377659
   7 C :    0.200187
   8 C :    0.022073
   9 C :    0.033088
  10 C :    0.087801
  11 C :    0.030457
  12 C :   -0.043239
  13 H :    0.016229
  14 H :   -0.012661
  15 H :    0.023604
  16 H :    0.001817
  17 H :   -0.010569
  18 H :   -0.007467
  19 H :    0.003403
  20 H :   -0.003150
  21 H :   -0.003234
  22 H :    0.017462
  23 H :    0.021017
  24 H :   -0.011771
  25 H :    0.012272
  26 H :    0.018479
Sum of atomic charges:   -0.0000000

LOEWDIN ATOMIC CHARGES
----------------------
   0 C :   -0.181914
   1 S :    0.430645
   2 C :   -0.186218
   3 C :   -0.052656
   4 C :   -0.074851
   5 C :    0.073450
   6 O :   -0.164034
   7 C :    0.068455
   8 C :   -0.039923
   9 C :   -0.025153
  10 C :   -0.026354
  11 C :   -0.040685
  12 C :   -0.063244
  13 H :    0.025559
  14 H :    0.009080
  15 H :    0.021150
  16 H :    0.002248
  17 H :    0.002461
  18 H :    0.019501
  19 H :    0.023788
  20 H :    0.020348
  21 H :    0.023941
  22 H :    0.031564
  23 H :    0.031025
  24 H :    0.027469
  25 H :    0.019339
  26 H :    0.025008

  Mayer bond orders larger than 0.100000
B(  0-C ,  1-S ) :   1.1589 B(  0-C ,  4-C ) :   1.5452 B(  0-C , 13-H ) :   0.9600
B(  1-S ,  2-C ) :   1.1245 B(  2-C ,  3-C ) :   1.5025 B(  2-C , 11-C ) :   1.1180
B(  3-C ,  4-C ) :   1.3057 B(  3-C , 10-C ) :   1.0695 B(  4-C ,  5-C ) :   0.9650
B(  5-C ,  6-O ) :   1.0440 B(  5-C ,  8-C ) :   1.0671 B(  5-C , 14-H ) :   0.8984
B(  6-O ,  7-C ) :   1.0007 B(  7-C , 15-H ) :   0.9795 B(  7-C , 16-H ) :   0.9634
B(  7-C , 17-H ) :   0.9557 B(  8-C ,  9-C ) :   1.0663 B(  8-C , 18-H ) :   0.9240
B(  8-C , 19-H ) :   0.9301 B(  9-C , 10-C ) :   1.0838 B(  9-C , 20-H ) :   0.9365
B(  9-C , 21-H ) :   0.9278 B( 10-C , 22-H ) :   0.9101 B( 10-C , 23-H ) :   0.9060
B( 11-C , 12-C ) :   1.9090 B( 11-C , 24-H ) :   0.9426 B( 12-C , 25-H ) :   0.9522
B( 12-C , 26-H ) :   0.9398

Dispersion correction           -0.054839798
FINAL SINGLE POINT ENERGY      -900.561441877621

DIPOLE MOMENT
-------------
                                X             Y             Z
Electronic contribution:     14.63095      -1.80973      -0.45357
Nuclear contribution   :    -15.38929       1.69769       0.68071
                        -----------------------------------------
Total Dipole Moment    :     -0.75834      -0.11203       0.22715
                        -----------------------------------------
Magnitude (a.u.)       :      0.79951
Magnitude (Debye)      :      2.03220

Rotational constants in cm-1:     0.039739     0.016951     0.012252
Rotational constants in MHz :  1191.339012   508.190677   367.312304

                             ****ORCA TERMINATED NORMALLY****
TOTAL RUN TIME: 0 days 0 hours 19 minutes 18 seconds 136 msec
