                         Program Version 4.2.0 -  RELEASE  -
|  1> # ORCA input file
|  2> # SCF done        -34.773609178481          0.000903207870
|  3> ! B3LYP/G D3BJ Opt RIJCOSX def2-SVP def2/J
|  4> * xyz 0 1
|  5>    C       -1.26303         1.20256        -0.13531
|  6>    C       -0.02357         0.68410         0.08395
|  7>    C       -0.13489        -0.75293         0.07056
|  8>    C       -1.52770        -1.09079        -0.17533
|  9>    O       -2.11158        -2.14231        -0.27398
| 10>    N       -2.14377         0.17123        -0.28661
| 11>    C        1.11235        -1.26348         0.29610
| 12>    O        2.00859        -0.24692         0.44996
| 13>    C        1.37154         0.99326         0.33067
| 14>    O        1.97394         2.02232         0.43181
| 15>    C        1.54431        -2.62802         0.38313
| 16>    C        2.80741        -2.97904         0.62731
| 17>    H       -1.58342         2.22582        -0.19405
| 18>    H       -3.13158         0.27721        -0.45936
| 19>    H        0.76001        -3.35643         0.23537
| 20>    H        3.57118        -2.23301         0.76964
| 21>    H        3.10482        -4.01085         0.68737
| 22> *
| 23>
| 24>                          ****END OF INPUT****
 Total Charge           Charge          ....    0
 Multiplicity           Mult            ....    1
 Number of Electrons    NEL             ....   84
Dispersion correction           -0.031960115
FINAL SINGLE POINT ENERGY      -587.854438050124
Dispersion correction            ... done
Dispersion correction           -0.031910412
FINAL SINGLE POINT ENERGY      -587.856671486223
Dispersion correction            ... done
Dispersion correction           -0.031900056
FINAL SINGLE POINT ENERGY      -587.856922019628
Dispersion correction            ... done
FINAL SINGLE POINT ENERGY      -587.857010503741
FINAL SINGLE POINT ENERGY      -587.857022157870
Dispersion correction            ... done
Dispersion correction           -0.031906725
FINAL SINGLE POINT ENERGY      -587.857048386206
Dispersion correction            ... done
Dispersion correction           -0.031908023
FINAL SINGLE POINT ENERGY      -587.857055316307
Dispersion correction            ... done
                    ***********************HURRAY********************

CARTESIAN COORDINATES (ANGSTROEM)
---------------------------------
  C     -1.270680    1.217036   -0.135620
  C     -0.025750    0.689511    0.089993
  C     -0.137765   -0.741839    0.080178
  C     -1.535561   -1.106871   -0.178803
  O     -2.112160   -2.164919   -0.301921
  N     -2.162020    0.177199   -0.282768
  C      1.110148   -1.260338    0.307986
  O      2.019036   -0.252203    0.458083
  C      1.368939    1.027882    0.339183
  O      1.994349    2.037946    0.450282
  C      1.545715   -2.629968    0.406585
  C      2.824044   -2.992991    0.611254
  H     -1.598988    2.253394   -0.208941
  H     -3.149678    0.274008   -0.487550
  H      0.746843   -3.368154    0.296259
  H      3.609937   -2.241851    0.717129
  H      3.108202   -4.045121    0.679900

 Multiplicity           Mult            ....    1
 Number of Electrons    NEL             ....   84
 Basis Dimension        Dim             ....  193

ORBITAL ENERGIES
----------------

  NO   OCC          E(Eh)            E(eV)
   0   2.0000     -19.198752      -522.4246
   1   2.0000     -19.139004      -520.7988
   2   2.0000     -19.128997      -520.5265
   3   2.0000     -14.395700      -391.7269
   4   2.0000     -10.331825      -281.1433
   5   2.0000     -10.314524      -280.6725
   6   2.0000     -10.289169      -279.9825
   7   2.0000     -10.275991      -279.6239
   8   2.0000     -10.221505      -278.1413
   9   2.0000     -10.219455      -278.0855
  10   2.0000     -10.209623      -277.8180
  11   2.0000     -10.206558      -277.7346
  12   2.0000      -1.112529       -30.2735
  13   2.0000      -1.051971       -28.6256
  14   2.0000      -1.039569       -28.2881
  15   2.0000      -0.976910       -26.5831
  16   2.0000      -0.830620       -22.6023
  17   2.0000      -0.812848       -22.1187
  18   2.0000      -0.742979       -20.2175
  19   2.0000      -0.700502       -19.0616
  20   2.0000      -0.681892       -18.5552
  21   2.0000      -0.612740       -16.6735
  22   2.0000      -0.608687       -16.5632
  23   2.0000      -0.541874       -14.7451
  24   2.0000      -0.519935       -14.1482
  25   2.0000      -0.511320       -13.9137
  26   2.0000      -0.503745       -13.7076
  27   2.0000      -0.492065       -13.3898
  28   2.0000      -0.470761       -12.8101
  29   2.0000      -0.451270       -12.2797
  30   2.0000      -0.451097       -12.2750
  31   2.0000      -0.443406       -12.0657
  32   2.0000      -0.409805       -11.1514
  33   2.0000      -0.398148       -10.8341
  34   2.0000      -0.391332       -10.6487
  35   2.0000      -0.390897       -10.6369
  36   2.0000      -0.361837        -9.8461
  37   2.0000      -0.315047        -8.5729
  38   2.0000      -0.301336        -8.1998
  39   2.0000      -0.293720        -7.9925
  40   2.0000      -0.280915        -7.6441
  41   2.0000      -0.224552        -6.1104
  42   0.0000      -0.107497        -2.9251
  43   0.0000      -0.039826        -1.0837
  44   0.0000       0.018638         0.5072
  45   0.0000       0.041815         1.1379
  46   0.0000       0.072028         1.9600

MULLIKEN ATOMIC CHARGES
-----------------------
   0 C :    0.064251
   1 C :   -0.065376
   2 C :   -0.049284
   3 C :    0.179937
   4 O :   -0.173769
   5 N :   -0.152424
   6 C :    0.097941
   7 O :   -0.287005
   8 C :    0.250474
   9 O :   -0.130951
  10 C :   -0.032370
  11 C :    0.028150
  12 H :    0.028261
  13 H :    0.133354
  14 H :    0.020341
  15 H :    0.051307
  16 H :    0.037161
Sum of atomic charges:    0.0000000

LOEWDIN ATOMIC CHARGES
----------------------
   0 C :    0.090194
   1 C :   -0.134568
   2 C :   -0.118578
   3 C :    0.079303
   4 O :   -0.176148
   5 N :    0.022738
   6 C :    0.105713
   7 O :   -0.078873
   8 C :    0.115731
   9 O :   -0.123378
  10 C :   -0.042797
  11 C :    0.014261
  12 H :    0.037871
  13 H :    0.090636
  14 H :    0.046963
  15 H :    0.036784
  16 H :    0.034149

  Mayer bond orders larger than 0.100000
B(  0-C ,  1-C ) :   1.4699 B(  0-C ,  5-N ) :   1.2016 B(  0-C , 12-H ) :   0.9796
B(  1-C ,  2-C ) :   1.1814 B(  1-C ,  8-C ) :   0.9673 B(  2-C ,  3-C ) :   0.9520
B(  2-C ,  6-C ) :   1.4208 B(  3-C ,  4-O ) :   2.1784 B(  3-C ,  5-N ) :   1.0238
B(  5-N , 13-H ) :   0.9254 B(  6-C ,  7-O ) :   1.1470 B(  6-C , 10-C ) :   1.1794
B(  7-O ,  8-C ) :   0.9337 B(  8-C ,  9-O ) :   2.2450 B( 10-C , 11-C ) :   1.8437
B( 10-C , 14-H ) :   0.9497 B( 11-C , 15-H ) :   0.9509 B( 11-C , 16-H ) :   0.9430

Dispersion correction           -0.031908360
FINAL SINGLE POINT ENERGY      -587.857056131693

DIPOLE MOMENT
-------------
                                X             Y             Z
Electronic contribution:     -1.92845       4.34341      -0.36164
Nuclear contribution   :      1.12713      -4.35509       0.21570
                        -----------------------------------------
Total Dipole Moment    :     -0.80133      -0.01168      -0.14593
                        -----------------------------------------
Magnitude (a.u.)       :      0.81459
Magnitude (Debye)      :      2.07052

Rotational constants in cm-1:     0.041911     0.032453     0.018291
Rotational constants in MHz :  1256.456627   972.902950   548.349770

                             ****ORCA TERMINATED NORMALLY****
TOTAL RUN TIME: 0 days 0 hours 8 minutes 2 seconds 72 msec
