                         Program Version 4.2.0 -  RELEASE  -
|  1> # ORCA input file
|  2> # SCF done        -48.285092655908          0.000298146595
|  3> ! B3LYP/G D3BJ Opt RIJCOSX def2-SVP def2/J
|  4> * xyz 0 1
|  5>    C        1.22439        -0.39650        -1.98478
|  6>    C        0.49067         0.64774        -1.42915
|  7>    O        1.11262         1.86193        -1.42785
|  8>    C        0.47627         2.97738        -0.84120
|  9>    C        0.53464         2.95934         0.68424
| 10>    C       -0.79346         0.39498        -0.96774
| 11>    C       -1.33855        -0.88280        -1.03148
| 12>    C       -2.76933        -1.08442        -0.60676
| 13>    C       -3.72589        -0.35362        -1.55021
| 14>    C       -0.57360        -1.93103        -1.53608
| 15>    O       -1.08296        -3.22186        -1.56671
| 16>    C       -0.97783        -3.93282        -0.34442
| 17>    C        0.45149        -4.31363         0.02861
| 18>    C        0.71485        -1.68498        -2.04384
| 19>    C        1.46206        -2.77865        -2.65954
| 20>    C        2.77918        -2.83464        -2.80218
| 21>    H        2.19913        -0.17400        -2.38713
| 22>    H       -0.56045         3.06104        -1.19093
| 23>    H        1.03480         3.83782        -1.22114
| 24>    H        0.01739         2.09018         1.08313
| 25>    H        0.07132         3.85945         1.07935
| 26>    H        1.57030         2.92101         1.01223
| 27>    H       -1.40482         1.18438        -0.55920
| 28>    H       -2.90974        -0.71306         0.41238
| 29>    H       -3.01463        -2.14571        -0.62639
| 30>    H       -3.54049         0.71778        -1.54449
| 31>    H       -4.75636        -0.52696        -1.24792
| 32>    H       -3.59572        -0.71813        -2.56635
| 33>    H       -1.57985        -4.83272        -0.49873
| 34>    H       -1.41828        -3.34800         0.47561
| 35>    H        0.90442        -4.91514        -0.75463
| 36>    H        0.44100        -4.88553         0.95283
| 37>    H        1.05660        -3.42138         0.17367
| 38>    H        0.84580        -3.59967        -3.00164
| 39>    H        3.43271        -2.05523        -2.44790
| 40>    H        3.25757        -3.67556        -3.27502
| 41> *
| 42>
| 43>                          ****END OF INPUT****
 Total Charge           Charge          ....    0
 Multiplicity           Mult            ....    1
 Number of Electrons    NEL             ....  120
Dispersion correction           -0.067606497
FINAL SINGLE POINT ENERGY      -695.508880539550
Dispersion correction            ... done
Dispersion correction           -0.066873052
FINAL SINGLE POINT ENERGY      -695.512478142458
Dispersion correction            ... done
Dispersion correction           -0.067071113
FINAL SINGLE POINT ENERGY      -695.511955984157
Dispersion correction            ... done
FINAL SINGLE POINT ENERGY      -695.512842952954
FINAL SINGLE POINT ENERGY      -695.512767202217
FINAL SINGLE POINT ENERGY      -695.512705498372
FINAL SINGLE POINT ENERGY      -695.512262734784
FINAL SINGLE POINT ENERGY      -695.511751514794
FINAL SINGLE POINT ENERGY      -695.513039062975
FINAL SINGLE POINT ENERGY      -695.513116846104
FINAL SINGLE POINT ENERGY      -695.513304210097
FINAL SINGLE POINT ENERGY      -695.513556781615
FINAL SINGLE POINT ENERGY      -695.513723802114
FINAL SINGLE POINT ENERGY      -695.513788412382
FINAL SINGLE POINT ENERGY      -695.513836382979
Dispersion correction            ... done
Dispersion correction           -0.067091638
FINAL SINGLE POINT ENERGY      -695.513843809311
Dispersion correction            ... done
Dispersion correction           -0.067113574
FINAL SINGLE POINT ENERGY      -695.513845722748
Dispersion correction            ... done
                    ***********************HURRAY********************

CARTESIAN COORDINATES (ANGSTROEM)
---------------------------------
  C      1.285271   -0.329849   -1.935149
  C      0.599889    0.734487   -1.344398
  O      1.265001    1.920570   -1.300022
  C      0.638988    3.064391   -0.740727
  C      0.624453    3.053809    0.779836
  C     -0.707081    0.533696   -0.876044
  C     -1.312333   -0.727434   -0.951643
  C     -2.747482   -0.893675   -0.505513
  C     -3.723421   -1.020472   -1.681600
  C     -0.593308   -1.797386   -1.510167
  O     -1.175047   -3.044489   -1.596831
  C     -1.106916   -3.861361   -0.422942
  C      0.296525   -4.323165   -0.054974
  C      0.706231   -1.601686   -2.033460
  C      1.399002   -2.718266   -2.698829
  C      2.713842   -2.804762   -2.946584
  H      2.275860   -0.133772   -2.346436
  H     -0.381544    3.182021   -1.149254
  H      1.231280    3.915454   -1.107665
  H      0.011232    2.234885    1.181050
  H      0.210827    4.001026    1.161462
  H      1.645672    2.934519    1.171956
  H     -1.281654    1.353413   -0.446889
  H     -3.026667   -0.028765    0.117514
  H     -2.852040   -1.778527    0.140448
  H     -3.683963   -0.128288   -2.326976
  H     -4.757140   -1.137594   -1.316737
  H     -3.471267   -1.895831   -2.298634
  H     -1.754054   -4.723185   -0.644705
  H     -1.555559   -3.321567    0.430665
  H      0.755414   -4.909783   -0.863479
  H      0.252022   -4.954190    0.847616
  H      0.955897   -3.470386    0.162791
  H      0.744789   -3.538299   -3.004499
  H      3.419381   -2.030691   -2.630866
  H      3.133149   -3.667860   -3.469673

 Multiplicity           Mult            ....    1
 Number of Electrons    NEL             ....  120
 Basis Dimension        Dim             ....  324

ORBITAL ENERGIES
----------------

  NO   OCC          E(Eh)            E(eV)
   0   2.0000     -19.157331      -521.2975
   1   2.0000     -19.143352      -520.9171
   2   2.0000     -10.245041      -278.7817
   3   2.0000     -10.242833      -278.7216
   4   2.0000     -10.238696      -278.6091
   5   2.0000     -10.228988      -278.3449
   6   2.0000     -10.192336      -277.3476
   7   2.0000     -10.191598      -277.3275
   8   2.0000     -10.188572      -277.2451
   9   2.0000     -10.188279      -277.2372
  10   2.0000     -10.187231      -277.2087
  11   2.0000     -10.184120      -277.1240
  12   2.0000     -10.181306      -277.0474
  13   2.0000     -10.180667      -277.0300
  14   2.0000     -10.178654      -276.9753
  15   2.0000     -10.175759      -276.8965
  16   2.0000      -1.052431       -28.6381
  17   2.0000      -1.035764       -28.1846
  18   2.0000      -0.847766       -23.0689
  19   2.0000      -0.791881       -21.5482
  20   2.0000      -0.776297       -21.1241
  21   2.0000      -0.752654       -20.4808
  22   2.0000      -0.747950       -20.3528
  23   2.0000      -0.709437       -19.3048
  24   2.0000      -0.705046       -19.1853
  25   2.0000      -0.646974       -17.6051
  26   2.0000      -0.636877       -17.3303
  27   2.0000      -0.613949       -16.7064
  28   2.0000      -0.602966       -16.4075
  29   2.0000      -0.559889       -15.2354
  30   2.0000      -0.541913       -14.7462
  31   2.0000      -0.522211       -14.2101
  32   2.0000      -0.512025       -13.9329
  33   2.0000      -0.501457       -13.6453
  34   2.0000      -0.476050       -12.9540
  35   2.0000      -0.465549       -12.6682
  36   2.0000      -0.452397       -12.3103
  37   2.0000      -0.440756       -11.9936
  38   2.0000      -0.437180       -11.8963
  39   2.0000      -0.436482       -11.8773
  40   2.0000      -0.427696       -11.6382
  41   2.0000      -0.414941       -11.2911
  42   2.0000      -0.410059       -11.1583
  43   2.0000      -0.398379       -10.8405
  44   2.0000      -0.393874       -10.7179
  45   2.0000      -0.382728       -10.4146
  46   2.0000      -0.380686       -10.3590
  47   2.0000      -0.374781       -10.1983
  48   2.0000      -0.370761       -10.0889
  49   2.0000      -0.362601        -9.8669
  50   2.0000      -0.356046        -9.6885
  51   2.0000      -0.343865        -9.3571
  52   2.0000      -0.341641        -9.2965
  53   2.0000      -0.333766        -9.0822
  54   2.0000      -0.318425        -8.6648
  55   2.0000      -0.313990        -8.5441
  56   2.0000      -0.280716        -7.6387
  57   2.0000      -0.271560        -7.3895
  58   2.0000      -0.228426        -6.2158
  59   2.0000      -0.209916        -5.7121
  60   0.0000      -0.034664        -0.9433
  61   0.0000       0.004991         0.1358
  62   0.0000       0.048986         1.3330
  63   0.0000       0.057407         1.5621
  64   0.0000       0.062763         1.7079

MULLIKEN ATOMIC CHARGES
-----------------------
   0 C :   -0.102002
   1 C :    0.265573
   2 O :   -0.317594
   3 C :    0.189597
   4 C :   -0.014601
   5 C :   -0.147918
   6 C :   -0.033875
   7 C :    0.075965
   8 C :    0.011180
   9 C :    0.086906
  10 O :   -0.356196
  11 C :    0.204470
  12 C :   -0.027860
  13 C :    0.073289
  14 C :   -0.013038
  15 C :   -0.025167
  16 H :   -0.039508
  17 H :    0.003576
  18 H :    0.010236
  19 H :    0.020894
  20 H :    0.012395
  21 H :    0.023170
  22 H :   -0.041405
  23 H :   -0.015841
  24 H :   -0.001279
  25 H :    0.007061
  26 H :    0.006502
  27 H :    0.029087
  28 H :    0.012764
  29 H :   -0.003732
  30 H :    0.023937
  31 H :    0.013379
  32 H :    0.034173
  33 H :   -0.000321
  34 H :    0.017422
  35 H :    0.018761
Sum of atomic charges:   -0.0000000

LOEWDIN ATOMIC CHARGES
----------------------
   0 C :   -0.039604
   1 C :    0.049619
   2 O :   -0.104190
   3 C :    0.082677
   4 C :   -0.069232
   5 C :   -0.074785
   6 C :   -0.028658
   7 C :   -0.024411
   8 C :   -0.049175
   9 C :    0.025088
  10 O :   -0.137836
  11 C :    0.088436
  12 C :   -0.073857
  13 C :   -0.037080
  14 C :   -0.015291
  15 C :   -0.052525
  16 H :    0.028297
  17 H :    0.008918
  18 H :    0.023148
  19 H :    0.024032
  20 H :    0.029691
  21 H :    0.029188
  22 H :    0.021582
  23 H :    0.021040
  24 H :    0.024239
  25 H :    0.021092
  26 H :    0.020376
  27 H :    0.026357
  28 H :    0.019843
  29 H :    0.004616
  30 H :    0.026703
  31 H :    0.029679
  32 H :    0.030631
  33 H :    0.027334
  34 H :    0.019964
  35 H :    0.024093

  Mayer bond orders larger than 0.100000
B(  0-C ,  1-C ) :   1.3459 B(  0-C , 13-C ) :   1.3247 B(  0-C , 16-H ) :   0.9926
B(  1-C ,  2-O ) :   1.1175 B(  1-C ,  5-C ) :   1.2624 B(  2-O ,  3-C ) :   0.9627
B(  3-C ,  4-C ) :   1.1112 B(  3-C , 17-H ) :   0.9428 B(  3-C , 18-H ) :   0.9515
B(  4-C , 19-H ) :   0.9661 B(  4-C , 20-H ) :   0.9589 B(  4-C , 21-H ) :   0.9611
B(  5-C ,  6-C ) :   1.3512 B(  5-C , 22-H ) :   0.9791 B(  6-C ,  7-C ) :   1.0447
B(  6-C ,  9-C ) :   1.3718 B(  7-C ,  8-C ) :   1.1000 B(  7-C , 23-H ) :   0.9220
B(  7-C , 24-H ) :   0.9211 B(  8-C , 25-H ) :   0.9676 B(  8-C , 26-H ) :   0.9652
B(  8-C , 27-H ) :   0.9690 B(  9-C , 10-O ) :   1.0937 B(  9-C , 13-C ) :   1.3256
B( 10-O , 11-C ) :   0.9501 B( 11-C , 12-C ) :   1.1152 B( 11-C , 28-H ) :   0.9566
B( 11-C , 29-H ) :   0.9369 B( 12-C , 30-H ) :   0.9597 B( 12-C , 31-H ) :   0.9530
B( 12-C , 32-H ) :   0.9618 B( 13-C , 14-C ) :   1.0761 B( 14-C , 15-C ) :   1.9284
B( 14-C , 33-H ) :   0.9511 B( 15-C , 34-H ) :   0.9432 B( 15-C , 35-H ) :   0.9461

Dispersion correction           -0.067116418
FINAL SINGLE POINT ENERGY      -695.513845200415

DIPOLE MOMENT
-------------
                                X             Y             Z
Electronic contribution:      4.80508       1.19668      -6.49455
Nuclear contribution   :     -5.07470      -0.90178       7.27914
                        -----------------------------------------
Total Dipole Moment    :     -0.26962       0.29490       0.78459
                        -----------------------------------------
Magnitude (a.u.)       :      0.88047
Magnitude (Debye)      :      2.23799

Rotational constants in cm-1:     0.021674     0.012491     0.009263
Rotational constants in MHz :   649.764221   374.471699   277.683474

                             ****ORCA TERMINATED NORMALLY****
TOTAL RUN TIME: 0 days 0 hours 58 minutes 0 seconds 752 msec
