                         Program Version 4.2.0 -  RELEASE  -
|  1> # ORCA input file
|  2> # SCF done        -42.116312300199          0.000481483043
|  3> ! B3LYP/G D3BJ Opt RIJCOSX def2-SVP def2/J
|  4> * xyz 0 1
|  5>    C       -1.51876        -1.49161         0.02086
|  6>    S       -2.85684        -0.43644         0.14728
|  7>    C       -1.83341         0.96606         0.04910
|  8>    C       -0.51293         0.59435        -0.09544
|  9>    C       -0.33613        -0.82363        -0.11537
| 10>    O        0.82080        -1.50487        -0.36776
| 11>    C        1.93372        -1.28223         0.47191
| 12>    C        2.10076         0.16180         0.94862
| 13>    C        1.79980         1.19480        -0.13292
| 14>    S        2.44978         0.66812        -1.78343
| 15>    C        2.17937         2.23825        -2.64672
| 16>    O        0.45432         1.55492        -0.20697
| 17>    C       -2.44201         2.26881         0.10775
| 18>    C       -1.81198         3.43619         0.00640
| 19>    H       -1.65686        -2.55330         0.00831
| 20>    H        2.79339        -1.57840        -0.13493
| 21>    H        1.87162        -1.94440         1.34878
| 22>    H        3.12547         0.28921         1.29691
| 23>    H        1.42543         0.36345         1.78636
| 24>    H        2.31373         2.13667         0.09094
| 25>    H        2.40861         2.06209        -3.69231
| 26>    H        2.84115         2.99909        -2.24039
| 27>    H        1.13856         2.52865        -2.53371
| 28>    H       -3.51560         2.24406         0.24505
| 29>    H       -0.74885         3.49840        -0.13601
| 30>    H       -2.35385         4.36416         0.06216
| 31> *
| 32>
| 33>                          ****END OF INPUT****
 Total Charge           Charge          ....    0
 Multiplicity           Mult            ....    1
 Number of Electrons    NEL             ....  120
Dispersion correction           -0.058446168
FINAL SINGLE POINT ENERGY     -1334.496126213292
Dispersion correction            ... done
Dispersion correction           -0.057554353
FINAL SINGLE POINT ENERGY     -1334.499446330336
Dispersion correction            ... done
Dispersion correction           -0.057587065
FINAL SINGLE POINT ENERGY     -1334.499869462579
Dispersion correction            ... done
FINAL SINGLE POINT ENERGY     -1334.499967429676
FINAL SINGLE POINT ENERGY     -1334.500083611338
FINAL SINGLE POINT ENERGY     -1334.500122986056
FINAL SINGLE POINT ENERGY     -1334.500114655051
FINAL SINGLE POINT ENERGY     -1334.500119313099
FINAL SINGLE POINT ENERGY     -1334.500119532983
FINAL SINGLE POINT ENERGY     -1334.500115872282
FINAL SINGLE POINT ENERGY     -1334.500102624117
FINAL SINGLE POINT ENERGY     -1334.500077027402
FINAL SINGLE POINT ENERGY     -1334.500044335434
Dispersion correction            ... done
Dispersion correction           -0.057539346
FINAL SINGLE POINT ENERGY     -1334.500033004842
Dispersion correction            ... done
Dispersion correction           -0.057526002
FINAL SINGLE POINT ENERGY     -1334.500035673020
Dispersion correction            ... done
                    ***********************HURRAY********************

CARTESIAN COORDINATES (ANGSTROEM)
---------------------------------
  C     -1.552566   -1.549087    0.052740
  S     -2.902463   -0.490752    0.205518
  C     -1.889966    0.932012    0.075103
  C     -0.562359    0.567478   -0.101064
  C     -0.372542   -0.862971   -0.114313
  O      0.803981   -1.500246   -0.368001
  C      1.891915   -1.288930    0.519253
  C      2.129876    0.183417    0.869859
  C      1.775566    1.180806   -0.233772
  S      2.371635    0.648102   -1.888339
  C      2.357701    2.278176   -2.694697
  O      0.395821    1.524328   -0.221829
  C     -2.503381    2.244547    0.160226
  C     -1.896792    3.443315    0.085922
  H     -1.669397   -2.630580    0.053129
  H      2.761734   -1.701420   -0.011578
  H      1.746764   -1.873336    1.446394
  H      3.189484    0.311186    1.139989
  H      1.542052    0.478398    1.754330
  H      2.271702    2.137712   -0.020872
  H      2.684826    2.128208   -3.733100
  H      3.050774    2.976035   -2.200208
  H      1.341426    2.697659   -2.692585
  H     -3.589508    2.223124    0.309203
  H     -0.820774    3.538172   -0.060597
  H     -2.486219    4.358846    0.173758

 Multiplicity           Mult            ....    1
 Number of Electrons    NEL             ....  120
 Basis Dimension        Dim             ....  264

ORBITAL ENERGIES
----------------

  NO   OCC          E(Eh)            E(eV)
   0   2.0000     -88.869737     -2418.2685
   1   2.0000     -88.835538     -2417.3379
   2   2.0000     -19.174434      -521.7629
   3   2.0000     -19.158946      -521.3414
   4   2.0000     -10.280482      -279.7461
   5   2.0000     -10.252556      -278.9862
   6   2.0000     -10.249909      -278.9142
   7   2.0000     -10.247384      -278.8455
   8   2.0000     -10.213056      -277.9114
   9   2.0000     -10.211033      -277.8563
  10   2.0000     -10.209150      -277.8051
  11   2.0000     -10.206955      -277.7454
  12   2.0000     -10.195991      -277.4470
  13   2.0000     -10.176868      -276.9267
  14   2.0000      -7.964621      -216.7284
  15   2.0000      -7.931039      -215.8145
  16   2.0000      -5.932762      -161.4387
  17   2.0000      -5.929078      -161.3384
  18   2.0000      -5.925524      -161.2417
  19   2.0000      -5.900264      -160.5543
  20   2.0000      -5.896623      -160.4553
  21   2.0000      -5.889368      -160.2578
  22   2.0000      -1.074348       -29.2345
  23   2.0000      -1.050625       -28.5890
  24   2.0000      -0.878393       -23.9023
  25   2.0000      -0.816256       -22.2115
  26   2.0000      -0.780504       -21.2386
  27   2.0000      -0.767644       -20.8887
  28   2.0000      -0.727918       -19.8076
  29   2.0000      -0.721655       -19.6372
  30   2.0000      -0.678043       -18.4505
  31   2.0000      -0.640161       -17.4197
  32   2.0000      -0.610707       -16.6182
  33   2.0000      -0.597215       -16.2510
  34   2.0000      -0.572710       -15.5842
  35   2.0000      -0.540042       -14.6953
  36   2.0000      -0.505188       -13.7469
  37   2.0000      -0.492860       -13.4114
  38   2.0000      -0.489749       -13.3268
  39   2.0000      -0.470362       -12.7992
  40   2.0000      -0.453475       -12.3397
  41   2.0000      -0.452073       -12.3015
  42   2.0000      -0.441058       -12.0018
  43   2.0000      -0.438147       -11.9226
  44   2.0000      -0.424929       -11.5629
  45   2.0000      -0.417906       -11.3718
  46   2.0000      -0.406147       -11.0518
  47   2.0000      -0.388513       -10.5720
  48   2.0000      -0.373751       -10.1703
  49   2.0000      -0.369402       -10.0519
  50   2.0000      -0.358119        -9.7449
  51   2.0000      -0.351755        -9.5717
  52   2.0000      -0.347071        -9.4443
  53   2.0000      -0.329034        -8.9535
  54   2.0000      -0.306315        -8.3353
  55   2.0000      -0.300742        -8.1836
  56   2.0000      -0.286268        -7.7898
  57   2.0000      -0.232816        -6.3353
  58   2.0000      -0.221759        -6.0344
  59   2.0000      -0.204135        -5.5548
  60   0.0000      -0.035534        -0.9669
  61   0.0000       0.027103         0.7375
  62   0.0000       0.032956         0.8968
  63   0.0000       0.041389         1.1263
  64   0.0000       0.043186         1.1751

MULLIKEN ATOMIC CHARGES
-----------------------
   0 C :   -0.140545
   1 S :    0.107656
   2 C :   -0.185306
   3 C :    0.198804
   4 C :    0.154155
   5 O :   -0.324135
   6 C :    0.266622
   7 C :   -0.031890
   8 C :    0.078095
   9 S :   -0.062095
  10 C :   -0.082826
  11 O :   -0.303397
  12 C :    0.032498
  13 C :   -0.032426
  14 H :    0.017886
  15 H :    0.023143
  16 H :    0.003842
  17 H :    0.024344
  18 H :    0.038291
  19 H :    0.030160
  20 H :    0.055184
  21 H :    0.049624
  22 H :    0.065000
  23 H :   -0.019138
  24 H :    0.024073
  25 H :    0.012383
Sum of atomic charges:   -0.0000000

LOEWDIN ATOMIC CHARGES
----------------------
   0 C :   -0.216277
   1 S :    0.427762
   2 C :   -0.209300
   3 C :   -0.002326
   4 C :   -0.024107
   5 O :   -0.117982
   6 C :    0.085189
   7 C :   -0.071278
   8 C :   -0.033037
   9 S :    0.216149
  10 C :   -0.160564
  11 O :   -0.096154
  12 C :   -0.044323
  13 C :   -0.061206
  14 H :    0.028544
  15 H :    0.022898
  16 H :    0.014790
  17 H :    0.040667
  18 H :    0.035786
  19 H :    0.021265
  20 H :    0.030836
  21 H :    0.019491
  22 H :    0.025697
  23 H :    0.025815
  24 H :    0.019953
  25 H :    0.021712

  Mayer bond orders larger than 0.100000
B(  0-C ,  1-S ) :   1.1344 B(  0-C ,  4-C ) :   1.5356 B(  0-C , 14-H ) :   0.9668
B(  1-S ,  2-C ) :   1.1192 B(  2-C ,  3-C ) :   1.4719 B(  2-C , 12-C ) :   1.1275
B(  3-C ,  4-C ) :   1.1735 B(  3-C , 11-O ) :   1.1113 B(  4-C ,  5-O ) :   1.0870
B(  5-O ,  6-C ) :   0.9735 B(  6-C ,  7-C ) :   1.0741 B(  6-C , 15-H ) :   0.9452
B(  6-C , 16-H ) :   0.9407 B(  7-C ,  8-C ) :   1.0425 B(  7-C , 17-H ) :   0.9240
B(  7-C , 18-H ) :   0.9322 B(  8-C ,  9-S ) :   1.0356 B(  8-C , 11-O ) :   0.9365
B(  8-C , 19-H ) :   0.9288 B(  9-S , 10-C ) :   1.0091 B( 10-C , 20-H ) :   0.9717
B( 10-C , 21-H ) :   0.9684 B( 10-C , 22-H ) :   0.9667 B( 12-C , 13-C ) :   1.9183
B( 12-C , 23-H ) :   0.9411 B( 13-C , 24-H ) :   0.9434 B( 13-C , 25-H ) :   0.9394

Dispersion correction           -0.057523989
FINAL SINGLE POINT ENERGY     -1334.500036766344

DIPOLE MOMENT
-------------
                                X             Y             Z
Electronic contribution:     -8.38038      -8.28374      -0.06964
Nuclear contribution   :      9.20010       8.53012       0.55919
                        -----------------------------------------
Total Dipole Moment    :      0.81972       0.24637       0.48954
                        -----------------------------------------
Magnitude (a.u.)       :      0.98605
Magnitude (Debye)      :      2.50634

Rotational constants in cm-1:     0.027039     0.014896     0.011228
Rotational constants in MHz :   810.623733   446.582283   336.595864

                             ****ORCA TERMINATED NORMALLY****
TOTAL RUN TIME: 0 days 0 hours 30 minutes 48 seconds 804 msec
