                         Program Version 4.2.0 -  RELEASE  -
|  1> # ORCA input file
|  2> # SCF done        -35.919327911028          0.000538202183
|  3> ! B3LYP/G D3BJ Opt RIJCOSX def2-SVP def2/J
|  4> * xyz 0 1
|  5>    C       -1.83283         1.11478        -0.17187
|  6>    S       -3.01417        -0.11498        -0.19731
|  7>    C       -1.82671        -1.37731        -0.20690
|  8>    C       -0.54557        -0.83592        -0.15568
|  9>    C       -0.55616         0.60156        -0.14731
| 10>    C        0.65579         1.33517        -0.11212
| 11>    C        1.83897         0.65625        -0.05831
| 12>    O        3.07789         1.22220        -0.02537
| 13>    C        3.16987         2.62378        -0.07856
| 14>    C        1.84977        -0.76853        -0.01009
| 15>    C        0.70393        -1.49466        -0.05467
| 16>    C       -2.29750        -2.73366        -0.28174
| 17>    C       -1.62572        -3.78861        -0.73955
| 18>    H       -2.13300         2.14345        -0.18095
| 19>    H        0.60077         2.41198        -0.12050
| 20>    H        4.23412         2.85292        -0.05932
| 21>    H        2.68262         3.09128         0.78368
| 22>    H        2.73012         3.01875        -1.00031
| 23>    H        2.81343        -1.24628         0.07031
| 24>    H        0.74005        -2.56945         0.01371
| 25>    H       -3.32589        -2.86400         0.03528
| 26>    H       -0.62637        -3.71681        -1.12974
| 27>    H       -2.07877        -4.76445        -0.75905
| 28> *
| 29>
| 30>                          ****END OF INPUT****
 Total Charge           Charge          ....    0
 Multiplicity           Mult            ....    1
 Number of Electrons    NEL             ....  100
Dispersion correction           -0.049498755
FINAL SINGLE POINT ENERGY      -898.140327754767
Dispersion correction            ... done
Dispersion correction           -0.049288668
FINAL SINGLE POINT ENERGY      -898.143385169647
Dispersion correction            ... done
Dispersion correction           -0.049221423
FINAL SINGLE POINT ENERGY      -898.143427907220
Dispersion correction            ... done
FINAL SINGLE POINT ENERGY      -898.143435522127
FINAL SINGLE POINT ENERGY      -898.143451947542
FINAL SINGLE POINT ENERGY      -898.143449068250
FINAL SINGLE POINT ENERGY      -898.143447123931
FINAL SINGLE POINT ENERGY      -898.143442356231
FINAL SINGLE POINT ENERGY      -898.143421449934
FINAL SINGLE POINT ENERGY      -898.143406913256
FINAL SINGLE POINT ENERGY      -898.143369738520
FINAL SINGLE POINT ENERGY      -898.143469714420
FINAL SINGLE POINT ENERGY      -898.143473818299
FINAL SINGLE POINT ENERGY      -898.143482876514
Dispersion correction            ... done
Dispersion correction           -0.049115040
FINAL SINGLE POINT ENERGY      -898.143489790228
Dispersion correction            ... done
Dispersion correction           -0.049116079
FINAL SINGLE POINT ENERGY      -898.143489779330
Dispersion correction            ... done
                    ***********************HURRAY********************

CARTESIAN COORDINATES (ANGSTROEM)
---------------------------------
  C     -1.840670    1.136848   -0.154710
  S     -3.010522   -0.106156   -0.241868
  C     -1.829373   -1.377981   -0.298387
  C     -0.534554   -0.827315   -0.252430
  C     -0.547752    0.621826   -0.165592
  C      0.675296    1.359857   -0.102814
  C      1.869431    0.676215   -0.129547
  O      3.095148    1.250655   -0.070574
  C      3.173958    2.651971    0.027504
  C      1.890488   -0.755670   -0.228254
  C      0.734012   -1.485434   -0.285963
  C     -2.335818   -2.735221   -0.385596
  C     -1.665820   -3.902195   -0.417838
  H     -2.139349    2.181348   -0.090921
  H      0.633104    2.445928   -0.029431
  H      4.240574    2.910135    0.055666
  H      2.687165    3.023718    0.947716
  H      2.705438    3.149389   -0.841371
  H      2.868776   -1.239083   -0.258924
  H      0.792034   -2.569261   -0.367952
  H     -3.430258   -2.792738   -0.430187
  H     -0.579026   -3.977505   -0.374391
  H     -2.217642   -4.841868   -0.490506

 Multiplicity           Mult            ....    1
 Number of Electrons    NEL             ....  100
 Basis Dimension        Dim             ....  236

ORBITAL ENERGIES
----------------

  NO   OCC          E(Eh)            E(eV)
   0   2.0000     -88.880313     -2418.5563
   1   2.0000     -19.167946      -521.5863
   2   2.0000     -10.250458      -278.9291
   3   2.0000     -10.248291      -278.8702
   4   2.0000     -10.217892      -278.0430
   5   2.0000     -10.208715      -277.7933
   6   2.0000     -10.203284      -277.6455
   7   2.0000     -10.200925      -277.5813
   8   2.0000     -10.197970      -277.5009
   9   2.0000     -10.197637      -277.4918
  10   2.0000     -10.192184      -277.3434
  11   2.0000     -10.187634      -277.2196
  12   2.0000     -10.186385      -277.1856
  13   2.0000      -7.975069      -217.0126
  14   2.0000      -5.942716      -161.7095
  15   2.0000      -5.938814      -161.6034
  16   2.0000      -5.937298      -161.5621
  17   2.0000      -1.064378       -28.9632
  18   2.0000      -0.890206       -24.2237
  19   2.0000      -0.827961       -22.5300
  20   2.0000      -0.784459       -21.3462
  21   2.0000      -0.749286       -20.3891
  22   2.0000      -0.744192       -20.2505
  23   2.0000      -0.699110       -19.0238
  24   2.0000      -0.687573       -18.7098
  25   2.0000      -0.613646       -16.6982
  26   2.0000      -0.603267       -16.4157
  27   2.0000      -0.575727       -15.6663
  28   2.0000      -0.546762       -14.8781
  29   2.0000      -0.523613       -14.2482
  30   2.0000      -0.505576       -13.7574
  31   2.0000      -0.477201       -12.9853
  32   2.0000      -0.475138       -12.9292
  33   2.0000      -0.459117       -12.4932
  34   2.0000      -0.454916       -12.3789
  35   2.0000      -0.429607       -11.6902
  36   2.0000      -0.417762       -11.3679
  37   2.0000      -0.412333       -11.2201
  38   2.0000      -0.407430       -11.0867
  39   2.0000      -0.384998       -10.4763
  40   2.0000      -0.376530       -10.2459
  41   2.0000      -0.367063        -9.9883
  42   2.0000      -0.352053        -9.5798
  43   2.0000      -0.342076        -9.3083
  44   2.0000      -0.332110        -9.0372
  45   2.0000      -0.312499        -8.5035
  46   2.0000      -0.308134        -8.3848
  47   2.0000      -0.263181        -7.1615
  48   2.0000      -0.232288        -6.3209
  49   2.0000      -0.193175        -5.2566
  50   0.0000      -0.065944        -1.7944
  51   0.0000      -0.001209        -0.0329
  52   0.0000       0.022301         0.6068
  53   0.0000       0.034031         0.9260
  54   0.0000       0.060389         1.6433

MULLIKEN ATOMIC CHARGES
-----------------------
   0 C :   -0.135780
   1 S :    0.133714
   2 C :   -0.174895
   3 C :    0.144694
   4 C :    0.090063
   5 C :   -0.135475
   6 C :    0.227141
   7 O :   -0.310920
   8 C :    0.184540
   9 C :    0.000649
  10 C :   -0.032776
  11 C :    0.054405
  12 C :   -0.054903
  13 H :    0.012782
  14 H :   -0.043216
  15 H :    0.031467
  16 H :    0.017942
  17 H :    0.019867
  18 H :   -0.018808
  19 H :   -0.033718
  20 H :   -0.011538
  21 H :    0.015467
  22 H :    0.019299
Sum of atomic charges:    0.0000000

LOEWDIN ATOMIC CHARGES
----------------------
   0 C :   -0.218612
   1 S :    0.477549
   2 C :   -0.187958
   3 C :   -0.052296
   4 C :   -0.038560
   5 C :   -0.089680
   6 C :    0.047740
   7 O :   -0.096301
   8 C :    0.078818
   9 C :   -0.034251
  10 C :   -0.011427
  11 C :   -0.045319
  12 C :   -0.063157
  13 H :    0.022671
  14 H :    0.025524
  15 H :    0.026340
  16 H :    0.013082
  17 H :    0.013340
  18 H :    0.032593
  19 H :    0.028464
  20 H :    0.027645
  21 H :    0.018126
  22 H :    0.025668

  Mayer bond orders larger than 0.100000
B(  0-C ,  1-S ) :   1.1786 B(  0-C ,  2-C ) :   0.1103 B(  0-C ,  4-C ) :   1.3982
B(  0-C , 13-H ) :   0.9647 B(  1-S ,  2-C ) :   1.1696 B(  2-C ,  3-C ) :   1.3510
B(  2-C , 11-C ) :   1.1406 B(  3-C ,  4-C ) :   1.2053 B(  3-C , 10-C ) :   1.1741
B(  4-C ,  5-C ) :   1.1486 B(  5-C ,  6-C ) :   1.4393 B(  5-C , 14-H ) :   0.9991
B(  6-C ,  7-O ) :   1.1265 B(  6-C ,  9-C ) :   1.1958 B(  7-O ,  8-C ) :   0.9718
B(  8-C , 15-H ) :   0.9763 B(  8-C , 16-H ) :   0.9642 B(  8-C , 17-H ) :   0.9641
B(  9-C , 10-C ) :   1.5463 B(  9-C , 18-H ) :   0.9827 B( 10-C , 19-H ) :   0.9941
B( 11-C , 12-C ) :   1.8922 B( 11-C , 20-H ) :   0.9403 B( 12-C , 21-H ) :   0.9595
B( 12-C , 22-H ) :   0.9403

Dispersion correction           -0.049121555
FINAL SINGLE POINT ENERGY      -898.143493836443

DIPOLE MOMENT
-------------
                                X             Y             Z
Electronic contribution:     -7.45725       0.21161      -0.14723
Nuclear contribution   :      7.63090       0.42685       0.18813
                        -----------------------------------------
Total Dipole Moment    :      0.17365       0.63846       0.04090
                        -----------------------------------------
Magnitude (a.u.)       :      0.66291
Magnitude (Debye)      :      1.68500

Rotational constants in cm-1:     0.048801     0.014761     0.011358
Rotational constants in MHz :  1463.029734   442.515513   340.508305

                             ****ORCA TERMINATED NORMALLY****
TOTAL RUN TIME: 0 days 0 hours 26 minutes 31 seconds 669 msec
