                         Program Version 4.2.0 -  RELEASE  -
|  1> # ORCA input file
|  2> # SCF done        -36.030869850673          0.000557668811
|  3> ! B3LYP/G D3BJ Opt RIJCOSX def2-SVP def2/J
|  4> * xyz 0 1
|  5>    C        1.54032        -1.24087        -0.13816
|  6>    S        2.77779        -0.05791        -0.07081
|  7>    C        1.60335         1.21830         0.13215
|  8>    C        0.32495         0.71235         0.12342
|  9>    C        0.29644        -0.69926        -0.02659
| 10>    C       -0.96703        -1.51148        -0.10220
| 11>    C       -1.12589        -2.03398        -1.50341
| 12>    C       -1.20776        -3.31357        -1.81341
| 13>    C       -2.17751        -0.66311         0.31528
| 14>    C       -2.12643         0.72625        -0.31012
| 15>    C       -0.93483         1.51128         0.23440
| 16>    C        2.10873         2.56175         0.26032
| 17>    C        1.47230         3.62129         0.75217
| 18>    H        1.79804        -2.27455        -0.25928
| 19>    H       -0.88260        -2.36948         0.57443
| 20>    H       -1.15998        -1.28266        -2.28062
| 21>    H       -1.16996        -4.08441        -1.06045
| 22>    H       -1.31641        -3.64891        -2.83119
| 23>    H       -2.18494        -0.56300         1.40331
| 24>    H       -3.09247        -1.17959         0.01806
| 25>    H       -3.04887         1.26680        -0.08777
| 26>    H       -2.04487         0.64154        -1.39487
| 27>    H       -1.11499         1.75179         1.28792
| 28>    H       -0.82456         2.45288        -0.30866
| 29>    H        3.13452         2.67462        -0.06995
| 30>    H        0.47304         3.57716         1.14376
| 31>    H        1.95864         4.58068         0.79543
| 32> *
| 33>
| 34>                          ****END OF INPUT****
 Total Charge           Charge          ....    0
 Multiplicity           Mult            ....    1
 Number of Electrons    NEL             ....  102
Dispersion correction           -0.058387467
FINAL SINGLE POINT ENERGY      -863.464813420232
Dispersion correction            ... done
Dispersion correction           -0.057787328
FINAL SINGLE POINT ENERGY      -863.468726901805
Dispersion correction            ... done
Dispersion correction           -0.057652182
FINAL SINGLE POINT ENERGY      -863.468804885843
Dispersion correction            ... done
FINAL SINGLE POINT ENERGY      -863.468680327263
FINAL SINGLE POINT ENERGY      -863.468708902501
FINAL SINGLE POINT ENERGY      -863.468720219260
FINAL SINGLE POINT ENERGY      -863.468698430864
FINAL SINGLE POINT ENERGY      -863.468644395006
FINAL SINGLE POINT ENERGY      -863.468512681872
FINAL SINGLE POINT ENERGY      -863.468453043453
Dispersion correction            ... done
Dispersion correction           -0.057534981
FINAL SINGLE POINT ENERGY      -863.468571240380
Dispersion correction            ... done
Dispersion correction           -0.057531952
FINAL SINGLE POINT ENERGY      -863.468562288017
Dispersion correction            ... done
                    ***********************HURRAY********************

CARTESIAN COORDINATES (ANGSTROEM)
---------------------------------
  C      1.573959   -1.289592    0.008523
  S      2.802550   -0.094783    0.136478
  C      1.627115    1.199962    0.217860
  C      0.333308    0.690159    0.144875
  C      0.312303   -0.738705    0.021560
  C     -0.966153   -1.541905   -0.133539
  C     -1.136763   -1.987842   -1.567693
  C     -1.211065   -3.260577   -1.964722
  C     -2.178570   -0.726480    0.369393
  C     -2.187358    0.703299   -0.176250
  C     -0.935792    1.497394    0.230034
  C      2.146936    2.552874    0.341619
  C      1.481758    3.708590    0.524906
  H      1.832130   -2.342306   -0.096384
  H     -0.881866   -2.451457    0.482855
  H     -1.189078   -1.187956   -2.315939
  H     -1.150080   -4.087556   -1.248963
  H     -1.333493   -3.528543   -3.017652
  H     -2.149830   -0.696791    1.472852
  H     -3.104266   -1.251850    0.085595
  H     -3.082747    1.235030    0.183373
  H     -2.266405    0.676536   -1.276495
  H     -1.051000    1.861455    1.268117
  H     -0.850745    2.402169   -0.391969
  H      3.239544    2.615954    0.267539
  H      0.398956    3.768302    0.634062
  H      2.035673    4.648529    0.583124

 Multiplicity           Mult            ....    1
 Number of Electrons    NEL             ....  102
 Basis Dimension        Dim             ....  256

ORBITAL ENERGIES
----------------

  NO   OCC          E(Eh)            E(eV)
   0   2.0000     -88.867924     -2418.2192
   1   2.0000     -10.211178      -277.8603
   2   2.0000     -10.205447      -277.7043
   3   2.0000     -10.202003      -277.6106
   4   2.0000     -10.200206      -277.5617
   5   2.0000     -10.193676      -277.3840
   6   2.0000     -10.193183      -277.3706
   7   2.0000     -10.192339      -277.3477
   8   2.0000     -10.192073      -277.3404
   9   2.0000     -10.189189      -277.2619
  10   2.0000     -10.189085      -277.2591
  11   2.0000     -10.185995      -277.1750
  12   2.0000     -10.183717      -277.1130
  13   2.0000      -7.963056      -216.6858
  14   2.0000      -5.930974      -161.3900
  15   2.0000      -5.927135      -161.2855
  16   2.0000      -5.924574      -161.2159
  17   2.0000      -0.882743       -24.0207
  18   2.0000      -0.823974       -22.4215
  19   2.0000      -0.786462       -21.4007
  20   2.0000      -0.769721       -20.9452
  21   2.0000      -0.729417       -19.8484
  22   2.0000      -0.723482       -19.6869
  23   2.0000      -0.685922       -18.6649
  24   2.0000      -0.630951       -17.1691
  25   2.0000      -0.605976       -16.4895
  26   2.0000      -0.582083       -15.8393
  27   2.0000      -0.562309       -15.3012
  28   2.0000      -0.538999       -14.6669
  29   2.0000      -0.504234       -13.7209
  30   2.0000      -0.490428       -13.3452
  31   2.0000      -0.465048       -12.6546
  32   2.0000      -0.454124       -12.3574
  33   2.0000      -0.447219       -12.1695
  34   2.0000      -0.436928       -11.8894
  35   2.0000      -0.426503       -11.6057
  36   2.0000      -0.414074       -11.2675
  37   2.0000      -0.406420       -11.0593
  38   2.0000      -0.390654       -10.6302
  39   2.0000      -0.381490       -10.3809
  40   2.0000      -0.378480       -10.2990
  41   2.0000      -0.366213        -9.9652
  42   2.0000      -0.353262        -9.6127
  43   2.0000      -0.340288        -9.2597
  44   2.0000      -0.332896        -9.0586
  45   2.0000      -0.327906        -8.9228
  46   2.0000      -0.317624        -8.6430
  47   2.0000      -0.297148        -8.0858
  48   2.0000      -0.264613        -7.2005
  49   2.0000      -0.240747        -6.5511
  50   2.0000      -0.211616        -5.7584
  51   0.0000      -0.041774        -1.1367
  52   0.0000       0.002819         0.0767
  53   0.0000       0.031909         0.8683
  54   0.0000       0.036186         0.9847
  55   0.0000       0.055903         1.5212

MULLIKEN ATOMIC CHARGES
-----------------------
   0 C :   -0.119818
   1 S :    0.101385
   2 C :   -0.164762
   3 C :   -0.040686
   4 C :   -0.013068
   5 C :    0.046112
   6 C :   -0.015992
   7 C :   -0.038205
   8 C :    0.062118
   9 C :    0.020938
  10 C :    0.099338
  11 C :    0.037308
  12 C :   -0.046232
  13 H :    0.011866
  14 H :   -0.019877
  15 H :    0.002772
  16 H :    0.010686
  17 H :    0.018100
  18 H :    0.004189
  19 H :   -0.004534
  20 H :   -0.006532
  21 H :    0.005100
  22 H :    0.014867
  23 H :    0.017137
  24 H :   -0.010834
  25 H :    0.010708
  26 H :    0.017915
Sum of atomic charges:   -0.0000000

LOEWDIN ATOMIC CHARGES
----------------------
   0 C :   -0.193510
   1 S :    0.432437
   2 C :   -0.185157
   3 C :   -0.055471
   4 C :   -0.058725
   5 C :   -0.023314
   6 C :   -0.012046
   7 C :   -0.066972
   8 C :   -0.019669
   9 C :   -0.030359
  10 C :   -0.025218
  11 C :   -0.041878
  12 C :   -0.063305
  13 H :    0.023295
  14 H :    0.030582
  15 H :    0.023309
  16 H :    0.018792
  17 H :    0.023442
  18 H :    0.022602
  19 H :    0.023056
  20 H :    0.024023
  21 H :    0.020541
  22 H :    0.031389
  23 H :    0.030992
  24 H :    0.027592
  25 H :    0.018478
  26 H :    0.025093

  Mayer bond orders larger than 0.100000
B(  0-C ,  1-S ) :   1.1589 B(  0-C ,  4-C ) :   1.5255 B(  0-C , 13-H ) :   0.9634
B(  1-S ,  2-C ) :   1.1279 B(  2-C ,  3-C ) :   1.4944 B(  2-C , 11-C ) :   1.1244
B(  3-C ,  4-C ) :   1.3043 B(  3-C , 10-C ) :   1.0733 B(  4-C ,  5-C ) :   0.9742
B(  5-C ,  6-C ) :   1.0117 B(  5-C ,  8-C ) :   1.0527 B(  5-C , 14-H ) :   0.8932
B(  6-C ,  7-C ) :   2.0072 B(  6-C , 15-H ) :   0.9551 B(  7-C , 16-H ) :   0.9538
B(  7-C , 17-H ) :   0.9479 B(  8-C ,  9-C ) :   1.0773 B(  8-C , 18-H ) :   0.9377
B(  8-C , 19-H ) :   0.9305 B(  9-C , 10-C ) :   1.0806 B(  9-C , 20-H ) :   0.9272
B(  9-C , 21-H ) :   0.9416 B( 10-C , 22-H ) :   0.9084 B( 10-C , 23-H ) :   0.9059
B( 11-C , 12-C ) :   1.9050 B( 11-C , 24-H ) :   0.9413 B( 12-C , 25-H ) :   0.9533
B( 12-C , 26-H ) :   0.9397

Dispersion correction           -0.057533257
FINAL SINGLE POINT ENERGY      -863.468561801601

DIPOLE MOMENT
-------------
                                X             Y             Z
Electronic contribution:     13.24842      -1.02883       1.62948
Nuclear contribution   :    -13.62496       0.98781      -1.59229
                        -----------------------------------------
Total Dipole Moment    :     -0.37654      -0.04103       0.03719
                        -----------------------------------------
Magnitude (a.u.)       :      0.38059
Magnitude (Debye)      :      0.96738

Rotational constants in cm-1:     0.037334     0.018018     0.013081
Rotational constants in MHz :  1119.259757   540.154573   392.153433

                             ****ORCA TERMINATED NORMALLY****
TOTAL RUN TIME: 0 days 0 hours 28 minutes 37 seconds 240 msec
