                         Program Version 4.2.0 -  RELEASE  -
|  1> # ORCA input file
|  2> # SCF done        -61.262579237376          0.000262622963
|  3> ! B3LYP/G D3BJ Opt RIJCOSX def2-SVP def2/J
|  4> * xyz 0 1
|  5>    C        3.05831         2.31391         2.18330
|  6>    C        2.26577         2.22374         1.03970
|  7>    C        2.81022         1.75677        -0.25440
|  8>    O        2.15615         1.11990        -1.05284
|  9>    C        4.22833         2.10535        -0.51365
| 10>    C        5.08109         1.27089        -1.17242
| 11>    S        6.66321         1.91589        -1.30886
| 12>    C        6.18655         3.33981        -0.47626
| 13>    C        4.87335         3.31786        -0.10594
| 14>    C        4.17220         4.47840         0.49427
| 15>    O        3.07503         4.82217         0.10600
| 16>    C        4.90318         5.22141         1.54893
| 17>    C        5.90452         4.63879         2.32306
| 18>    C        6.54194         5.37912         3.30127
| 19>    C        6.19264         6.70338         3.51399
| 20>    C        5.18828         7.28593         2.75716
| 21>    C        4.54112         6.54677         1.78663
| 22>    C        0.92142         2.57803         1.11782
| 23>    C        0.39426         3.04416         2.30247
| 24>    C        1.18128         3.14579         3.45258
| 25>    C        2.52264         2.76408         3.37045
| 26>    C        0.57097         3.63480         4.68199
| 27>    C        1.11906         3.64104         5.89160
| 28>    H        4.09337         2.00410         2.14818
| 29>    H        4.85611         0.29908        -1.56501
| 30>    H        6.89264         4.13534        -0.33902
| 31>    H        6.17420         3.60404         2.17324
| 32>    H        7.31540         4.92273         3.90136
| 33>    H        6.70033         7.27904         4.27375
| 34>    H        4.91078         8.31554         2.92673
| 35>    H        3.75252         6.97816         1.18839
| 36>    H        0.31325         2.50207         0.22939
| 37>    H       -0.64606         3.33353         2.34697
| 38>    H        3.15607         2.83057         4.24164
| 39>    H       -0.43853         4.00926         4.56318
| 40>    H        2.11067         3.26955         6.08569
| 41>    H        0.58308         4.01773         6.74583
| 42> *
| 43>
| 44>                          ****END OF INPUT****
 Total Charge           Charge          ....    0
 Multiplicity           Mult            ....    1
 Number of Electrons    NEL             ....  166
Dispersion correction           -0.096431063
FINAL SINGLE POINT ENERGY     -1318.481529316103
Dispersion correction            ... done
Dispersion correction           -0.093979225
FINAL SINGLE POINT ENERGY     -1318.487246207793
Dispersion correction            ... done
Dispersion correction           -0.095789954
FINAL SINGLE POINT ENERGY     -1318.486556065679
Dispersion correction            ... done
FINAL SINGLE POINT ENERGY     -1318.487740979499
FINAL SINGLE POINT ENERGY     -1318.487461460248
FINAL SINGLE POINT ENERGY     -1318.487587370721
FINAL SINGLE POINT ENERGY     -1318.487690489427
FINAL SINGLE POINT ENERGY     -1318.487669069573
FINAL SINGLE POINT ENERGY     -1318.487756306243
FINAL SINGLE POINT ENERGY     -1318.487730517105
FINAL SINGLE POINT ENERGY     -1318.487738880090
FINAL SINGLE POINT ENERGY     -1318.487723530177
Dispersion correction            ... done
Dispersion correction           -0.097397552
FINAL SINGLE POINT ENERGY     -1318.487742710143
Dispersion correction            ... done
Dispersion correction           -0.097476235
FINAL SINGLE POINT ENERGY     -1318.487736909147
Dispersion correction            ... done
                    ***********************HURRAY********************

CARTESIAN COORDINATES (ANGSTROEM)
---------------------------------
  C      3.218108    2.373452    2.209971
  C      2.398657    2.202608    1.082269
  C      2.922279    1.656102   -0.207185
  O      2.245770    0.935368   -0.918209
  C      4.314348    2.037691   -0.605879
  C      5.111363    1.188114   -1.338556
  S      6.654711    1.871589   -1.679509
  C      6.248038    3.332819   -0.843241
  C      4.975654    3.290630   -0.323896
  C      4.269896    4.475834    0.277504
  O      3.247571    4.878382   -0.244282
  C      4.817960    5.102555    1.518468
  C      5.947365    4.602104    2.184909
  C      6.367411    5.177159    3.385502
  C      5.658020    6.250754    3.931862
  C      4.524564    6.748981    3.276912
  C      4.108330    6.178963    2.076939
  C      1.051948    2.580829    1.158171
  C      0.559051    3.179014    2.312430
  C      1.379843    3.384285    3.439895
  C      2.714721    2.943955    3.374052
  C      0.812765    4.060515    4.616386
  C      1.413960    4.303793    5.790598
  H      4.262137    2.058917    2.172920
  H      4.845120    0.188173   -1.676545
  H      6.947250    4.167505   -0.824540
  H      6.483251    3.746810    1.772326
  H      7.243135    4.778358    3.902322
  H      5.986760    6.698618    4.872702
  H      3.961211    7.576739    3.713345
  H      3.218990    6.534603    1.554765
  H      0.414673    2.428187    0.285386
  H     -0.479861    3.516323    2.346789
  H      3.377390    3.079961    4.230508
  H     -0.219925    4.403077    4.486217
  H      2.439185    3.990288    6.005025
  H      0.883697    4.825675    6.590841

 Multiplicity           Mult            ....    1
 Number of Electrons    NEL             ....  166
 Basis Dimension        Dim             ....  396

ORBITAL ENERGIES
----------------

  NO   OCC          E(Eh)            E(eV)
   0   2.0000     -88.894623     -2418.9457
   1   2.0000     -19.130361      -520.5636
   2   2.0000     -19.121311      -520.3173
   3   2.0000     -10.285888      -279.8932
   4   2.0000     -10.277095      -279.6540
   5   2.0000     -10.232335      -278.4360
   6   2.0000     -10.230190      -278.3776
   7   2.0000     -10.215917      -277.9892
   8   2.0000     -10.211538      -277.8701
   9   2.0000     -10.210533      -277.8427
  10   2.0000     -10.210515      -277.8422
  11   2.0000     -10.208290      -277.7817
  12   2.0000     -10.207930      -277.7719
  13   2.0000     -10.207426      -277.7582
  14   2.0000     -10.206256      -277.7263
  15   2.0000     -10.204473      -277.6778
  16   2.0000     -10.202074      -277.6126
  17   2.0000     -10.201636      -277.6006
  18   2.0000     -10.198861      -277.5251
  19   2.0000     -10.198507      -277.5155
  20   2.0000     -10.197303      -277.4827
  21   2.0000     -10.196919      -277.4723
  22   2.0000     -10.195038      -277.4211
  23   2.0000      -7.989738      -217.4118
  24   2.0000      -5.957700      -162.1173
  25   2.0000      -5.953529      -162.0038
  26   2.0000      -5.951443      -161.9470
  27   2.0000      -1.038780       -28.2666
  28   2.0000      -1.027995       -27.9732
  29   2.0000      -0.898206       -24.4414
  30   2.0000      -0.866056       -23.5666
  31   2.0000      -0.862579       -23.4720
  32   2.0000      -0.797280       -21.6951
  33   2.0000      -0.779134       -21.2013
  34   2.0000      -0.763575       -20.7779
  35   2.0000      -0.755465       -20.5572
  36   2.0000      -0.747835       -20.3496
  37   2.0000      -0.742729       -20.2107
  38   2.0000      -0.731128       -19.8950
  39   2.0000      -0.655209       -17.8291
  40   2.0000      -0.647954       -17.6317
  41   2.0000      -0.618723       -16.8363
  42   2.0000      -0.612958       -16.6794
  43   2.0000      -0.601025       -16.3547
  44   2.0000      -0.593913       -16.1612
  45   2.0000      -0.574839       -15.6422
  46   2.0000      -0.560637       -15.2557
  47   2.0000      -0.543929       -14.8011
  48   2.0000      -0.532379       -14.4868
  49   2.0000      -0.499265       -13.5857
  50   2.0000      -0.495569       -13.4851
  51   2.0000      -0.477967       -13.0061
  52   2.0000      -0.470696       -12.8083
  53   2.0000      -0.459447       -12.5022
  54   2.0000      -0.456513       -12.4223
  55   2.0000      -0.452654       -12.3173
  56   2.0000      -0.446157       -12.1405
  57   2.0000      -0.437886       -11.9155
  58   2.0000      -0.436486       -11.8774
  59   2.0000      -0.431081       -11.7303
  60   2.0000      -0.428489       -11.6598
  61   2.0000      -0.421882       -11.4800
  62   2.0000      -0.418763       -11.3951
  63   2.0000      -0.409781       -11.1507
  64   2.0000      -0.404434       -11.0052
  65   2.0000      -0.389532       -10.5997
  66   2.0000      -0.385808       -10.4984
  67   2.0000      -0.376232       -10.2378
  68   2.0000      -0.374327       -10.1859
  69   2.0000      -0.369134       -10.0446
  70   2.0000      -0.365122        -9.9355
  71   2.0000      -0.359256        -9.7759
  72   2.0000      -0.358510        -9.7556
  73   2.0000      -0.346397        -9.4259
  74   2.0000      -0.308554        -8.3962
  75   2.0000      -0.280291        -7.6271
  76   2.0000      -0.275137        -7.4869
  77   2.0000      -0.272608        -7.4180
  78   2.0000      -0.264655        -7.2016
  79   2.0000      -0.260872        -7.0987
  80   2.0000      -0.258432        -7.0323
  81   2.0000      -0.251944        -6.8557
  82   2.0000      -0.235593        -6.4108
  83   0.0000      -0.076861        -2.0915
  84   0.0000      -0.071447        -1.9442
  85   0.0000      -0.042359        -1.1526
  86   0.0000      -0.027216        -0.7406
  87   0.0000      -0.013656        -0.3716

MULLIKEN ATOMIC CHARGES
-----------------------
   0 C :    0.029235
   1 C :   -0.014234
   2 C :    0.131297
   3 O :   -0.194992
   4 C :    0.043852
   5 C :   -0.105015
   6 S :    0.128815
   7 C :   -0.119267
   8 C :   -0.015963
   9 C :    0.133328
  10 O :   -0.181546
  11 C :    0.012373
  12 C :   -0.004208
  13 C :    0.020791
  14 C :    0.037115
  15 C :    0.027245
  16 C :    0.008343
  17 C :    0.034848
  18 C :   -0.015224
  19 C :    0.095930
  20 C :   -0.023603
  21 C :    0.003054
  22 C :   -0.019782
  23 H :   -0.018398
  24 H :    0.038617
  25 H :    0.035124
  26 H :   -0.004148
  27 H :   -0.014612
  28 H :   -0.009870
  29 H :   -0.008260
  30 H :    0.000972
  31 H :   -0.005788
  32 H :   -0.023773
  33 H :   -0.025943
  34 H :   -0.016813
  35 H :    0.015242
  36 H :    0.025260
Sum of atomic charges:    0.0000000

LOEWDIN ATOMIC CHARGES
----------------------
   0 C :   -0.010350
   1 C :   -0.059626
   2 C :    0.089079
   3 O :   -0.147703
   4 C :   -0.086641
   5 C :   -0.149917
   6 S :    0.457052
   7 C :   -0.183279
   8 C :   -0.080646
   9 C :    0.088001
  10 O :   -0.136201
  11 C :   -0.064921
  12 C :   -0.008645
  13 C :   -0.027720
  14 C :   -0.005850
  15 C :   -0.019962
  16 C :    0.020328
  17 C :    0.016242
  18 C :   -0.012992
  19 C :   -0.017211
  20 C :   -0.009769
  21 C :   -0.020116
  22 C :   -0.042126
  23 H :    0.026550
  24 H :    0.035827
  25 H :    0.029214
  26 H :    0.028143
  27 H :    0.028889
  28 H :    0.029617
  29 H :    0.030834
  30 H :    0.035474
  31 H :    0.036324
  32 H :    0.027698
  33 H :    0.027225
  34 H :    0.028507
  35 H :    0.020986
  36 H :    0.027685

  Mayer bond orders larger than 0.100000
B(  0-C ,  1-C ) :   1.3448 B(  0-C , 20-C ) :   1.3977 B(  0-C , 23-H ) :   0.9784
B(  1-C ,  2-C ) :   0.9374 B(  1-C , 17-C ) :   1.3750 B(  2-C ,  3-O ) :   2.1735
B(  2-C ,  4-C ) :   0.9344 B(  4-C ,  5-C ) :   1.5148 B(  4-C ,  8-C ) :   1.2675
B(  5-C ,  6-S ) :   1.1921 B(  5-C , 24-H ) :   0.9588 B(  6-S ,  7-C ) :   1.1585
B(  7-C ,  8-C ) :   1.5487 B(  7-C , 25-H ) :   0.9639 B(  8-C ,  9-C ) :   0.9197
B(  9-C , 10-O ) :   2.1500 B(  9-C , 11-C ) :   0.9474 B( 11-C , 12-C ) :   1.3577
B( 11-C , 16-C ) :   1.3740 B( 12-C , 13-C ) :   1.3730 B( 12-C , 26-H ) :   0.9729
B( 13-C , 14-C ) :   1.3815 B( 13-C , 27-H ) :   0.9840 B( 14-C , 15-C ) :   1.3580
B( 14-C , 28-H ) :   0.9854 B( 15-C , 16-C ) :   1.3689 B( 15-C , 29-H ) :   0.9885
B( 16-C , 30-H ) :   0.9870 B( 17-C , 18-C ) :   1.3659 B( 17-C , 31-H ) :   0.9870
B( 18-C , 19-C ) :   1.3232 B( 18-C , 32-H ) :   0.9885 B( 19-C , 20-C ) :   1.3433
B( 19-C , 21-C ) :   1.0853 B( 20-C , 33-H ) :   0.9843 B( 21-C , 22-C ) :   1.9318
B( 21-C , 34-H ) :   0.9578 B( 22-C , 35-H ) :   0.9427 B( 22-C , 36-H ) :   0.9439

Dispersion correction           -0.097474054
FINAL SINGLE POINT ENERGY     -1318.487738630403

DIPOLE MOMENT
-------------
                                X             Y             Z
Electronic contribution:      5.67018      -7.90272     -18.51118
Nuclear contribution   :     -4.36070       8.51729      19.88350
                        -----------------------------------------
Total Dipole Moment    :      1.30948       0.61456       1.37232
                        -----------------------------------------
Magnitude (a.u.)       :      1.99391
Magnitude (Debye)      :      5.06812

Rotational constants in cm-1:     0.011748     0.007148     0.005077
Rotational constants in MHz :   352.185540   214.285678   152.194314

                             ****ORCA TERMINATED NORMALLY****
TOTAL RUN TIME: 0 days 1 hours 17 minutes 2 seconds 200 msec
