                         Program Version 4.2.0 -  RELEASE  -
|  1> # ORCA input file
|  2> # SCF done        -42.179419698761          0.000796181798
|  3> ! B3LYP/G D3BJ Opt RIJCOSX def2-SVP def2/J
|  4> * xyz 0 1
|  5>    C        1.46798         0.88177         0.17414
|  6>    C        0.19980         1.35342         0.03979
|  7>    C       -0.25292         2.76195         0.13371
|  8>    F        0.76786         3.59386         0.38449
|  9>    F       -0.83779         3.20732        -0.99594
| 10>    F       -1.15741         2.96365         1.11234
| 11>    S       -0.94605         0.08814        -0.27385
| 12>    C        0.33109        -1.08823        -0.21762
| 13>    O        0.11275        -2.39386        -0.39644
| 14>    C       -1.21475        -2.79898        -0.64215
| 15>    C        1.56740        -0.52396         0.02927
| 16>    C        2.77648        -1.31989         0.11783
| 17>    C        3.99441        -0.84638         0.35158
| 18>    H        2.30651         1.52381         0.37141
| 19>    H       -1.18751        -3.88142        -0.74785
| 20>    H       -1.59875        -2.34510        -1.56147
| 21>    H       -1.86919        -2.52303         0.19086
| 22>    H        2.61799        -2.37957        -0.02645
| 23>    H        4.18979         0.20169         0.49879
| 24>    H        4.84653        -1.50124         0.40193
| 25> *
| 26>
| 27>                          ****END OF INPUT****
 Total Charge           Charge          ....    0
 Multiplicity           Mult            ....    1
 Number of Electrons    NEL             ....  106
Dispersion correction           -0.038235501
FINAL SINGLE POINT ENERGY     -1081.386207814882
Dispersion correction            ... done
Dispersion correction           -0.038032830
FINAL SINGLE POINT ENERGY     -1081.388319319718
Dispersion correction            ... done
Dispersion correction           -0.038003147
FINAL SINGLE POINT ENERGY     -1081.388324265403
Dispersion correction            ... done
FINAL SINGLE POINT ENERGY     -1081.388082197524
FINAL SINGLE POINT ENERGY     -1081.388176570959
FINAL SINGLE POINT ENERGY     -1081.388248481840
Dispersion correction            ... done
Dispersion correction           -0.037998977
FINAL SINGLE POINT ENERGY     -1081.388284173713
Dispersion correction            ... done
Dispersion correction           -0.037997855
FINAL SINGLE POINT ENERGY     -1081.388285615597
Dispersion correction            ... done
                    ***********************HURRAY********************

CARTESIAN COORDINATES (ANGSTROEM)
---------------------------------
  C      1.468777    0.904188    0.126271
  C      0.197532    1.386501   -0.020862
  C     -0.266178    2.793440    0.148148
  F      0.749645    3.584044    0.529492
  F     -0.787883    3.320892   -0.977361
  F     -1.232985    2.884086    1.084617
  S     -0.955021    0.114149   -0.337465
  C      0.326482   -1.078277   -0.248105
  O      0.100817   -2.388351   -0.398204
  C     -1.228043   -2.822453   -0.628524
  C      1.573302   -0.518797   -0.000503
  C      2.786008   -1.321836    0.130669
  C      4.028150   -0.858104    0.340228
  H      2.313760    1.554855    0.347951
  H     -1.199150   -3.917519   -0.689854
  H     -1.619567   -2.410527   -1.575662
  H     -1.892765   -2.517322    0.198935
  H      2.628282   -2.401758    0.046537
  H      4.249141    0.209201    0.433007
  H      4.873914   -1.542461    0.435056

 Multiplicity           Mult            ....    1
 Number of Electrons    NEL             ....  106
 Basis Dimension        Dim             ....  221

ORBITAL ENERGIES
----------------

  NO   OCC          E(Eh)            E(eV)
   0   2.0000     -88.894949     -2418.9546
   1   2.0000     -24.720283      -672.6731
   2   2.0000     -24.712568      -672.4632
   3   2.0000     -24.712042      -672.4488
   4   2.0000     -19.200695      -522.4775
   5   2.0000     -10.438150      -284.0365
   6   2.0000     -10.288921      -279.9758
   7   2.0000     -10.271221      -279.4941
   8   2.0000     -10.228285      -278.3258
   9   2.0000     -10.214589      -277.9531
  10   2.0000     -10.204147      -277.6690
  11   2.0000     -10.199928      -277.5541
  12   2.0000     -10.187233      -277.2087
  13   2.0000      -7.990084      -217.4212
  14   2.0000      -5.958366      -162.1354
  15   2.0000      -5.954508      -162.0304
  16   2.0000      -5.950738      -161.9278
  17   2.0000      -1.294774       -35.2326
  18   2.0000      -1.205549       -32.8047
  19   2.0000      -1.197925       -32.5972
  20   2.0000      -1.097155       -29.8551
  21   2.0000      -0.896371       -24.3915
  22   2.0000      -0.800853       -21.7923
  23   2.0000      -0.768626       -20.9154
  24   2.0000      -0.739148       -20.1132
  25   2.0000      -0.728443       -19.8219
  26   2.0000      -0.674102       -18.3432
  27   2.0000      -0.622588       -16.9415
  28   2.0000      -0.599777       -16.3208
  29   2.0000      -0.587936       -15.9986
  30   2.0000      -0.585505       -15.9324
  31   2.0000      -0.563584       -15.3359
  32   2.0000      -0.542042       -14.7497
  33   2.0000      -0.512352       -13.9418
  34   2.0000      -0.500793       -13.6273
  35   2.0000      -0.484001       -13.1703
  36   2.0000      -0.465904       -12.6779
  37   2.0000      -0.464881       -12.6500
  38   2.0000      -0.450270       -12.2525
  39   2.0000      -0.446441       -12.1483
  40   2.0000      -0.430724       -11.7206
  41   2.0000      -0.424927       -11.5629
  42   2.0000      -0.409409       -11.1406
  43   2.0000      -0.406719       -11.0674
  44   2.0000      -0.405522       -11.0348
  45   2.0000      -0.400396       -10.8953
  46   2.0000      -0.382539       -10.4094
  47   2.0000      -0.365581        -9.9480
  48   2.0000      -0.351645        -9.5687
  49   2.0000      -0.345704        -9.4071
  50   2.0000      -0.313164        -8.5216
  51   2.0000      -0.259332        -7.0568
  52   2.0000      -0.218036        -5.9330
  53   0.0000      -0.034381        -0.9355
  54   0.0000      -0.018879        -0.5137
  55   0.0000       0.006025         0.1640
  56   0.0000       0.053932         1.4676
  57   0.0000       0.072589         1.9752

MULLIKEN ATOMIC CHARGES
-----------------------
   0 C :    0.024672
   1 C :   -0.248113
   2 C :    0.571026
   3 F :   -0.165806
   4 F :   -0.172842
   5 F :   -0.176676
   6 S :    0.097717
   7 C :    0.008803
   8 O :   -0.281495
   9 C :    0.169327
  10 C :    0.053123
  11 C :    0.002108
  12 C :   -0.032716
  13 H :   -0.004194
  14 H :    0.053640
  15 H :    0.033062
  16 H :    0.038898
  17 H :   -0.003441
  18 H :    0.009611
  19 H :    0.023296
Sum of atomic charges:   -0.0000000

LOEWDIN ATOMIC CHARGES
----------------------
   0 C :   -0.012211
   1 C :   -0.259551
   2 C :    0.156312
   3 F :   -0.057838
   4 F :   -0.071276
   5 F :   -0.072780
   6 S :    0.414773
   7 C :   -0.085913
   8 O :   -0.085233
   9 C :    0.076737
  10 C :   -0.107336
  11 C :   -0.020538
  12 C :   -0.058111
  13 H :    0.036381
  14 H :    0.034777
  15 H :    0.017412
  16 H :    0.017736
  17 H :    0.031792
  18 H :    0.018684
  19 H :    0.026179

  Mayer bond orders larger than 0.100000
B(  0-C ,  1-C ) :   1.5943 B(  0-C , 10-C ) :   1.2079 B(  0-C , 13-H ) :   0.9962
B(  1-C ,  2-C ) :   0.9764 B(  1-C ,  6-S ) :   1.0717 B(  2-C ,  3-F ) :   1.1486
B(  2-C ,  4-F ) :   1.1533 B(  2-C ,  5-F ) :   1.1480 B(  6-S ,  7-C ) :   1.1106
B(  7-C ,  8-O ) :   1.1777 B(  7-C , 10-C ) :   1.4483 B(  8-O ,  9-C ) :   0.9368
B(  9-C , 14-H ) :   0.9797 B(  9-C , 15-H ) :   0.9638 B(  9-C , 16-H ) :   0.9627
B( 10-C , 11-C ) :   1.1057 B( 11-C , 12-C ) :   1.9191 B( 11-C , 17-H ) :   0.9613
B( 12-C , 18-H ) :   0.9479 B( 12-C , 19-H ) :   0.9473

Dispersion correction           -0.037996136
FINAL SINGLE POINT ENERGY     -1081.388276137648

DIPOLE MOMENT
-------------
                                X             Y             Z
Electronic contribution:     -9.13709      20.36870       1.01457
Nuclear contribution   :      8.84041     -21.66549      -1.20017
                        -----------------------------------------
Total Dipole Moment    :     -0.29668      -1.29679      -0.18560
                        -----------------------------------------
Magnitude (a.u.)       :      1.34318
Magnitude (Debye)      :      3.41410

Rotational constants in cm-1:     0.033798     0.016247     0.011668
Rotational constants in MHz :  1013.241554   487.062529   349.808220

                             ****ORCA TERMINATED NORMALLY****
TOTAL RUN TIME: 0 days 0 hours 10 minutes 25 seconds 339 msec
