                         Program Version 4.2.0 -  RELEASE  -
|  1> # ORCA input file
|  2> # SCF done        -31.811211376968          0.000235895721
|  3> ! B3LYP/G D3BJ Opt RIJCOSX def2-SVP def2/J
|  4> * xyz 0 1
|  5>    C        1.62174         1.20606        -0.08498
|  6>    S        2.82499        -0.02197        -0.04608
|  7>    C        1.61012        -1.23704         0.02569
|  8>    C        0.35352        -0.71998         0.01813
|  9>    C        0.36023         0.70262        -0.04379
| 10>    C       -0.88874         1.53371        -0.00937
| 11>    C       -1.03358         2.19650         1.36519
| 12>    C       -2.10413         0.66640        -0.35460
| 13>    C       -2.09794        -0.65663         0.40609
| 14>    C       -0.90520        -1.53673         0.01758
| 15>    C       -1.10041        -2.18890        -1.35582
| 16>    H        1.92395         2.23338        -0.13739
| 17>    H        1.90239        -2.26760         0.07019
| 18>    H       -0.80373         2.33324        -0.75538
| 19>    H       -1.08465         1.44900         2.15286
| 20>    H       -1.93731         2.80140         1.39975
| 21>    H       -0.17893         2.83845         1.56447
| 22>    H       -2.10730         0.46563        -1.42743
| 23>    H       -3.01685         1.21828        -0.12059
| 24>    H       -3.02455        -1.19829         0.20522
| 25>    H       -2.05985        -0.45618         1.47833
| 26>    H       -0.80663        -2.34189         0.75576
| 27>    H       -1.16331        -1.43608        -2.13749
| 28>    H       -2.01366        -2.78022        -1.36714
| 29>    H       -0.26154        -2.84206        -1.58374
| 30> *
| 31>
| 32>                          ****END OF INPUT****
 Total Charge           Charge          ....    0
 Multiplicity           Mult            ....    1
 Number of Electrons    NEL             ....   90
Dispersion correction           -0.051783639
FINAL SINGLE POINT ENERGY      -787.347985666357
Dispersion correction            ... done
Dispersion correction           -0.051250025
FINAL SINGLE POINT ENERGY      -787.351238797362
Dispersion correction            ... done
Dispersion correction           -0.051141634
FINAL SINGLE POINT ENERGY      -787.351309798754
Dispersion correction            ... done
FINAL SINGLE POINT ENERGY      -787.351297521304
Dispersion correction            ... done
Dispersion correction           -0.051085238
FINAL SINGLE POINT ENERGY      -787.351282217223
Dispersion correction            ... done
Dispersion correction           -0.051083448
FINAL SINGLE POINT ENERGY      -787.351270813932
Dispersion correction            ... done
                    ***********************HURRAY********************

CARTESIAN COORDINATES (ANGSTROEM)
---------------------------------
  C      1.657529    1.221284   -0.083671
  S      2.856700   -0.022723   -0.065151
  C      1.643047   -1.250475    0.005393
  C      0.370957   -0.725979    0.012155
  C      0.379326    0.713664   -0.037741
  C     -0.885295    1.547370    0.015005
  C     -1.041728    2.238378    1.381225
  C     -2.114057    0.685175   -0.338719
  C     -2.114537   -0.666080    0.380888
  C     -0.904758   -1.544188    0.001917
  C     -1.102432   -2.242506   -1.355367
  H      1.958186    2.267426   -0.126775
  H      1.931383   -2.300544    0.036051
  H     -0.798134    2.344880   -0.742829
  H     -1.130010    1.502484    2.195632
  H     -1.939552    2.877666    1.398615
  H     -0.169145    2.870608    1.605727
  H     -2.141813    0.518039   -1.428621
  H     -3.029507    1.244738   -0.084490
  H     -3.041994   -1.214732    0.147197
  H     -2.117373   -0.497647    1.470881
  H     -0.807017   -2.337399    0.763061
  H     -1.193270   -1.510925   -2.173364
  H     -2.011809   -2.865302   -1.349452
  H     -0.246067   -2.892112   -1.592109

 Multiplicity           Mult            ....    1
 Number of Electrons    NEL             ....   90
 Basis Dimension        Dim             ....  228

ORBITAL ENERGIES
----------------

  NO   OCC          E(Eh)            E(eV)
   0   2.0000     -88.864696     -2418.1313
   1   2.0000     -10.199589      -277.5449
   2   2.0000     -10.199525      -277.5432
   3   2.0000     -10.193829      -277.3882
   4   2.0000     -10.193819      -277.3879
   5   2.0000     -10.185882      -277.1719
   6   2.0000     -10.185678      -277.1664
   7   2.0000     -10.182734      -277.0863
   8   2.0000     -10.182654      -277.0841
   9   2.0000     -10.179579      -277.0004
  10   2.0000     -10.179537      -276.9993
  11   2.0000      -7.959683      -216.5940
  12   2.0000      -5.927723      -161.3015
  13   2.0000      -5.923624      -161.1900
  14   2.0000      -5.921315      -161.1272
  15   2.0000      -0.875033       -23.8109
  16   2.0000      -0.816662       -22.2225
  17   2.0000      -0.779988       -21.2246
  18   2.0000      -0.722582       -19.6625
  19   2.0000      -0.698095       -18.9961
  20   2.0000      -0.695029       -18.9127
  21   2.0000      -0.645913       -17.5762
  22   2.0000      -0.593828       -16.1589
  23   2.0000      -0.570709       -15.5298
  24   2.0000      -0.559045       -15.2124
  25   2.0000      -0.494407       -13.4535
  26   2.0000      -0.490996       -13.3607
  27   2.0000      -0.468449       -12.7472
  28   2.0000      -0.433239       -11.7890
  29   2.0000      -0.429273       -11.6811
  30   2.0000      -0.417489       -11.3605
  31   2.0000      -0.406255       -11.0548
  32   2.0000      -0.401819       -10.9341
  33   2.0000      -0.394089       -10.7237
  34   2.0000      -0.386290       -10.5115
  35   2.0000      -0.369792       -10.0626
  36   2.0000      -0.368001       -10.0138
  37   2.0000      -0.349899        -9.5212
  38   2.0000      -0.345028        -9.3887
  39   2.0000      -0.330507        -8.9935
  40   2.0000      -0.319315        -8.6890
  41   2.0000      -0.315993        -8.5986
  42   2.0000      -0.310693        -8.4544
  43   2.0000      -0.236294        -6.4299
  44   2.0000      -0.225951        -6.1484
  45   0.0000      -0.013502        -0.3674
  46   0.0000       0.045647         1.2421
  47   0.0000       0.055742         1.5168
  48   0.0000       0.059957         1.6315
  49   0.0000       0.073764         2.0072

MULLIKEN ATOMIC CHARGES
-----------------------
   0 C :   -0.149911
   1 S :    0.091680
   2 C :   -0.150000
   3 C :    0.004943
   4 C :    0.005109
   5 C :   -0.012246
   6 C :    0.052586
   7 C :    0.055971
   8 C :    0.057143
   9 C :   -0.012583
  10 C :    0.052137
  11 H :    0.008063
  12 H :    0.008322
  13 H :   -0.009204
  14 H :    0.007437
  15 H :    0.006096
  16 H :    0.006361
  17 H :   -0.002127
  18 H :   -0.014405
  19 H :   -0.014247
  20 H :   -0.002273
  21 H :   -0.008774
  22 H :    0.007805
  23 H :    0.005666
  24 H :    0.006449
Sum of atomic charges:   -0.0000000

LOEWDIN ATOMIC CHARGES
----------------------
   0 C :   -0.205599
   1 S :    0.423142
   2 C :   -0.205521
   3 C :   -0.059228
   4 C :   -0.059173
   5 C :   -0.026656
   6 C :   -0.044674
   7 C :   -0.024765
   8 C :   -0.024815
   9 C :   -0.026697
  10 C :   -0.044545
  11 H :    0.019363
  12 H :    0.019374
  13 H :    0.027662
  14 H :    0.020874
  15 H :    0.019761
  16 H :    0.022016
  17 H :    0.019637
  18 H :    0.019994
  19 H :    0.020036
  20 H :    0.019605
  21 H :    0.027702
  22 H :    0.021002
  23 H :    0.019581
  24 H :    0.021925

  Mayer bond orders larger than 0.100000
B(  0-C ,  1-S ) :   1.1624 B(  0-C ,  4-C ) :   1.5402 B(  0-C , 11-H ) :   0.9633
B(  1-S ,  2-C ) :   1.1627 B(  2-C ,  3-C ) :   1.5400 B(  2-C , 12-H ) :   0.9632
B(  3-C ,  4-C ) :   1.3149 B(  3-C ,  9-C ) :   0.9927 B(  4-C ,  5-C ) :   0.9925
B(  5-C ,  6-C ) :   1.0754 B(  5-C ,  7-C ) :   1.0616 B(  5-C , 13-H ) :   0.8981
B(  6-C , 14-H ) :   0.9605 B(  6-C , 15-H ) :   0.9617 B(  6-C , 16-H ) :   0.9629
B(  7-C ,  8-C ) :   1.0743 B(  7-C , 17-H ) :   0.9352 B(  7-C , 18-H ) :   0.9296
B(  8-C ,  9-C ) :   1.0619 B(  8-C , 19-H ) :   0.9296 B(  8-C , 20-H ) :   0.9349
B(  9-C , 10-C ) :   1.0752 B(  9-C , 21-H ) :   0.8982 B( 10-C , 22-H ) :   0.9606
B( 10-C , 23-H ) :   0.9614 B( 10-C , 24-H ) :   0.9631

Dispersion correction           -0.051084964
FINAL SINGLE POINT ENERGY      -787.351277371127

DIPOLE MOMENT
-------------
                                X             Y             Z
Electronic contribution:     15.70135      -0.08407      -0.28159
Nuclear contribution   :    -16.06284       0.08635       0.28706
                        -----------------------------------------
Total Dipole Moment    :     -0.36148       0.00227       0.00546
                        -----------------------------------------
Magnitude (a.u.)       :      0.36153
Magnitude (Debye)      :      0.91894

Rotational constants in cm-1:     0.045154     0.029468     0.019678
Rotational constants in MHz :  1353.679775   883.433416   589.940375

                             ****ORCA TERMINATED NORMALLY****
TOTAL RUN TIME: 0 days 0 hours 10 minutes 10 seconds 896 msec
