                         Program Version 4.2.0 -  RELEASE  -
|  1> # ORCA input file
|  2> # SCF done        -34.079392358259          0.000834974618
|  3> ! B3LYP/G D3BJ Opt RIJCOSX def2-SVP def2/J
|  4> * xyz 0 1
|  5>    C       -1.49902         0.44310         0.19290
|  6>    C       -0.44862         1.08081        -0.39781
|  7>    C        0.74987         0.37176        -0.22466
|  8>    C        0.57631        -0.79762         0.50055
|  9>    S       -1.05757        -1.03517         0.97482
| 10>    C        1.83032        -1.45206         0.63057
| 11>    C        2.80114        -0.69554        -0.01359
| 12>    C        2.18914         0.53579        -0.61549
| 13>    C        4.07131        -1.26894         0.06709
| 14>    C        4.07205        -2.45534         0.76849
| 15>    S        2.46943        -2.87568         1.34232
| 16>    C        5.20599        -3.29256         1.03503
| 17>    C        5.17451        -4.43265         1.72110
| 18>    H       -2.52541         0.75061         0.22129
| 19>    H       -0.54227         2.01160        -0.92778
| 20>    H        2.31665         0.56581        -1.69966
| 21>    H        2.62267         1.44956        -0.20341
| 22>    H        4.96335        -0.84834        -0.36258
| 23>    H        6.13999        -2.92636         0.62913
| 24>    H        4.25578        -4.81295         2.13567
| 25>    H        6.06168        -5.01724         1.88761
| 26> *
| 27>
| 28>                          ****END OF INPUT****
 Total Charge           Charge          ....    0
 Multiplicity           Mult            ....    1
 Number of Electrons    NEL             ....  106
Dispersion correction           -0.051037573
FINAL SINGLE POINT ENERGY     -1219.848610152956
Dispersion correction            ... done
Dispersion correction           -0.050873246
FINAL SINGLE POINT ENERGY     -1219.852489961035
Dispersion correction            ... done
Dispersion correction           -0.050845345
FINAL SINGLE POINT ENERGY     -1219.852617796620
Dispersion correction            ... done
FINAL SINGLE POINT ENERGY     -1219.852556175732
FINAL SINGLE POINT ENERGY     -1219.852580409503
Dispersion correction            ... done
Dispersion correction           -0.050840551
FINAL SINGLE POINT ENERGY     -1219.852571408914
Dispersion correction            ... done
Dispersion correction           -0.050841631
FINAL SINGLE POINT ENERGY     -1219.852555246691
Dispersion correction            ... done
                    ***********************HURRAY********************

CARTESIAN COORDINATES (ANGSTROEM)
---------------------------------
  C     -1.548518    0.474855    0.201722
  C     -0.483343    1.124814   -0.382710
  C      0.724627    0.392181   -0.243644
  C      0.544992   -0.804334    0.446419
  S     -1.093583   -1.044191    0.927747
  C      1.812827   -1.479287    0.563241
  C      2.797243   -0.711851   -0.054705
  C      2.183674    0.553150   -0.621438
  C      4.080222   -1.297215    0.043312
  C      4.073516   -2.499524    0.739430
  S      2.442107   -2.922033    1.267011
  C      5.218289   -3.334403    1.041297
  C      5.237309   -4.451230    1.789580
  H     -2.583734    0.807050    0.260881
  H     -0.580090    2.089349   -0.882204
  H      2.328455    0.638085   -1.712605
  H      2.628535    1.456902   -0.170371
  H      4.996373   -0.869404   -0.366926
  H      6.152871   -2.975125    0.595323
  H      4.332552   -4.843963    2.262751
  H      6.162976   -5.005237    1.957479

 Multiplicity           Mult            ....    1
 Number of Electrons    NEL             ....  106
 Basis Dimension        Dim             ....  230

ORBITAL ENERGIES
----------------

  NO   OCC          E(Eh)            E(eV)
   0   2.0000     -88.879166     -2418.5251
   1   2.0000     -88.875731     -2418.4316
   2   2.0000     -10.219848      -278.0962
   3   2.0000     -10.218656      -278.0638
   4   2.0000     -10.217809      -278.0407
   5   2.0000     -10.214140      -277.9409
   6   2.0000     -10.211274      -277.8629
   7   2.0000     -10.202017      -277.6110
   8   2.0000     -10.198756      -277.5222
   9   2.0000     -10.198369      -277.5117
  10   2.0000     -10.196531      -277.4617
  11   2.0000     -10.195696      -277.4390
  12   2.0000     -10.186534      -277.1897
  13   2.0000      -7.973505      -216.9701
  14   2.0000      -7.970080      -216.8769
  15   2.0000      -5.941734      -161.6828
  16   2.0000      -5.938264      -161.5884
  17   2.0000      -5.937675      -161.5724
  18   2.0000      -5.934749      -161.4927
  19   2.0000      -5.934474      -161.4853
  20   2.0000      -5.931084      -161.3930
  21   2.0000      -0.906958       -24.6796
  22   2.0000      -0.870951       -23.6998
  23   2.0000      -0.812251       -22.1025
  24   2.0000      -0.770631       -20.9699
  25   2.0000      -0.745833       -20.2952
  26   2.0000      -0.731303       -19.8998
  27   2.0000      -0.681241       -18.5375
  28   2.0000      -0.675301       -18.3759
  29   2.0000      -0.615065       -16.7368
  30   2.0000      -0.561688       -15.2843
  31   2.0000      -0.552009       -15.0209
  32   2.0000      -0.526614       -14.3299
  33   2.0000      -0.521502       -14.1908
  34   2.0000      -0.487328       -13.2609
  35   2.0000      -0.466190       -12.6857
  36   2.0000      -0.456416       -12.4197
  37   2.0000      -0.455346       -12.3906
  38   2.0000      -0.422614       -11.4999
  39   2.0000      -0.407843       -11.0980
  40   2.0000      -0.387400       -10.5417
  41   2.0000      -0.382179       -10.3996
  42   2.0000      -0.381247       -10.3742
  43   2.0000      -0.377701       -10.2778
  44   2.0000      -0.376102       -10.2343
  45   2.0000      -0.366136        -9.9631
  46   2.0000      -0.347637        -9.4597
  47   2.0000      -0.338051        -9.1988
  48   2.0000      -0.311178        -8.4676
  49   2.0000      -0.258726        -7.0403
  50   2.0000      -0.258454        -7.0329
  51   2.0000      -0.251819        -6.8524
  52   2.0000      -0.192517        -5.2387
  53   0.0000      -0.059323        -1.6142
  54   0.0000      -0.005923        -0.1612
  55   0.0000       0.026034         0.7084
  56   0.0000       0.027925         0.7599
  57   0.0000       0.051133         1.3914

MULLIKEN ATOMIC CHARGES
-----------------------
   0 C :   -0.098244
   1 C :    0.032155
   2 C :   -0.145466
   3 C :   -0.100459
   4 S :    0.130212
   5 C :   -0.082855
   6 C :   -0.131962
   7 C :    0.334367
   8 C :   -0.008208
   9 C :   -0.083942
  10 S :    0.126488
  11 C :    0.016596
  12 C :   -0.043471
  13 H :    0.025275
  14 H :   -0.021770
  15 H :    0.026992
  16 H :    0.022830
  17 H :   -0.029720
  18 H :   -0.012869
  19 H :    0.019563
  20 H :    0.024490
Sum of atomic charges:   -0.0000000

LOEWDIN ATOMIC CHARGES
----------------------
   0 C :   -0.190466
   1 C :   -0.062519
   2 C :   -0.058592
   3 C :   -0.201776
   4 S :    0.424570
   5 C :   -0.191051
   6 C :   -0.059871
   7 C :   -0.006100
   8 C :   -0.053394
   9 C :   -0.172746
  10 S :    0.420578
  11 C :   -0.040011
  12 C :   -0.065747
  13 H :    0.023724
  14 H :    0.030248
  15 H :    0.048035
  16 H :    0.047920
  17 H :    0.028804
  18 H :    0.033537
  19 H :    0.018417
  20 H :    0.026438

  Mayer bond orders larger than 0.100000
B(  0-C ,  1-C ) :   1.5244 B(  0-C ,  4-S ) :   1.1477 B(  0-C , 13-H ) :   0.9650
B(  1-C ,  2-C ) :   1.2851 B(  1-C , 14-H ) :   0.9939 B(  2-C ,  3-C ) :   1.5232
B(  2-C ,  7-C ) :   1.0253 B(  3-C ,  4-S ) :   1.0974 B(  3-C ,  5-C ) :   1.1835
B(  5-C ,  6-C ) :   1.5214 B(  5-C , 10-S ) :   1.0915 B(  6-C ,  7-C ) :   1.0257
B(  6-C ,  8-C ) :   1.2689 B(  7-C , 15-H ) :   0.8729 B(  7-C , 16-H ) :   0.8729
B(  8-C ,  9-C ) :   1.4509 B(  8-C , 17-H ) :   0.9985 B(  9-C , 10-S ) :   1.0890
B(  9-C , 11-C ) :   1.1518 B( 11-C , 12-C ) :   1.8850 B( 11-C , 18-H ) :   0.9562
B( 12-C , 19-H ) :   0.9498 B( 12-C , 20-H ) :   0.9461

Dispersion correction           -0.050841254
FINAL SINGLE POINT ENERGY     -1219.852555546910

DIPOLE MOMENT
-------------
                                X             Y             Z
Electronic contribution:     -8.61148      -1.57416       2.09732
Nuclear contribution   :      8.72403       2.17391      -2.41811
                        -----------------------------------------
Total Dipole Moment    :      0.11254       0.59975      -0.32079
                        -----------------------------------------
Magnitude (a.u.)       :      0.68940
Magnitude (Debye)      :      1.75231

Rotational constants in cm-1:     0.059967     0.012447     0.010332
Rotational constants in MHz :  1797.755600   373.149438   309.759720

                             ****ORCA TERMINATED NORMALLY****
TOTAL RUN TIME: 0 days 0 hours 11 minutes 31 seconds 843 msec
