                         Program Version 4.2.0 -  RELEASE  -
|  1> # ORCA input file
|  2> # SCF done        -34.004098514660          0.000904052521
|  3> ! B3LYP/G D3BJ Opt RIJCOSX def2-SVP def2/J
|  4> * xyz 0 1
|  5>    C        1.43009        -1.34201        -0.03819
|  6>    S        2.67175        -0.16211        -0.01585
|  7>    C        1.50190         1.13058         0.06667
|  8>    C        0.22120         0.62940         0.09408
|  9>    C        0.18806        -0.78950         0.03206
| 10>    C       -1.08198        -1.58358         0.06839
| 11>    C       -2.28546        -0.71148        -0.26573
| 12>    S       -2.39113        -0.39950        -2.07418
| 13>    C       -2.24343         0.58316         0.53731
| 14>    C       -1.03323         1.44285         0.17315
| 15>    C        2.01751         2.47525         0.10319
| 16>    C        1.35369         3.60810        -0.11169
| 17>    H        1.68597        -2.38126        -0.09918
| 18>    H       -1.21884        -1.99312         1.07573
| 19>    H       -1.01836        -2.42882        -0.62118
| 20>    H       -3.21097        -1.25271        -0.05305
| 21>    H       -1.11365        -0.06053        -2.22938
| 22>    H       -2.20156         0.31753         1.59707
| 23>    H       -3.15707         1.15556         0.36728
| 24>    H       -0.91292         2.23636         0.91426
| 25>    H       -1.21466         1.92099        -0.79521
| 26>    H        3.07967         2.52623         0.31143
| 27>    H        0.30983         3.64427        -0.36397
| 28>    H        1.86022         4.55592        -0.05582
| 29> *
| 30>
| 31>                          ****END OF INPUT****
 Total Charge           Charge          ....    0
 Multiplicity           Mult            ....    1
 Number of Electrons    NEL             ....  104
Dispersion correction           -0.057092281
FINAL SINGLE POINT ENERGY     -1184.208153892571
Dispersion correction            ... done
Dispersion correction           -0.056323682
FINAL SINGLE POINT ENERGY     -1184.211261574049
Dispersion correction            ... done
Dispersion correction           -0.056227823
FINAL SINGLE POINT ENERGY     -1184.211417314530
Dispersion correction            ... done
FINAL SINGLE POINT ENERGY     -1184.211457953411
FINAL SINGLE POINT ENERGY     -1184.211492205412
FINAL SINGLE POINT ENERGY     -1184.211525938464
FINAL SINGLE POINT ENERGY     -1184.211540072675
Dispersion correction            ... done
Dispersion correction           -0.056309452
FINAL SINGLE POINT ENERGY     -1184.211549160589
Dispersion correction            ... done
Dispersion correction           -0.056314767
FINAL SINGLE POINT ENERGY     -1184.211553981401
Dispersion correction            ... done
                    ***********************HURRAY********************

CARTESIAN COORDINATES (ANGSTROEM)
---------------------------------
  C      1.452315   -1.360583   -0.094341
  S      2.687878   -0.162878   -0.121150
  C      1.523389    1.135779    0.018820
  C      0.230457    0.627323    0.089642
  C      0.198149   -0.807325    0.030849
  C     -1.089141   -1.585875    0.135205
  C     -2.294941   -0.733224   -0.279629
  S     -2.410294   -0.527119   -2.112260
  C     -2.279007    0.602258    0.472102
  C     -1.032082    1.445420    0.167512
  C      2.043380    2.493834    0.057602
  C      1.370847    3.658510    0.014439
  H      1.707207   -2.417173   -0.163304
  H     -1.240263   -1.900541    1.184549
  H     -1.038643   -2.504628   -0.466021
  H     -3.220070   -1.276821   -0.035812
  H     -1.111432   -0.203774   -2.312518
  H     -2.320967    0.373675    1.552185
  H     -3.181387    1.182788    0.229293
  H     -0.923702    2.239044    0.924718
  H     -1.176492    1.966090   -0.796048
  H      3.135862    2.551043    0.136198
  H      0.287352    3.723328   -0.084384
  H      1.918214    4.602429    0.069544

 Multiplicity           Mult            ....    1
 Number of Electrons    NEL             ....  104
 Basis Dimension        Dim             ....  236

ORBITAL ENERGIES
----------------

  NO   OCC          E(Eh)            E(eV)
   0   2.0000     -88.871764     -2418.3236
   1   2.0000     -88.831621     -2417.2313
   2   2.0000     -10.224984      -278.2360
   3   2.0000     -10.215456      -277.9767
   4   2.0000     -10.210252      -277.8351
   5   2.0000     -10.205021      -277.6927
   6   2.0000     -10.201479      -277.5963
   7   2.0000     -10.198342      -277.5110
   8   2.0000     -10.197659      -277.4924
   9   2.0000     -10.196592      -277.4634
  10   2.0000     -10.195076      -277.4221
  11   2.0000     -10.189306      -277.2651
  12   2.0000      -7.966896      -216.7903
  13   2.0000      -7.926153      -215.6816
  14   2.0000      -5.934853      -161.4956
  15   2.0000      -5.930971      -161.3899
  16   2.0000      -5.928374      -161.3193
  17   2.0000      -5.895303      -160.4193
  18   2.0000      -5.891857      -160.3256
  19   2.0000      -5.884905      -160.1364
  20   2.0000      -0.887246       -24.1432
  21   2.0000      -0.833625       -22.6841
  22   2.0000      -0.786518       -21.4023
  23   2.0000      -0.759834       -20.6761
  24   2.0000      -0.741624       -20.1806
  25   2.0000      -0.705105       -19.1869
  26   2.0000      -0.684797       -18.6343
  27   2.0000      -0.632272       -17.2050
  28   2.0000      -0.605129       -16.4664
  29   2.0000      -0.576144       -15.6777
  30   2.0000      -0.545270       -14.8376
  31   2.0000      -0.509689       -13.8693
  32   2.0000      -0.489564       -13.3217
  33   2.0000      -0.465441       -12.6653
  34   2.0000      -0.457606       -12.4521
  35   2.0000      -0.445622       -12.1260
  36   2.0000      -0.441045       -12.0015
  37   2.0000      -0.417845       -11.3701
  38   2.0000      -0.413402       -11.2492
  39   2.0000      -0.404971       -11.0198
  40   2.0000      -0.393577       -10.7098
  41   2.0000      -0.376963       -10.2577
  42   2.0000      -0.369497       -10.0545
  43   2.0000      -0.355728        -9.6799
  44   2.0000      -0.343462        -9.3461
  45   2.0000      -0.335283        -9.1235
  46   2.0000      -0.327103        -8.9009
  47   2.0000      -0.318297        -8.6613
  48   2.0000      -0.300464        -8.1760
  49   2.0000      -0.245869        -6.6904
  50   2.0000      -0.233875        -6.3641
  51   2.0000      -0.216588        -5.8937
  52   0.0000      -0.045565        -1.2399
  53   0.0000       0.018124         0.4932
  54   0.0000       0.032115         0.8739
  55   0.0000       0.037246         1.0135
  56   0.0000       0.054875         1.4932

MULLIKEN ATOMIC CHARGES
-----------------------
   0 C :   -0.125312
   1 S :    0.103925
   2 C :   -0.161005
   3 C :   -0.042436
   4 C :   -0.083975
   5 C :    0.213036
   6 C :   -0.212393
   7 S :   -0.071490
   8 C :    0.115528
   9 C :    0.073749
  10 C :    0.035473
  11 C :   -0.043429
  12 H :    0.012145
  13 H :    0.013518
  14 H :    0.002656
  15 H :    0.032853
  16 H :    0.065402
  17 H :    0.000803
  18 H :    0.001215
  19 H :    0.023674
  20 H :    0.021760
  21 H :   -0.009332
  22 H :    0.014415
  23 H :    0.019221
Sum of atomic charges:   -0.0000000

LOEWDIN ATOMIC CHARGES
----------------------
   0 C :   -0.200356
   1 S :    0.431784
   2 C :   -0.183174
   3 C :   -0.060322
   4 C :   -0.072898
   5 C :   -0.028572
   6 C :   -0.124176
   7 S :    0.137047
   8 C :   -0.035383
   9 C :   -0.030542
  10 C :   -0.042037
  11 C :   -0.058962
  12 H :    0.022960
  13 H :    0.033970
  14 H :    0.028149
  15 H :    0.025498
  16 H :   -0.027368
  17 H :    0.023160
  18 H :    0.024685
  19 H :    0.033640
  20 H :    0.028988
  21 H :    0.028148
  22 H :    0.019926
  23 H :    0.025836

  Mayer bond orders larger than 0.100000
B(  0-C ,  1-S ) :   1.1563 B(  0-C ,  4-C ) :   1.5325 B(  0-C , 12-H ) :   0.9661
B(  1-S ,  2-C ) :   1.1296 B(  2-C ,  3-C ) :   1.5013 B(  2-C , 10-C ) :   1.1223
B(  3-C ,  4-C ) :   1.2904 B(  3-C ,  9-C ) :   1.0694 B(  4-C ,  5-C ) :   1.0311
B(  5-C ,  6-C ) :   1.0266 B(  5-C , 13-H ) :   0.9034 B(  5-C , 14-H ) :   0.9153
B(  6-C ,  7-S ) :   1.0355 B(  6-C ,  8-C ) :   1.0103 B(  6-C , 15-H ) :   0.9244
B(  7-S , 16-H ) :   0.9464 B(  8-C ,  9-C ) :   1.0810 B(  8-C , 17-H ) :   0.9261
B(  8-C , 18-H ) :   0.9267 B(  9-C , 19-H ) :   0.9072 B(  9-C , 20-H ) :   0.9058
B( 10-C , 11-C ) :   1.9038 B( 10-C , 21-H ) :   0.9428 B( 11-C , 22-H ) :   0.9539
B( 11-C , 23-H ) :   0.9402

Dispersion correction           -0.056320479
FINAL SINGLE POINT ENERGY     -1184.211555484228

DIPOLE MOMENT
-------------
                                X             Y             Z
Electronic contribution:      6.91013      -4.96212      -3.41726
Nuclear contribution   :     -6.90968       4.87045       3.94001
                        -----------------------------------------
Total Dipole Moment    :      0.00045      -0.09167       0.52275
                        -----------------------------------------
Magnitude (a.u.)       :      0.53073
Magnitude (Debye)      :      1.34900

Rotational constants in cm-1:     0.037244     0.017691     0.014059
Rotational constants in MHz :  1116.534191   530.362906   421.475652

                             ****ORCA TERMINATED NORMALLY****
TOTAL RUN TIME: 0 days 0 hours 17 minutes 22 seconds 601 msec
