                         Program Version 4.2.0 -  RELEASE  -
|  1> # ORCA input file
|  2> # SCF done        -20.157545565432          0.000337234537
|  3> ! B3LYP/G D3BJ Opt RIJCOSX def2-SVP def2/J
|  4> * xyz 0 1
|  5>    C       -0.71528        -1.39989        -0.00564
|  6>    C       -1.24819        -0.15152        -0.01368
|  7>    C       -2.67989         0.25091        -0.02155
|  8>    S        0.00636         1.05119        -0.01617
|  9>    C        1.24605        -0.16523        -0.00514
| 10>    C        2.68516         0.21868        -0.00336
| 11>    C        0.69996        -1.40836         0.00036
| 12>    H       -1.31277        -2.29486        -0.00259
| 13>    H       -3.31251        -0.63345         0.00226
| 14>    H       -2.91446         0.82610        -0.91736
| 15>    H       -2.91149         0.87236         0.84339
| 16>    H        2.79053         1.30058         0.00392
| 17>    H        3.18679        -0.17402        -0.88814
| 18>    H        3.18742        -0.18645         0.87531
| 19>    H        1.28774        -2.30961         0.00767
| 20> *
| 21>
| 22>                          ****END OF INPUT****
 Total Charge           Charge          ....    0
 Multiplicity           Mult            ....    1
 Number of Electrons    NEL             ....   60
Dispersion correction           -0.026143911
FINAL SINGLE POINT ENERGY      -631.388823926958
Dispersion correction            ... done
Dispersion correction           -0.025961957
FINAL SINGLE POINT ENERGY      -631.390981342484
Dispersion correction            ... done
Dispersion correction           -0.025934389
FINAL SINGLE POINT ENERGY      -631.391049212222
Dispersion correction            ... done
FINAL SINGLE POINT ENERGY      -631.391059261580
Dispersion correction            ... done
Dispersion correction           -0.025926848
FINAL SINGLE POINT ENERGY      -631.391064278890
Dispersion correction            ... done
Dispersion correction           -0.025929477
FINAL SINGLE POINT ENERGY      -631.391065289949
Dispersion correction            ... done
                    ***********************HURRAY********************

CARTESIAN COORDINATES (ANGSTROEM)
---------------------------------
  C     -0.723957   -1.409364   -0.008974
  C     -1.263618   -0.146227   -0.016356
  C     -2.704721    0.259147   -0.020680
  S      0.009452    1.046326   -0.020446
  C      1.262759   -0.166046   -0.008577
  C      2.712253    0.223567   -0.000605
  C      0.705304   -1.421131   -0.004924
  H     -1.339707   -2.311000   -0.005320
  H     -3.342207   -0.635817    0.025235
  H     -2.974910    0.821440   -0.930612
  H     -2.957281    0.898699    0.841347
  H      2.840661    1.315728    0.016117
  H      3.235503   -0.159915   -0.892190
  H      3.230337   -0.186186    0.882013
  H      1.305552   -2.332791    0.003252

 Multiplicity           Mult            ....    1
 Number of Electrons    NEL             ....   60
 Basis Dimension        Dim             ....  142

ORBITAL ENERGIES
----------------

  NO   OCC          E(Eh)            E(eV)
   0   2.0000     -88.859245     -2417.9830
   1   2.0000     -10.207347      -277.7560
   2   2.0000     -10.206367      -277.7294
   3   2.0000     -10.196465      -277.4599
   4   2.0000     -10.195647      -277.4377
   5   2.0000     -10.181310      -277.0475
   6   2.0000     -10.179477      -276.9977
   7   2.0000      -7.954644      -216.4569
   8   2.0000      -5.922581      -161.1616
   9   2.0000      -5.918787      -161.0584
  10   2.0000      -5.916078      -160.9847
  11   2.0000      -0.869110       -23.6497
  12   2.0000      -0.766791       -20.8655
  13   2.0000      -0.724674       -19.7194
  14   2.0000      -0.707354       -19.2481
  15   2.0000      -0.640312       -17.4238
  16   2.0000      -0.531355       -14.4589
  17   2.0000      -0.527908       -14.3651
  18   2.0000      -0.479767       -13.0551
  19   2.0000      -0.428616       -11.6632
  20   2.0000      -0.421028       -11.4567
  21   2.0000      -0.419450       -11.4138
  22   2.0000      -0.417541       -11.3619
  23   2.0000      -0.392270       -10.6742
  24   2.0000      -0.368441       -10.0258
  25   2.0000      -0.351537        -9.5658
  26   2.0000      -0.347706        -9.4616
  27   2.0000      -0.331089        -9.0094
  28   2.0000      -0.245031        -6.6676
  29   2.0000      -0.216445        -5.8898
  30   0.0000      -0.007551        -0.2055
  31   0.0000       0.038154         1.0382
  32   0.0000       0.061382         1.6703
  33   0.0000       0.067140         1.8270
  34   0.0000       0.081146         2.2081

MULLIKEN ATOMIC CHARGES
-----------------------
   0 C :    0.028260
   1 C :   -0.223193
   2 C :    0.111668
   3 S :    0.086560
   4 C :   -0.221425
   5 C :    0.105650
   6 C :    0.030184
   7 H :   -0.028367
   8 H :    0.013575
   9 H :    0.027993
  10 H :    0.027107
  11 H :    0.013309
  12 H :    0.030616
  13 H :    0.030034
  14 H :   -0.031973
Sum of atomic charges:   -0.0000000

LOEWDIN ATOMIC CHARGES
----------------------
   0 C :   -0.076327
   1 C :   -0.189048
   2 C :   -0.058911
   3 S :    0.398270
   4 C :   -0.186606
   5 C :   -0.059752
   6 C :   -0.079323
   7 H :    0.023846
   8 H :    0.035520
   9 H :    0.033387
  10 H :    0.033083
  11 H :    0.029681
  12 H :    0.036278
  13 H :    0.036357
  14 H :    0.023544

  Mayer bond orders larger than 0.100000
B(  0-C ,  1-C ) :   1.5912 B(  0-C ,  6-C ) :   1.2265 B(  0-C ,  7-H ) :   0.9867
B(  1-C ,  2-C ) :   1.0818 B(  1-C ,  3-S ) :   1.1318 B(  2-C ,  8-H ) :   0.9543
B(  2-C ,  9-H ) :   0.9513 B(  2-C , 10-H ) :   0.9515 B(  3-S ,  4-C ) :   1.1384
B(  4-C ,  5-C ) :   1.0815 B(  4-C ,  6-C ) :   1.5874 B(  5-C , 11-H ) :   0.9516
B(  5-C , 12-H ) :   0.9552 B(  5-C , 13-H ) :   0.9554 B(  6-C , 14-H ) :   0.9930

Dispersion correction           -0.025931015
FINAL SINGLE POINT ENERGY      -631.391064545823

DIPOLE MOMENT
-------------
                                X             Y             Z
Electronic contribution:      0.02975       2.30406      -0.03773
Nuclear contribution   :     -0.01267      -2.39236       0.04000
                        -----------------------------------------
Total Dipole Moment    :      0.01709      -0.08831       0.00226
                        -----------------------------------------
Magnitude (a.u.)       :      0.08997
Magnitude (Debye)      :      0.22869

Rotational constants in cm-1:     0.163755     0.057783     0.043410
Rotational constants in MHz :  4909.242197  1732.298038  1301.392760

                             ****ORCA TERMINATED NORMALLY****
TOTAL RUN TIME: 0 days 0 hours 3 minutes 31 seconds 872 msec
