                         Program Version 4.2.0 -  RELEASE  -
|  1> # ORCA input file
|  2> # SCF done        -38.927924160472          0.000650669388
|  3> ! B3LYP/G D3BJ Opt RIJCOSX def2-SVP def2/J
|  4> * xyz 0 1
|  5>    C        1.46277         1.30920        -0.17523
|  6>    S        2.67094         0.14044         0.18843
|  7>    C        1.47914        -1.09695         0.28040
|  8>    C        0.22527        -0.63074         0.04238
|  9>    C        0.21750         0.76825        -0.22423
| 10>    C       -1.03637         1.51308        -0.55969
| 11>    C       -2.26672         0.74537        -0.06588
| 12>    C       -2.42887         0.82401         1.44336
| 13>    O       -2.80776        -0.07447         2.14775
| 14>    O       -2.14707         2.04759         1.90775
| 15>    C       -2.30160         2.23881         3.30674
| 16>    C       -2.20559        -0.71058        -0.53597
| 17>    C       -1.02600        -1.44888         0.09696
| 18>    H        1.74791         2.32990        -0.33589
| 19>    H        1.77953        -2.10005         0.50917
| 20>    H       -1.10591         1.62110        -1.64719
| 21>    H       -1.01056         2.51444        -0.12836
| 22>    H       -3.16431         1.22153        -0.48033
| 23>    H       -2.21784         3.30859         3.48009
| 24>    H       -1.52021         1.70280         3.84913
| 25>    H       -3.27508         1.86872         3.63443
| 26>    H       -2.10885        -0.71780        -1.62363
| 27>    H       -3.13094        -1.22189        -0.26852
| 28>    H       -0.87149        -2.40765        -0.40286
| 29>    H       -1.26219        -1.66117         1.14328
| 30> *
| 31>
| 32>                          ****END OF INPUT****
 Total Charge           Charge          ....    0
 Multiplicity           Mult            ....    1
 Number of Electrons    NEL             ....  104
Dispersion correction           -0.051846690
FINAL SINGLE POINT ENERGY      -936.484318689521
Dispersion correction            ... done
Dispersion correction           -0.051347900
FINAL SINGLE POINT ENERGY      -936.486952958066
Dispersion correction            ... done
Dispersion correction           -0.051246516
FINAL SINGLE POINT ENERGY      -936.487078292370
Dispersion correction            ... done
FINAL SINGLE POINT ENERGY      -936.486990713900
FINAL SINGLE POINT ENERGY      -936.487079500505
FINAL SINGLE POINT ENERGY      -936.487065959203
FINAL SINGLE POINT ENERGY      -936.487017642332
Dispersion correction            ... done
Dispersion correction           -0.051464772
FINAL SINGLE POINT ENERGY      -936.487015181664
Dispersion correction            ... done
Dispersion correction           -0.051466292
FINAL SINGLE POINT ENERGY      -936.487019449269
Dispersion correction            ... done
                    ***********************HURRAY********************

CARTESIAN COORDINATES (ANGSTROEM)
---------------------------------
  C      1.452789    1.364269   -0.088766
  S      2.671765    0.204380    0.302833
  C      1.512606   -1.080137    0.311564
  C      0.242363   -0.635036    0.027003
  C      0.212850    0.784850   -0.215211
  C     -1.060249    1.495332   -0.591971
  C     -2.289401    0.727771   -0.070254
  C     -2.437924    0.826783    1.442719
  O     -2.785293   -0.072582    2.170287
  O     -2.156291    2.062596    1.892688
  C     -2.262222    2.263955    3.300131
  C     -2.239441   -0.739108   -0.522427
  C     -1.009047   -1.482583    0.026431
  H      1.715643    2.413058   -0.218697
  H      1.824432   -2.095492    0.553362
  H     -1.138998    1.555402   -1.691965
  H     -1.058218    2.525306   -0.212954
  H     -3.192714    1.208105   -0.487499
  H     -1.903642    3.282761    3.492124
  H     -1.647819    1.533371    3.844715
  H     -3.306157    2.156396    3.631945
  H     -2.231410   -0.750555   -1.625255
  H     -3.150294   -1.261217   -0.197120
  H     -0.842574   -2.405857   -0.551210
  H     -1.225057   -1.798117    1.059617

 Multiplicity           Mult            ....    1
 Number of Electrons    NEL             ....  104
 Basis Dimension        Dim             ....  246

ORBITAL ENERGIES
----------------

  NO   OCC          E(Eh)            E(eV)
   0   2.0000     -88.865465     -2418.1522
   1   2.0000     -19.179706      -521.9063
   2   2.0000     -19.122858      -520.3594
   3   2.0000     -10.311390      -280.5872
   4   2.0000     -10.246142      -278.8117
   5   2.0000     -10.207010      -277.7469
   6   2.0000     -10.201359      -277.5931
   7   2.0000     -10.200154      -277.5603
   8   2.0000     -10.195371      -277.4301
   9   2.0000     -10.189163      -277.2612
  10   2.0000     -10.189129      -277.2603
  11   2.0000     -10.188164      -277.2340
  12   2.0000     -10.186594      -277.1913
  13   2.0000      -7.960577      -216.6183
  14   2.0000      -5.928625      -161.3261
  15   2.0000      -5.924568      -161.2157
  16   2.0000      -5.922078      -161.1479
  17   2.0000      -1.098624       -29.8951
  18   2.0000      -1.007105       -27.4047
  19   2.0000      -0.875920       -23.8350
  20   2.0000      -0.823134       -22.3986
  21   2.0000      -0.760746       -20.7009
  22   2.0000      -0.739189       -20.1144
  23   2.0000      -0.719024       -19.5656
  24   2.0000      -0.686482       -18.6801
  25   2.0000      -0.634952       -17.2779
  26   2.0000      -0.604075       -16.4377
  27   2.0000      -0.563485       -15.3332
  28   2.0000      -0.557192       -15.1620
  29   2.0000      -0.527568       -14.3559
  30   2.0000      -0.501588       -13.6489
  31   2.0000      -0.488655       -13.2970
  32   2.0000      -0.476175       -12.9574
  33   2.0000      -0.468291       -12.7428
  34   2.0000      -0.450661       -12.2631
  35   2.0000      -0.434394       -11.8205
  36   2.0000      -0.424394       -11.5483
  37   2.0000      -0.411891       -11.2081
  38   2.0000      -0.399638       -10.8747
  39   2.0000      -0.398483       -10.8433
  40   2.0000      -0.394926       -10.7465
  41   2.0000      -0.383057       -10.4235
  42   2.0000      -0.367825       -10.0090
  43   2.0000      -0.355855        -9.6833
  44   2.0000      -0.343167        -9.3381
  45   2.0000      -0.336224        -9.1491
  46   2.0000      -0.330786        -9.0011
  47   2.0000      -0.322177        -8.7669
  48   2.0000      -0.307801        -8.3757
  49   2.0000      -0.276313        -7.5189
  50   2.0000      -0.236642        -6.4394
  51   2.0000      -0.227494        -6.1904
  52   0.0000      -0.018402        -0.5007
  53   0.0000       0.009588         0.2609
  54   0.0000       0.048837         1.3289
  55   0.0000       0.055687         1.5153
  56   0.0000       0.062660         1.7051

MULLIKEN ATOMIC CHARGES
-----------------------
   0 C :   -0.145114
   1 S :    0.091792
   2 C :   -0.147496
   3 C :   -0.038567
   4 C :   -0.058654
   5 C :    0.192244
   6 C :   -0.123508
   7 C :    0.199798
   8 O :   -0.225380
   9 O :   -0.308496
  10 C :    0.198505
  11 C :    0.069150
  12 C :    0.122742
  13 H :    0.008197
  14 H :    0.007933
  15 H :    0.012494
  16 H :    0.006386
  17 H :    0.018511
  18 H :    0.025865
  19 H :    0.033068
  20 H :    0.024740
  21 H :    0.001543
  22 H :    0.004380
  23 H :    0.001154
  24 H :    0.028714
Sum of atomic charges:   -0.0000000

LOEWDIN ATOMIC CHARGES
----------------------
   0 C :   -0.204782
   1 S :    0.421955
   2 C :   -0.203699
   3 C :   -0.066982
   4 C :   -0.071306
   5 C :   -0.013652
   6 C :   -0.055020
   7 C :    0.093409
   8 O :   -0.176828
   9 O :   -0.093756
  10 C :    0.086069
  11 C :   -0.017663
  12 C :   -0.025108
  13 H :    0.020728
  14 H :    0.020744
  15 H :    0.031591
  16 H :    0.029022
  17 H :    0.043086
  18 H :    0.023169
  19 H :    0.022718
  20 H :    0.020156
  21 H :    0.022661
  22 H :    0.028188
  23 H :    0.029877
  24 H :    0.035422

  Mayer bond orders larger than 0.100000
B(  0-C ,  1-S ) :   1.1610 B(  0-C ,  4-C ) :   1.5513 B(  0-C , 13-H ) :   0.9631
B(  1-S ,  2-C ) :   1.1624 B(  2-C ,  3-C ) :   1.5536 B(  2-C , 14-H ) :   0.9653
B(  3-C ,  4-C ) :   1.2908 B(  3-C , 12-C ) :   1.0409 B(  4-C ,  5-C ) :   1.0331
B(  5-C ,  6-C ) :   1.0636 B(  5-C , 15-H ) :   0.9099 B(  5-C , 16-H ) :   0.9064
B(  6-C ,  7-C ) :   0.9312 B(  6-C , 11-C ) :   1.0637 B(  6-C , 17-H ) :   0.8823
B(  7-C ,  8-O ) :   2.0659 B(  7-C ,  9-O ) :   1.1885 B(  9-O , 10-C ) :   0.9241
B( 10-C , 18-H ) :   0.9792 B( 10-C , 19-H ) :   0.9720 B( 10-C , 20-H ) :   0.9755
B( 11-C , 12-C ) :   1.0911 B( 11-C , 21-H ) :   0.9363 B( 11-C , 22-H ) :   0.9209
B( 12-C , 23-H ) :   0.9188 B( 12-C , 24-H ) :   0.9117

Dispersion correction           -0.051455720
FINAL SINGLE POINT ENERGY      -936.487027824099

DIPOLE MOMENT
-------------
                                X             Y             Z
Electronic contribution:      9.13091      -0.42417      -0.09292
Nuclear contribution   :     -9.32468       0.99351      -0.04018
                        -----------------------------------------
Total Dipole Moment    :     -0.19377       0.56934      -0.13310
                        -----------------------------------------
Magnitude (a.u.)       :      0.61596
Magnitude (Debye)      :      1.56564

Rotational constants in cm-1:     0.038541     0.016871     0.014618
Rotational constants in MHz :  1155.416969   505.789536   438.227346

                             ****ORCA TERMINATED NORMALLY****
TOTAL RUN TIME: 0 days 0 hours 18 minutes 35 seconds 720 msec
