                         Program Version 4.2.0 -  RELEASE  -
|  1> # ORCA input file
|  2> # SCF done        -39.149736007619          0.000582820945
|  3> ! B3LYP/G D3BJ Opt RIJCOSX def2-SVP def2/J
|  4> * xyz 0 1
|  5>    C        0.53464         1.07756         0.01996
|  6>    S       -0.30445        -0.41557         0.04629
|  7>    C        1.18298        -1.29651        -0.18032
|  8>    N        1.18144        -2.65791        -0.10415
|  9>    C       -0.02226        -3.42145        -0.30064
| 10>    C        2.27218        -0.45712        -0.27727
| 11>    C        1.88028         0.91545        -0.14819
| 12>    C        2.73466         2.10812        -0.23963
| 13>    O        2.35823         3.22732         0.01971
| 14>    O        3.98356         1.84200        -0.65832
| 15>    C        4.83907         2.96504        -0.78990
| 16>    C        3.64571        -0.91104        -0.44968
| 17>    C        4.03977        -1.88772        -1.25742
| 18>    H        0.00256         2.00181         0.11490
| 19>    H        2.05305        -3.09746        -0.35625
| 20>    H       -0.79919        -3.04045         0.36424
| 21>    H        0.17445        -4.46193        -0.05147
| 22>    H       -0.39397        -3.36439        -1.33116
| 23>    H        4.87857         3.52623         0.14611
| 24>    H        4.47618         3.62790        -1.57831
| 25>    H        5.81969         2.57185        -1.04514
| 26>    H        4.38246        -0.37072         0.12851
| 27>    H        3.36050        -2.41267        -1.91046
| 28>    H        5.07536        -2.17159        -1.33009
| 29> *
| 30>
| 31>                          ****END OF INPUT****
 Total Charge           Charge          ....    0
 Multiplicity           Mult            ....    1
 Number of Electrons    NEL             ....  104
Dispersion correction           -0.047637860
FINAL SINGLE POINT ENERGY      -952.472443639831
Dispersion correction            ... done
Dispersion correction           -0.047241838
FINAL SINGLE POINT ENERGY      -952.475422222444
Dispersion correction            ... done
Dispersion correction           -0.047214520
FINAL SINGLE POINT ENERGY      -952.475657607820
Dispersion correction            ... done
FINAL SINGLE POINT ENERGY      -952.475559187586
FINAL SINGLE POINT ENERGY      -952.475735249211
FINAL SINGLE POINT ENERGY      -952.475880072507
FINAL SINGLE POINT ENERGY      -952.475949720107
FINAL SINGLE POINT ENERGY      -952.476176606066
FINAL SINGLE POINT ENERGY      -952.476424130530
FINAL SINGLE POINT ENERGY      -952.476585424457
FINAL SINGLE POINT ENERGY      -952.477664393341
FINAL SINGLE POINT ENERGY      -952.477924569954
FINAL SINGLE POINT ENERGY      -952.478176131098
FINAL SINGLE POINT ENERGY      -952.478278895433
FINAL SINGLE POINT ENERGY      -952.478190680763
FINAL SINGLE POINT ENERGY      -952.478233359842
FINAL SINGLE POINT ENERGY      -952.478306169934
Dispersion correction            ... done
Dispersion correction           -0.047371451
FINAL SINGLE POINT ENERGY      -952.478286533900
Dispersion correction            ... done
Dispersion correction           -0.047372104
FINAL SINGLE POINT ENERGY      -952.478300320130
Dispersion correction            ... done
                    ***********************HURRAY********************

CARTESIAN COORDINATES (ANGSTROEM)
---------------------------------
  C      0.535182    1.087505   -0.051503
  S     -0.310030   -0.415467   -0.104822
  C      1.175753   -1.295880   -0.397525
  N      1.146594   -2.659930   -0.530502
  C     -0.043895   -3.421701   -0.233015
  C      2.289430   -0.453822   -0.428608
  C      1.886834    0.927314   -0.229440
  C      2.719093    2.155715   -0.269421
  O      2.304149    3.270626   -0.042618
  O      4.001639    1.919696   -0.613941
  C      4.840185    3.069295   -0.693714
  C      3.662894   -0.937343   -0.559245
  C      4.077460   -2.075415   -1.149894
  H      0.008429    2.029854    0.074970
  H      2.038271   -3.102912   -0.321672
  H     -0.378907   -3.328676    0.820234
  H      0.140367   -4.482677   -0.452387
  H     -0.875120   -3.088322   -0.874862
  H      4.940458    3.549127    0.291996
  H      4.422239    3.808680   -1.392467
  H      5.814583    2.711246   -1.047407
  H      4.418245   -0.288509   -0.112600
  H      3.405126   -2.736546   -1.700190
  H      5.136492   -2.345109   -1.150049

 Multiplicity           Mult            ....    1
 Number of Electrons    NEL             ....  104
 Basis Dimension        Dim             ....  241

ORBITAL ENERGIES
----------------

  NO   OCC          E(Eh)            E(eV)
   0   2.0000     -88.879875     -2418.5444
   1   2.0000     -19.174895      -521.7754
   2   2.0000     -19.112456      -520.0764
   3   2.0000     -14.358378      -390.7113
   4   2.0000     -10.309725      -280.5419
   5   2.0000     -10.254346      -279.0349
   6   2.0000     -10.242228      -278.7052
   7   2.0000     -10.235810      -278.5306
   8   2.0000     -10.209729      -277.8209
   9   2.0000     -10.200389      -277.5667
  10   2.0000     -10.193147      -277.3696
  11   2.0000     -10.192253      -277.3453
  12   2.0000     -10.180053      -277.0133
  13   2.0000      -7.975195      -217.0161
  14   2.0000      -5.943370      -161.7273
  15   2.0000      -5.939316      -161.6170
  16   2.0000      -5.936281      -161.5344
  17   2.0000      -1.092590       -29.7309
  18   2.0000      -0.998647       -27.1746
  19   2.0000      -0.950891       -25.8751
  20   2.0000      -0.868980       -23.6461
  21   2.0000      -0.784647       -21.3513
  22   2.0000      -0.755785       -20.5660
  23   2.0000      -0.721881       -19.6434
  24   2.0000      -0.708742       -19.2858
  25   2.0000      -0.679205       -18.4821
  26   2.0000      -0.607006       -16.5175
  27   2.0000      -0.588119       -16.0035
  28   2.0000      -0.569684       -15.5019
  29   2.0000      -0.547170       -14.8892
  30   2.0000      -0.517787       -14.0897
  31   2.0000      -0.486182       -13.2297
  32   2.0000      -0.482548       -13.1308
  33   2.0000      -0.471381       -12.8269
  34   2.0000      -0.466233       -12.6868
  35   2.0000      -0.455609       -12.3978
  36   2.0000      -0.443163       -12.0591
  37   2.0000      -0.430495       -11.7144
  38   2.0000      -0.412550       -11.2260
  39   2.0000      -0.410078       -11.1588
  40   2.0000      -0.405380       -11.0309
  41   2.0000      -0.391254       -10.6466
  42   2.0000      -0.380035       -10.3413
  43   2.0000      -0.371264       -10.1026
  44   2.0000      -0.349955        -9.5228
  45   2.0000      -0.338772        -9.2185
  46   2.0000      -0.310519        -8.4496
  47   2.0000      -0.300893        -8.1877
  48   2.0000      -0.294219        -8.0061
  49   2.0000      -0.275465        -7.4958
  50   2.0000      -0.244827        -6.6621
  51   2.0000      -0.193963        -5.2780
  52   0.0000      -0.035602        -0.9688
  53   0.0000      -0.017760        -0.4833
  54   0.0000       0.027170         0.7393
  55   0.0000       0.046282         1.2594
  56   0.0000       0.058535         1.5928

MULLIKEN ATOMIC CHARGES
-----------------------
   0 C :   -0.096372
   1 S :    0.079325
   2 C :   -0.139654
   3 N :   -0.170264
   4 C :    0.102397
   5 C :    0.113970
   6 C :   -0.009622
   7 C :    0.188833
   8 O :   -0.227888
   9 O :   -0.310583
  10 C :    0.200059
  11 C :   -0.010801
  12 C :   -0.075590
  13 H :    0.033516
  14 H :    0.124349
  15 H :    0.020523
  16 H :    0.030898
  17 H :    0.033958
  18 H :    0.024803
  19 H :    0.031201
  20 H :    0.026567
  21 H :   -0.000285
  22 H :    0.013790
  23 H :    0.016868
Sum of atomic charges:    0.0000000

LOEWDIN ATOMIC CHARGES
----------------------
   0 C :   -0.173975
   1 S :    0.418373
   2 C :   -0.108398
   3 N :   -0.039082
   4 C :    0.014301
   5 C :   -0.109457
   6 C :   -0.095645
   7 C :    0.089472
   8 O :   -0.187828
   9 O :   -0.090846
  10 C :    0.084436
  11 C :   -0.012583
  12 C :   -0.092834
  13 H :    0.032364
  14 H :    0.076989
  15 H :    0.011521
  16 H :    0.031293
  17 H :    0.023347
  18 H :    0.020446
  19 H :    0.022091
  20 H :    0.022468
  21 H :    0.027510
  22 H :    0.013982
  23 H :    0.022056

  Mayer bond orders larger than 0.100000
B(  0-C ,  1-S ) :   1.1143 B(  0-C ,  6-C ) :   1.5564 B(  0-C , 13-H ) :   0.9603
B(  1-S ,  2-C ) :   1.1214 B(  2-C ,  3-N ) :   1.2272 B(  2-C ,  5-C ) :   1.3996
B(  3-N ,  4-C ) :   1.0248 B(  3-N , 14-H ) :   0.9018 B(  4-C , 15-H ) :   0.9583
B(  4-C , 16-H ) :   0.9750 B(  4-C , 17-H ) :   0.9639 B(  5-C ,  6-C ) :   1.1789
B(  5-C , 11-C ) :   1.1164 B(  6-C ,  7-C ) :   0.9600 B(  7-C ,  8-O ) :   2.0791
B(  7-C ,  9-O ) :   1.1855 B(  9-O , 10-C ) :   0.9239 B( 10-C , 18-H ) :   0.9742
B( 10-C , 19-H ) :   0.9724 B( 10-C , 20-H ) :   0.9782 B( 11-C , 12-C ) :   1.8833
B( 11-C , 21-H ) :   0.9389 B( 12-C , 22-H ) :   0.9500 B( 12-C , 23-H ) :   0.9448

Dispersion correction           -0.047371652
FINAL SINGLE POINT ENERGY      -952.478304761225

DIPOLE MOMENT
-------------
                                X             Y             Z
Electronic contribution:     -6.83720       6.30002       1.60860
Nuclear contribution   :      6.95165      -7.47181      -1.56433
                        -----------------------------------------
Total Dipole Moment    :      0.11446      -1.17179       0.04427
                        -----------------------------------------
Magnitude (a.u.)       :      1.17820
Magnitude (Debye)      :      2.99474

Rotational constants in cm-1:     0.041193     0.015845     0.011542
Rotational constants in MHz :  1234.936056   475.009737   346.021177

                             ****ORCA TERMINATED NORMALLY****
TOTAL RUN TIME: 0 days 1 hours 29 minutes 16 seconds 131 msec
