                         Program Version 4.2.0 -  RELEASE  -
|  1> # ORCA input file
|  2> # SCF done        -51.776927274568          0.000834679282
|  3> ! B3LYP/G D3BJ Opt RIJCOSX def2-SVP def2/J
|  4> * xyz 0 1
|  5>    C       -1.61725         1.38214         0.06033
|  6>    S       -2.75574         0.12115         0.14467
|  7>    C       -1.53453        -1.10284         0.19953
|  8>    C       -0.26638        -0.52482         0.15232
|  9>    C       -0.32584         0.90970         0.07133
| 10>    C        0.87892         1.66502         0.01277
| 11>    C        0.79162         3.15385        -0.06925
| 12>    F        0.11841         3.57719        -1.16033
| 13>    F        0.14626         3.69776         0.98309
| 14>    F        1.98999         3.75259        -0.11793
| 15>    C        2.07821         1.01592         0.03407
| 16>    C        2.14579        -0.38628         0.11498
| 17>    C        1.01364        -1.16212         0.17516
| 18>    O        1.01951        -2.51292         0.25684
| 19>    C        2.25507        -3.19008         0.29500
| 20>    C       -1.89200        -2.49050         0.27945
| 21>    C       -3.14270        -2.94774         0.31298
| 22>    H       -1.95181         2.39811         0.00678
| 23>    H        2.99874         1.57690        -0.01058
| 24>    H        3.12357        -0.83767         0.12872
| 25>    H        2.00642        -4.24737         0.37235
| 26>    H        2.84737        -2.89252         1.16511
| 27>    H        2.83289        -3.01987        -0.61832
| 28>    H       -1.05901        -3.17543         0.31182
| 29>    H       -3.99100        -2.28355         0.28229
| 30>    H       -3.35392        -4.00026         0.37314
| 31> *
| 32>
| 33>                          ****END OF INPUT****
 Total Charge           Charge          ....    0
 Multiplicity           Mult            ....    1
 Number of Electrons    NEL             ....  132
Dispersion correction           -0.057811947
FINAL SINGLE POINT ENERGY     -1234.940121457161
Dispersion correction            ... done
Dispersion correction           -0.057468063
FINAL SINGLE POINT ENERGY     -1234.943480910768
Dispersion correction            ... done
Dispersion correction           -0.057425136
FINAL SINGLE POINT ENERGY     -1234.943422184233
Dispersion correction            ... done
FINAL SINGLE POINT ENERGY     -1234.943303201402
FINAL SINGLE POINT ENERGY     -1234.943314346930
Dispersion correction            ... done
Dispersion correction           -0.057437897
FINAL SINGLE POINT ENERGY     -1234.943380158172
Dispersion correction            ... done
Dispersion correction           -0.057434834
FINAL SINGLE POINT ENERGY     -1234.943381451138
Dispersion correction            ... done
                    ***********************HURRAY********************

CARTESIAN COORDINATES (ANGSTROEM)
---------------------------------
  C     -1.629623    1.407637    0.165080
  S     -2.764627    0.132538    0.250973
  C     -1.548935   -1.106188    0.243106
  C     -0.272510   -0.516809    0.191318
  C     -0.325731    0.933606    0.131669
  C      0.889564    1.697062    0.039991
  C      0.816204    3.184593   -0.134010
  F      0.095665    3.515734   -1.227253
  F      0.211836    3.794527    0.910735
  F      2.026794    3.748091   -0.279826
  C      2.089580    1.036780    0.060829
  C      2.163867   -0.382433    0.150450
  C      1.019845   -1.154690    0.196486
  O      1.022127   -2.503657    0.252936
  C      2.253384   -3.193614    0.294862
  C     -1.924945   -2.510721    0.269160
  C     -3.177366   -3.000766    0.247674
  H     -1.961507    2.442340    0.139668
  H      3.017475    1.605502   -0.006726
  H      3.147040   -0.848348    0.165878
  H      2.006465   -4.262268    0.347046
  H      2.843316   -2.910908    1.184354
  H      2.856188   -3.000781   -0.609615
  H     -1.079865   -3.198154    0.299302
  H     -4.059656   -2.355206    0.205586
  H     -3.358354   -4.077509    0.266645

 Multiplicity           Mult            ....    1
 Number of Electrons    NEL             ....  132
 Basis Dimension        Dim             ....  287

ORBITAL ENERGIES
----------------

  NO   OCC          E(Eh)            E(eV)
   0   2.0000     -88.888173     -2418.7702
   1   2.0000     -24.715248      -672.5361
   2   2.0000     -24.708267      -672.3461
   3   2.0000     -24.707549      -672.3266
   4   2.0000     -19.188035      -522.1330
   5   2.0000     -10.427115      -283.7362
   6   2.0000     -10.271769      -279.5090
   7   2.0000     -10.262600      -279.2595
   8   2.0000     -10.228894      -278.3424
   9   2.0000     -10.218735      -278.0659
  10   2.0000     -10.213464      -277.9225
  11   2.0000     -10.212670      -277.9009
  12   2.0000     -10.210749      -277.8486
  13   2.0000     -10.207677      -277.7650
  14   2.0000     -10.202295      -277.6186
  15   2.0000     -10.198950      -277.5275
  16   2.0000     -10.191362      -277.3210
  17   2.0000      -7.982990      -217.2282
  18   2.0000      -5.950684      -161.9264
  19   2.0000      -5.946640      -161.8163
  20   2.0000      -5.945195      -161.7770
  21   2.0000      -1.288955       -35.0743
  22   2.0000      -1.199573       -32.6420
  23   2.0000      -1.192531       -32.4504
  24   2.0000      -1.083567       -29.4854
  25   2.0000      -0.902106       -24.5475
  26   2.0000      -0.845780       -23.0148
  27   2.0000      -0.798421       -21.7262
  28   2.0000      -0.777002       -21.1433
  29   2.0000      -0.749498       -20.3949
  30   2.0000      -0.725693       -19.7471
  31   2.0000      -0.707352       -19.2480
  32   2.0000      -0.677922       -18.4472
  33   2.0000      -0.624212       -16.9857
  34   2.0000      -0.618704       -16.8358
  35   2.0000      -0.597907       -16.2699
  36   2.0000      -0.583165       -15.8687
  37   2.0000      -0.582176       -15.8418
  38   2.0000      -0.579003       -15.7555
  39   2.0000      -0.550642       -14.9837
  40   2.0000      -0.514869       -14.0103
  41   2.0000      -0.508125       -13.8268
  42   2.0000      -0.491266       -13.3680
  43   2.0000      -0.491257       -13.3678
  44   2.0000      -0.466881       -12.7045
  45   2.0000      -0.461916       -12.5694
  46   2.0000      -0.460779       -12.5384
  47   2.0000      -0.440985       -11.9998
  48   2.0000      -0.435120       -11.8402
  49   2.0000      -0.431468       -11.7409
  50   2.0000      -0.428255       -11.6534
  51   2.0000      -0.418196       -11.3797
  52   2.0000      -0.413974       -11.2648
  53   2.0000      -0.410369       -11.1667
  54   2.0000      -0.401412       -10.9230
  55   2.0000      -0.393747       -10.7144
  56   2.0000      -0.377274       -10.2661
  57   2.0000      -0.372000       -10.1226
  58   2.0000      -0.369648       -10.0586
  59   2.0000      -0.355303        -9.6683
  60   2.0000      -0.342609        -9.3229
  61   2.0000      -0.335985        -9.1426
  62   2.0000      -0.304721        -8.2919
  63   2.0000      -0.262820        -7.1517
  64   2.0000      -0.258191        -7.0257
  65   2.0000      -0.202132        -5.5003
  66   0.0000      -0.077210        -2.1010
  67   0.0000      -0.016820        -0.4577
  68   0.0000       0.013479         0.3668
  69   0.0000       0.035558         0.9676
  70   0.0000       0.050653         1.3783

MULLIKEN ATOMIC CHARGES
-----------------------
   0 C :   -0.119909
   1 S :    0.143725
   2 C :   -0.185775
   3 C :    0.122258
   4 C :    0.052508
   5 C :   -0.079510
   6 C :    0.532219
   7 F :   -0.181399
   8 F :   -0.183462
   9 F :   -0.165425
  10 C :   -0.009956
  11 C :   -0.115698
  12 C :    0.204832
  13 O :   -0.309794
  14 C :    0.176575
  15 C :    0.020904
  16 C :   -0.038170
  17 H :    0.030782
  18 H :   -0.011592
  19 H :   -0.033549
  20 H :    0.041533
  21 H :    0.030267
  22 H :    0.031110
  23 H :    0.004459
  24 H :    0.017939
  25 H :    0.025128
Sum of atomic charges:   -0.0000000

LOEWDIN ATOMIC CHARGES
----------------------
   0 C :   -0.198231
   1 S :    0.491703
   2 C :   -0.175108
   3 C :   -0.058159
   4 C :   -0.039652
   5 C :   -0.100851
   6 C :    0.179306
   7 F :   -0.072443
   8 F :   -0.074892
   9 F :   -0.058780
  10 C :    0.002043
  11 C :   -0.099259
  12 C :    0.072617
  13 O :   -0.080725
  14 C :    0.082290
  15 C :   -0.041981
  16 C :   -0.057777
  17 H :    0.026889
  18 H :    0.032705
  19 H :    0.027712
  20 H :    0.029634
  21 H :    0.018396
  22 H :    0.018240
  23 H :    0.033515
  24 H :    0.015750
  25 H :    0.027059

  Mayer bond orders larger than 0.100000
B(  0-C ,  1-S ) :   1.1862 B(  0-C ,  2-C ) :   0.1026 B(  0-C ,  4-C ) :   1.4591
B(  0-C , 17-H ) :   0.9405 B(  1-S ,  2-C ) :   1.1590 B(  2-C ,  3-C ) :   1.3555
B(  2-C , 15-C ) :   1.1576 B(  3-C ,  4-C ) :   1.2176 B(  3-C , 12-C ) :   1.1668
B(  4-C ,  5-C ) :   1.1709 B(  5-C ,  6-C ) :   0.9616 B(  5-C , 10-C ) :   1.5488
B(  6-C ,  7-F ) :   1.1277 B(  6-C ,  8-F ) :   1.1202 B(  6-C ,  9-F ) :   1.1465
B( 10-C , 11-C ) :   1.1717 B( 10-C , 18-H ) :   0.9875 B( 11-C , 12-C ) :   1.4272
B( 11-C , 19-H ) :   0.9894 B( 12-C , 13-O ) :   1.1688 B( 13-O , 14-C ) :   0.9494
B( 14-C , 20-H ) :   0.9755 B( 14-C , 21-H ) :   0.9656 B( 14-C , 22-H ) :   0.9658
B( 15-C , 16-C ) :   1.8734 B( 15-C , 23-H ) :   0.9445 B( 16-C , 24-H ) :   0.9516
B( 16-C , 25-H ) :   0.9474

Dispersion correction           -0.057433359
FINAL SINGLE POINT ENERGY     -1234.943373438491

DIPOLE MOMENT
-------------
                                X             Y             Z
Electronic contribution:     -0.99957      26.94128      -1.75795
Nuclear contribution   :      1.57560     -28.36463       1.86950
                        -----------------------------------------
Total Dipole Moment    :      0.57604      -1.42335       0.11155
                        -----------------------------------------
Magnitude (a.u.)       :      1.53954
Magnitude (Debye)      :      3.91320

Rotational constants in cm-1:     0.021128     0.010587     0.007341
Rotational constants in MHz :   633.400812   317.404314   220.068724

                             ****ORCA TERMINATED NORMALLY****
TOTAL RUN TIME: 0 days 0 hours 17 minutes 59 seconds 874 msec
