                         Program Version 4.2.0 -  RELEASE  -
|  1> # ORCA input file
|  2> # SCF done        -34.004982938233          0.000624059873
|  3> ! B3LYP/G D3BJ Opt RIJCOSX def2-SVP def2/J
|  4> * xyz 0 1
|  5>    C        1.49975        -1.30703        -0.09760
|  6>    S        2.72827        -0.11730        -0.10632
|  7>    C        1.54925         1.16461         0.01121
|  8>    C        0.27258         0.65671         0.03243
|  9>    C        0.25221        -0.76323        -0.02462
| 10>    C       -1.00673        -1.56016        -0.04467
| 11>    S       -1.20830        -2.37308        -1.69742
| 12>    C       -2.22603        -0.71384         0.30503
| 13>    C       -2.17899         0.63359        -0.40614
| 14>    C       -0.99151         1.45473         0.09226
| 15>    C        2.04573         2.51759         0.05297
| 16>    C        1.40729         3.59410         0.50287
| 17>    H        1.75888        -2.34565        -0.15731
| 18>    H       -0.93141        -2.42012         0.62653
| 19>    H       -1.03214        -1.27242        -2.42473
| 20>    H       -2.23874        -0.55209         1.38631
| 21>    H       -3.13187        -1.25801         0.03306
| 22>    H       -3.10474         1.18158        -0.22369
| 23>    H       -2.09379         0.47683        -1.48407
| 24>    H       -1.17601         1.75508         1.12922
| 25>    H       -0.88352         2.36335        -0.50421
| 26>    H        3.06304         2.62259        -0.30463
| 27>    H        0.41815         3.55815         0.91998
| 28>    H        1.88135         4.56014         0.48410
| 29> *
| 30>
| 31>                          ****END OF INPUT****
 Total Charge           Charge          ....    0
 Multiplicity           Mult            ....    1
 Number of Electrons    NEL             ....  104
Dispersion correction           -0.056290782
FINAL SINGLE POINT ENERGY     -1184.205702153509
Dispersion correction            ... done
Dispersion correction           -0.055715851
FINAL SINGLE POINT ENERGY     -1184.209443342625
Dispersion correction            ... done
Dispersion correction           -0.055627827
FINAL SINGLE POINT ENERGY     -1184.209605575103
Dispersion correction            ... done
FINAL SINGLE POINT ENERGY     -1184.209623101318
FINAL SINGLE POINT ENERGY     -1184.209505490874
FINAL SINGLE POINT ENERGY     -1184.209455659785
FINAL SINGLE POINT ENERGY     -1184.209361319400
FINAL SINGLE POINT ENERGY     -1184.209351176305
Dispersion correction            ... done
Dispersion correction           -0.055693696
FINAL SINGLE POINT ENERGY     -1184.209474180834
Dispersion correction            ... done
Dispersion correction           -0.055680437
FINAL SINGLE POINT ENERGY     -1184.209464253577
Dispersion correction            ... done
                    ***********************HURRAY********************

CARTESIAN COORDINATES (ANGSTROEM)
---------------------------------
  C      1.517601   -1.363709    0.021011
  S      2.740351   -0.162013    0.129569
  C      1.564063    1.135259    0.110868
  C      0.272345    0.622996    0.025346
  C      0.257522   -0.811148   -0.036152
  C     -1.021124   -1.585167   -0.191989
  S     -1.281958   -2.109485   -1.966098
  C     -2.213295   -0.792707    0.359368
  C     -2.266954    0.615352   -0.231634
  C     -0.998529    1.433620    0.068725
  C      2.080355    2.493037    0.181300
  C      1.407381    3.656402    0.251021
  H      1.777801   -2.419808   -0.030351
  H     -0.940067   -2.550479    0.328029
  H     -0.859140   -0.956470   -2.530507
  H     -2.108910   -0.736078    1.458666
  H     -3.144731   -1.338413    0.146014
  H     -3.145775    1.154886    0.154188
  H     -2.408815    0.527613   -1.321660
  H     -1.079118    1.886786    1.074035
  H     -0.930512    2.282488   -0.630672
  H      3.175531    2.552183    0.167191
  H      0.319993    3.721936    0.282641
  H      1.958707    4.599040    0.281653

 Multiplicity           Mult            ....    1
 Number of Electrons    NEL             ....  104
 Basis Dimension        Dim             ....  236

ORBITAL ENERGIES
----------------

  NO   OCC          E(Eh)            E(eV)
   0   2.0000     -88.873292     -2418.3652
   1   2.0000     -88.834380     -2417.3064
   2   2.0000     -10.228537      -278.3327
   3   2.0000     -10.216082      -277.9937
   4   2.0000     -10.211442      -277.8675
   5   2.0000     -10.205655      -277.7100
   6   2.0000     -10.199651      -277.5466
   7   2.0000     -10.199347      -277.5383
   8   2.0000     -10.197806      -277.4964
   9   2.0000     -10.193356      -277.3753
  10   2.0000     -10.190875      -277.3078
  11   2.0000     -10.189679      -277.2753
  12   2.0000      -7.968396      -216.8311
  13   2.0000      -7.928670      -215.7501
  14   2.0000      -5.936305      -161.5351
  15   2.0000      -5.932439      -161.4299
  16   2.0000      -5.929958      -161.3624
  17   2.0000      -5.898036      -160.4937
  18   2.0000      -5.894268      -160.3912
  19   2.0000      -5.887343      -160.2027
  20   2.0000      -0.888809       -24.1857
  21   2.0000      -0.828841       -22.5539
  22   2.0000      -0.789171       -21.4744
  23   2.0000      -0.765348       -20.8262
  24   2.0000      -0.734220       -19.9791
  25   2.0000      -0.705981       -19.2107
  26   2.0000      -0.684992       -18.6396
  27   2.0000      -0.623070       -16.9546
  28   2.0000      -0.609563       -16.5871
  29   2.0000      -0.580281       -15.7902
  30   2.0000      -0.547626       -14.9017
  31   2.0000      -0.510201       -13.8833
  32   2.0000      -0.493032       -13.4161
  33   2.0000      -0.468285       -12.7427
  34   2.0000      -0.458131       -12.4664
  35   2.0000      -0.433671       -11.8008
  36   2.0000      -0.432727       -11.7751
  37   2.0000      -0.424389       -11.5482
  38   2.0000      -0.409826       -11.1519
  39   2.0000      -0.407991       -11.1020
  40   2.0000      -0.392990       -10.6938
  41   2.0000      -0.372035       -10.1236
  42   2.0000      -0.369729       -10.0608
  43   2.0000      -0.350051        -9.5254
  44   2.0000      -0.340508        -9.2657
  45   2.0000      -0.338035        -9.1984
  46   2.0000      -0.334044        -9.0898
  47   2.0000      -0.320156        -8.7119
  48   2.0000      -0.300411        -8.1746
  49   2.0000      -0.247977        -6.7478
  50   2.0000      -0.235862        -6.4181
  51   2.0000      -0.214050        -5.8246
  52   0.0000      -0.046743        -1.2719
  53   0.0000       0.006008         0.1635
  54   0.0000       0.031309         0.8520
  55   0.0000       0.032346         0.8802
  56   0.0000       0.059595         1.6217

MULLIKEN ATOMIC CHARGES
-----------------------
   0 C :   -0.109052
   1 S :    0.107647
   2 C :   -0.164753
   3 C :   -0.038966
   4 C :    0.012630
   5 C :   -0.129576
   6 S :   -0.057100
   7 C :    0.099744
   8 C :    0.027590
   9 C :    0.089823
  10 C :    0.037703
  11 C :   -0.044937
  12 H :    0.016630
  13 H :    0.030777
  14 H :    0.057431
  15 H :    0.007933
  16 H :    0.001630
  17 H :   -0.003331
  18 H :   -0.004370
  19 H :    0.019071
  20 H :    0.021822
  21 H :   -0.009433
  22 H :    0.012027
  23 H :    0.019060
Sum of atomic charges:    0.0000000

LOEWDIN ATOMIC CHARGES
----------------------
   0 C :   -0.191802
   1 S :    0.437631
   2 C :   -0.184212
   3 C :   -0.055404
   4 C :   -0.085226
   5 C :   -0.109752
   6 S :    0.138812
   7 C :   -0.037237
   8 C :   -0.032369
   9 C :   -0.026678
  10 C :   -0.042253
  11 C :   -0.060647
  12 H :    0.025238
  13 H :    0.029018
  14 H :   -0.030918
  15 H :    0.024052
  16 H :    0.023047
  17 H :    0.025062
  18 H :    0.015652
  19 H :    0.032987
  20 H :    0.032051
  21 H :    0.028175
  22 H :    0.018978
  23 H :    0.025797

  Mayer bond orders larger than 0.100000
B(  0-C ,  1-S ) :   1.1638 B(  0-C ,  4-C ) :   1.5200 B(  0-C , 12-H ) :   0.9650
B(  1-S ,  2-C ) :   1.1289 B(  2-C ,  3-C ) :   1.4976 B(  2-C , 10-C ) :   1.1256
B(  3-C ,  4-C ) :   1.2966 B(  3-C ,  9-C ) :   1.0725 B(  4-C ,  5-C ) :   0.9719
B(  5-C ,  6-S ) :   1.0307 B(  5-C ,  7-C ) :   1.0160 B(  5-C , 13-H ) :   0.9127
B(  6-S , 14-H ) :   0.9516 B(  7-C ,  8-C ) :   1.0774 B(  7-C , 15-H ) :   0.9321
B(  7-C , 16-H ) :   0.9280 B(  8-C ,  9-C ) :   1.0791 B(  8-C , 17-H ) :   0.9296
B(  8-C , 18-H ) :   0.9342 B(  9-C , 19-H ) :   0.9108 B(  9-C , 20-H ) :   0.9066
B( 10-C , 11-C ) :   1.9024 B( 10-C , 21-H ) :   0.9421 B( 11-C , 22-H ) :   0.9542
B( 11-C , 23-H ) :   0.9399

Dispersion correction           -0.055679552
FINAL SINGLE POINT ENERGY     -1184.209477252864

DIPOLE MOMENT
-------------
                                X             Y             Z
Electronic contribution:      9.47860      -7.88131      -2.15097
Nuclear contribution   :     -9.62409       8.20014       2.48321
                        -----------------------------------------
Total Dipole Moment    :     -0.14549       0.31884       0.33224
                        -----------------------------------------
Magnitude (a.u.)       :      0.48292
Magnitude (Debye)      :      1.22748

Rotational constants in cm-1:     0.037326     0.018217     0.013696
Rotational constants in MHz :  1118.992423   546.123970   410.588225

                             ****ORCA TERMINATED NORMALLY****
TOTAL RUN TIME: 0 days 0 hours 19 minutes 43 seconds 314 msec
