                         Program Version 4.2.0 -  RELEASE  -
|  1> # ORCA input file
|  2> # SCF done        -33.604384466069          0.000961125383
|  3> ! B3LYP/G D3BJ Opt RIJCOSX def2-SVP def2/J
|  4> * xyz 0 1
|  5>    C       -0.81881         1.44732        -0.11647
|  6>    C        0.05421         0.37866        -0.06854
|  7>    C        1.53269         0.35065        -0.09306
|  8>    O        2.30733         1.26208        -0.16307
|  9>    O        1.92277        -0.94776        -0.02208
| 10>    C        0.80952        -1.82529         0.05215
| 11>    C       -0.39292        -0.93720         0.01990
| 12>    C       -1.74472        -1.21178         0.06635
| 13>    C       -2.62410        -0.14280         0.02009
| 14>    C       -2.18967         1.18623        -0.07556
| 15>    C       -3.19227         2.24539        -0.12421
| 16>    C       -2.96742         3.52911        -0.37883
| 17>    H       -0.43146         2.45112        -0.17512
| 18>    H        0.88143        -2.40720         0.97818
| 19>    H        0.84932        -2.51639        -0.79746
| 20>    H       -2.10900        -2.22535         0.13828
| 21>    H       -3.68626        -0.33875         0.05584
| 22>    H       -4.20726         1.91374         0.05645
| 23>    H       -1.98512         3.92025        -0.58214
| 24>    H       -3.77277         4.24286        -0.40013
| 25> *
| 26>
| 27>                          ****END OF INPUT****
 Total Charge           Charge          ....    0
 Multiplicity           Mult            ....    1
 Number of Electrons    NEL             ....   84
Dispersion correction           -0.039214276
FINAL SINGLE POINT ENERGY      -535.970751377109
Dispersion correction            ... done
Dispersion correction           -0.038983992
FINAL SINGLE POINT ENERGY      -535.972965513983
Dispersion correction            ... done
Dispersion correction           -0.038952064
FINAL SINGLE POINT ENERGY      -535.973060540980
Dispersion correction            ... done
FINAL SINGLE POINT ENERGY      -535.973080359164
FINAL SINGLE POINT ENERGY      -535.973110309061
FINAL SINGLE POINT ENERGY      -535.973120571085
Dispersion correction            ... done
Dispersion correction           -0.038952508
FINAL SINGLE POINT ENERGY      -535.973127625694
Dispersion correction            ... done
Dispersion correction           -0.038949684
FINAL SINGLE POINT ENERGY      -535.973129820006
Dispersion correction            ... done
                    ***********************HURRAY********************

CARTESIAN COORDINATES (ANGSTROEM)
---------------------------------
  C     -0.815001    1.437422   -0.156317
  C      0.058617    0.359987   -0.090175
  C      1.543638    0.357057   -0.120315
  O      2.312904    1.272420   -0.200972
  O      1.945242   -0.952225   -0.030693
  C      0.831898   -1.842034    0.070124
  C     -0.383670   -0.957013    0.027871
  C     -1.747673   -1.229685    0.086641
  C     -2.634719   -0.152034    0.022144
  C     -2.198312    1.186976   -0.103617
  C     -3.205623    2.258113   -0.173917
  C     -2.978643    3.570061   -0.320652
  H     -0.414308    2.447885   -0.249638
  H      0.913129   -2.410517    1.012523
  H      0.869213   -2.561227   -0.766311
  H     -2.127204   -2.249421    0.185862
  H     -3.709757   -0.345242    0.070714
  H     -4.244143    1.916676   -0.098092
  H     -1.972672    3.987960   -0.410110
  H     -3.807427    4.279732   -0.364500

 Multiplicity           Mult            ....    1
 Number of Electrons    NEL             ....   84
 Basis Dimension        Dim             ....  208

ORBITAL ENERGIES
----------------

  NO   OCC          E(Eh)            E(eV)
   0   2.0000     -19.176633      -521.8227
   1   2.0000     -19.119480      -520.2675
   2   2.0000     -10.313822      -280.6534
   3   2.0000     -10.267925      -279.4044
   4   2.0000     -10.220466      -278.1130
   5   2.0000     -10.219268      -278.0804
   6   2.0000     -10.217706      -278.0379
   7   2.0000     -10.216706      -278.0107
   8   2.0000     -10.215015      -277.9647
   9   2.0000     -10.210384      -277.8387
  10   2.0000     -10.208073      -277.7758
  11   2.0000     -10.199892      -277.5532
  12   2.0000      -1.095107       -29.7994
  13   2.0000      -1.016181       -27.6517
  14   2.0000      -0.880909       -23.9707
  15   2.0000      -0.810762       -22.0620
  16   2.0000      -0.773036       -21.0354
  17   2.0000      -0.755956       -20.5706
  18   2.0000      -0.716199       -19.4888
  19   2.0000      -0.660381       -17.9699
  20   2.0000      -0.622922       -16.9506
  21   2.0000      -0.582121       -15.8403
  22   2.0000      -0.566767       -15.4225
  23   2.0000      -0.526354       -14.3228
  24   2.0000      -0.505198       -13.7471
  25   2.0000      -0.500783       -13.6270
  26   2.0000      -0.487582       -13.2678
  27   2.0000      -0.469552       -12.7772
  28   2.0000      -0.457498       -12.4492
  29   2.0000      -0.433172       -11.7872
  30   2.0000      -0.426276       -11.5996
  31   2.0000      -0.417094       -11.3497
  32   2.0000      -0.403191       -10.9714
  33   2.0000      -0.395553       -10.7636
  34   2.0000      -0.376296       -10.2395
  35   2.0000      -0.367287        -9.9944
  36   2.0000      -0.361947        -9.8491
  37   2.0000      -0.324747        -8.8368
  38   2.0000      -0.300168        -8.1680
  39   2.0000      -0.280611        -7.6358
  40   2.0000      -0.277701        -7.5566
  41   2.0000      -0.245928        -6.6921
  42   0.0000      -0.058987        -1.6051
  43   0.0000      -0.057129        -1.5546
  44   0.0000       0.017249         0.4694
  45   0.0000       0.055248         1.5034
  46   0.0000       0.064720         1.7611

MULLIKEN ATOMIC CHARGES
-----------------------
   0 C :   -0.056894
   1 C :   -0.033869
   2 C :    0.223776
   3 O :   -0.166321
   4 O :   -0.312552
   5 C :    0.332680
   6 C :   -0.093937
   7 C :   -0.017645
   8 C :   -0.019281
   9 C :    0.102378
  10 C :   -0.010098
  11 C :   -0.012472
  12 H :   -0.014834
  13 H :    0.036284
  14 H :    0.041013
  15 H :   -0.023487
  16 H :   -0.012971
  17 H :   -0.015462
  18 H :    0.023610
  19 H :    0.030082
Sum of atomic charges:    0.0000000

LOEWDIN ATOMIC CHARGES
----------------------
   0 C :    0.023296
   1 C :   -0.072111
   2 C :    0.085539
   3 O :   -0.151389
   4 O :   -0.104131
   5 C :    0.106465
   6 C :   -0.029140
   7 C :   -0.023095
   8 C :    0.000201
   9 C :   -0.022720
  10 C :   -0.025355
  11 C :   -0.034172
  12 H :    0.035987
  13 H :    0.033811
  14 H :    0.034429
  15 H :    0.030019
  16 H :    0.030193
  17 H :    0.028051
  18 H :    0.024167
  19 H :    0.029956

  Mayer bond orders larger than 0.100000
B(  0-C ,  1-C ) :   1.3598 B(  0-C ,  9-C ) :   1.3214 B(  0-C , 12-H ) :   0.9991
B(  1-C ,  2-C ) :   0.9041 B(  1-C ,  6-C ) :   1.4017 B(  2-C ,  3-O ) :   2.2144
B(  2-C ,  4-O ) :   1.0840 B(  4-O ,  5-C ) :   0.9698 B(  5-C ,  6-C ) :   1.0135
B(  5-C , 13-H ) :   0.9224 B(  5-C , 14-H ) :   0.9242 B(  6-C ,  7-C ) :   1.3567
B(  7-C ,  8-C ) :   1.3706 B(  7-C , 15-H ) :   1.0018 B(  8-C ,  9-C ) :   1.3324
B(  8-C , 16-H ) :   0.9895 B(  9-C , 10-C ) :   1.0704 B( 10-C , 11-C ) :   1.9362
B( 10-C , 17-H ) :   0.9638 B( 11-C , 18-H ) :   0.9440 B( 11-C , 19-H ) :   0.9450

Dispersion correction           -0.038947710
FINAL SINGLE POINT ENERGY      -535.973130563817

DIPOLE MOMENT
-------------
                                X             Y             Z
Electronic contribution:      7.83501      -2.31021       0.05314
Nuclear contribution   :     -9.53722       1.45731       0.04748
                        -----------------------------------------
Total Dipole Moment    :     -1.70220      -0.85291       0.10062
                        -----------------------------------------
Magnitude (a.u.)       :      1.90658
Magnitude (Debye)      :      4.84615

Rotational constants in cm-1:     0.062035     0.022547     0.016590
Rotational constants in MHz :  1859.765333   675.950658   497.351244

                             ****ORCA TERMINATED NORMALLY****
TOTAL RUN TIME: 0 days 0 hours 12 minutes 49 seconds 994 msec
