                         Program Version 4.2.0 -  RELEASE  -
|  1> # ORCA input file
|  2> # SCF done        -42.367762877633          0.000539289810
|  3> ! B3LYP/G D3BJ Opt RIJCOSX def2-SVP def2/J
|  4> * xyz 0 1
|  5>    C       -2.64045        -0.65379         0.02225
|  6>    C       -1.46842        -1.39603         0.05908
|  7>    C       -0.27156        -0.71170         0.00309
|  8>    C       -0.25201         0.68435        -0.08188
|  9>    C        1.16636         1.12055        -0.11948
| 10>    O        1.62524         2.23290        -0.18432
| 11>    N        1.91155        -0.04666        -0.05440
| 12>    C        1.12856        -1.19205         0.01894
| 13>    O        1.55678        -2.31644         0.08806
| 14>    C        3.35727        -0.07376        -0.11210
| 15>    C        3.85022        -0.07525        -1.55477
| 16>    C       -1.41139         1.42181        -0.11898
| 17>    C       -2.63796         0.74140        -0.07313
| 18>    C       -3.91600         1.44108        -0.11948
| 19>    C       -4.09866         2.72362        -0.41215
| 20>    H       -3.58948        -1.16907         0.06220
| 21>    H       -1.48685        -2.47244         0.12973
| 22>    H        3.68484        -0.97877         0.40510
| 23>    H        3.72596         0.81026         0.41411
| 24>    H        3.46955        -0.94770        -2.08109
| 25>    H        4.93596        -0.10131        -1.57352
| 26>    H        3.51225         0.82282        -2.06669
| 27>    H       -1.36604         2.49746        -0.17286
| 28>    H       -4.77821         0.82133         0.09237
| 29>    H       -3.28733         3.38961        -0.65193
| 30>    H       -5.08442         3.15545        -0.43146
| 31> *
| 32>
| 33>                          ****END OF INPUT****
 Total Charge           Charge          ....    0
 Multiplicity           Mult            ....    1
 Number of Electrons    NEL             ....  106
Dispersion correction           -0.052839683
FINAL SINGLE POINT ENERGY      -668.692712983746
Dispersion correction            ... done
Dispersion correction           -0.052485852
FINAL SINGLE POINT ENERGY      -668.695657714615
Dispersion correction            ... done
Dispersion correction           -0.052421866
FINAL SINGLE POINT ENERGY      -668.695794333786
Dispersion correction            ... done
FINAL SINGLE POINT ENERGY      -668.695777068615
FINAL SINGLE POINT ENERGY      -668.695788453269
FINAL SINGLE POINT ENERGY      -668.695807001521
FINAL SINGLE POINT ENERGY      -668.695814075704
Dispersion correction            ... done
Dispersion correction           -0.052454648
FINAL SINGLE POINT ENERGY      -668.695821562970
Dispersion correction            ... done
Dispersion correction           -0.052451837
FINAL SINGLE POINT ENERGY      -668.695823035195
Dispersion correction            ... done
                    ***********************HURRAY********************

CARTESIAN COORDINATES (ANGSTROEM)
---------------------------------
  C     -2.650468   -0.669299   -0.022967
  C     -1.462403   -1.406601    0.056446
  C     -0.267003   -0.704052    0.020341
  C     -0.257671    0.690918   -0.098735
  C      1.166865    1.145290   -0.144584
  O      1.602756    2.266848   -0.266312
  N      1.936704   -0.020617   -0.024972
  C      1.146784   -1.179794    0.072641
  O      1.569602   -2.307976    0.175536
  C      3.387293   -0.038003   -0.114448
  C      3.876827   -0.149692   -1.557456
  C     -1.424490    1.427488   -0.170647
  C     -2.658826    0.738177   -0.131659
  C     -3.950614    1.437236   -0.204029
  C     -4.140483    2.762663   -0.264052
  H     -3.608633   -1.194311    0.000723
  H     -1.469057   -2.495191    0.143885
  H      3.737784   -0.890676    0.484514
  H      3.752348    0.889520    0.349734
  H      3.520353   -1.084172   -2.016933
  H      4.977677   -0.146588   -1.594177
  H      3.512956    0.698704   -2.156772
  H     -1.374990    2.513839   -0.265608
  H     -4.829567    0.783370   -0.204313
  H     -3.311528    3.475463   -0.263245
  H     -5.146457    3.185123   -0.316220

 Multiplicity           Mult            ....    1
 Number of Electrons    NEL             ....  106
 Basis Dimension        Dim             ....  265

ORBITAL ENERGIES
----------------

  NO   OCC          E(Eh)            E(eV)
   0   2.0000     -19.133295      -520.6434
   1   2.0000     -19.132669      -520.6264
   2   2.0000     -14.376141      -391.1947
   3   2.0000     -10.309838      -280.5449
   4   2.0000     -10.309683      -280.5407
   5   2.0000     -10.231681      -278.4182
   6   2.0000     -10.226231      -278.2699
   7   2.0000     -10.221023      -278.1282
   8   2.0000     -10.219867      -278.0967
   9   2.0000     -10.218195      -278.0512
  10   2.0000     -10.216585      -278.0074
  11   2.0000     -10.215403      -277.9752
  12   2.0000     -10.212372      -277.8928
  13   2.0000     -10.205799      -277.7139
  14   2.0000     -10.188394      -277.2403
  15   2.0000      -1.063674       -28.9441
  16   2.0000      -1.044343       -28.4180
  17   2.0000      -0.955684       -26.0055
  18   2.0000      -0.882839       -24.0233
  19   2.0000      -0.820162       -22.3177
  20   2.0000      -0.785036       -21.3619
  21   2.0000      -0.761675       -20.7262
  22   2.0000      -0.737113       -20.0579
  23   2.0000      -0.674162       -18.3449
  24   2.0000      -0.667751       -18.1704
  25   2.0000      -0.625490       -17.0204
  26   2.0000      -0.616570       -16.7777
  27   2.0000      -0.580105       -15.7854
  28   2.0000      -0.560887       -15.2625
  29   2.0000      -0.523815       -14.2537
  30   2.0000      -0.502670       -13.6783
  31   2.0000      -0.494138       -13.4462
  32   2.0000      -0.481175       -13.0934
  33   2.0000      -0.466585       -12.6964
  34   2.0000      -0.461495       -12.5579
  35   2.0000      -0.453767       -12.3476
  36   2.0000      -0.444829       -12.1044
  37   2.0000      -0.434176       -11.8145
  38   2.0000      -0.432480       -11.7684
  39   2.0000      -0.412733       -11.2310
  40   2.0000      -0.408132       -11.1058
  41   2.0000      -0.404457       -11.0058
  42   2.0000      -0.389186       -10.5903
  43   2.0000      -0.381842       -10.3904
  44   2.0000      -0.376570       -10.2470
  45   2.0000      -0.372302       -10.1309
  46   2.0000      -0.357844        -9.7374
  47   2.0000      -0.324298        -8.8246
  48   2.0000      -0.294567        -8.0156
  49   2.0000      -0.287402        -7.8206
  50   2.0000      -0.277735        -7.5576
  51   2.0000      -0.272693        -7.4204
  52   2.0000      -0.250485        -6.8160
  53   0.0000      -0.089747        -2.4421
  54   0.0000      -0.059698        -1.6245
  55   0.0000      -0.011307        -0.3077
  56   0.0000       0.055375         1.5068
  57   0.0000       0.058223         1.5843

MULLIKEN ATOMIC CHARGES
-----------------------
   0 C :   -0.009778
   1 C :   -0.033726
   2 C :    0.003657
   3 C :    0.010999
   4 C :    0.204124
   5 O :   -0.178020
   6 N :   -0.315858
   7 C :    0.200930
   8 O :   -0.175669
   9 C :    0.154472
  10 C :   -0.025931
  11 C :   -0.079018
  12 C :    0.112057
  13 C :   -0.011966
  14 C :   -0.010659
  15 H :   -0.015226
  16 H :    0.001325
  17 H :    0.026303
  18 H :    0.022809
  19 H :    0.025601
  20 H :    0.026666
  21 H :    0.029329
  22 H :   -0.011691
  23 H :   -0.009632
  24 H :    0.029429
  25 H :    0.029473
Sum of atomic charges:    0.0000000

LOEWDIN ATOMIC CHARGES
----------------------
   0 C :   -0.003628
   1 C :    0.008554
   2 C :   -0.053824
   3 C :   -0.047929
   4 C :    0.089381
   5 O :   -0.162326
   6 N :   -0.040051
   7 C :    0.088613
   8 O :   -0.161423
   9 C :    0.047233
  10 C :   -0.060978
  11 C :    0.016804
  12 C :   -0.009862
  13 C :   -0.024113
  14 C :   -0.028334
  15 H :    0.030566
  16 H :    0.040419
  17 H :    0.031004
  18 H :    0.030210
  19 H :    0.027585
  20 H :    0.031210
  21 H :    0.028490
  22 H :    0.036485
  23 H :    0.030080
  24 H :    0.025281
  25 H :    0.030549

  Mayer bond orders larger than 0.100000
B(  0-C ,  1-C ) :   1.3317 B(  0-C , 12-C ) :   1.3509 B(  0-C , 15-H ) :   0.9903
B(  1-C ,  2-C ) :   1.3881 B(  1-C , 16-H ) :   1.0015 B(  2-C ,  3-C ) :   1.3438
B(  2-C ,  7-C ) :   0.8955 B(  3-C ,  4-C ) :   0.8838 B(  3-C , 11-C ) :   1.4207
B(  4-C ,  5-O ) :   2.1708 B(  4-C ,  6-N ) :   1.0574 B(  6-N ,  7-C ) :   1.0461
B(  6-N ,  9-C ) :   0.9272 B(  7-C ,  8-O ) :   2.1767 B(  9-C , 10-C ) :   1.1226
B(  9-C , 17-H ) :   0.9393 B(  9-C , 18-H ) :   0.9394 B( 10-C , 19-H ) :   0.9684
B( 10-C , 20-H ) :   0.9675 B( 10-C , 21-H ) :   0.9684 B( 11-C , 12-C ) :   1.2786
B( 11-C , 22-H ) :   0.9975 B( 12-C , 13-C ) :   1.0722 B( 13-C , 14-C ) :   1.9273
B( 13-C , 23-H ) :   0.9650 B( 14-C , 24-H ) :   0.9434 B( 14-C , 25-H ) :   0.9462

Dispersion correction           -0.052449997
FINAL SINGLE POINT ENERGY      -668.695822897461

DIPOLE MOMENT
-------------
                                X             Y             Z
Electronic contribution:     -1.23772      -2.52537       3.41143
Nuclear contribution   :      0.30920       2.62511      -3.50158
                        -----------------------------------------
Total Dipole Moment    :     -0.92852       0.09974      -0.09015
                        -----------------------------------------
Magnitude (a.u.)       :      0.93821
Magnitude (Debye)      :      2.38473

Rotational constants in cm-1:     0.043863     0.012471     0.010049
Rotational constants in MHz :  1314.982788   373.869942   301.260438

                             ****ORCA TERMINATED NORMALLY****
TOTAL RUN TIME: 0 days 0 hours 19 minutes 22 seconds 505 msec
