                         Program Version 4.2.0 -  RELEASE  -
|  1> # ORCA input file
|  2> # SCF done        -30.594787608947          0.000796270301
|  3> ! B3LYP/G D3BJ Opt RIJCOSX def2-SVP def2/J
|  4> * xyz 0 1
|  5>    C       -0.69933         1.20675         0.16794
|  6>    O       -1.36551         0.02905         0.13036
|  7>    C       -0.44410        -0.95465         0.05543
|  8>    C        0.81029        -0.42487         0.04401
|  9>    O        2.03591        -1.01769        -0.02143
| 10>    C        2.02099        -2.42265        -0.09059
| 11>    C        0.65109         0.99876         0.11784
| 12>    N        1.70581         1.87744         0.13019
| 13>    C        1.61651         3.24328         0.18711
| 14>    C        2.66420         4.06110         0.18902
| 15>    H       -1.29290         2.09450         0.22867
| 16>    H       -0.80941        -1.96017         0.01727
| 17>    H        3.06261        -2.73453        -0.13886
| 18>    H        1.49066        -2.76828        -0.98365
| 19>    H        1.54676        -2.85651         0.79550
| 20>    H        2.62280         1.45928         0.08237
| 21>    H        0.60538         3.61959         0.23211
| 22>    H        3.67354         3.69003         0.14381
| 23>    H        2.53698         5.12504         0.23564
| 24> *
| 25>
| 26>                          ****END OF INPUT****
 Total Charge           Charge          ....    0
 Multiplicity           Mult            ....    1
 Number of Electrons    NEL             ....   74
Dispersion correction           -0.028839981
FINAL SINGLE POINT ENERGY      -476.969862687223
Dispersion correction            ... done
Dispersion correction           -0.028782374
FINAL SINGLE POINT ENERGY      -476.972138883332
Dispersion correction            ... done
Dispersion correction           -0.028783920
FINAL SINGLE POINT ENERGY      -476.972245214773
Dispersion correction            ... done
FINAL SINGLE POINT ENERGY      -476.972243043716
Dispersion correction            ... done
Dispersion correction           -0.028792542
FINAL SINGLE POINT ENERGY      -476.972244204942
Dispersion correction            ... done
Dispersion correction           -0.028792066
FINAL SINGLE POINT ENERGY      -476.972241793766
Dispersion correction            ... done
                    ***********************HURRAY********************

CARTESIAN COORDINATES (ANGSTROEM)
---------------------------------
  C     -0.722088    1.218786    0.164990
  O     -1.394766    0.030224    0.122724
  C     -0.478385   -0.972146    0.046524
  C      0.781723   -0.434334    0.031008
  O      2.006509   -0.997794   -0.047678
  C      2.045585   -2.406539   -0.086398
  C      0.630638    0.995414    0.113816
  N      1.712534    1.854767    0.132186
  C      1.646109    3.229459    0.187779
  C      2.691616    4.072415    0.192989
  H     -1.327594    2.115350    0.236497
  H     -0.858823   -1.987497    0.010626
  H      3.100053   -2.702129   -0.162131
  H      1.494561   -2.798070   -0.960708
  H      1.608887   -2.844068    0.830287
  H      2.623008    1.411965    0.084700
  H      0.625370    3.620693    0.232010
  H      3.723322    3.710348    0.151863
  H      2.524021    5.148625    0.241657

 Multiplicity           Mult            ....    1
 Number of Electrons    NEL             ....   74
 Basis Dimension        Dim             ....  185

ORBITAL ENERGIES
----------------

  NO   OCC          E(Eh)            E(eV)
   0   2.0000     -19.189161      -522.1636
   1   2.0000     -19.175484      -521.7915
   2   2.0000     -14.355689      -390.6381
   3   2.0000     -10.253767      -279.0192
   4   2.0000     -10.242058      -278.7006
   5   2.0000     -10.229852      -278.3684
   6   2.0000     -10.224730      -278.2290
   7   2.0000     -10.223508      -278.1958
   8   2.0000     -10.222753      -278.1753
   9   2.0000     -10.165078      -276.6058
  10   2.0000      -1.093138       -29.7458
  11   2.0000      -1.067930       -29.0599
  12   2.0000      -0.940479       -25.5917
  13   2.0000      -0.795268       -21.6403
  14   2.0000      -0.742818       -20.2131
  15   2.0000      -0.720538       -19.6068
  16   2.0000      -0.709050       -19.2942
  17   2.0000      -0.614371       -16.7179
  18   2.0000      -0.597562       -16.2605
  19   2.0000      -0.561308       -15.2740
  20   2.0000      -0.558123       -15.1873
  21   2.0000      -0.505675       -13.7601
  22   2.0000      -0.489801       -13.3282
  23   2.0000      -0.483519       -13.1572
  24   2.0000      -0.461911       -12.5692
  25   2.0000      -0.445692       -12.1279
  26   2.0000      -0.441596       -12.0164
  27   2.0000      -0.428812       -11.6686
  28   2.0000      -0.406027       -11.0486
  29   2.0000      -0.384909       -10.4739
  30   2.0000      -0.382764       -10.4155
  31   2.0000      -0.368430       -10.0255
  32   2.0000      -0.348888        -9.4937
  33   2.0000      -0.343213        -9.3393
  34   2.0000      -0.265405        -7.2220
  35   2.0000      -0.220866        -6.0101
  36   2.0000      -0.186714        -5.0808
  37   0.0000       0.007776         0.2116
  38   0.0000       0.044667         1.2155
  39   0.0000       0.058049         1.5796
  40   0.0000       0.067477         1.8361
  41   0.0000       0.075073         2.0428

MULLIKEN ATOMIC CHARGES
-----------------------
   0 C :   -0.031388
   1 O :   -0.221033
   2 C :   -0.006451
   3 C :    0.175910
   4 O :   -0.329036
   5 C :    0.192055
   6 C :    0.115822
   7 N :   -0.057231
   8 C :    0.057366
   9 C :   -0.088993
  10 H :   -0.010578
  11 H :   -0.004906
  12 H :    0.032193
  13 H :    0.018308
  14 H :    0.017806
  15 H :    0.116069
  16 H :    0.004081
  17 H :    0.001068
  18 H :    0.018937
Sum of atomic charges:   -0.0000000

LOEWDIN ATOMIC CHARGES
----------------------
   0 C :   -0.022456
   1 O :   -0.011237
   2 C :   -0.030543
   3 C :   -0.017668
   4 O :   -0.108688
   5 C :    0.085007
   6 C :   -0.034104
   7 N :    0.016850
   8 C :    0.026327
   9 C :   -0.145914
  10 H :    0.016869
  11 H :    0.018546
  12 H :    0.026002
  13 H :    0.013354
  14 H :    0.013527
  15 H :    0.084817
  16 H :    0.026818
  17 H :    0.016306
  18 H :    0.026187

  Mayer bond orders larger than 0.100000
B(  0-C ,  1-O ) :   1.0983 B(  0-C ,  6-C ) :   1.4558 B(  0-C , 10-H ) :   1.0281
B(  1-O ,  2-C ) :   1.1095 B(  2-C ,  3-C ) :   1.4423 B(  2-C , 11-H ) :   1.0193
B(  3-C ,  4-O ) :   1.1243 B(  3-C ,  6-C ) :   1.2677 B(  4-O ,  5-C ) :   0.9615
B(  5-C , 12-H ) :   0.9805 B(  5-C , 13-H ) :   0.9647 B(  5-C , 14-H ) :   0.9654
B(  6-C ,  7-N ) :   1.1419 B(  7-N ,  8-C ) :   1.1402 B(  7-N , 15-H ) :   0.9173
B(  8-C ,  9-C ) :   1.8825 B(  8-C , 16-H ) :   0.9615 B(  9-C , 17-H ) :   0.9577
B(  9-C , 18-H ) :   0.9483

Dispersion correction           -0.028791340
FINAL SINGLE POINT ENERGY      -476.972244158749

DIPOLE MOMENT
-------------
                                X             Y             Z
Electronic contribution:     -4.63995      -0.95453       0.04646
Nuclear contribution   :      4.98147       0.15828      -0.07747
                        -----------------------------------------
Total Dipole Moment    :      0.34153      -0.79625      -0.03101
                        -----------------------------------------
Magnitude (a.u.)       :      0.86695
Magnitude (Debye)      :      2.20362

Rotational constants in cm-1:     0.071470     0.029917     0.021176
Rotational constants in MHz :  2142.606599   896.890662   634.836396

                             ****ORCA TERMINATED NORMALLY****
TOTAL RUN TIME: 0 days 0 hours 6 minutes 0 seconds 314 msec
