                         Program Version 4.2.0 -  RELEASE  -
|  1> # ORCA input file
|  2> # SCF done        -30.386102828292          0.000291008761
|  3> ! B3LYP/G D3BJ Opt RIJCOSX def2-SVP def2/J
|  4> * xyz 0 1
|  5>    C       -0.28938         0.81970        -0.08934
|  6>    O       -0.90120        -0.37311        -0.21179
|  7>    C        0.00393        -1.33959        -0.00090
|  8>    C        1.23257        -0.74103         0.26411
|  9>    C        1.02588         0.66469         0.20294
| 10>    N        2.46976        -1.36121         0.54378
| 11>    O        2.51075        -2.57684         0.57375
| 12>    O        3.42221        -0.63373         0.73833
| 13>    C       -0.37024        -2.72795        -0.06961
| 14>    C       -1.60803        -3.13706        -0.34076
| 15>    H       -0.89247         1.69388        -0.23207
| 16>    H        1.77031         1.41657         0.35910
| 17>    H        0.43404        -3.42397         0.11733
| 18>    H       -2.40643        -2.43745        -0.52402
| 19>    H       -1.85326        -4.18305        -0.38277
| 20> *
| 21>
| 22>                          ****END OF INPUT****
 Total Charge           Charge          ....    0
 Multiplicity           Mult            ....    1
 Number of Electrons    NEL             ....   72
Dispersion correction           -0.024988798
FINAL SINGLE POINT ENERGY      -511.574163068624
Dispersion correction            ... done
Dispersion correction           -0.024929485
FINAL SINGLE POINT ENERGY      -511.576583816524
Dispersion correction            ... done
Dispersion correction           -0.024927503
FINAL SINGLE POINT ENERGY      -511.576400777971
Dispersion correction            ... done
FINAL SINGLE POINT ENERGY      -511.576811525043
FINAL SINGLE POINT ENERGY      -511.576828532460
Dispersion correction            ... done
Dispersion correction           -0.024935729
FINAL SINGLE POINT ENERGY      -511.576832070166
Dispersion correction            ... done
Dispersion correction           -0.024935985
FINAL SINGLE POINT ENERGY      -511.576826386017
Dispersion correction            ... done
                    ***********************HURRAY********************

CARTESIAN COORDINATES (ANGSTROEM)
---------------------------------
  C     -0.285875    0.834651   -0.099344
  O     -0.891057   -0.381534   -0.233414
  C      0.027827   -1.355324   -0.020990
  C      1.236888   -0.731958    0.251363
  C      1.032744    0.682276    0.198837
  N      2.493071   -1.361442    0.563221
  O      2.543005   -2.585492    0.583019
  O      3.435151   -0.618945    0.797005
  C     -0.374537   -2.741261   -0.101494
  C     -1.636788   -3.143404   -0.323502
  H     -0.923281    1.701216   -0.248569
  H      1.784619    1.445712    0.371927
  H      0.439682   -3.451342    0.045615
  H     -2.449690   -2.427314   -0.463091
  H     -1.883320   -4.205988   -0.372505

 Multiplicity           Mult            ....    1
 Number of Electrons    NEL             ....   72
 Basis Dimension        Dim             ....  165

ORBITAL ENERGIES
----------------

  NO   OCC          E(Eh)            E(eV)
   0   2.0000     -19.235377      -523.4212
   1   2.0000     -19.162956      -521.4505
   2   2.0000     -19.162628      -521.4416
   3   2.0000     -14.566039      -396.3621
   4   2.0000     -10.286634      -279.9135
   5   2.0000     -10.271596      -279.5043
   6   2.0000     -10.253381      -279.0087
   7   2.0000     -10.221372      -278.1377
   8   2.0000     -10.218666      -278.0640
   9   2.0000     -10.214398      -277.9479
  10   2.0000      -1.224678       -33.3252
  11   2.0000      -1.140681       -31.0395
  12   2.0000      -1.049540       -28.5594
  13   2.0000      -0.856885       -23.3170
  14   2.0000      -0.822837       -22.3905
  15   2.0000      -0.761429       -20.7195
  16   2.0000      -0.722807       -19.6686
  17   2.0000      -0.641250       -17.4493
  18   2.0000      -0.612270       -16.6607
  19   2.0000      -0.570881       -15.5345
  20   2.0000      -0.546759       -14.8781
  21   2.0000      -0.545870       -14.8539
  22   2.0000      -0.507469       -13.8089
  23   2.0000      -0.506054       -13.7704
  24   2.0000      -0.490541       -13.3483
  25   2.0000      -0.481076       -13.0907
  26   2.0000      -0.465439       -12.6652
  27   2.0000      -0.432965       -11.7816
  28   2.0000      -0.407224       -11.0811
  29   2.0000      -0.389611       -10.6018
  30   2.0000      -0.334008        -9.0888
  31   2.0000      -0.320783        -8.7289
  32   2.0000      -0.313524        -8.5314
  33   2.0000      -0.311855        -8.4860
  34   2.0000      -0.295967        -8.0537
  35   2.0000      -0.248198        -6.7538
  36   0.0000      -0.097460        -2.6520
  37   0.0000      -0.040327        -1.0974
  38   0.0000       0.020764         0.5650
  39   0.0000       0.068215         1.8562
  40   0.0000       0.076309         2.0765

MULLIKEN ATOMIC CHARGES
-----------------------
   0 C :    0.154630
   1 O :   -0.209637
   2 C :    0.101263
   3 C :    0.109965
   4 C :   -0.014207
   5 N :    0.246005
   6 O :   -0.252750
   7 O :   -0.248613
   8 C :   -0.041204
   9 C :    0.017135
  10 H :    0.026588
  11 H :    0.009603
  12 H :    0.030082
  13 H :    0.035058
  14 H :    0.036084
Sum of atomic charges:   -0.0000000

LOEWDIN ATOMIC CHARGES
----------------------
   0 C :    0.055565
   1 O :    0.015759
   2 C :    0.060790
   3 C :   -0.070051
   4 C :   -0.051595
   5 N :    0.279666
   6 O :   -0.216207
   7 O :   -0.208492
   8 C :   -0.043492
   9 C :   -0.005414
  10 H :    0.030903
  11 H :    0.046472
  12 H :    0.043447
  13 H :    0.029220
  14 H :    0.033428

  Mayer bond orders larger than 0.100000
B(  0-C ,  1-O ) :   1.0988 B(  0-C ,  4-C ) :   1.5233 B(  0-C , 10-H ) :   0.9994
B(  1-O ,  2-C ) :   1.1694 B(  2-C ,  3-C ) :   1.4003 B(  2-C ,  8-C ) :   1.1601
B(  3-C ,  4-C ) :   1.2310 B(  3-C ,  5-N ) :   0.9255 B(  4-C , 11-H ) :   1.0050
B(  5-N ,  6-O ) :   1.4993 B(  5-N ,  7-O ) :   1.5217 B(  6-O ,  7-O ) :   0.2761
B(  8-C ,  9-C ) :   1.8627 B(  8-C , 12-H ) :   0.9448 B(  9-C , 13-H ) :   0.9526
B(  9-C , 14-H ) :   0.9436

Dispersion correction           -0.024935763
FINAL SINGLE POINT ENERGY      -511.576825932502

DIPOLE MOMENT
-------------
                                X             Y             Z
Electronic contribution:      5.17378       1.67548       1.09613
Nuclear contribution   :     -6.61525      -1.08374      -1.43753
                        -----------------------------------------
Total Dipole Moment    :     -1.44147       0.59175      -0.34141
                        -----------------------------------------
Magnitude (a.u.)       :      1.59516
Magnitude (Debye)      :      4.05459

Rotational constants in cm-1:     0.069926     0.041526     0.026058
Rotational constants in MHz :  2096.322448  1244.911362   781.208887

                             ****ORCA TERMINATED NORMALLY****
TOTAL RUN TIME: 0 days 0 hours 6 minutes 10 seconds 553 msec
