                         Program Version 4.2.0 -  RELEASE  -
|  1> # ORCA input file
|  2> # SCF done        -28.884978968425          0.000602054151
|  3> ! B3LYP/G D3BJ Opt RIJCOSX def2-SVP def2/J
|  4> * xyz 0 1
|  5>    C        2.58972         0.82225         0.00469
|  6>    S        3.26373        -0.76872        -0.00203
|  7>    C        1.70572        -1.50279        -0.00494
|  8>    C        0.71526        -0.57093        -0.00076
|  9>    C        1.23675         0.76591         0.00477
| 10>    S       -0.00215         2.01291         0.01035
| 11>    C       -1.24125         0.76610         0.00531
| 12>    C       -0.71998        -0.57082        -0.00043
| 13>    C       -1.71058        -1.50253        -0.00410
| 14>    S       -3.26847        -0.76821        -0.00055
| 15>    C       -2.59421         0.82264         0.00586
| 16>    H        3.23435         1.67662         0.00814
| 17>    H        1.62125        -2.57036        -0.00943
| 18>    H       -1.62629        -2.57010        -0.00861
| 19>    H       -3.23867         1.67715         0.00961
| 20> *
| 21>
| 22>                          ****END OF INPUT****
 Total Charge           Charge          ....    0
 Multiplicity           Mult            ....    1
 Number of Electrons    NEL             ....  100
Dispersion correction           -0.042675971
FINAL SINGLE POINT ENERGY     -1501.296030999084
Dispersion correction            ... done
Dispersion correction           -0.042681973
FINAL SINGLE POINT ENERGY     -1501.298842559272
Dispersion correction            ... done
Dispersion correction           -0.042688170
FINAL SINGLE POINT ENERGY     -1501.298932191117
Dispersion correction            ... done
Dispersion correction           -0.042689276
FINAL SINGLE POINT ENERGY     -1501.298936631337
Dispersion correction            ... done
Dispersion correction           -0.042689302
FINAL SINGLE POINT ENERGY     -1501.298934922912
Dispersion correction            ... done
                    ***********************HURRAY********************

CARTESIAN COORDINATES (ANGSTROEM)
---------------------------------
  C      2.623021    0.829078    0.004837
  S      3.289559   -0.778505   -0.004555
  C      1.722744   -1.514194   -0.004587
  C      0.724203   -0.569170   -0.000268
  C      1.254528    0.776199    0.005251
  S     -0.002146    2.031300    0.011803
  C     -1.259019    0.776396    0.005915
  C     -0.728910   -0.569058    0.000196
  C     -1.727603   -1.513923   -0.003974
  S     -3.294294   -0.777996   -0.000737
  C     -2.627504    0.829496    0.005352
  H      3.277721    1.697811    0.008175
  H      1.625190   -2.598453   -0.008955
  H     -1.630246   -2.598198   -0.008847
  H     -3.282063    1.698337    0.008273

 Multiplicity           Mult            ....    1
 Number of Electrons    NEL             ....  100
 Basis Dimension        Dim             ....  186

ORBITAL ENERGIES
----------------

  NO   OCC          E(Eh)            E(eV)
   0   2.0000     -88.882779     -2418.6234
   1   2.0000     -88.882777     -2418.6233
   2   2.0000     -88.868565     -2418.2366
   3   2.0000     -10.224350      -278.2187
   4   2.0000     -10.224313      -278.2177
   5   2.0000     -10.221397      -278.1383
   6   2.0000     -10.221271      -278.1349
   7   2.0000     -10.219167      -278.0777
   8   2.0000     -10.219160      -278.0775
   9   2.0000     -10.209843      -277.8240
  10   2.0000     -10.209746      -277.8213
  11   2.0000      -7.977498      -217.0787
  12   2.0000      -7.977497      -217.0787
  13   2.0000      -7.962948      -216.6828
  14   2.0000      -5.945804      -161.7935
  15   2.0000      -5.945803      -161.7935
  16   2.0000      -5.941522      -161.6770
  17   2.0000      -5.941521      -161.6770
  18   2.0000      -5.938690      -161.6000
  19   2.0000      -5.938690      -161.6000
  20   2.0000      -5.931949      -161.4165
  21   2.0000      -5.928294      -161.3171
  22   2.0000      -5.922099      -161.1485
  23   2.0000      -0.909610       -24.7517
  24   2.0000      -0.879377       -23.9291
  25   2.0000      -0.818552       -22.2739
  26   2.0000      -0.762975       -20.7616
  27   2.0000      -0.729697       -19.8561
  28   2.0000      -0.704494       -19.1703
  29   2.0000      -0.685369       -18.6498
  30   2.0000      -0.606733       -16.5100
  31   2.0000      -0.560831       -15.2610
  32   2.0000      -0.557394       -15.1675
  33   2.0000      -0.538910       -14.6645
  34   2.0000      -0.498138       -13.5550
  35   2.0000      -0.456726       -12.4281
  36   2.0000      -0.430226       -11.7070
  37   2.0000      -0.423289       -11.5183
  38   2.0000      -0.413488       -11.2516
  39   2.0000      -0.410416       -11.1680
  40   2.0000      -0.389405       -10.5963
  41   2.0000      -0.381613       -10.3842
  42   2.0000      -0.368478       -10.0268
  43   2.0000      -0.353458        -9.6181
  44   2.0000      -0.334606        -9.1051
  45   2.0000      -0.320784        -8.7290
  46   2.0000      -0.290619        -7.9082
  47   2.0000      -0.260280        -7.0826
  48   2.0000      -0.224713        -6.1147
  49   2.0000      -0.210571        -5.7299
  50   0.0000      -0.046751        -1.2721
  51   0.0000      -0.011894        -0.3237
  52   0.0000       0.015468         0.4209
  53   0.0000       0.023586         0.6418
  54   0.0000       0.033262         0.9051

MULLIKEN ATOMIC CHARGES
-----------------------
   0 C :   -0.163644
   1 S :    0.100736
   2 C :   -0.147043
   3 C :    0.110339
   4 C :   -0.000931
   5 S :    0.105326
   6 C :   -0.000930
   7 C :    0.110339
   8 C :   -0.147043
   9 S :    0.100738
  10 C :   -0.163646
  11 H :    0.025467
  12 H :    0.022412
  13 H :    0.022413
  14 H :    0.025468
Sum of atomic charges:   -0.0000000

LOEWDIN ATOMIC CHARGES
----------------------
   0 C :   -0.219122
   1 S :    0.437911
   2 C :   -0.193077
   3 C :   -0.073582
   4 C :   -0.178368
   5 S :    0.341887
   6 C :   -0.178368
   7 C :   -0.073581
   8 C :   -0.193080
   9 S :    0.437917
  10 C :   -0.219124
  11 H :    0.027948
  12 H :    0.027345
  13 H :    0.027345
  14 H :    0.027949

  Mayer bond orders larger than 0.100000
B(  0-C ,  1-S ) :   1.1520 B(  0-C ,  4-C ) :   1.5581 B(  0-C , 11-H ) :   0.9704
B(  1-S ,  2-C ) :   1.1574 B(  2-C ,  3-C ) :   1.5190 B(  2-C , 12-H ) :   0.9654
B(  3-C ,  4-C ) :   1.2238 B(  3-C ,  7-C ) :   1.0644 B(  4-C ,  5-S ) :   1.0037
B(  5-S ,  6-C ) :   1.0037 B(  6-C ,  7-C ) :   1.2238 B(  6-C , 10-C ) :   1.5581
B(  7-C ,  8-C ) :   1.5190 B(  8-C ,  9-S ) :   1.1574 B(  8-C , 13-H ) :   0.9654
B(  9-S , 10-C ) :   1.1520 B( 10-C , 14-H ) :   0.9704

Dispersion correction           -0.042689114
FINAL SINGLE POINT ENERGY     -1501.298933339847

DIPOLE MOMENT
-------------
                                X             Y             Z
Electronic contribution:      0.00013       1.45969       0.00606
Nuclear contribution   :     -0.00016      -1.73906      -0.00819
                        -----------------------------------------
Total Dipole Moment    :     -0.00004      -0.27937      -0.00213
                        -----------------------------------------
Magnitude (a.u.)       :      0.27938
Magnitude (Debye)      :      0.71012

Rotational constants in cm-1:     0.059279     0.016698     0.013028
Rotational constants in MHz :  1777.146982   500.593179   390.574782

                             ****ORCA TERMINATED NORMALLY****
TOTAL RUN TIME: 0 days 0 hours 5 minutes 28 seconds 366 msec
