                         Program Version 4.2.0 -  RELEASE  -
|  1> # ORCA input file
|  2> # SCF done        -24.276520922104          0.000860263458
|  3> ! B3LYP/G D3BJ Opt RIJCOSX def2-SVP def2/J
|  4> * xyz 0 1
|  5>    C        0.13404         1.21187        -0.07147
|  6>    S       -1.05882        -0.01938         0.13750
|  7>    C        0.13161        -1.23316         0.17224
|  8>    C        1.38753        -0.70507         0.02652
|  9>    C        1.38841         0.70815        -0.11455
| 10>    N        2.57070        -1.49523         0.01680
| 11>    O        2.44526        -2.69352         0.17066
| 12>    O        3.62670        -0.91976        -0.14442
| 13>    H       -0.17549         2.23444        -0.15010
| 14>    H       -0.12108        -2.26799         0.29339
| 15>    H        2.28876         1.28043        -0.23832
| 16> *
| 17>
| 18>                          ****END OF INPUT****
 Total Charge           Charge          ....    0
 Multiplicity           Mult            ....    1
 Number of Electrons    NEL             ....   66
Dispersion correction           -0.021099816
FINAL SINGLE POINT ENERGY      -757.149841862540
Dispersion correction            ... done
Dispersion correction           -0.021036287
FINAL SINGLE POINT ENERGY      -757.151702019236
Dispersion correction            ... done
Dispersion correction           -0.021027193
FINAL SINGLE POINT ENERGY      -757.151795943181
Dispersion correction            ... done
FINAL SINGLE POINT ENERGY      -757.151611284738
FINAL SINGLE POINT ENERGY      -757.151845174529
Dispersion correction            ... done
Dispersion correction           -0.021028598
FINAL SINGLE POINT ENERGY      -757.151829052837
Dispersion correction            ... done
Dispersion correction           -0.021025361
FINAL SINGLE POINT ENERGY      -757.151869240184
Dispersion correction            ... done
                    ***********************HURRAY********************

CARTESIAN COORDINATES (ANGSTROEM)
---------------------------------
  C      0.121852    1.230280   -0.067719
  S     -1.071095   -0.015103    0.138211
  C      0.123340   -1.246801    0.169203
  C      1.376104   -0.699502    0.026640
  C      1.390791    0.719815   -0.112041
  N      2.584518   -1.511398    0.017470
  O      2.456278   -2.715116    0.177795
  O      3.645693   -0.929582   -0.151220
  H     -0.191376    2.269482   -0.156150
  H     -0.122578   -2.298156    0.295828
  H      2.304093    1.296861   -0.239767

 Multiplicity           Mult            ....    1
 Number of Electrons    NEL             ....   66
 Basis Dimension        Dim             ....  131

ORBITAL ENERGIES
----------------

  NO   OCC          E(Eh)            E(eV)
   0   2.0000     -88.910276     -2419.3716
   1   2.0000     -19.164858      -521.5023
   2   2.0000     -19.163515      -521.4658
   3   2.0000     -14.564750      -396.3270
   4   2.0000     -10.257079      -279.1093
   5   2.0000     -10.250131      -278.9202
   6   2.0000     -10.243131      -278.7298
   7   2.0000     -10.225967      -278.2627
   8   2.0000      -8.005260      -217.8342
   9   2.0000      -5.973244      -162.5402
  10   2.0000      -5.969014      -162.4251
  11   2.0000      -5.966988      -162.3700
  12   2.0000      -1.225520       -33.3481
  13   2.0000      -1.051484       -28.6123
  14   2.0000      -0.919245       -25.0139
  15   2.0000      -0.809597       -22.0303
  16   2.0000      -0.758594       -20.6424
  17   2.0000      -0.687153       -18.6984
  18   2.0000      -0.598266       -16.2796
  19   2.0000      -0.565783       -15.3957
  20   2.0000      -0.559568       -15.2266
  21   2.0000      -0.545340       -14.8395
  22   2.0000      -0.508352       -13.8330
  23   2.0000      -0.477748       -13.0002
  24   2.0000      -0.442485       -12.0406
  25   2.0000      -0.428033       -11.6474
  26   2.0000      -0.414666       -11.2836
  27   2.0000      -0.386369       -10.5136
  28   2.0000      -0.315182        -8.5765
  29   2.0000      -0.312765        -8.5108
  30   2.0000      -0.297401        -8.0927
  31   2.0000      -0.290848        -7.9144
  32   2.0000      -0.276361        -7.5202
  33   0.0000      -0.090979        -2.4757
  34   0.0000      -0.037931        -1.0322
  35   0.0000       0.017190         0.4678
  36   0.0000       0.051513         1.4017
  37   0.0000       0.061619         1.6767

MULLIKEN ATOMIC CHARGES
-----------------------
   0 C :   -0.085722
   1 S :    0.141340
   2 C :   -0.101465
   3 C :    0.129739
   4 C :    0.051699
   5 N :    0.246038
   6 O :   -0.248048
   7 O :   -0.245426
   8 H :    0.046750
   9 H :    0.048201
  10 H :    0.016895
Sum of atomic charges:    0.0000000

LOEWDIN ATOMIC CHARGES
----------------------
   0 C :   -0.176376
   1 S :    0.475355
   2 C :   -0.163108
   3 C :   -0.068966
   4 C :   -0.046131
   5 N :    0.277228
   6 O :   -0.210161
   7 O :   -0.207560
   8 H :    0.032688
   9 H :    0.041838
  10 H :    0.045193

  Mayer bond orders larger than 0.100000
B(  0-C ,  1-S ) :   1.1673 B(  0-C ,  4-C ) :   1.5448 B(  0-C ,  8-H ) :   0.9617
B(  1-S ,  2-C ) :   1.1997 B(  2-C ,  3-C ) :   1.5173 B(  2-C ,  9-H ) :   0.9565
B(  3-C ,  4-C ) :   1.2714 B(  3-C ,  5-N ) :   0.8939 B(  4-C , 10-H ) :   0.9902
B(  5-N ,  6-O ) :   1.5358 B(  5-N ,  7-O ) :   1.5298 B(  6-O ,  7-O ) :   0.2838

Dispersion correction           -0.021025354
FINAL SINGLE POINT ENERGY      -757.151869192871

DIPOLE MOMENT
-------------
                                X             Y             Z
Electronic contribution:     -0.35198      -1.89479       0.21451
Nuclear contribution   :     -1.00459       2.84578      -0.21085
                        -----------------------------------------
Total Dipole Moment    :     -1.35658       0.95099       0.00366
                        -----------------------------------------
Magnitude (a.u.)       :      1.65671
Magnitude (Debye)      :      4.21103

Rotational constants in cm-1:     0.153691     0.040732     0.032201
Rotational constants in MHz :  4607.547755  1221.105219   965.376291

                             ****ORCA TERMINATED NORMALLY****
TOTAL RUN TIME: 0 days 0 hours 3 minutes 58 seconds 267 msec
