                         Program Version 4.2.0 -  RELEASE  -
|  1> # ORCA input file
|  2> # SCF done        -41.957354258426          0.000713145770
|  3> ! B3LYP/G D3BJ Opt RIJCOSX def2-SVP def2/J
|  4> * xyz 0 1
|  5>    C        1.45566        -0.03872         0.45532
|  6>    C        0.60948         0.89844        -0.13527
|  7>    O        1.07442         2.17482        -0.18304
|  8>    C        0.26564         3.18738        -0.74498
|  9>    C        1.03022         4.49816        -0.64450
| 10>    C       -0.62525         0.48891        -0.62691
| 11>    C       -1.01611        -0.84170        -0.53107
| 12>    O       -2.21012        -1.30164        -0.99565
| 13>    C       -3.11988        -0.40763        -1.60006
| 14>    C       -4.34929        -1.20845        -2.00200
| 15>    C       -0.16645        -1.79608         0.06545
| 16>    C        1.06428        -1.35469         0.54813
| 17>    C       -0.60539        -3.18090         0.15574
| 18>    C        0.08951        -4.20758         0.63352
| 19>    H        2.40956         0.29246         0.83273
| 20>    H       -0.68411         3.26120        -0.19632
| 21>    H        0.04650         2.95758        -1.79764
| 22>    H        1.26047         4.71216         0.39555
| 23>    H        0.43298         5.30824        -1.05328
| 24>    H        1.96312         4.42598        -1.19616
| 25>    H       -1.28376         1.20718        -1.08620
| 26>    H       -2.66554         0.05589        -2.48777
| 27>    H       -3.40137         0.38580        -0.89249
| 28>    H       -4.06907        -1.99036        -2.70294
| 29>    H       -5.08138        -0.55509        -2.46878
| 30>    H       -4.79152        -1.67261        -1.12440
| 31>    H        1.72991        -2.06428         1.01258
| 32>    H       -1.60558        -3.35146        -0.21689
| 33>    H        1.09148        -4.11275         1.01512
| 34>    H       -0.32984        -5.19868         0.65902
| 35> *
| 36>
| 37>                          ****END OF INPUT****
 Total Charge           Charge          ....    0
 Multiplicity           Mult            ....    1
 Number of Electrons    NEL             ....  104
Dispersion correction           -0.050979296
FINAL SINGLE POINT ENERGY      -616.933688179874
Dispersion correction            ... done
Dispersion correction           -0.050780966
FINAL SINGLE POINT ENERGY      -616.936518802948
Dispersion correction            ... done
Dispersion correction           -0.050726935
FINAL SINGLE POINT ENERGY      -616.936554243711
Dispersion correction            ... done
FINAL SINGLE POINT ENERGY      -616.936436802553
FINAL SINGLE POINT ENERGY      -616.936405731448
FINAL SINGLE POINT ENERGY      -616.936403720710
Dispersion correction            ... done
Dispersion correction           -0.050737586
FINAL SINGLE POINT ENERGY      -616.936421527009
Dispersion correction            ... done
Dispersion correction           -0.050735877
FINAL SINGLE POINT ENERGY      -616.936439823720
Dispersion correction            ... done
                    ***********************HURRAY********************

CARTESIAN COORDINATES (ANGSTROEM)
---------------------------------
  C      1.449738   -0.024609    0.529090
  C      0.611501    0.912242   -0.096066
  O      1.058763    2.190121   -0.142518
  C      0.238372    3.201900   -0.699440
  C      1.033330    4.492126   -0.719060
  C     -0.612887    0.500770   -0.639163
  C     -0.983838   -0.850931   -0.576608
  O     -2.152926   -1.304645   -1.094116
  C     -3.121767   -0.392835   -1.579485
  C     -4.344435   -1.188753   -1.990566
  C     -0.146472   -1.816963    0.033043
  C      1.063642   -1.356825    0.582431
  C     -0.566064   -3.222418    0.070210
  C      0.073449   -4.247684    0.654461
  H      2.394119    0.317244    0.954336
  H     -0.683478    3.308704   -0.096638
  H     -0.071502    2.923834   -1.724166
  H      1.346727    4.773401    0.297575
  H      0.426199    5.308056   -1.139635
  H      1.937674    4.376265   -1.334952
  H     -1.269281    1.221634   -1.116306
  H     -2.717272    0.174144   -2.439399
  H     -3.373945    0.340077   -0.790437
  H     -4.081103   -1.928597   -2.760689
  H     -5.117589   -0.518816   -2.396740
  H     -4.763881   -1.726948   -1.126796
  H      1.727756   -2.076815    1.064528
  H     -1.510736   -3.424209   -0.439731
  H      1.020782   -4.131764    1.188520
  H     -0.346305   -5.256126    0.615128

 Multiplicity           Mult            ....    1
 Number of Electrons    NEL             ....  104
 Basis Dimension        Dim             ....  276

ORBITAL ENERGIES
----------------

  NO   OCC          E(Eh)            E(eV)
   0   2.0000     -19.164230      -521.4852
   1   2.0000     -19.163380      -521.4621
   2   2.0000     -10.250422      -278.9282
   3   2.0000     -10.249271      -278.8968
   4   2.0000     -10.249119      -278.8927
   5   2.0000     -10.248333      -278.8713
   6   2.0000     -10.191691      -277.3300
   7   2.0000     -10.191006      -277.3114
   8   2.0000     -10.187093      -277.2049
   9   2.0000     -10.184103      -277.1235
  10   2.0000     -10.181523      -277.0533
  11   2.0000     -10.179420      -276.9961
  12   2.0000     -10.176266      -276.9103
  13   2.0000     -10.171032      -276.7679
  14   2.0000      -1.061750       -28.8917
  15   2.0000      -1.059605       -28.8333
  16   2.0000      -0.846330       -23.0298
  17   2.0000      -0.789114       -21.4729
  18   2.0000      -0.769418       -20.9369
  19   2.0000      -0.756794       -20.5934
  20   2.0000      -0.726573       -19.7711
  21   2.0000      -0.699981       -19.0474
  22   2.0000      -0.655388       -17.8340
  23   2.0000      -0.627480       -17.0746
  24   2.0000      -0.599975       -16.3261
  25   2.0000      -0.584678       -15.9099
  26   2.0000      -0.555710       -15.1216
  27   2.0000      -0.545126       -14.8336
  28   2.0000      -0.509368       -13.8606
  29   2.0000      -0.492042       -13.3891
  30   2.0000      -0.488798       -13.3009
  31   2.0000      -0.484446       -13.1824
  32   2.0000      -0.470265       -12.7965
  33   2.0000      -0.438648       -11.9362
  34   2.0000      -0.428611       -11.6631
  35   2.0000      -0.412100       -11.2138
  36   2.0000      -0.410025       -11.1573
  37   2.0000      -0.403355       -10.9758
  38   2.0000      -0.399305       -10.8656
  39   2.0000      -0.396416       -10.7870
  40   2.0000      -0.391505       -10.6534
  41   2.0000      -0.389680       -10.6037
  42   2.0000      -0.365110        -9.9352
  43   2.0000      -0.364591        -9.9210
  44   2.0000      -0.346261        -9.4222
  45   2.0000      -0.340049        -9.2532
  46   2.0000      -0.333491        -9.0748
  47   2.0000      -0.322401        -8.7730
  48   2.0000      -0.310106        -8.4384
  49   2.0000      -0.272668        -7.4197
  50   2.0000      -0.238066        -6.4781
  51   2.0000      -0.197553        -5.3757
  52   0.0000      -0.024878        -0.6770
  53   0.0000       0.006072         0.1652
  54   0.0000       0.046821         1.2741
  55   0.0000       0.062239         1.6936
  56   0.0000       0.064297         1.7496

MULLIKEN ATOMIC CHARGES
-----------------------
   0 C :   -0.010592
   1 C :    0.239666
   2 O :   -0.311958
   3 C :    0.147747
   4 C :    0.026332
   5 C :   -0.189666
   6 C :    0.200024
   7 O :   -0.319089
   8 C :    0.151218
   9 C :    0.019458
  10 C :    0.031880
  11 C :   -0.036137
  12 C :    0.015370
  13 C :   -0.035991
  14 H :   -0.033996
  15 H :    0.007856
  16 H :    0.010428
  17 H :    0.022836
  18 H :    0.012774
  19 H :    0.026380
  20 H :   -0.038988
  21 H :    0.008664
  22 H :    0.010490
  23 H :    0.029965
  24 H :    0.013502
  25 H :    0.025854
  26 H :   -0.030517
  27 H :   -0.014497
  28 H :    0.006893
  29 H :    0.014095
Sum of atomic charges:    0.0000000

LOEWDIN ATOMIC CHARGES
----------------------
   0 C :   -0.068116
   1 C :    0.061961
   2 O :   -0.097736
   3 C :    0.082995
   4 C :   -0.058733
   5 C :   -0.126320
   6 C :    0.070141
   7 O :   -0.095788
   8 C :    0.083794
   9 C :   -0.059808
  10 C :   -0.076436
  11 C :    0.004468
  12 C :   -0.017512
  13 C :   -0.067399
  14 H :    0.028577
  15 H :    0.010384
  16 H :    0.009632
  17 H :    0.029405
  18 H :    0.029842
  19 H :    0.030151
  20 H :    0.023670
  21 H :    0.009474
  22 H :    0.011232
  23 H :    0.030584
  24 H :    0.030106
  25 H :    0.030103
  26 H :    0.027691
  27 H :    0.026161
  28 H :    0.015319
  29 H :    0.022155

  Mayer bond orders larger than 0.100000
B(  0-C ,  1-C ) :   1.3453 B(  0-C , 11-C ) :   1.3869 B(  0-C , 14-H ) :   0.9869
B(  1-C ,  2-O ) :   1.1249 B(  1-C ,  5-C ) :   1.2574 B(  2-O ,  3-C ) :   0.9541
B(  3-C ,  4-C ) :   1.1058 B(  3-C , 15-H ) :   0.9452 B(  3-C , 16-H ) :   0.9398
B(  4-C , 17-H ) :   0.9637 B(  4-C , 18-H ) :   0.9582 B(  4-C , 19-H ) :   0.9661
B(  5-C ,  6-C ) :   1.2622 B(  5-C , 20-H ) :   0.9842 B(  6-C ,  7-O ) :   1.1433
B(  6-C , 10-C ) :   1.3308 B(  7-O ,  8-C ) :   0.9471 B(  8-C ,  9-C ) :   1.1012
B(  8-C , 21-H ) :   0.9425 B(  8-C , 22-H ) :   0.9446 B(  9-C , 23-H ) :   0.9667
B(  9-C , 24-H ) :   0.9582 B(  9-C , 25-H ) :   0.9647 B( 10-C , 11-C ) :   1.3378
B( 10-C , 12-C ) :   1.1092 B( 11-C , 26-H ) :   0.9809 B( 12-C , 13-C ) :   1.9138
B( 12-C , 27-H ) :   0.9527 B( 13-C , 28-H ) :   0.9420 B( 13-C , 29-H ) :   0.9467

Dispersion correction           -0.050734416
FINAL SINGLE POINT ENERGY      -616.936448056106

DIPOLE MOMENT
-------------
                                X             Y             Z
Electronic contribution:      5.90300      -4.82058       3.49725
Nuclear contribution   :     -6.62174       5.82004      -3.97029
                        -----------------------------------------
Total Dipole Moment    :     -0.71873       0.99945      -0.47304
                        -----------------------------------------
Magnitude (a.u.)       :      1.31881
Magnitude (Debye)      :      3.35214

Rotational constants in cm-1:     0.028638     0.014243     0.009587
Rotational constants in MHz :   858.553144   426.996286   287.420473

                             ****ORCA TERMINATED NORMALLY****
TOTAL RUN TIME: 0 days 0 hours 18 minutes 46 seconds 859 msec
