                         Program Version 4.2.0 -  RELEASE  -
|  1> # ORCA input file
|  2> # SCF done        -54.227381178159          0.000299255146
|  3> ! B3LYP/G D3BJ Opt RIJCOSX def2-SVP def2/J
|  4> * xyz 0 1
|  5>    C       -2.91940         1.34579        -0.38723
|  6>    C       -1.67564         1.87073         0.32794
|  7>    C       -0.94335         0.71050         0.98879
|  8>    C       -0.50854        -0.30534        -0.08082
|  9>    C       -1.77569        -0.86951        -0.72743
| 10>    C       -2.55186         0.26239        -1.39857
| 11>    N        0.41767        -1.32350         0.35765
| 12>    C       -0.06936        -2.45834         1.11160
| 13>    C       -0.56918        -2.18899         2.53802
| 14>    C        1.73367        -0.84316         0.76065
| 15>    C        1.83264         0.67553         0.89115
| 16>    S        0.49373         1.29002         1.97487
| 17>    C        3.18759         1.07684         1.45236
| 18>    C        4.28026         0.62567         0.48755
| 19>    C        4.20023        -0.87957         0.25637
| 20>    C        2.81811        -1.30943        -0.24902
| 21>    C        2.77618        -2.79409        -0.42371
| 22>    C        2.32633        -3.41080        -1.50033
| 23>    H       -3.42911         2.16873        -0.89197
| 24>    H       -3.60774         0.93045         0.35276
| 25>    H       -1.95592         2.60816         1.08262
| 26>    H       -1.01155         2.36118        -0.38828
| 27>    H       -1.60506         0.23782         1.71661
| 28>    H        0.01407         0.24929        -0.87250
| 29>    H       -2.40885        -1.34044         0.02594
| 30>    H       -1.49415        -1.62394        -1.46382
| 31>    H       -3.45883        -0.13617        -1.85780
| 32>    H       -1.94149         0.69942        -2.19236
| 33>    H       -0.86302        -2.93333         0.53132
| 34>    H        0.75979        -3.16912         1.15532
| 35>    H       -1.56671        -1.75741         2.53544
| 36>    H        0.09757        -1.50624         3.05989
| 37>    H       -0.60913        -3.12355         3.09279
| 38>    H        1.98248        -1.26958         1.74137
| 39>    H        1.70042         1.16290        -0.07837
| 40>    H        3.33096         0.61154         2.42981
| 41>    H        3.22056         2.15932         1.58988
| 42>    H        5.26051         0.88644         0.89090
| 43>    H        4.16023         1.14865        -0.46420
| 44>    H        4.40938        -1.39801         1.19559
| 45>    H        4.95841        -1.18489        -0.46831
| 46>    H        2.60825        -0.83167        -1.21114
| 47>    H        3.15261        -3.36672         0.41521
| 48>    H        1.94823        -2.86444        -2.34803
| 49>    H        2.31044        -4.48473        -1.57936
| 50> *
| 51>
| 52>                          ****END OF INPUT****
 Total Charge           Charge          ....    0
 Multiplicity           Mult            ....    1
 Number of Electrons    NEL             ....  146
Dispersion correction           -0.103218387
FINAL SINGLE POINT ENERGY     -1078.384719467241
Dispersion correction            ... done
Dispersion correction           -0.101735936
FINAL SINGLE POINT ENERGY     -1078.389492976057
Dispersion correction            ... done
Dispersion correction           -0.101582949
FINAL SINGLE POINT ENERGY     -1078.389661205468
Dispersion correction            ... done
FINAL SINGLE POINT ENERGY     -1078.389621065212
FINAL SINGLE POINT ENERGY     -1078.389629432203
FINAL SINGLE POINT ENERGY     -1078.389699771703
FINAL SINGLE POINT ENERGY     -1078.389764527894
FINAL SINGLE POINT ENERGY     -1078.389806203900
Dispersion correction            ... done
Dispersion correction           -0.101663004
FINAL SINGLE POINT ENERGY     -1078.389811800407
Dispersion correction            ... done
Dispersion correction           -0.101656927
FINAL SINGLE POINT ENERGY     -1078.389808786679
Dispersion correction            ... done
                    ***********************HURRAY********************

CARTESIAN COORDINATES (ANGSTROEM)
---------------------------------
  C     -2.924465    1.314956   -0.483217
  C     -1.707177    1.867684    0.273430
  C     -0.958197    0.731732    0.977158
  C     -0.506368   -0.334125   -0.052963
  C     -1.737380   -0.912075   -0.757993
  C     -2.527030    0.200361   -1.458916
  N      0.411004   -1.332977    0.453168
  C     -0.073553   -2.454103    1.239681
  C     -0.525773   -2.156787    2.678783
  C      1.747421   -0.859666    0.779804
  C      1.834115    0.670087    0.937421
  S      0.477024    1.310274    1.987860
  C      3.194319    1.077125    1.499403
  C      4.314063    0.609907    0.562693
  C      4.218546   -0.884511    0.239844
  C      2.823197   -1.301783   -0.261372
  C      2.761548   -2.770510   -0.564679
  C      2.167483   -3.305164   -1.634992
  H     -3.441653    2.128110   -1.018842
  H     -3.647254    0.914779    0.250944
  H     -2.015108    2.630156    1.005993
  H     -1.015642    2.370017   -0.427093
  H     -1.638462    0.255292    1.699287
  H      0.040231    0.213728   -0.840514
  H     -2.392752   -1.418399   -0.028839
  H     -1.405487   -1.676767   -1.478183
  H     -3.420728   -0.221135   -1.947839
  H     -1.906048    0.632767   -2.264736
  H     -0.889971   -2.948498    0.690526
  H      0.738979   -3.199009    1.262888
  H     -1.460829   -1.576109    2.703334
  H      0.230792   -1.572518    3.224306
  H     -0.705026   -3.094713    3.229430
  H      2.040942   -1.283611    1.757323
  H      1.735403    1.142519   -0.052903
  H      3.322926    0.628211    2.499686
  H      3.233026    2.170293    1.630324
  H      5.295197    0.840634    1.010171
  H      4.257511    1.185310   -0.377751
  H      4.449240   -1.469850    1.149179
  H      4.980573   -1.163185   -0.505472
  H      2.593978   -0.755090   -1.194907
  H      3.227845   -3.434032    0.176135
  H      1.683474   -2.675100   -2.387317
  H      2.135806   -4.385824   -1.801093

 Multiplicity           Mult            ....    1
 Number of Electrons    NEL             ....  146
 Basis Dimension        Dim             ....  391

ORBITAL ENERGIES
----------------

  NO   OCC          E(Eh)            E(eV)
   0   2.0000     -88.819951     -2416.9137
   1   2.0000     -14.303766      -389.2253
   2   2.0000     -10.215136      -277.9680
   3   2.0000     -10.213550      -277.9248
   4   2.0000     -10.208872      -277.7975
   5   2.0000     -10.203808      -277.6597
   6   2.0000     -10.203540      -277.6524
   7   2.0000     -10.188180      -277.2345
   8   2.0000     -10.186493      -277.1886
   9   2.0000     -10.185770      -277.1689
  10   2.0000     -10.185381      -277.1583
  11   2.0000     -10.184864      -277.1442
  12   2.0000     -10.184531      -277.1352
  13   2.0000     -10.184025      -277.1214
  14   2.0000     -10.183799      -277.1153
  15   2.0000     -10.183692      -277.1123
  16   2.0000     -10.177374      -276.9404
  17   2.0000     -10.169280      -276.7202
  18   2.0000      -7.914559      -215.3661
  19   2.0000      -5.883756      -160.1051
  20   2.0000      -5.880343      -160.0123
  21   2.0000      -5.873041      -159.8136
  22   2.0000      -0.921560       -25.0769
  23   2.0000      -0.835848       -22.7446
  24   2.0000      -0.825995       -22.4765
  25   2.0000      -0.787426       -21.4270
  26   2.0000      -0.763420       -20.7737
  27   2.0000      -0.742900       -20.2153
  28   2.0000      -0.736346       -20.0370
  29   2.0000      -0.725143       -19.7321
  30   2.0000      -0.700785       -19.0693
  31   2.0000      -0.660019       -17.9600
  32   2.0000      -0.626913       -17.0592
  33   2.0000      -0.617525       -16.8037
  34   2.0000      -0.603312       -16.4169
  35   2.0000      -0.576682       -15.6923
  36   2.0000      -0.567559       -15.4441
  37   2.0000      -0.566141       -15.4055
  38   2.0000      -0.546299       -14.8655
  39   2.0000      -0.531980       -14.4759
  40   2.0000      -0.498338       -13.5605
  41   2.0000      -0.480705       -13.0807
  42   2.0000      -0.467036       -12.7087
  43   2.0000      -0.452143       -12.3034
  44   2.0000      -0.449524       -12.2322
  45   2.0000      -0.447076       -12.1656
  46   2.0000      -0.442109       -12.0304
  47   2.0000      -0.438570       -11.9341
  48   2.0000      -0.424874       -11.5614
  49   2.0000      -0.417448       -11.3593
  50   2.0000      -0.414141       -11.2693
  51   2.0000      -0.407764       -11.0958
  52   2.0000      -0.398735       -10.8501
  53   2.0000      -0.389965       -10.6115
  54   2.0000      -0.382208       -10.4004
  55   2.0000      -0.373979       -10.1765
  56   2.0000      -0.366682        -9.9779
  57   2.0000      -0.361335        -9.8324
  58   2.0000      -0.354779        -9.6540
  59   2.0000      -0.352586        -9.5944
  60   2.0000      -0.347482        -9.4555
  61   2.0000      -0.342348        -9.3158
  62   2.0000      -0.339594        -9.2408
  63   2.0000      -0.331801        -9.0288
  64   2.0000      -0.328783        -8.9466
  65   2.0000      -0.326562        -8.8862
  66   2.0000      -0.317839        -8.6488
  67   2.0000      -0.312786        -8.5113
  68   2.0000      -0.302466        -8.2305
  69   2.0000      -0.289173        -7.8688
  70   2.0000      -0.254687        -6.9304
  71   2.0000      -0.212330        -5.7778
  72   2.0000      -0.194914        -5.3039
  73   0.0000       0.011062         0.3010
  74   0.0000       0.038969         1.0604
  75   0.0000       0.041790         1.1372
  76   0.0000       0.048340         1.3154
  77   0.0000       0.067523         1.8374

MULLIKEN ATOMIC CHARGES
-----------------------
   0 C :    0.010169
   1 C :    0.124713
   2 C :   -0.145805
   3 C :    0.074823
   4 C :    0.068876
   5 C :    0.050011
   6 N :   -0.311273
   7 C :    0.116992
   8 C :    0.015627
   9 C :    0.139717
  10 C :   -0.166271
  11 S :   -0.044763
  12 C :    0.102428
  13 C :    0.058545
  14 C :    0.031831
  15 C :    0.027027
  16 C :   -0.002870
  17 C :   -0.027114
  18 H :    0.000630
  19 H :   -0.009029
  20 H :   -0.002693
  21 H :   -0.016302
  22 H :    0.017062
  23 H :   -0.023636
  24 H :   -0.004978
  25 H :    0.002778
  26 H :   -0.007755
  27 H :   -0.012352
  28 H :   -0.006257
  29 H :   -0.002585
  30 H :    0.002558
  31 H :    0.013524
  32 H :   -0.002281
  33 H :   -0.029970
  34 H :    0.013474
  35 H :   -0.009095
  36 H :    0.005633
  37 H :   -0.004392
  38 H :   -0.014226
  39 H :   -0.012741
  40 H :    0.001729
  41 H :   -0.033726
  42 H :   -0.011950
  43 H :    0.010223
  44 H :    0.013696
Sum of atomic charges:   -0.0000000

LOEWDIN ATOMIC CHARGES
----------------------
   0 C :   -0.033864
   1 C :   -0.040942
   2 C :   -0.136308
   3 C :    0.016904
   4 C :   -0.027653
   5 C :   -0.028990
   6 N :   -0.109084
   7 C :    0.030125
   8 C :   -0.076997
   9 C :    0.029257
  10 C :   -0.130661
  11 S :    0.221173
  12 C :   -0.036323
  13 C :   -0.027932
  14 C :   -0.026220
  15 C :   -0.036173
  16 C :   -0.016655
  17 C :   -0.060467
  18 H :    0.022238
  19 H :    0.018450
  20 H :    0.020702
  21 H :    0.016376
  22 H :    0.012101
  23 H :    0.013745
  24 H :    0.016889
  25 H :    0.023988
  26 H :    0.020748
  27 H :    0.017366
  28 H :    0.016136
  29 H :    0.016331
  30 H :    0.015132
  31 H :    0.018071
  32 H :    0.020681
  33 H :    0.010305
  34 H :    0.010827
  35 H :    0.018111
  36 H :    0.023203
  37 H :    0.022480
  38 H :    0.018810
  39 H :    0.017277
  40 H :    0.023084
  41 H :    0.019169
  42 H :    0.018947
  43 H :    0.018608
  44 H :    0.021031

  Mayer bond orders larger than 0.100000
B(  0-C ,  1-C ) :   1.0857 B(  0-C ,  5-C ) :   1.0945 B(  0-C , 18-H ) :   0.9348
B(  0-C , 19-H ) :   0.9301 B(  1-C ,  2-C ) :   1.0224 B(  1-C , 20-H ) :   0.9282
B(  1-C , 21-H ) :   0.9221 B(  2-C ,  3-C ) :   0.9771 B(  2-C , 11-S ) :   0.9855
B(  2-C , 22-H ) :   0.9005 B(  3-C ,  4-C ) :   1.0625 B(  3-C ,  6-N ) :   1.0587
B(  3-C , 23-H ) :   0.8947 B(  4-C ,  5-C ) :   1.0944 B(  4-C , 24-H ) :   0.9185
B(  4-C , 25-H ) :   0.9220 B(  5-C , 26-H ) :   0.9313 B(  5-C , 27-H ) :   0.9273
B(  6-N ,  7-C ) :   1.0268 B(  6-N ,  9-C ) :   1.0182 B(  7-C ,  8-C ) :   1.1026
B(  7-C , 28-H ) :   0.9378 B(  7-C , 29-H ) :   0.9360 B(  8-C , 30-H ) :   0.9573
B(  8-C , 31-H ) :   0.9551 B(  8-C , 32-H ) :   0.9502 B(  9-C , 10-C ) :   0.9676
B(  9-C , 15-C ) :   0.9946 B(  9-C , 33-H ) :   0.8841 B( 10-C , 11-S ) :   1.0392
B( 10-C , 12-C ) :   1.0494 B( 10-C , 34-H ) :   0.8952 B( 12-C , 13-C ) :   1.1084
B( 12-C , 35-H ) :   0.9194 B( 12-C , 36-H ) :   0.9249 B( 13-C , 14-C ) :   1.1036
B( 13-C , 37-H ) :   0.9340 B( 13-C , 38-H ) :   0.9215 B( 14-C , 15-C ) :   1.0343
B( 14-C , 39-H ) :   0.9228 B( 14-C , 40-H ) :   0.9360 B( 15-C , 16-C ) :   1.0222
B( 15-C , 41-H ) :   0.8923 B( 16-C , 17-C ) :   2.0014 B( 16-C , 42-H ) :   0.9530
B( 17-C , 43-H ) :   0.9462 B( 17-C , 44-H ) :   0.9471

Dispersion correction           -0.101658494
FINAL SINGLE POINT ENERGY     -1078.389807349645

DIPOLE MOMENT
-------------
                                X             Y             Z
Electronic contribution:      2.31402       5.65857       4.21045
Nuclear contribution   :     -2.37846      -5.80203      -4.58012
                        -----------------------------------------
Total Dipole Moment    :     -0.06443      -0.14347      -0.36967
                        -----------------------------------------
Magnitude (a.u.)       :      0.40174
Magnitude (Debye)      :      1.02113

Rotational constants in cm-1:     0.017514     0.010444     0.008578
Rotational constants in MHz :   525.070963   313.089861   257.151574

                             ****ORCA TERMINATED NORMALLY****
TOTAL RUN TIME: 0 days 0 hours 55 minutes 20 seconds 909 msec
