                         Program Version 4.2.0 -  RELEASE  -
|  1> # ORCA input file
|  2> # SCF done        -27.022377053033          0.000856124404
|  3> ! B3LYP/G D3BJ Opt RIJCOSX def2-SVP def2/J
|  4> * xyz 0 1
|  5>    C       -2.11954         0.06038        -0.04660
|  6>    N       -1.36443        -1.07925        -0.13012
|  7>    C       -0.05108        -0.72028        -0.04422
|  8>    C        1.26098        -1.20879        -0.04159
|  9>    C        2.08408        -0.09766         0.09846
| 10>    N        1.30822         1.03912         0.18146
| 11>    C        0.00121         0.67734         0.09342
| 12>    C       -1.31814         1.16678         0.09197
| 13>    C        3.51753        -0.08277         0.15581
| 14>    C        4.29585         0.99059         0.29189
| 15>    H       -3.19019         0.00943        -0.09221
| 16>    H       -1.72712        -2.01095        -0.22994
| 17>    H        1.59171        -2.22508        -0.12734
| 18>    H        1.66937         1.97136         0.27695
| 19>    H       -1.64863         2.18267         0.17815
| 20>    H        3.97249        -1.06088         0.07602
| 21>    H        3.90261         1.99064         0.37409
| 22>    H        5.36749         0.90443         0.32564
| 23> *
| 24>
| 25>                          ****END OF INPUT****
 Total Charge           Charge          ....    0
 Multiplicity           Mult            ....    1
 Number of Electrons    NEL             ....   70
Dispersion correction           -0.031382826
FINAL SINGLE POINT ENERGY      -418.860529998721
Dispersion correction            ... done
Dispersion correction           -0.031414362
FINAL SINGLE POINT ENERGY      -418.863707738991
Dispersion correction            ... done
Dispersion correction           -0.031417212
FINAL SINGLE POINT ENERGY      -418.863785983513
Dispersion correction            ... done
FINAL SINGLE POINT ENERGY      -418.863795637350
FINAL SINGLE POINT ENERGY      -418.863792043260
Dispersion correction            ... done
Dispersion correction           -0.031408620
FINAL SINGLE POINT ENERGY      -418.863786347105
Dispersion correction            ... done
Dispersion correction           -0.031408813
FINAL SINGLE POINT ENERGY      -418.863783068925
Dispersion correction            ... done
                    ***********************HURRAY********************

CARTESIAN COORDINATES (ANGSTROEM)
---------------------------------
  C     -2.159565    0.061400   -0.053894
  N     -1.385819   -1.081530   -0.138230
  C     -0.058940   -0.722090   -0.044028
  C      1.267225   -1.220240   -0.033497
  C      2.097116   -0.101544    0.114744
  N      1.304706    1.039079    0.196444
  C     -0.017333    0.676497    0.102981
  C     -1.349322    1.178939    0.095926
  C      3.540589   -0.079321    0.169757
  C      4.341407    0.997714    0.269781
  H     -3.244523    0.001970   -0.112412
  H     -1.747150   -2.016009   -0.261422
  H      1.623891   -2.243093   -0.129077
  H      1.661731    1.974608    0.322536
  H     -1.699264    2.203972    0.190012
  H      4.000958   -1.071465    0.115615
  H      3.949140    2.018126    0.322203
  H      5.427563    0.890066    0.304401

 Multiplicity           Mult            ....    1
 Number of Electrons    NEL             ....   70
 Basis Dimension        Dim             ....  180

ORBITAL ENERGIES
----------------

  NO   OCC          E(Eh)            E(eV)
   0   2.0000     -14.367184      -390.9510
   1   2.0000     -14.361481      -390.7958
   2   2.0000     -10.210207      -277.8339
   3   2.0000     -10.208776      -277.7949
   4   2.0000     -10.198809      -277.5237
   5   2.0000     -10.196723      -277.4669
   6   2.0000     -10.191318      -277.3199
   7   2.0000     -10.177561      -276.9455
   8   2.0000     -10.175814      -276.8980
   9   2.0000     -10.174575      -276.8643
  10   2.0000      -0.975524       -26.5453
  11   2.0000      -0.940497       -25.5922
  12   2.0000      -0.779463       -21.2103
  13   2.0000      -0.758698       -20.6452
  14   2.0000      -0.750347       -20.4180
  15   2.0000      -0.683910       -18.6101
  16   2.0000      -0.610203       -16.6045
  17   2.0000      -0.591119       -16.0852
  18   2.0000      -0.585859       -15.9420
  19   2.0000      -0.554147       -15.0791
  20   2.0000      -0.514419       -13.9980
  21   2.0000      -0.470852       -12.8125
  22   2.0000      -0.457048       -12.4369
  23   2.0000      -0.441826       -12.0227
  24   2.0000      -0.431139       -11.7319
  25   2.0000      -0.424655       -11.5555
  26   2.0000      -0.405211       -11.0263
  27   2.0000      -0.387097       -10.5334
  28   2.0000      -0.371544       -10.1102
  29   2.0000      -0.362411        -9.8617
  30   2.0000      -0.353713        -9.6250
  31   2.0000      -0.291680        -7.9370
  32   2.0000      -0.257015        -6.9937
  33   2.0000      -0.211841        -5.7645
  34   2.0000      -0.177742        -4.8366
  35   0.0000      -0.022326        -0.6075
  36   0.0000       0.053329         1.4511
  37   0.0000       0.053782         1.4635
  38   0.0000       0.058375         1.5885
  39   0.0000       0.084335         2.2949

MULLIKEN ATOMIC CHARGES
-----------------------
   0 C :    0.049978
   1 N :   -0.068736
   2 C :    0.101029
   3 C :   -0.144846
   4 C :    0.052936
   5 N :   -0.068760
   6 C :    0.087539
   7 C :   -0.111705
   8 C :    0.030383
   9 C :   -0.061697
  10 H :   -0.003252
  11 H :    0.116846
  12 H :   -0.043261
  13 H :    0.112558
  14 H :   -0.037810
  15 H :   -0.022125
  16 H :   -0.009537
  17 H :    0.020461
Sum of atomic charges:    0.0000000

LOEWDIN ATOMIC CHARGES
----------------------
   0 C :   -0.010166
   1 N :    0.058731
   2 C :   -0.039780
   3 C :   -0.093533
   4 C :   -0.014446
   5 N :    0.060289
   6 C :   -0.025582
   7 C :   -0.112132
   8 C :   -0.029701
   9 C :   -0.090156
  10 H :    0.018215
  11 H :    0.084749
  12 H :    0.021324
  13 H :    0.082859
  14 H :    0.021936
  15 H :    0.032881
  16 H :    0.010117
  17 H :    0.024394

  Mayer bond orders larger than 0.100000
B(  0-C ,  1-N ) :   1.1932 B(  0-C ,  7-C ) :   1.4638 B(  0-C , 10-H ) :   0.9824
B(  1-N ,  2-C ) :   1.1504 B(  1-N , 11-H ) :   0.9448 B(  2-C ,  3-C ) :   1.2284
B(  2-C ,  6-C ) :   1.3487 B(  3-C ,  4-C ) :   1.3749 B(  3-C , 12-H ) :   1.0317
B(  4-C ,  5-N ) :   1.1901 B(  4-C ,  8-C ) :   1.1509 B(  5-N ,  6-C ) :   1.1536
B(  5-N , 13-H ) :   0.9360 B(  6-C ,  7-C ) :   1.2466 B(  7-C , 14-H ) :   1.0286
B(  8-C ,  9-C ) :   1.8610 B(  8-C , 15-H ) :   0.9471 B(  9-C , 16-H ) :   0.9577
B(  9-C , 17-H ) :   0.9409

Dispersion correction           -0.031410305
FINAL SINGLE POINT ENERGY      -418.863781105030

DIPOLE MOMENT
-------------
                                X             Y             Z
Electronic contribution:     -4.09608      -1.23021      -0.22983
Nuclear contribution   :      3.61513       1.04171       0.19150
                        -----------------------------------------
Total Dipole Moment    :     -0.48095      -0.18849      -0.03833
                        -----------------------------------------
Magnitude (a.u.)       :      0.51799
Magnitude (Debye)      :      1.31662

Rotational constants in cm-1:     0.153863     0.028559     0.024090
Rotational constants in MHz :  4612.689212   856.184557   722.194269

                             ****ORCA TERMINATED NORMALLY****
TOTAL RUN TIME: 0 days 0 hours 6 minutes 45 seconds 370 msec
