                         Program Version 4.2.0 -  RELEASE  -
|  1> # ORCA input file
|  2> # SCF done        -28.674195755936          0.000662496804
|  3> ! B3LYP/G D3BJ Opt RIJCOSX def2-SVP def2/J
|  4> * xyz 0 1
|  5>    C       -0.26335         1.01375         0.17223
|  6>    N       -1.05299        -0.09267         0.15449
|  7>    C       -0.29048        -1.21407         0.08174
|  8>    C        1.04848        -0.80281         0.05314
|  9>    C        1.04003         0.61500         0.11175
| 10>    C        2.21775        -1.67053        -0.02080
| 11>    O        2.14849        -2.88212        -0.09703
| 12>    C        3.55424        -0.96139         0.00362
| 13>    C       -0.82460        -2.54904         0.05039
| 14>    C       -2.11668        -2.86971         0.06753
| 15>    H       -0.68387         1.99869         0.22639
| 16>    H       -2.05848        -0.08919         0.19237
| 17>    H        1.89283         1.26270         0.10694
| 18>    H        3.64699        -0.37228         0.91310
| 19>    H        3.63504        -0.29358        -0.85126
| 20>    H        4.35328        -1.69706        -0.03593
| 21>    H       -0.07106        -3.32136         0.00661
| 22>    H       -2.90818        -2.13781         0.10585
| 23>    H       -2.43326        -3.89723         0.04255
| 24> *
| 25>
| 26>                          ****END OF INPUT****
 Total Charge           Charge          ....    0
 Multiplicity           Mult            ....    1
 Number of Electrons    NEL             ....   72
Dispersion correction           -0.032966255
FINAL SINGLE POINT ENERGY      -439.940970425030
Dispersion correction            ... done
Dispersion correction           -0.032786533
FINAL SINGLE POINT ENERGY      -439.943728858029
Dispersion correction            ... done
Dispersion correction           -0.032762238
FINAL SINGLE POINT ENERGY      -439.943791668629
Dispersion correction            ... done
FINAL SINGLE POINT ENERGY      -439.943796650233
Dispersion correction            ... done
Dispersion correction           -0.032754832
FINAL SINGLE POINT ENERGY      -439.943788629664
Dispersion correction            ... done
Dispersion correction           -0.032757495
FINAL SINGLE POINT ENERGY      -439.943796897057
Dispersion correction            ... done
                    ***********************HURRAY********************

CARTESIAN COORDINATES (ANGSTROEM)
---------------------------------
  C     -0.279325    1.038464    0.180662
  N     -1.063916   -0.089460    0.156743
  C     -0.295037   -1.221775    0.095857
  C      1.048167   -0.796014    0.079906
  C      1.037219    0.635215    0.133117
  C      2.238263   -1.664693    0.015900
  O      2.168498   -2.884169   -0.007525
  C      3.588884   -0.968818   -0.023596
  C     -0.843597   -2.564409    0.052350
  C     -2.148178   -2.887584    0.044402
  H     -0.721174    2.030658    0.233246
  H     -2.075132   -0.090997    0.187109
  H      1.902747    1.291830    0.137759
  H      3.733188   -0.340198    0.870130
  H      3.661795   -0.306059   -0.901261
  H      4.377913   -1.730021   -0.070811
  H     -0.077446   -3.341031    0.021440
  H     -2.949597   -2.140982    0.069137
  H     -2.469092   -3.930668    0.009115

 Multiplicity           Mult            ....    1
 Number of Electrons    NEL             ....   72
 Basis Dimension        Dim             ....  185

ORBITAL ENERGIES
----------------

  NO   OCC          E(Eh)            E(eV)
   0   2.0000     -19.107379      -519.9382
   1   2.0000     -14.390222      -391.5778
   2   2.0000     -10.264886      -279.3217
   3   2.0000     -10.229980      -278.3719
   4   2.0000     -10.225598      -278.2527
   5   2.0000     -10.196588      -277.4633
   6   2.0000     -10.193003      -277.3657
   7   2.0000     -10.187975      -277.2289
   8   2.0000     -10.184454      -277.1331
   9   2.0000     -10.184118      -277.1239
  10   2.0000      -1.014023       -27.5930
  11   2.0000      -0.987066       -26.8594
  12   2.0000      -0.792172       -21.5561
  13   2.0000      -0.788374       -21.4527
  14   2.0000      -0.728895       -19.8342
  15   2.0000      -0.712735       -19.3945
  16   2.0000      -0.627244       -17.0682
  17   2.0000      -0.604952       -16.4616
  18   2.0000      -0.591360       -16.0917
  19   2.0000      -0.520937       -14.1754
  20   2.0000      -0.507979       -13.8228
  21   2.0000      -0.459479       -12.5031
  22   2.0000      -0.454788       -12.3754
  23   2.0000      -0.443641       -12.0721
  24   2.0000      -0.440757       -11.9936
  25   2.0000      -0.430164       -11.7054
  26   2.0000      -0.422551       -11.4982
  27   2.0000      -0.418614       -11.3911
  28   2.0000      -0.383435       -10.4338
  29   2.0000      -0.375077       -10.2064
  30   2.0000      -0.365326        -9.9410
  31   2.0000      -0.353647        -9.6232
  32   2.0000      -0.303548        -8.2600
  33   2.0000      -0.263892        -7.1809
  34   2.0000      -0.241914        -6.5828
  35   2.0000      -0.215129        -5.8540
  36   0.0000      -0.053115        -1.4453
  37   0.0000       0.001724         0.0469
  38   0.0000       0.036762         1.0004
  39   0.0000       0.059367         1.6155
  40   0.0000       0.071169         1.9366

MULLIKEN ATOMIC CHARGES
-----------------------
   0 C :    0.070273
   1 N :   -0.049043
   2 C :   -0.022430
   3 C :   -0.005753
   4 C :   -0.039013
   5 C :    0.005247
   6 O :   -0.214077
   7 C :    0.034739
   8 C :    0.043134
   9 C :   -0.046016
  10 H :   -0.001209
  11 H :    0.120551
  12 H :   -0.019785
  13 H :    0.030828
  14 H :    0.031507
  15 H :    0.023860
  16 H :    0.016147
  17 H :   -0.005038
  18 H :    0.026078
Sum of atomic charges:   -0.0000000

LOEWDIN ATOMIC CHARGES
----------------------
   0 C :   -0.009074
   1 N :    0.097362
   2 C :    0.013770
   3 C :   -0.109170
   4 C :   -0.065973
   5 C :    0.079073
   6 O :   -0.171839
   7 C :   -0.075827
   8 C :   -0.024263
   9 C :   -0.060858
  10 H :    0.021931
  11 H :    0.088097
  12 H :    0.025197
  13 H :    0.038194
  14 H :    0.038587
  15 H :    0.034743
  16 H :    0.041413
  17 H :    0.009641
  18 H :    0.028995

  Mayer bond orders larger than 0.100000
B(  0-C ,  1-N ) :   1.1927 B(  0-C ,  4-C ) :   1.4875 B(  0-C , 10-H ) :   0.9854
B(  1-N ,  2-C ) :   1.2650 B(  1-N , 11-H ) :   0.9304 B(  2-C ,  3-C ) :   1.3519
B(  2-C ,  8-C ) :   1.1555 B(  3-C ,  4-C ) :   1.2851 B(  3-C ,  5-C ) :   0.9770
B(  4-C , 12-H ) :   0.9941 B(  5-C ,  6-O ) :   2.1028 B(  5-C ,  7-C ) :   1.0669
B(  7-C , 13-H ) :   0.9449 B(  7-C , 14-H ) :   0.9459 B(  7-C , 15-H ) :   0.9494
B(  8-C ,  9-C ) :   1.8593 B(  8-C , 16-H ) :   0.9293 B(  9-C , 17-H ) :   0.9594
B(  9-C , 18-H ) :   0.9410

Dispersion correction           -0.032758285
FINAL SINGLE POINT ENERGY      -439.943797192606

DIPOLE MOMENT
-------------
                                X             Y             Z
Electronic contribution:     -1.12581      -0.47125       0.13386
Nuclear contribution   :      0.22854       1.77650      -0.07795
                        -----------------------------------------
Total Dipole Moment    :     -0.89727       1.30525       0.05592
                        -----------------------------------------
Magnitude (a.u.)       :      1.58489
Magnitude (Debye)      :      4.02848

Rotational constants in cm-1:     0.065089     0.039514     0.024704
Rotational constants in MHz :  1951.312534  1184.593537   740.618079

                             ****ORCA TERMINATED NORMALLY****
TOTAL RUN TIME: 0 days 0 hours 6 minutes 11 seconds 371 msec
