                         Program Version 4.2.0 -  RELEASE  -
|  1> # ORCA input file
|  2> # SCF done        -29.222374513658          0.000529745139
|  3> ! B3LYP/G D3BJ Opt RIJCOSX def2-SVP def2/J
|  4> * xyz 0 1
|  5>    C        2.35428         0.82704         0.19439
|  6>    N        1.23562         1.48008         0.14995
|  7>    C        0.11226         0.72736         0.03257
|  8>    C       -1.18121         1.18059        -0.03430
|  9>    S       -2.28190        -0.11806        -0.17745
| 10>    C       -1.04874        -1.29733        -0.15260
| 11>    C        0.19271        -0.71608        -0.03660
| 12>    N        1.37933        -1.35604         0.01274
| 13>    C        2.45042        -0.60502         0.12676
| 14>    C        3.71774        -1.31736         0.17879
| 15>    C        4.92453        -0.77580         0.29746
| 16>    H        3.24594         1.43073         0.28822
| 17>    H       -1.53090         2.19213        -0.00660
| 18>    H       -1.28673        -2.33878        -0.22240
| 19>    H        3.60284        -2.39147         0.11226
| 20>    H        5.08848         0.28648         0.36698
| 21>    H        5.80762        -1.39083         0.32821
| 22> *
| 23>
| 24>                          ****END OF INPUT****
 Total Charge           Charge          ....    0
 Multiplicity           Mult            ....    1
 Number of Electrons    NEL             ....   84
Dispersion correction           -0.036742932
FINAL SINGLE POINT ENERGY      -815.733740561114
Dispersion correction            ... done
Dispersion correction           -0.036641679
FINAL SINGLE POINT ENERGY      -815.736321025469
Dispersion correction            ... done
Dispersion correction           -0.036630411
FINAL SINGLE POINT ENERGY      -815.736418213128
Dispersion correction            ... done
FINAL SINGLE POINT ENERGY      -815.736415786398
Dispersion correction            ... done
Dispersion correction           -0.036627894
FINAL SINGLE POINT ENERGY      -815.736450309104
Dispersion correction            ... done
Dispersion correction           -0.036628889
FINAL SINGLE POINT ENERGY      -815.736454704724
Dispersion correction            ... done
                    ***********************HURRAY********************

CARTESIAN COORDINATES (ANGSTROEM)
---------------------------------
  C      2.351629    0.830231    0.227139
  N      1.228816    1.488699    0.176904
  C      0.098602    0.729825    0.041594
  C     -1.203692    1.197219   -0.052180
  S     -2.303426   -0.109949   -0.218595
  C     -1.077056   -1.307375   -0.164453
  C      0.175333   -0.720255   -0.024420
  N      1.368682   -1.371052    0.040079
  C      2.444734   -0.620151    0.155010
  C      3.735243   -1.319773    0.200063
  C      4.956264   -0.768304    0.265377
  H      3.269035    1.418319    0.336053
  H     -1.545331    2.229598   -0.025785
  H     -1.312403   -2.366362   -0.243442
  H      3.624866   -2.408339    0.160342
  H      5.121385    0.311986    0.300849
  H      5.849609   -1.396677    0.283845

 Multiplicity           Mult            ....    1
 Number of Electrons    NEL             ....   84
 Basis Dimension        Dim             ....  188

ORBITAL ENERGIES
----------------

  NO   OCC          E(Eh)            E(eV)
   0   2.0000     -88.899501     -2419.0784
   1   2.0000     -14.342408      -390.2768
   2   2.0000     -14.338094      -390.1594
   3   2.0000     -10.243166      -278.7307
   4   2.0000     -10.238495      -278.6036
   5   2.0000     -10.231638      -278.4170
   6   2.0000     -10.231067      -278.4015
   7   2.0000     -10.222389      -278.1654
   8   2.0000     -10.221889      -278.1517
   9   2.0000     -10.204568      -277.6804
  10   2.0000     -10.203839      -277.6606
  11   2.0000      -7.993942      -217.5262
  12   2.0000      -5.961545      -162.2219
  13   2.0000      -5.957482      -162.1113
  14   2.0000      -5.956456      -162.0834
  15   2.0000      -0.978274       -26.6202
  16   2.0000      -0.909095       -24.7377
  17   2.0000      -0.885884       -24.1061
  18   2.0000      -0.795515       -21.6471
  19   2.0000      -0.742495       -20.2043
  20   2.0000      -0.729908       -19.8618
  21   2.0000      -0.661447       -17.9989
  22   2.0000      -0.637898       -17.3581
  23   2.0000      -0.587265       -15.9803
  24   2.0000      -0.566736       -15.4217
  25   2.0000      -0.543939       -14.8013
  26   2.0000      -0.497408       -13.5351
  27   2.0000      -0.488489       -13.2925
  28   2.0000      -0.450147       -12.2491
  29   2.0000      -0.445362       -12.1189
  30   2.0000      -0.442348       -12.0369
  31   2.0000      -0.426601       -11.6084
  32   2.0000      -0.408721       -11.1219
  33   2.0000      -0.378368       -10.2959
  34   2.0000      -0.376841       -10.2544
  35   2.0000      -0.364837        -9.9277
  36   2.0000      -0.352816        -9.6006
  37   2.0000      -0.312401        -8.5009
  38   2.0000      -0.303162        -8.2495
  39   2.0000      -0.253404        -6.8955
  40   2.0000      -0.248669        -6.7666
  41   2.0000      -0.231194        -6.2911
  42   0.0000      -0.089327        -2.4307
  43   0.0000      -0.037158        -1.0111
  44   0.0000       0.000807         0.0220
  45   0.0000       0.042362         1.1527
  46   0.0000       0.052129         1.4185

MULLIKEN ATOMIC CHARGES
-----------------------
   0 C :    0.021877
   1 N :   -0.036174
   2 C :    0.052144
   3 C :   -0.138782
   4 S :    0.150462
   5 C :   -0.144378
   6 C :    0.072854
   7 N :   -0.043334
   8 C :   -0.043610
   9 C :    0.029454
  10 C :   -0.017466
  11 H :   -0.005361
  12 H :    0.021183
  13 H :    0.021948
  14 H :    0.002445
  15 H :    0.023830
  16 H :    0.032907
Sum of atomic charges:   -0.0000000

LOEWDIN ATOMIC CHARGES
----------------------
   0 C :    0.015072
   1 N :   -0.048314
   2 C :   -0.053956
   3 C :   -0.201466
   4 S :    0.501023
   5 C :   -0.204816
   6 C :   -0.051613
   7 N :   -0.056964
   8 C :   -0.014752
   9 C :   -0.025949
  10 C :   -0.030948
  11 H :    0.020759
  12 H :    0.031023
  13 H :    0.030862
  14 H :    0.035949
  15 H :    0.022917
  16 H :    0.031173

  Mayer bond orders larger than 0.100000
B(  0-C ,  1-N ) :   1.7508 B(  0-C ,  8-C ) :   1.1291 B(  0-C , 11-H ) :   0.9631
B(  1-N ,  2-C ) :   1.3339 B(  2-C ,  3-C ) :   1.3927 B(  2-C ,  6-C ) :   1.1810
B(  3-C ,  4-S ) :   1.2064 B(  3-C ,  5-C ) :   0.1211 B(  3-C , 12-H ) :   0.9706
B(  4-S ,  5-C ) :   1.2089 B(  5-C ,  6-C ) :   1.3767 B(  5-C , 13-H ) :   0.9681
B(  6-C ,  7-N ) :   1.3530 B(  7-N ,  8-C ) :   1.6565 B(  8-C ,  9-C ) :   1.0710
B(  9-C , 10-C ) :   1.9055 B(  9-C , 14-H ) :   0.9553 B( 10-C , 15-H ) :   0.9452
B( 10-C , 16-H ) :   0.9491

Dispersion correction           -0.036628871
FINAL SINGLE POINT ENERGY      -815.736455916384

DIPOLE MOMENT
-------------
                                X             Y             Z
Electronic contribution:    -10.16886       1.05473      -0.63141
Nuclear contribution   :     10.16288      -1.10682       0.60889
                        -----------------------------------------
Total Dipole Moment    :     -0.00598      -0.05208      -0.02252
                        -----------------------------------------
Magnitude (a.u.)       :      0.05706
Magnitude (Debye)      :      0.14503

Rotational constants in cm-1:     0.108481     0.019348     0.016422
Rotational constants in MHz :  3252.182234   580.025052   492.324431

                             ****ORCA TERMINATED NORMALLY****
TOTAL RUN TIME: 0 days 0 hours 6 minutes 35 seconds 646 msec
