                         Program Version 4.2.0 -  RELEASE  -
|  1> # ORCA input file
|  2> # SCF done        -29.240045035308          0.000708159947
|  3> ! B3LYP/G D3BJ Opt RIJCOSX def2-SVP def2/J
|  4> * xyz 0 2
|  5>    C       -0.55188        -1.38813         1.14301
|  6>    S       -0.20227         0.29140         1.11657
|  7>    C        1.24442         0.03414         0.16687
|  8>    C        1.44906        -1.30459        -0.07282
|  9>    C        0.39962        -2.14025         0.47377
| 10>    C        0.36839        -3.51976         0.32656
| 11>    S        1.57151        -4.42164        -0.51127
| 12>    C        2.73255        -3.20406        -0.92252
| 13>    C        2.59364        -1.88643        -0.70152
| 14>    C        1.99760         1.19480        -0.23763
| 15>    C        2.70558         1.31787        -1.35739
| 16>    H       -1.43296        -1.74236         1.63713
| 17>    H       -0.43442        -4.11574         0.72164
| 18>    H        3.61157        -3.61796        -1.38851
| 19>    H        3.40336        -1.22849        -0.97905
| 20>    H        1.91568         2.03970         0.43502
| 21>    H        2.76030         0.53752        -2.09633
| 22>    H        3.23487         2.22751        -1.58161
| 23> *
| 24>
| 25>                          ****END OF INPUT****
 Total Charge           Charge          ....    0
 Multiplicity           Mult            ....    2
 Number of Electrons    NEL             ....   93
Dispersion correction           -0.044793682
FINAL SINGLE POINT ENERGY     -1143.053893296925
Dispersion correction            ... done
Dispersion correction           -0.044542605
FINAL SINGLE POINT ENERGY     -1143.057020105336
Dispersion correction            ... done
Dispersion correction           -0.044448884
FINAL SINGLE POINT ENERGY     -1143.057155923623
Dispersion correction            ... done
FINAL SINGLE POINT ENERGY     -1143.057132383012
Dispersion correction            ... done
Dispersion correction           -0.044448558
FINAL SINGLE POINT ENERGY     -1143.057154169710
Dispersion correction            ... done
Dispersion correction           -0.044445564
FINAL SINGLE POINT ENERGY     -1143.057161189225
Dispersion correction            ... done
                    ***********************HURRAY********************

CARTESIAN COORDINATES (ANGSTROEM)
---------------------------------
  C     -0.586626   -1.389364    1.151854
  S     -0.251825    0.303835    1.081966
  C      1.211389    0.046675    0.143082
  C      1.426962   -1.305366   -0.082713
  C      0.381473   -2.149629    0.491266
  C      0.384049   -3.555559    0.378499
  S      1.601568   -4.463614   -0.462615
  C      2.723098   -3.224097   -0.950957
  C      2.568633   -1.893978   -0.747578
  C      1.986427    1.217976   -0.247994
  C      2.766644    1.350000   -1.335001
  H     -1.477061   -1.757430    1.658049
  H     -0.411217   -4.164678    0.809674
  H      3.607475   -3.627515   -1.449109
  H      3.363688   -1.232778   -1.091525
  H      1.892980    2.079612    0.424937
  H      2.863072    0.562475   -2.084913
  H      3.315893    2.276964   -1.515003

 Multiplicity           Mult            ....    2
 Number of Electrons    NEL             ....   93
 Basis Dimension        Dim             ....  197

ORBITAL ENERGIES
----------------
                 SPIN UP ORBITALS
  NO   OCC          E(Eh)            E(eV)
   0   1.0000     -88.877068     -2418.4680
   1   1.0000     -88.873148     -2418.3613
   2   1.0000     -10.225978      -278.2630
   3   1.0000     -10.219312      -278.0816
   4   1.0000     -10.216223      -277.9976
   5   1.0000     -10.210274      -277.8357
   6   1.0000     -10.209893      -277.8253
   7   1.0000     -10.208161      -277.7782
   8   1.0000     -10.207597      -277.7628
   9   1.0000     -10.206476      -277.7323
  10   1.0000     -10.193440      -277.3776
  11   1.0000      -7.971783      -216.9232
  12   1.0000      -7.968111      -216.8233
  13   1.0000      -5.940051      -161.6370
  14   1.0000      -5.936031      -161.5276
  15   1.0000      -5.935720      -161.5192
  16   1.0000      -5.933635      -161.4624
  17   1.0000      -5.932083      -161.4202
  18   1.0000      -5.930290      -161.3714
  19   1.0000      -0.891681       -24.2639
  20   1.0000      -0.845297       -23.0017
  21   1.0000      -0.792764       -21.5722
  22   1.0000      -0.764949       -20.8153
  23   1.0000      -0.749631       -20.3985
  24   1.0000      -0.701041       -19.0763
  25   1.0000      -0.638065       -17.3626
  26   1.0000      -0.615149       -16.7391
  27   1.0000      -0.584214       -15.8973
  28   1.0000      -0.555802       -15.1241
  29   1.0000      -0.504179       -13.7194
  30   1.0000      -0.488013       -13.2795
  31   1.0000      -0.472657       -12.8617
  32   1.0000      -0.462932       -12.5970
  33   1.0000      -0.438710       -11.9379
  34   1.0000      -0.426732       -11.6120
  35   1.0000      -0.413200       -11.2438
  36   1.0000      -0.395529       -10.7629
  37   1.0000      -0.377030       -10.2595
  38   1.0000      -0.362696        -9.8695
  39   1.0000      -0.356944        -9.7130
  40   1.0000      -0.351444        -9.5633
  41   1.0000      -0.337637        -9.1876
  42   1.0000      -0.319097        -8.6831
  43   1.0000      -0.288110        -7.8399
  44   1.0000      -0.275430        -7.4948
  45   1.0000      -0.217358        -5.9146
  46   1.0000      -0.154492        -4.2039
  47   0.0000      -0.055504        -1.5103
  48   0.0000      -0.006115        -0.1664
  49   0.0000       0.026732         0.7274
  50   0.0000       0.034648         0.9428
  51   0.0000       0.055438         1.5085

                 SPIN DOWN ORBITALS
  NO   OCC          E(Eh)            E(eV)
   0   1.0000     -88.876255     -2418.4459
   1   1.0000     -88.872353     -2418.3397
   2   1.0000     -10.226490      -278.2769
   3   1.0000     -10.220013      -278.1007
   4   1.0000     -10.212191      -277.8878
   5   1.0000     -10.207924      -277.7717
   6   1.0000     -10.207291      -277.7545
   7   1.0000     -10.206845      -277.7424
   8   1.0000     -10.205501      -277.7058
   9   1.0000     -10.205006      -277.6923
  10   1.0000     -10.193847      -277.3887
  11   1.0000      -7.970995      -216.9018
  12   1.0000      -7.967342      -216.8024
  13   1.0000      -5.939705      -161.6276
  14   1.0000      -5.935616      -161.5163
  15   1.0000      -5.935398      -161.5104
  16   1.0000      -5.931707      -161.4099
  17   1.0000      -5.930756      -161.3841
  18   1.0000      -5.927613      -161.2985
  19   1.0000      -0.888518       -24.1778
  20   1.0000      -0.840706       -22.8768
  21   1.0000      -0.789998       -21.4969
  22   1.0000      -0.760918       -20.7056
  23   1.0000      -0.745829       -20.2950
  24   1.0000      -0.697729       -18.9862
  25   1.0000      -0.628645       -17.1063
  26   1.0000      -0.614470       -16.7206
  27   1.0000      -0.579533       -15.7699
  28   1.0000      -0.553760       -15.0686
  29   1.0000      -0.502216       -13.6660
  30   1.0000      -0.485545       -13.2123
  31   1.0000      -0.470888       -12.8135
  32   1.0000      -0.462384       -12.5821
  33   1.0000      -0.435575       -11.8526
  34   1.0000      -0.425795       -11.5865
  35   1.0000      -0.405655       -11.0384
  36   1.0000      -0.391442       -10.6517
  37   1.0000      -0.376404       -10.2425
  38   1.0000      -0.357514        -9.7285
  39   1.0000      -0.352108        -9.5813
  40   1.0000      -0.344185        -9.3658
  41   1.0000      -0.334986        -9.1154
  42   1.0000      -0.307024        -8.3545
  43   1.0000      -0.277928        -7.5628
  44   1.0000      -0.262149        -7.1334
  45   1.0000      -0.206405        -5.6166
  46   0.0000      -0.072896        -1.9836
  47   0.0000      -0.051067        -1.3896
  48   0.0000       0.001627         0.0443
  49   0.0000       0.030263         0.8235
  50   0.0000       0.042501         1.1565

MULLIKEN ATOMIC CHARGES AND SPIN POPULATIONS
--------------------------------------------
   0 C :   -0.137236    0.339063
   1 S :    0.107974    0.123974
   2 C :   -0.164787   -0.050941
   3 C :    0.094425    0.050942
   4 C :    0.141574   -0.168851
   5 C :   -0.158744    0.601511
   6 S :    0.097110    0.122471
   7 C :   -0.094840   -0.039725
   8 C :    0.031582    0.077413
   9 C :    0.003266    0.018589
  10 C :   -0.033511   -0.030196
  11 H :    0.014273   -0.015462
  12 H :    0.021552   -0.027862
  13 H :    0.037921    0.000850
  14 H :   -0.018077   -0.003667
  15 H :    0.003843   -0.000876
  16 H :    0.029472    0.001428
  17 H :    0.024201    0.001339
Sum of atomic charges         :   -0.0000000

LOEWDIN ATOMIC CHARGES AND SPIN POPULATIONS
-------------------------------------------
   0 C :   -0.211794    0.282176
   1 S :    0.425983    0.131503
   2 C :   -0.179350   -0.034424
   3 C :   -0.049836    0.039498
   4 C :   -0.060239   -0.079242
   5 C :   -0.216475    0.497920
   6 S :    0.414827    0.139523
   7 C :   -0.173585   -0.023255
   8 C :   -0.047798    0.059550
   9 C :   -0.041811    0.010798
  10 C :   -0.051091   -0.024359
  11 H :    0.022012    0.000114
  12 H :    0.023563    0.000633
  13 H :    0.030845   -0.000493
  14 H :    0.034570    0.000146
  15 H :    0.030566   -0.000217
  16 H :    0.022883    0.000107
  17 H :    0.026730    0.000021

  Mayer bond orders larger than 0.100000
B(  0-C ,  1-S ) :   1.1572 B(  0-C ,  4-C ) :   1.3893 B(  0-C , 11-H ) :   0.9643
B(  1-S ,  2-C ) :   1.0985 B(  2-C ,  3-C ) :   1.4909 B(  2-C ,  9-C ) :   1.0963
B(  3-C ,  4-C ) :   1.1324 B(  3-C ,  8-C ) :   1.1444 B(  4-C ,  5-C ) :   1.2972
B(  5-C ,  6-S ) :   1.1398 B(  5-C , 12-H ) :   0.9426 B(  6-S ,  7-C ) :   1.0907
B(  7-C ,  8-C ) :   1.7007 B(  7-C , 13-H ) :   0.9344 B(  8-C , 14-H ) :   0.9575
B(  9-C , 10-C ) :   1.9272 B(  9-C , 15-H ) :   0.9442 B( 10-C , 16-H ) :   0.9531
B( 10-C , 17-H ) :   0.9422

Dispersion correction           -0.044444641
FINAL SINGLE POINT ENERGY     -1143.057160494337

DIPOLE MOMENT
-------------
                                X             Y             Z
Electronic contribution:     -4.43308      -4.45853       3.04143
Nuclear contribution   :      4.64054       4.43151      -3.14399
                        -----------------------------------------
Total Dipole Moment    :      0.20746      -0.02702      -0.10256
                        -----------------------------------------
Magnitude (a.u.)       :      0.23300
Magnitude (Debye)      :      0.59224

Rotational constants in cm-1:     0.048252     0.022347     0.015376
Rotational constants in MHz :  1446.544618   669.948215   460.954619

                             ****ORCA TERMINATED NORMALLY****
TOTAL RUN TIME: 0 days 0 hours 11 minutes 51 seconds 848 msec
