                         Program Version 4.2.0 -  RELEASE  -
|  1> # ORCA input file
|  2> # SCF done        -34.977521998019          0.000826392195
|  3> ! B3LYP/G D3BJ Opt RIJCOSX def2-SVP def2/J
|  4> * xyz 0 1
|  5>    C        2.37716        -1.12561        -0.30309
|  6>    C        1.51284        -0.24319         0.30345
|  7>    C        1.82002         1.07677        -0.15839
|  8>    C        1.26621         2.30214         0.13082
|  9>    C        1.81070         3.42832        -0.50450
| 10>    C        1.48294         4.78292        -0.42983
| 11>    C        2.35108         5.51706        -1.28360
| 12>    C        3.21767         4.61552        -1.88746
| 13>    C        2.91249         3.30094        -1.42756
| 14>    C        3.46596         2.07370        -1.71618
| 15>    C        2.92122         0.94910        -1.08075
| 16>    C        3.24493        -0.41072        -1.15271
| 17>    C        2.35497         6.94350        -1.50548
| 18>    C        1.52689         7.81990        -0.94412
| 19>    H        2.39639        -2.19059        -0.15904
| 20>    H        0.73578        -0.48756         1.00480
| 21>    H        0.44066         2.40345         0.82246
| 22>    H        0.70029         5.20230         0.17580
| 23>    H        3.99403         4.86154        -2.58980
| 24>    H        4.29132         1.97232        -2.40786
| 25>    H        4.02489        -0.84226        -1.75482
| 26>    H        3.11212         7.29207        -2.19761
| 27>    H        0.75794         7.52190        -0.25285
| 28>    H        1.59072         8.87248        -1.15911
| 29> *
| 30>
| 31>                          ****END OF INPUT****
 Total Charge           Charge          ....    0
 Multiplicity           Mult            ....    1
 Number of Electrons    NEL             ....   94
Dispersion correction           -0.051118234
FINAL SINGLE POINT ENERGY      -539.094936988177
Dispersion correction            ... done
Dispersion correction           -0.050978693
FINAL SINGLE POINT ENERGY      -539.099022731742
Dispersion correction            ... done
Dispersion correction           -0.050963447
FINAL SINGLE POINT ENERGY      -539.099182604661
Dispersion correction            ... done
FINAL SINGLE POINT ENERGY      -539.099260661098
FINAL SINGLE POINT ENERGY      -539.099285133675
Dispersion correction            ... done
Dispersion correction           -0.051001750
FINAL SINGLE POINT ENERGY      -539.099307991751
Dispersion correction            ... done
Dispersion correction           -0.051005718
FINAL SINGLE POINT ENERGY      -539.099342939944
Dispersion correction            ... done
                    ***********************HURRAY********************

CARTESIAN COORDINATES (ANGSTROEM)
---------------------------------
  C      2.394721   -1.157052   -0.239344
  C      1.499758   -0.279101    0.333865
  C      1.789481    1.054156   -0.168766
  C      1.226129    2.281668    0.088427
  C      1.777615    3.427816   -0.563486
  C      1.455511    4.774992   -0.480236
  C      2.352074    5.535917   -1.338698
  C      3.213899    4.635549   -1.950947
  C      2.898805    3.300150   -1.491242
  C      3.458772    2.068783   -1.750241
  C      2.915246    0.925854   -1.089894
  C      3.270160   -0.421144   -1.122020
  C      2.359240    6.979684   -1.507444
  C      1.560326    7.853211   -0.870904
  H      2.446856   -2.230081   -0.055308
  H      0.709601   -0.527901    1.042800
  H      0.383356    2.392287    0.777488
  H      0.660090    5.201755    0.131729
  H      4.008691    4.893473   -2.652068
  H      4.304979    1.959688   -2.435232
  H      4.078626   -0.854443   -1.713093
  H      3.100866    7.365171   -2.216532
  H      0.806706    7.528789   -0.147596
  H      1.637715    8.926778   -1.058689

 Multiplicity           Mult            ....    1
 Number of Electrons    NEL             ....   94
 Basis Dimension        Dim             ....  246

ORBITAL ENERGIES
----------------

  NO   OCC          E(Eh)            E(eV)
   0   2.0000     -10.219039      -278.0742
   1   2.0000     -10.216420      -278.0029
   2   2.0000     -10.206158      -277.7237
   3   2.0000     -10.206064      -277.7211
   4   2.0000     -10.197754      -277.4950
   5   2.0000     -10.194995      -277.4199
   6   2.0000     -10.193783      -277.3869
   7   2.0000     -10.191741      -277.3314
   8   2.0000     -10.189171      -277.2614
   9   2.0000     -10.189007      -277.2570
  10   2.0000     -10.188817      -277.2518
  11   2.0000     -10.188166      -277.2341
  12   2.0000     -10.186989      -277.2021
  13   2.0000     -10.183749      -277.1139
  14   2.0000      -0.886402       -24.1202
  15   2.0000      -0.860278       -23.4094
  16   2.0000      -0.795495       -21.6465
  17   2.0000      -0.767944       -20.8968
  18   2.0000      -0.755335       -20.5537
  19   2.0000      -0.705220       -19.1900
  20   2.0000      -0.684652       -18.6303
  21   2.0000      -0.653540       -17.7837
  22   2.0000      -0.620860       -16.8945
  23   2.0000      -0.581740       -15.8299
  24   2.0000      -0.555576       -15.1180
  25   2.0000      -0.545528       -14.8446
  26   2.0000      -0.535932       -14.5834
  27   2.0000      -0.499864       -13.6020
  28   2.0000      -0.495927       -13.4949
  29   2.0000      -0.469398       -12.7730
  30   2.0000      -0.453077       -12.3288
  31   2.0000      -0.434016       -11.8102
  32   2.0000      -0.417424       -11.3587
  33   2.0000      -0.408260       -11.1093
  34   2.0000      -0.405166       -11.0251
  35   2.0000      -0.395934       -10.7739
  36   2.0000      -0.388869       -10.5817
  37   2.0000      -0.377214       -10.2645
  38   2.0000      -0.370405       -10.0792
  39   2.0000      -0.368242       -10.0204
  40   2.0000      -0.350185        -9.5290
  41   2.0000      -0.333373        -9.0715
  42   2.0000      -0.310335        -8.4446
  43   2.0000      -0.295838        -8.0502
  44   2.0000      -0.256636        -6.9834
  45   2.0000      -0.215518        -5.8646
  46   2.0000      -0.194431        -5.2907
  47   0.0000      -0.119893        -3.2625
  48   0.0000      -0.042038        -1.1439
  49   0.0000       0.010883         0.2961
  50   0.0000       0.060387         1.6432
  51   0.0000       0.071358         1.9418

MULLIKEN ATOMIC CHARGES
-----------------------
   0 C :    0.001094
   1 C :    0.022008
   2 C :    0.041015
   3 C :   -0.010086
   4 C :    0.054106
   5 C :   -0.031159
   6 C :    0.059362
   7 C :   -0.039049
   8 C :    0.065303
   9 C :   -0.016169
  10 C :    0.049663
  11 C :   -0.010335
  12 C :    0.007589
  13 C :   -0.041433
  14 H :   -0.015257
  15 H :   -0.020564
  16 H :   -0.029537
  17 H :   -0.024167
  18 H :   -0.028090
  19 H :   -0.031311
  20 H :   -0.017261
  21 H :   -0.020188
  22 H :    0.011986
  23 H :    0.022478
Sum of atomic charges:    0.0000000

LOEWDIN ATOMIC CHARGES
----------------------
   0 C :   -0.055648
   1 C :    0.001175
   2 C :   -0.052337
   3 C :    0.054827
   4 C :   -0.056591
   5 C :    0.038244
   6 C :   -0.056251
   7 C :    0.001250
   8 C :   -0.052540
   9 C :    0.049242
  10 C :   -0.063408
  11 C :    0.023515
  12 C :   -0.023081
  13 C :   -0.062488
  14 H :    0.022794
  15 H :    0.024572
  16 H :    0.032005
  17 H :    0.023648
  18 H :    0.023390
  19 H :    0.031414
  20 H :    0.024582
  21 H :    0.028354
  22 H :    0.018553
  23 H :    0.024778

  Mayer bond orders larger than 0.100000
B(  0-C ,  1-C ) :   1.5369 B(  0-C , 11-C ) :   1.1668 B(  0-C , 14-H ) :   0.9973
B(  1-C ,  2-C ) :   1.0986 B(  1-C , 15-H ) :   1.0025 B(  2-C ,  3-C ) :   1.4469
B(  2-C , 10-C ) :   1.1457 B(  3-C ,  4-C ) :   1.1351 B(  3-C , 16-H ) :   0.9990
B(  4-C ,  5-C ) :   1.4075 B(  4-C ,  8-C ) :   1.1469 B(  5-C ,  6-C ) :   1.1356
B(  5-C , 17-H ) :   1.0003 B(  6-C ,  7-C ) :   1.4677 B(  6-C , 12-C ) :   1.1105
B(  7-C ,  8-C ) :   1.0892 B(  7-C , 18-H ) :   1.0109 B(  8-C ,  9-C ) :   1.4289
B(  9-C , 10-C ) :   1.1492 B(  9-C , 19-H ) :   0.9990 B( 10-C , 11-C ) :   1.4031
B( 11-C , 20-H ) :   0.9988 B( 12-C , 13-C ) :   1.8948 B( 12-C , 21-H ) :   0.9601
B( 13-C , 22-H ) :   0.9473 B( 13-C , 23-H ) :   0.9457

Dispersion correction           -0.051003790
FINAL SINGLE POINT ENERGY      -539.099352193917

DIPOLE MOMENT
-------------
                                X             Y             Z
Electronic contribution:      0.77591      -4.99215      -0.27058
Nuclear contribution   :     -0.74556       4.76525       0.31221
                        -----------------------------------------
Total Dipole Moment    :      0.03035      -0.22691       0.04163
                        -----------------------------------------
Magnitude (a.u.)       :      0.23268
Magnitude (Debye)      :      0.59143

Rotational constants in cm-1:     0.089772     0.012259     0.010791
Rotational constants in MHz :  2691.290244   367.508095   323.498112

                             ****ORCA TERMINATED NORMALLY****
TOTAL RUN TIME: 0 days 0 hours 15 minutes 11 seconds 494 msec
