                         Program Version 4.2.0 -  RELEASE  -
|  1> # ORCA input file
|  2> # SCF done        -33.756406504536          0.000911885434
|  3> ! B3LYP/G D3BJ Opt RIJCOSX def2-SVP def2/J
|  4> * xyz 0 1
|  5>    C       -1.25584         1.28595        -0.12339
|  6>    S       -2.45026         0.05801        -0.07658
|  7>    C       -1.26131        -1.21579         0.08782
|  8>    C        0.00606        -0.66626         0.10254
|  9>    C       -0.00754         0.75333        -0.01889
| 10>    C        1.29315         1.41287        -0.01466
| 11>    O        1.55337         2.57458        -0.10431
| 12>    S        2.54319         0.12056         0.15638
| 13>    C        1.34094        -1.23688         0.21804
| 14>    O        1.69503        -2.37346         0.33826
| 15>    C       -1.76811        -2.55922         0.17262
| 16>    C       -1.04441        -3.66932         0.30420
| 17>    H       -1.52953         2.31730        -0.22307
| 18>    H       -2.84832        -2.61990         0.11869
| 19>    H        0.02881        -3.65395         0.36214
| 20>    H       -1.52527        -4.63090         0.35714
| 21> *
| 22>
| 23>                          ****END OF INPUT****
 Total Charge           Charge          ....    0
 Multiplicity           Mult            ....    1
 Number of Electrons    NEL             ....  100
Dispersion correction           -0.041008905
FINAL SINGLE POINT ENERGY     -1253.554572195301
Dispersion correction            ... done
Dispersion correction           -0.040780432
FINAL SINGLE POINT ENERGY     -1253.557339768068
Dispersion correction            ... done
Dispersion correction           -0.040789293
FINAL SINGLE POINT ENERGY     -1253.557550249826
Dispersion correction            ... done
FINAL SINGLE POINT ENERGY     -1253.557501678935
FINAL SINGLE POINT ENERGY     -1253.557576178934
Dispersion correction            ... done
Dispersion correction           -0.040777473
FINAL SINGLE POINT ENERGY     -1253.557581724028
Dispersion correction            ... done
Dispersion correction           -0.040779494
FINAL SINGLE POINT ENERGY     -1253.557588052280
Dispersion correction            ... done
                    ***********************HURRAY********************

CARTESIAN COORDINATES (ANGSTROEM)
---------------------------------
  C     -1.262313    1.306977   -0.137726
  S     -2.452438    0.058583   -0.096198
  C     -1.261213   -1.220914    0.077270
  C      0.010708   -0.654980    0.092214
  C     -0.007001    0.768737   -0.027754
  C      1.312274    1.438401   -0.001913
  O      1.548268    2.611718   -0.081524
  S      2.592812    0.141890    0.183548
  C      1.367820   -1.228132    0.213080
  O      1.703376   -2.379623    0.314569
  C     -1.774678   -2.577511    0.184686
  C     -1.058172   -3.708531    0.303345
  H     -1.538274    2.354788   -0.243873
  H     -2.868042   -2.647653    0.164990
  H      0.032865   -3.699242    0.331096
  H     -1.576032   -4.667587    0.381117

 Multiplicity           Mult            ....    1
 Number of Electrons    NEL             ....  100
 Basis Dimension        Dim             ....  196

ORBITAL ENERGIES
----------------

  NO   OCC          E(Eh)            E(eV)
   0   2.0000     -88.914861     -2419.4964
   1   2.0000     -88.868338     -2418.2304
   2   2.0000     -19.159417      -521.3542
   3   2.0000     -19.155985      -521.2608
   4   2.0000     -10.321671      -280.8670
   5   2.0000     -10.318176      -280.7718
   6   2.0000     -10.266478      -279.3651
   7   2.0000     -10.255580      -279.0685
   8   2.0000     -10.233812      -278.4762
   9   2.0000     -10.233437      -278.4660
  10   2.0000     -10.227291      -278.2987
  11   2.0000     -10.211633      -277.8727
  12   2.0000      -8.009823      -217.9584
  13   2.0000      -7.965587      -216.7547
  14   2.0000      -5.977779      -162.6636
  15   2.0000      -5.973565      -162.5490
  16   2.0000      -5.971526      -162.4935
  17   2.0000      -5.933362      -161.4550
  18   2.0000      -5.930250      -161.3703
  19   2.0000      -5.925842      -161.2504
  20   2.0000      -1.069697       -29.1079
  21   2.0000      -1.065939       -29.0057
  22   2.0000      -0.926395       -25.2085
  23   2.0000      -0.840076       -22.8596
  24   2.0000      -0.810388       -22.0518
  25   2.0000      -0.753435       -20.5020
  26   2.0000      -0.746366       -20.3097
  27   2.0000      -0.662839       -18.0368
  28   2.0000      -0.624809       -17.0019
  29   2.0000      -0.614241       -16.7144
  30   2.0000      -0.568703       -15.4752
  31   2.0000      -0.530141       -14.4259
  32   2.0000      -0.497057       -13.5256
  33   2.0000      -0.485909       -13.2223
  34   2.0000      -0.484024       -13.1709
  35   2.0000      -0.467312       -12.7162
  36   2.0000      -0.456451       -12.4207
  37   2.0000      -0.446775       -12.1574
  38   2.0000      -0.426341       -11.6013
  39   2.0000      -0.421479       -11.4690
  40   2.0000      -0.410153       -11.1608
  41   2.0000      -0.405755       -11.0412
  42   2.0000      -0.392111       -10.6699
  43   2.0000      -0.375733       -10.2242
  44   2.0000      -0.334040        -9.0897
  45   2.0000      -0.301509        -8.2045
  46   2.0000      -0.291600        -7.9348
  47   2.0000      -0.277359        -7.5473
  48   2.0000      -0.276345        -7.5197
  49   2.0000      -0.254718        -6.9312
  50   0.0000      -0.098360        -2.6765
  51   0.0000      -0.083285        -2.2663
  52   0.0000      -0.018773        -0.5108
  53   0.0000      -0.006535        -0.1778
  54   0.0000       0.029187         0.7942

MULLIKEN ATOMIC CHARGES
-----------------------
   0 C :   -0.103624
   1 S :    0.151072
   2 C :   -0.162239
   3 C :    0.093303
   4 C :    0.054081
   5 C :    0.066683
   6 O :   -0.143739
   7 S :   -0.016553
   8 C :    0.058574
   9 O :   -0.155014
  10 C :    0.029858
  11 C :   -0.013671
  12 H :    0.050420
  13 H :   -0.003228
  14 H :    0.062597
  15 H :    0.031480
Sum of atomic charges:    0.0000000

LOEWDIN ATOMIC CHARGES
----------------------
   0 C :   -0.144174
   1 S :    0.481380
   2 C :   -0.125794
   3 C :   -0.115120
   4 C :   -0.110091
   5 C :   -0.042549
   6 O :   -0.125980
   7 S :    0.269275
   8 C :   -0.034701
   9 O :   -0.128733
  10 C :   -0.059453
  11 C :    0.001874
  12 H :    0.041449
  13 H :    0.030166
  14 H :    0.030886
  15 H :    0.031565

  Mayer bond orders larger than 0.100000
B(  0-C ,  1-S ) :   1.1677 B(  0-C ,  4-C ) :   1.5307 B(  0-C , 12-H ) :   0.9676
B(  1-S ,  2-C ) :   1.1608 B(  2-C ,  3-C ) :   1.4683 B(  2-C , 10-C ) :   1.1286
B(  3-C ,  4-C ) :   1.2281 B(  3-C ,  8-C ) :   0.8918 B(  4-C ,  5-C ) :   0.8714
B(  5-C ,  6-O ) :   2.1811 B(  5-C ,  7-S ) :   0.9996 B(  6-O ,  7-S ) :   0.1261
B(  7-S ,  8-C ) :   1.0082 B(  7-S ,  9-O ) :   0.1165 B(  8-C ,  9-O ) :   2.0982
B( 10-C , 11-C ) :   1.9065 B( 10-C , 13-H ) :   0.9436 B( 11-C , 14-H ) :   0.9327
B( 11-C , 15-H ) :   0.9385

Dispersion correction           -0.040774761
FINAL SINGLE POINT ENERGY     -1253.557585168974

DIPOLE MOMENT
-------------
                                X             Y             Z
Electronic contribution:      4.26011       6.49539      -0.35182
Nuclear contribution   :     -5.88735      -6.81402       0.29877
                        -----------------------------------------
Total Dipole Moment    :     -1.62724      -0.31863      -0.05305
                        -----------------------------------------
Magnitude (a.u.)       :      1.65899
Magnitude (Debye)      :      4.21681

Rotational constants in cm-1:     0.035744     0.022984     0.013990
Rotational constants in MHz :  1071.582185   689.055062   419.398884

                             ****ORCA TERMINATED NORMALLY****
TOTAL RUN TIME: 0 days 0 hours 7 minutes 52 seconds 200 msec
