                         Program Version 4.2.0 -  RELEASE  -
|  1> # ORCA input file
|  2> # SCF done        -33.671001481563          0.000710987827
|  3> ! B3LYP/G D3BJ Opt RIJCOSX def2-SVP def2/J
|  4> * xyz 0 1
|  5>    C        1.53102         1.25821        -0.06064
|  6>    S        2.74910         0.09659        -0.39439
|  7>    C        1.59911        -1.17142        -0.29408
|  8>    C        0.34368        -0.72189        -0.01053
|  9>    C        0.30583         0.69636         0.12467
| 10>    C       -0.94773         1.46522         0.40000
| 11>    C       -2.08559         0.90418        -0.42887
| 12>    S       -2.42168        -0.74515         0.25687
| 13>    O       -2.75484        -0.58745         1.64614
| 14>    O       -3.36462        -1.43492        -0.58012
| 15>    C       -0.82588        -1.63236         0.14395
| 16>    H        1.78867         2.29753        -0.01753
| 17>    H        1.91299        -2.18507        -0.44452
| 18>    H       -0.78659         2.52506         0.19176
| 19>    H       -1.22460         1.35922         1.45369
| 20>    H       -1.83382         0.77744        -1.47789
| 21>    H       -3.00289         1.47619        -0.32532
| 22>    H       -0.91963        -2.31320        -0.69984
| 23>    H       -0.76289        -2.20998         1.06562
| 24> *
| 25>
| 26>                          ****END OF INPUT****
 Total Charge           Charge          ....    0
 Multiplicity           Mult            ....    1
 Number of Electrons    NEL             ....   98
Dispersion correction           -0.045432208
FINAL SINGLE POINT ENERGY     -1217.816651369892
Dispersion correction            ... done
Dispersion correction           -0.045078607
FINAL SINGLE POINT ENERGY     -1217.822758099381
Dispersion correction            ... done
Dispersion correction           -0.044942568
FINAL SINGLE POINT ENERGY     -1217.823639623081
Dispersion correction            ... done
FINAL SINGLE POINT ENERGY     -1217.823686096327
FINAL SINGLE POINT ENERGY     -1217.823625737838
FINAL SINGLE POINT ENERGY     -1217.823697415964
FINAL SINGLE POINT ENERGY     -1217.823727828619
FINAL SINGLE POINT ENERGY     -1217.823772916840
FINAL SINGLE POINT ENERGY     -1217.823984170729
FINAL SINGLE POINT ENERGY     -1217.824470286050
FINAL SINGLE POINT ENERGY     -1217.824516472254
FINAL SINGLE POINT ENERGY     -1217.824616521019
FINAL SINGLE POINT ENERGY     -1217.824613191895
Dispersion correction            ... done
Dispersion correction           -0.044983806
FINAL SINGLE POINT ENERGY     -1217.824598524374
Dispersion correction            ... done
Dispersion correction           -0.044980533
FINAL SINGLE POINT ENERGY     -1217.824590646132
Dispersion correction            ... done
                    ***********************HURRAY********************

CARTESIAN COORDINATES (ANGSTROEM)
---------------------------------
  C      1.581922    1.265502   -0.030850
  S      2.808638    0.068854   -0.226912
  C      1.642889   -1.200519   -0.164366
  C      0.362977   -0.722441   -0.001082
  C      0.327426    0.716127    0.089874
  C     -0.932630    1.512250    0.314805
  C     -2.139465    0.878578   -0.365985
  S     -2.429988   -0.783299    0.293010
  O     -2.596149   -0.646982    1.747634
  O     -3.449765   -1.443668   -0.527990
  C     -0.840376   -1.631089    0.014095
  H      1.845535    2.321547    0.001735
  H      1.953466   -2.240034   -0.259456
  H     -0.801744    2.542859   -0.049056
  H     -1.152282    1.573197    1.394346
  H     -2.026713    0.772828   -1.455297
  H     -3.079357    1.406778   -0.145028
  H     -0.961963   -2.184974   -0.927973
  H     -0.812782   -2.350953    0.847465

 Multiplicity           Mult            ....    1
 Number of Electrons    NEL             ....   98
 Basis Dimension        Dim             ....  202

ORBITAL ENERGIES
----------------

  NO   OCC          E(Eh)            E(eV)
   0   2.0000     -89.052796     -2423.2498
   1   2.0000     -88.889162     -2418.7971
   2   2.0000     -19.115427      -520.1572
   3   2.0000     -19.114348      -520.1279
   4   2.0000     -10.235042      -278.5096
   5   2.0000     -10.232747      -278.4472
   6   2.0000     -10.226283      -278.2713
   7   2.0000     -10.224184      -278.2142
   8   2.0000     -10.222274      -278.1622
   9   2.0000     -10.221753      -278.1480
  10   2.0000     -10.216305      -277.9998
  11   2.0000      -8.118898      -220.9264
  12   2.0000      -7.984262      -217.2628
  13   2.0000      -6.086651      -165.6262
  14   2.0000      -6.086280      -165.6161
  15   2.0000      -6.085961      -165.6074
  16   2.0000      -5.952290      -161.9701
  17   2.0000      -5.948148      -161.8573
  18   2.0000      -5.945861      -161.7951
  19   2.0000      -1.090922       -29.6855
  20   2.0000      -0.981363       -26.7042
  21   2.0000      -0.900961       -24.5164
  22   2.0000      -0.829766       -22.5791
  23   2.0000      -0.793001       -21.5786
  24   2.0000      -0.746966       -20.3260
  25   2.0000      -0.714232       -19.4352
  26   2.0000      -0.663269       -18.0485
  27   2.0000      -0.601848       -16.3771
  28   2.0000      -0.583980       -15.8909
  29   2.0000      -0.538920       -14.6648
  30   2.0000      -0.522485       -14.2175
  31   2.0000      -0.498001       -13.5513
  32   2.0000      -0.481735       -13.1087
  33   2.0000      -0.477239       -12.9863
  34   2.0000      -0.448959       -12.2168
  35   2.0000      -0.442845       -12.0504
  36   2.0000      -0.437612       -11.9080
  37   2.0000      -0.422038       -11.4842
  38   2.0000      -0.408289       -11.1101
  39   2.0000      -0.393865       -10.7176
  40   2.0000      -0.387865       -10.5543
  41   2.0000      -0.380604       -10.3568
  42   2.0000      -0.360312        -9.8046
  43   2.0000      -0.322241        -8.7686
  44   2.0000      -0.312320        -8.4987
  45   2.0000      -0.295637        -8.0447
  46   2.0000      -0.282752        -7.6941
  47   2.0000      -0.262724        -7.1491
  48   2.0000      -0.252817        -6.8795
  49   0.0000      -0.037878        -1.0307
  50   0.0000       0.027097         0.7373
  51   0.0000       0.028607         0.7784
  52   0.0000       0.041395         1.1264
  53   0.0000       0.062260         1.6942

MULLIKEN ATOMIC CHARGES
-----------------------
   0 C :   -0.142696
   1 S :    0.120011
   2 C :   -0.130266
   3 C :   -0.039600
   4 C :   -0.039072
   5 C :    0.134729
   6 C :   -0.056745
   7 S :    0.675718
   8 O :   -0.481366
   9 O :   -0.472756
  10 C :    0.071671
  11 H :    0.021154
  12 H :    0.022098
  13 H :    0.012761
  14 H :    0.051284
  15 H :    0.054705
  16 H :    0.065857
  17 H :    0.060884
  18 H :    0.071630
Sum of atomic charges:   -0.0000000

LOEWDIN ATOMIC CHARGES
----------------------
   0 C :   -0.197723
   1 S :    0.447965
   2 C :   -0.193616
   3 C :   -0.087537
   4 C :   -0.070683
   5 C :   -0.034870
   6 C :   -0.141452
   7 S :    1.170309
   8 O :   -0.530240
   9 O :   -0.523812
  10 C :   -0.136403
  11 H :    0.025871
  12 H :    0.026322
  13 H :    0.037749
  14 H :    0.043280
  15 H :    0.032999
  16 H :    0.041829
  17 H :    0.041478
  18 H :    0.048531

  Mayer bond orders larger than 0.100000
B(  0-C ,  1-S ) :   1.1713 B(  0-C ,  4-C ) :   1.5621 B(  0-C , 11-H ) :   0.9639
B(  1-S ,  2-C ) :   1.1802 B(  2-C ,  3-C ) :   1.5661 B(  2-C , 12-H ) :   0.9694
B(  3-C ,  4-C ) :   1.2830 B(  3-C , 10-C ) :   0.9990 B(  4-C ,  5-C ) :   1.0500
B(  5-C ,  6-C ) :   1.0307 B(  5-C , 13-H ) :   0.9134 B(  5-C , 14-H ) :   0.9119
B(  6-C ,  7-S ) :   0.8598 B(  6-C , 15-H ) :   0.9333 B(  6-C , 16-H ) :   0.9265
B(  7-S ,  8-O ) :   1.6366 B(  7-S ,  9-O ) :   1.6764 B(  7-S , 10-C ) :   0.8219
B( 10-C , 17-H ) :   0.9194 B( 10-C , 18-H ) :   0.9074

Dispersion correction           -0.044981232
FINAL SINGLE POINT ENERGY     -1217.824593035880

DIPOLE MOMENT
-------------
                                X             Y             Z
Electronic contribution:      2.66533      -2.73944       0.64014
Nuclear contribution   :     -1.26496       3.49124      -1.30742
                        -----------------------------------------
Total Dipole Moment    :      1.40037       0.75180      -0.66728
                        -----------------------------------------
Magnitude (a.u.)       :      1.72381
Magnitude (Debye)      :      4.38158

Rotational constants in cm-1:     0.071621     0.017784     0.015780
Rotational constants in MHz :  2147.148977   533.154874   473.085789

                             ****ORCA TERMINATED NORMALLY****
TOTAL RUN TIME: 0 days 0 hours 18 minutes 11 seconds 689 msec
