                         Program Version 4.2.0 -  RELEASE  -
|  1> # ORCA input file
|  2> # SCF done        -33.848935639104          0.000589259268
|  3> ! B3LYP/G D3BJ Opt RIJCOSX def2-SVP def2/J
|  4> * xyz 0 1
|  5>    C        3.37527         0.20501        -0.00161
|  6>    C        3.02543        -1.14288         0.00123
|  7>    C        1.70199        -1.53844         0.00160
|  8>    C        0.72110        -0.55570        -0.00011
|  9>    C        1.08993         0.80451        -0.00072
| 10>    C        2.41506         1.20125        -0.00258
| 11>    O        0.00009         1.62048         0.00083
| 12>    C       -1.08861         0.80299         0.00211
| 13>    C       -0.71791        -0.55669         0.00076
| 14>    C       -1.69744        -1.54079        -0.00109
| 15>    C       -3.02141        -1.14705         0.00007
| 16>    C       -3.37313         0.20036         0.00373
| 17>    C       -2.41429         1.19791         0.00467
| 18>    H        4.41948         0.47937        -0.00314
| 19>    H        3.80593        -1.88913         0.00334
| 20>    H        1.43110        -2.58322         0.00413
| 21>    H        2.67992         2.24651        -0.00473
| 22>    H       -1.42511        -2.58519        -0.00427
| 23>    H       -3.80089        -1.89436        -0.00204
| 24>    H       -4.41772         0.47326         0.00589
| 25>    H       -2.68058         2.24282         0.00741
| 26> *
| 27>
| 28>                          ****END OF INPUT****
 Total Charge           Charge          ....    0
 Multiplicity           Mult            ....    1
 Number of Electrons    NEL             ....   88
Dispersion correction           -0.044359260
FINAL SINGLE POINT ENERGY      -536.986949862343
Dispersion correction            ... done
Dispersion correction           -0.044256871
FINAL SINGLE POINT ENERGY      -536.989824149583
Dispersion correction            ... done
Dispersion correction           -0.044231580
FINAL SINGLE POINT ENERGY      -536.989931870755
Dispersion correction            ... done
Dispersion correction           -0.044219979
FINAL SINGLE POINT ENERGY      -536.989954702585
Dispersion correction            ... done
Dispersion correction           -0.044217043
FINAL SINGLE POINT ENERGY      -536.989958807113
Dispersion correction            ... done
                    ***********************HURRAY********************

CARTESIAN COORDINATES (ANGSTROEM)
---------------------------------
  C      3.404390    0.219835   -0.000776
  C      3.062724   -1.144961   -0.000917
  C      1.727556   -1.553152   -0.000399
  C      0.728111   -0.572709    0.000305
  C      1.100293    0.789850    0.000460
  C      2.423714    1.215428   -0.000101
  O      0.000099    1.606029    0.001173
  C     -1.098958    0.788327    0.001488
  C     -0.724897   -0.573711    0.000980
  C     -1.722986   -1.555536    0.001214
  C     -3.058712   -1.149184    0.001942
  C     -3.402261    0.215144    0.002455
  C     -2.422962    1.212087    0.002244
  H      4.457477    0.511638   -0.001225
  H      3.857157   -1.894236   -0.001486
  H      1.465332   -2.613980   -0.000545
  H      2.675615    2.276955    0.000002
  H     -1.459307   -2.615998    0.000817
  H     -3.852104   -1.899561    0.002136
  H     -4.455752    0.505490    0.003050
  H     -2.676318    2.273264    0.002664

 Multiplicity           Mult            ....    1
 Number of Electrons    NEL             ....   88
 Basis Dimension        Dim             ....  222

ORBITAL ENERGIES
----------------

  NO   OCC          E(Eh)            E(eV)
   0   2.0000     -19.196405      -522.3607
   1   2.0000     -10.250223      -278.9227
   2   2.0000     -10.250152      -278.9208
   3   2.0000     -10.201429      -277.5950
   4   2.0000     -10.201282      -277.5910
   5   2.0000     -10.200394      -277.5668
   6   2.0000     -10.200293      -277.5641
   7   2.0000     -10.199575      -277.5445
   8   2.0000     -10.199538      -277.5436
   9   2.0000     -10.199202      -277.5344
  10   2.0000     -10.199185      -277.5339
  11   2.0000     -10.194549      -277.4078
  12   2.0000     -10.194544      -277.4076
  13   2.0000      -1.102294       -29.9950
  14   2.0000      -0.859199       -23.3800
  15   2.0000      -0.852696       -23.2030
  16   2.0000      -0.782937       -21.3048
  17   2.0000      -0.758976       -20.6528
  18   2.0000      -0.733269       -19.9533
  19   2.0000      -0.722862       -19.6701
  20   2.0000      -0.647259       -17.6128
  21   2.0000      -0.624701       -16.9990
  22   2.0000      -0.594064       -16.1653
  23   2.0000      -0.582679       -15.8555
  24   2.0000      -0.533246       -14.5104
  25   2.0000      -0.524133       -14.2624
  26   2.0000      -0.498071       -13.5532
  27   2.0000      -0.467989       -12.7346
  28   2.0000      -0.467389       -12.7183
  29   2.0000      -0.455835       -12.4039
  30   2.0000      -0.443968       -12.0810
  31   2.0000      -0.438059       -11.9202
  32   2.0000      -0.432333       -11.7644
  33   2.0000      -0.404873       -11.0171
  34   2.0000      -0.378515       -10.2999
  35   2.0000      -0.376102       -10.2342
  36   2.0000      -0.368541       -10.0285
  37   2.0000      -0.359212        -9.7747
  38   2.0000      -0.355709        -9.6793
  39   2.0000      -0.341819        -9.3014
  40   2.0000      -0.294914        -8.0250
  41   2.0000      -0.267697        -7.2844
  42   2.0000      -0.234244        -6.3741
  43   2.0000      -0.229997        -6.2585
  44   0.0000      -0.045263        -1.2317
  45   0.0000      -0.009789        -0.2664
  46   0.0000       0.003533         0.0961
  47   0.0000       0.025005         0.6804
  48   0.0000       0.060641         1.6501

MULLIKEN ATOMIC CHARGES
-----------------------
   0 C :    0.014680
   1 C :    0.022721
   2 C :   -0.052829
   3 C :    0.075732
   4 C :    0.184179
   5 C :   -0.054823
   6 O :   -0.237283
   7 C :    0.184098
   8 C :    0.075827
   9 C :   -0.052784
  10 C :    0.022698
  11 C :    0.014618
  12 C :   -0.054737
  13 H :   -0.011196
  14 H :   -0.014022
  15 H :   -0.025615
  16 H :   -0.020198
  17 H :   -0.025663
  18 H :   -0.014017
  19 H :   -0.011152
  20 H :   -0.020233
Sum of atomic charges:   -0.0000000

LOEWDIN ATOMIC CHARGES
----------------------
   0 C :   -0.019157
   1 C :   -0.037713
   2 C :   -0.016749
   3 C :   -0.045845
   4 C :    0.058855
   5 C :   -0.044042
   6 O :   -0.030724
   7 C :    0.058848
   8 C :   -0.045843
   9 C :   -0.016734
  10 C :   -0.037718
  11 C :   -0.019171
  12 C :   -0.044026
  13 H :    0.028779
  14 H :    0.028186
  15 H :    0.028348
  16 H :    0.034698
  17 H :    0.028338
  18 H :    0.028188
  19 H :    0.028789
  20 H :    0.034690

  Mayer bond orders larger than 0.100000
B(  0-C ,  1-C ) :   1.3584 B(  0-C ,  5-C ) :   1.3634 B(  0-C , 13-H ) :   0.9843
B(  1-C ,  2-C ) :   1.3987 B(  1-C , 14-H ) :   0.9814 B(  2-C ,  3-C ) :   1.3251
B(  2-C ,  5-C ) :   0.1005 B(  2-C , 15-H ) :   0.9938 B(  3-C ,  4-C ) :   1.2814
B(  3-C ,  8-C ) :   1.0669 B(  4-C ,  5-C ) :   1.3567 B(  4-C ,  6-O ) :   1.0796
B(  5-C , 16-H ) :   1.0026 B(  6-O ,  7-C ) :   1.0796 B(  7-C ,  8-C ) :   1.2814
B(  7-C , 12-C ) :   1.3567 B(  8-C ,  9-C ) :   1.3251 B(  9-C , 10-C ) :   1.3987
B(  9-C , 12-C ) :   0.1005 B(  9-C , 17-H ) :   0.9938 B( 10-C , 11-C ) :   1.3584
B( 10-C , 18-H ) :   0.9814 B( 11-C , 12-C ) :   1.3634 B( 11-C , 19-H ) :   0.9843
B( 12-C , 20-H ) :   1.0026

Dispersion correction           -0.044216769
FINAL SINGLE POINT ENERGY      -536.989959632499

DIPOLE MOMENT
-------------
                                X             Y             Z
Electronic contribution:     -0.00196       2.82320       0.00069
Nuclear contribution   :      0.00214      -3.07969      -0.00076
                        -----------------------------------------
Total Dipole Moment    :      0.00018      -0.25649      -0.00008
                        -----------------------------------------
Magnitude (a.u.)       :      0.25649
Magnitude (Debye)      :      0.65196

Rotational constants in cm-1:     0.075858     0.019919     0.015776
Rotational constants in MHz :  2274.170735   597.151059   472.961082

                             ****ORCA TERMINATED NORMALLY****
TOTAL RUN TIME: 0 days 0 hours 7 minutes 55 seconds 284 msec
