                         Program Version 4.2.0 -  RELEASE  -
|  1> # ORCA input file
|  2> # SCF done        -29.541093223393          0.000492453773
|  3> ! B3LYP/G D3BJ Opt RIJCOSX def2-SVP def2/J
|  4> * xyz 0 1
|  5>    C        1.52085         1.18480        -0.19796
|  6>    S        2.72271        -0.04549        -0.17880
|  7>    C        1.51378        -1.25599        -0.00299
|  8>    C        0.25948        -0.73502         0.04307
|  9>    C        0.26315         0.68517        -0.07296
| 10>    C       -0.99772         1.49409        -0.09845
| 11>    C       -2.19037         0.67623         0.39983
| 12>    C       -2.22118        -0.71906        -0.24226
| 13>    O       -2.30258        -0.66175        -1.64706
| 14>    C       -0.99996        -1.52529         0.22218
| 15>    H        1.81729         2.20954        -0.30309
| 16>    H        1.80426        -2.28571         0.06053
| 17>    H       -1.18804         1.83192        -1.12303
| 18>    H       -0.87927         2.39116         0.51327
| 19>    H       -3.11532         1.20391         0.16431
| 20>    H       -2.13140         0.55282         1.48251
| 21>    H       -3.13552        -1.23840         0.06573
| 22>    H       -1.47397        -0.29628        -1.97937
| 23>    H       -0.94382        -2.46086        -0.33879
| 24>    H       -1.12312        -1.77874         1.27901
| 25> *
| 26>
| 27>                          ****END OF INPUT****
 Total Charge           Charge          ....    0
 Multiplicity           Mult            ....    1
 Number of Electrons    NEL             ....   82
Dispersion correction           -0.040849681
FINAL SINGLE POINT ENERGY      -783.927356412226
Dispersion correction            ... done
Dispersion correction           -0.040633393
FINAL SINGLE POINT ENERGY      -783.929613283601
Dispersion correction            ... done
Dispersion correction           -0.040598583
FINAL SINGLE POINT ENERGY      -783.929732192657
Dispersion correction            ... done
FINAL SINGLE POINT ENERGY      -783.929728994119
FINAL SINGLE POINT ENERGY      -783.929685794282
FINAL SINGLE POINT ENERGY      -783.929577952691
FINAL SINGLE POINT ENERGY      -783.929575182498
Dispersion correction            ... done
Dispersion correction           -0.040754889
FINAL SINGLE POINT ENERGY      -783.929676832068
Dispersion correction            ... done
Dispersion correction           -0.040756493
FINAL SINGLE POINT ENERGY      -783.929675911760
Dispersion correction            ... done
                    ***********************HURRAY********************

CARTESIAN COORDINATES (ANGSTROEM)
---------------------------------
  C      1.537112    1.194650   -0.217404
  S      2.725092   -0.057998   -0.305374
  C      1.520548   -1.279000   -0.099842
  C      0.261900   -0.744467    0.042604
  C      0.267675    0.695506   -0.039713
  C     -1.006806    1.509625   -0.029018
  C     -2.237677    0.684814    0.381274
  C     -2.214797   -0.717243   -0.245669
  O     -2.200763   -0.651596   -1.661874
  C     -1.013521   -1.515101    0.277181
  H      1.834988    2.237382   -0.320345
  H      1.803812   -2.330374   -0.074987
  H     -1.173977    1.909430   -1.044130
  H     -0.897923    2.389840    0.623903
  H     -3.151801    1.208565    0.061921
  H     -2.286646    0.580088    1.478838
  H     -3.143590   -1.246597    0.022647
  H     -1.299275   -0.438432   -1.940335
  H     -0.976264   -2.495513   -0.220711
  H     -1.148839   -1.706529    1.356712

 Multiplicity           Mult            ....    1
 Number of Electrons    NEL             ....   82
 Basis Dimension        Dim             ....  194

ORBITAL ENERGIES
----------------

  NO   OCC          E(Eh)            E(eV)
   0   2.0000     -88.872331     -2418.3391
   1   2.0000     -19.123995      -520.3904
   2   2.0000     -10.234165      -278.4858
   3   2.0000     -10.208220      -277.7798
   4   2.0000     -10.207458      -277.7590
   5   2.0000     -10.196026      -277.4480
   6   2.0000     -10.195729      -277.4399
   7   2.0000     -10.195473      -277.4329
   8   2.0000     -10.192534      -277.3529
   9   2.0000     -10.185417      -277.1593
  10   2.0000      -7.967402      -216.8040
  11   2.0000      -5.935456      -161.5120
  12   2.0000      -5.931327      -161.3996
  13   2.0000      -5.928974      -161.3356
  14   2.0000      -1.006470       -27.3874
  15   2.0000      -0.880672       -23.9643
  16   2.0000      -0.803517       -21.8648
  17   2.0000      -0.759169       -20.6580
  18   2.0000      -0.725717       -19.7478
  19   2.0000      -0.691617       -18.8199
  20   2.0000      -0.632728       -17.2174
  21   2.0000      -0.587992       -16.0001
  22   2.0000      -0.569533       -15.4978
  23   2.0000      -0.520813       -14.1721
  24   2.0000      -0.503421       -13.6988
  25   2.0000      -0.469210       -12.7678
  26   2.0000      -0.460777       -12.5384
  27   2.0000      -0.448188       -12.1958
  28   2.0000      -0.426853       -11.6152
  29   2.0000      -0.406942       -11.0734
  30   2.0000      -0.404412       -11.0046
  31   2.0000      -0.402114       -10.9421
  32   2.0000      -0.379692       -10.3319
  33   2.0000      -0.358192        -9.7469
  34   2.0000      -0.352828        -9.6009
  35   2.0000      -0.342654        -9.3241
  36   2.0000      -0.334195        -9.0939
  37   2.0000      -0.315683        -8.5902
  38   2.0000      -0.268153        -7.2968
  39   2.0000      -0.243513        -6.6263
  40   2.0000      -0.235132        -6.3983
  41   0.0000      -0.021723        -0.5911
  42   0.0000       0.039607         1.0778
  43   0.0000       0.049496         1.3468
  44   0.0000       0.057830         1.5736
  45   0.0000       0.075026         2.0416

MULLIKEN ATOMIC CHARGES
-----------------------
   0 C :   -0.137637
   1 S :    0.098276
   2 C :   -0.136028
   3 C :   -0.099193
   4 C :   -0.054484
   5 C :    0.104340
   6 C :    0.060081
   7 C :    0.094177
   8 O :   -0.310439
   9 C :    0.178733
  10 H :    0.010886
  11 H :    0.012589
  12 H :    0.013335
  13 H :    0.006623
  14 H :   -0.002300
  15 H :   -0.001373
  16 H :   -0.013430
  17 H :    0.168212
  18 H :   -0.003307
  19 H :    0.010939
Sum of atomic charges:    0.0000000

LOEWDIN ATOMIC CHARGES
----------------------
   0 C :   -0.202578
   1 S :    0.428225
   2 C :   -0.203404
   3 C :   -0.080640
   4 C :   -0.075567
   5 C :   -0.028335
   6 C :   -0.040353
   7 C :    0.065232
   8 O :   -0.133553
   9 C :   -0.033601
  10 H :    0.021661
  11 H :    0.022475
  12 H :    0.030180
  13 H :    0.031895
  14 H :    0.025324
  15 H :    0.022105
  16 H :    0.018080
  17 H :    0.070436
  18 H :    0.028835
  19 H :    0.033582

  Mayer bond orders larger than 0.100000
B(  0-C ,  1-S ) :   1.1656 B(  0-C ,  4-C ) :   1.5525 B(  0-C , 10-H ) :   0.9660
B(  1-S ,  2-C ) :   1.1661 B(  2-C ,  3-C ) :   1.5451 B(  2-C , 11-H ) :   0.9644
B(  3-C ,  4-C ) :   1.2883 B(  3-C ,  9-C ) :   1.0168 B(  4-C ,  5-C ) :   1.0388
B(  5-C ,  6-C ) :   1.0741 B(  5-C , 12-H ) :   0.9199 B(  5-C , 13-H ) :   0.9191
B(  6-C ,  7-C ) :   1.0287 B(  6-C , 14-H ) :   0.9241 B(  6-C , 15-H ) :   0.9312
B(  7-C ,  8-O ) :   1.0327 B(  7-C ,  9-C ) :   1.0582 B(  7-C , 16-H ) :   0.9204
B(  8-O , 17-H ) :   0.9773 B(  9-C , 18-H ) :   0.9112 B(  9-C , 19-H ) :   0.9080

Dispersion correction           -0.040757717
FINAL SINGLE POINT ENERGY      -783.929671592986

DIPOLE MOMENT
-------------
                                X             Y             Z
Electronic contribution:     10.51705      -0.82114      -1.69497
Nuclear contribution   :    -10.32919       0.95768       2.09369
                        -----------------------------------------
Total Dipole Moment    :      0.18786       0.13654       0.39872
                        -----------------------------------------
Magnitude (a.u.)       :      0.46142
Magnitude (Debye)      :      1.17284

Rotational constants in cm-1:     0.082034     0.027767     0.023716
Rotational constants in MHz :  2459.331905   832.427746   710.990852

                             ****ORCA TERMINATED NORMALLY****
TOTAL RUN TIME: 0 days 0 hours 11 minutes 6 seconds 674 msec
