                         Program Version 4.2.0 -  RELEASE  -
|  1> # ORCA input file
|  2> # SCF done        -41.409534103983          0.000386040388
|  3> ! B3LYP/G D3BJ Opt RIJCOSX def2-SVP def2/J
|  4> * xyz 0 1
|  5>    C        1.61175         1.24261         0.01747
|  6>    S        2.82638         0.06654         0.33475
|  7>    C        1.63374        -1.16529         0.46605
|  8>    C        0.37503        -0.68948         0.27640
|  9>    C        0.36183         0.70994         0.01228
| 10>    C       -0.90146         1.45394        -0.28117
| 11>    C       -2.11393         0.70230         0.26982
| 12>    C       -2.07662        -0.76191        -0.23906
| 13>    O       -2.04307        -0.69592        -1.65036
| 14>    C       -2.39582        -1.88231        -2.31197
| 15>    C       -0.87718        -1.50481         0.36791
| 16>    N       -2.13757         0.79978         1.70670
| 17>    C       -3.23569         0.38247         2.42277
| 18>    C       -3.21399        -0.02475         3.68686
| 19>    H        1.89698         2.26148        -0.15300
| 20>    H        1.93620        -2.17121         0.68015
| 21>    H       -1.01884         1.53861        -1.36394
| 22>    H       -0.86535         2.45876         0.14329
| 23>    H       -3.02978         1.16597        -0.11554
| 24>    H       -3.00071        -1.27479         0.08095
| 25>    H       -2.43938        -1.63648        -3.37129
| 26>    H       -3.37708        -2.24491        -1.98077
| 27>    H       -1.65725        -2.67782        -2.16235
| 28>    H       -0.73725        -2.46459        -0.13369
| 29>    H       -1.10316        -1.72243         1.41682
| 30>    H       -1.24959         0.60803         2.15059
| 31>    H       -4.16857         0.47071         1.88115
| 32>    H       -2.29265        -0.11145         4.23745
| 33>    H       -4.11931        -0.25410         4.21541
| 34> *
| 35>
| 36>                          ****END OF INPUT****
 Total Charge           Charge          ....    0
 Multiplicity           Mult            ....    1
 Number of Electrons    NEL             ....  112
Dispersion correction           -0.059968885
FINAL SINGLE POINT ENERGY      -955.868016380929
Dispersion correction            ... done
Dispersion correction           -0.059549416
FINAL SINGLE POINT ENERGY      -955.871467812318
Dispersion correction            ... done
Dispersion correction           -0.059470485
FINAL SINGLE POINT ENERGY      -955.871638711372
Dispersion correction            ... done
FINAL SINGLE POINT ENERGY      -955.871590575034
FINAL SINGLE POINT ENERGY      -955.871630565630
FINAL SINGLE POINT ENERGY      -955.871642430803
FINAL SINGLE POINT ENERGY      -955.871628009567
Dispersion correction            ... done
Dispersion correction           -0.059428641
FINAL SINGLE POINT ENERGY      -955.871622474127
Dispersion correction            ... done
Dispersion correction           -0.059425544
FINAL SINGLE POINT ENERGY      -955.871622028024
Dispersion correction            ... done
                    ***********************HURRAY********************

CARTESIAN COORDINATES (ANGSTROEM)
---------------------------------
  C      1.653627    1.247776    0.046544
  S      2.870961    0.037944    0.257931
  C      1.679191   -1.213643    0.331295
  C      0.403025   -0.719120    0.205966
  C      0.389781    0.709408    0.017420
  C     -0.889075    1.456980   -0.260689
  C     -2.107692    0.705686    0.284708
  C     -2.088565   -0.757331   -0.214528
  O     -2.111634   -0.687708   -1.626909
  C     -2.354500   -1.898504   -2.293736
  C     -0.871423   -1.512889    0.337612
  N     -2.151443    0.804158    1.730336
  C     -3.269583    0.420633    2.441906
  C     -3.312879    0.009531    3.721611
  H      1.935720    2.291678   -0.082565
  H      1.980442   -2.247823    0.492890
  H     -1.015441    1.554062   -1.349946
  H     -0.861363    2.469631    0.168033
  H     -3.021370    1.171772   -0.119494
  H     -3.005785   -1.267295    0.144133
  H     -2.600176   -1.659760   -3.339076
  H     -3.209337   -2.445428   -1.847367
  H     -1.477048   -2.572815   -2.288601
  H     -0.778822   -2.494814   -0.150018
  H     -1.067084   -1.727707    1.402404
  H     -1.259361    0.686455    2.201352
  H     -4.199918    0.522937    1.868929
  H     -2.404080   -0.108796    4.319455
  H     -4.268510   -0.196125    4.204084

 Multiplicity           Mult            ....    1
 Number of Electrons    NEL             ....  112
 Basis Dimension        Dim             ....  275

ORBITAL ENERGIES
----------------

  NO   OCC          E(Eh)            E(eV)
   0   2.0000     -88.869079     -2418.2506
   1   2.0000     -19.139058      -520.8002
   2   2.0000     -14.332716      -390.0130
   3   2.0000     -10.239190      -278.6225
   4   2.0000     -10.237016      -278.5634
   5   2.0000     -10.224569      -278.2247
   6   2.0000     -10.214536      -277.9516
   7   2.0000     -10.205231      -277.6984
   8   2.0000     -10.204566      -277.6804
   9   2.0000     -10.194788      -277.4143
  10   2.0000     -10.193475      -277.3785
  11   2.0000     -10.192515      -277.3524
  12   2.0000     -10.190567      -277.2994
  13   2.0000     -10.157859      -276.4094
  14   2.0000      -7.964111      -216.7145
  15   2.0000      -5.932187      -161.4230
  16   2.0000      -5.928088      -161.3115
  17   2.0000      -5.925624      -161.2444
  18   2.0000      -1.032879       -28.1061
  19   2.0000      -0.925489       -25.1838
  20   2.0000      -0.876968       -23.8635
  21   2.0000      -0.804728       -21.8978
  22   2.0000      -0.762549       -20.7500
  23   2.0000      -0.737198       -20.0602
  24   2.0000      -0.717139       -19.5144
  25   2.0000      -0.687857       -18.7175
  26   2.0000      -0.672846       -18.3091
  27   2.0000      -0.626932       -17.0597
  28   2.0000      -0.587509       -15.9869
  29   2.0000      -0.581190       -15.8150
  30   2.0000      -0.566875       -15.4255
  31   2.0000      -0.526613       -14.3299
  32   2.0000      -0.506880       -13.7929
  33   2.0000      -0.493218       -13.4212
  34   2.0000      -0.484558       -13.1855
  35   2.0000      -0.470880       -12.8133
  36   2.0000      -0.463175       -12.6036
  37   2.0000      -0.442278       -12.0350
  38   2.0000      -0.425574       -11.5804
  39   2.0000      -0.418093       -11.3769
  40   2.0000      -0.414247       -11.2722
  41   2.0000      -0.411599       -11.2002
  42   2.0000      -0.401523       -10.9260
  43   2.0000      -0.398892       -10.8544
  44   2.0000      -0.384584       -10.4651
  45   2.0000      -0.363192        -9.8830
  46   2.0000      -0.358460        -9.7542
  47   2.0000      -0.355383        -9.6705
  48   2.0000      -0.342250        -9.3131
  49   2.0000      -0.336934        -9.1684
  50   2.0000      -0.327560        -8.9134
  51   2.0000      -0.304570        -8.2878
  52   2.0000      -0.264562        -7.1991
  53   2.0000      -0.241121        -6.5612
  54   2.0000      -0.232565        -6.3284
  55   2.0000      -0.198086        -5.3902
  56   0.0000      -0.017842        -0.4855
  57   0.0000       0.036815         1.0018
  58   0.0000       0.047171         1.2836
  59   0.0000       0.050680         1.3791
  60   0.0000       0.052160         1.4193

MULLIKEN ATOMIC CHARGES
-----------------------
   0 C :   -0.143036
   1 S :    0.093494
   2 C :   -0.142117
   3 C :   -0.037918
   4 C :   -0.083638
   5 C :    0.221665
   6 C :    0.009650
   7 C :    0.156826
   8 O :   -0.384720
   9 C :    0.192865
  10 C :    0.155350
  11 N :   -0.162491
  12 C :    0.042338
  13 C :   -0.084860
  14 H :    0.010778
  15 H :    0.008534
  16 H :    0.028469
  17 H :   -0.004778
  18 H :   -0.008628
  19 H :   -0.021221
  20 H :    0.023896
  21 H :   -0.006664
  22 H :    0.012748
  23 H :   -0.009898
  24 H :    0.017939
  25 H :    0.112317
  26 H :    0.000290
  27 H :   -0.005006
  28 H :    0.007818
Sum of atomic charges:   -0.0000000

LOEWDIN ATOMIC CHARGES
----------------------
   0 C :   -0.203628
   1 S :    0.423339
   2 C :   -0.203783
   3 C :   -0.069150
   4 C :   -0.070711
   5 C :   -0.018758
   6 C :    0.027563
   7 C :    0.061440
   8 O :   -0.167663
   9 C :    0.070178
  10 C :   -0.035992
  11 N :   -0.030948
  12 C :    0.013806
  13 C :   -0.159798
  14 H :    0.021862
  15 H :    0.020786
  16 H :    0.040725
  17 H :    0.028101
  18 H :    0.022786
  19 H :    0.005265
  20 H :    0.021966
  21 H :    0.003866
  22 H :    0.004870
  23 H :    0.028709
  24 H :    0.036608
  25 H :    0.070891
  26 H :    0.022000
  27 H :    0.013696
  28 H :    0.021973

  Mayer bond orders larger than 0.100000
B(  0-C ,  1-S ) :   1.1597 B(  0-C ,  4-C ) :   1.5501 B(  0-C , 14-H ) :   0.9634
B(  1-S ,  2-C ) :   1.1613 B(  2-C ,  3-C ) :   1.5520 B(  2-C , 15-H ) :   0.9636
B(  3-C ,  4-C ) :   1.2904 B(  3-C , 10-C ) :   1.0182 B(  4-C ,  5-C ) :   1.0297
B(  5-C ,  6-C ) :   1.0512 B(  5-C , 16-H ) :   0.8987 B(  5-C , 17-H ) :   0.9138
B(  6-C ,  7-C ) :   0.9865 B(  6-C , 11-N ) :   1.0270 B(  6-C , 18-H ) :   0.9050
B(  7-C ,  8-O ) :   1.0091 B(  7-C , 10-C ) :   1.0326 B(  7-C , 19-H ) :   0.9129
B(  8-O ,  9-C ) :   0.9954 B(  9-C , 20-H ) :   0.9777 B(  9-C , 21-H ) :   0.9587
B(  9-C , 22-H ) :   0.9647 B( 10-C , 23-H ) :   0.9037 B( 10-C , 24-H ) :   0.9070
B( 11-N , 12-C ) :   1.1619 B( 11-N , 25-H ) :   0.9324 B( 12-C , 13-C ) :   1.8788
B( 12-C , 26-H ) :   0.9541 B( 13-C , 27-H ) :   0.9537 B( 13-C , 28-H ) :   0.9458

Dispersion correction           -0.059422676
FINAL SINGLE POINT ENERGY      -955.871623979613

DIPOLE MOMENT
-------------
                                X             Y             Z
Electronic contribution:     15.23039       3.62933      -1.13109
Nuclear contribution   :    -15.30606      -4.09759       0.71128
                        -----------------------------------------
Total Dipole Moment    :     -0.07567      -0.46826      -0.41981
                        -----------------------------------------
Magnitude (a.u.)       :      0.63344
Magnitude (Debye)      :      1.61007

Rotational constants in cm-1:     0.026690     0.014865     0.011753
Rotational constants in MHz :   800.159158   445.630137   352.350692

                             ****ORCA TERMINATED NORMALLY****
TOTAL RUN TIME: 0 days 0 hours 22 minutes 52 seconds 47 msec
