                         Program Version 4.2.0 -  RELEASE  -
|  1> # ORCA input file
|  2> # SCF done        -27.716931500382          0.000246851604
|  3> ! B3LYP/G D3BJ Opt RIJCOSX def2-SVP def2/J
|  4> * xyz 0 1
|  5>    C       -1.26131        -0.12013         0.00243
|  6>    S       -0.45472         1.39688        -0.12660
|  7>    C        1.06378         0.65333        -0.15392
|  8>    C        0.96621        -0.71685        -0.06686
|  9>    N        2.10445        -1.54401        -0.03378
| 10>    O        3.19524        -1.01374        -0.12271
| 11>    O        1.94140        -2.75017         0.09612
| 12>    C       -0.39422        -1.18150         0.01840
| 13>    N       -0.73796        -2.49186         0.04460
| 14>    H       -2.33001        -0.15048         0.05120
| 15>    H        1.97028         1.22061        -0.22438
| 16>    H        0.00841        -3.15463         0.19851
| 17>    H       -1.67799        -2.74323         0.28985
| 18> *
| 19>
| 20>                          ****END OF INPUT****
 Total Charge           Charge          ....    0
 Multiplicity           Mult            ....    1
 Number of Electrons    NEL             ....   74
Dispersion correction           -0.025688867
FINAL SINGLE POINT ENERGY      -812.473101558054
Dispersion correction            ... done
Dispersion correction           -0.025570764
FINAL SINGLE POINT ENERGY      -812.475001209553
Dispersion correction            ... done
Dispersion correction           -0.025538481
FINAL SINGLE POINT ENERGY      -812.473904870009
Dispersion correction            ... done
FINAL SINGLE POINT ENERGY      -812.475237345325
FINAL SINGLE POINT ENERGY      -812.475255311340
FINAL SINGLE POINT ENERGY      -812.475209003485
FINAL SINGLE POINT ENERGY      -812.475174737846
Dispersion correction            ... done
Dispersion correction           -0.025565629
FINAL SINGLE POINT ENERGY      -812.475186720164
Dispersion correction            ... done
Dispersion correction           -0.025566763
FINAL SINGLE POINT ENERGY      -812.475170618347
Dispersion correction            ... done
                    ***********************HURRAY********************

CARTESIAN COORDINATES (ANGSTROEM)
---------------------------------
  C     -1.279531   -0.114803    0.000811
  S     -0.461865    1.409851   -0.099195
  C      1.071372    0.668363   -0.142621
  C      0.958035   -0.705302   -0.079490
  N      2.130447   -1.546563   -0.037711
  O      3.223210   -1.026037   -0.195721
  O      1.963516   -2.749537    0.169370
  C     -0.406689   -1.189801   -0.007849
  N     -0.754535   -2.514903   -0.014375
  H     -2.366212   -0.150663    0.038357
  H      2.000988    1.228466   -0.198821
  H     -0.003694   -3.153857    0.225683
  H     -1.681481   -2.750993    0.314423

 Multiplicity           Mult            ....    1
 Number of Electrons    NEL             ....   74
 Basis Dimension        Dim             ....  150

ORBITAL ENERGIES
----------------

  NO   OCC          E(Eh)            E(eV)
   0   2.0000     -88.900725     -2419.1117
   1   2.0000     -19.163840      -521.4746
   2   2.0000     -19.162022      -521.4251
   3   2.0000     -14.563678      -396.2978
   4   2.0000     -14.346932      -390.3999
   5   2.0000     -10.259113      -279.1647
   6   2.0000     -10.250490      -278.9300
   7   2.0000     -10.242114      -278.7021
   8   2.0000     -10.216962      -278.0177
   9   2.0000      -7.995448      -217.5672
  10   2.0000      -5.963438      -162.2734
  11   2.0000      -5.959377      -162.1629
  12   2.0000      -5.957048      -162.0995
  13   2.0000      -1.222655       -33.2701
  14   2.0000      -1.047522       -28.5045
  15   2.0000      -0.938137       -25.5280
  16   2.0000      -0.886442       -24.1213
  17   2.0000      -0.806328       -21.9413
  18   2.0000      -0.730587       -19.8803
  19   2.0000      -0.679950       -18.5024
  20   2.0000      -0.603711       -16.4278
  21   2.0000      -0.574923       -15.6444
  22   2.0000      -0.556894       -15.1539
  23   2.0000      -0.542983       -14.7753
  24   2.0000      -0.517453       -14.0806
  25   2.0000      -0.506929       -13.7942
  26   2.0000      -0.480659       -13.0794
  27   2.0000      -0.434302       -11.8180
  28   2.0000      -0.427086       -11.6216
  29   2.0000      -0.416576       -11.3356
  30   2.0000      -0.377678       -10.2771
  31   2.0000      -0.342296        -9.3144
  32   2.0000      -0.313766        -8.5380
  33   2.0000      -0.313036        -8.5181
  34   2.0000      -0.297921        -8.1068
  35   2.0000      -0.274816        -7.4781
  36   2.0000      -0.221663        -6.0318
  37   0.0000      -0.089609        -2.4384
  38   0.0000      -0.018327        -0.4987
  39   0.0000       0.028531         0.7764
  40   0.0000       0.051545         1.4026
  41   0.0000       0.070558         1.9200

MULLIKEN ATOMIC CHARGES
-----------------------
   0 C :   -0.216759
   1 S :    0.147044
   2 C :   -0.106228
   3 C :    0.114682
   4 N :    0.261016
   5 O :   -0.249020
   6 O :   -0.278938
   7 C :    0.068324
   8 N :   -0.036871
   9 H :    0.011960
  10 H :    0.042256
  11 H :    0.128424
  12 H :    0.114110
Sum of atomic charges:   -0.0000000

LOEWDIN ATOMIC CHARGES
----------------------
   0 C :   -0.262226
   1 S :    0.481258
   2 C :   -0.165742
   3 C :   -0.089829
   4 N :    0.282982
   5 O :   -0.208666
   6 O :   -0.225825
   7 C :   -0.000353
   8 N :   -0.016051
   9 H :    0.022968
  10 H :    0.040195
  11 H :    0.064771
  12 H :    0.076518

  Mayer bond orders larger than 0.100000
B(  0-C ,  1-S ) :   1.1190 B(  0-C ,  7-C ) :   1.4493 B(  0-C ,  9-H ) :   0.9711
B(  1-S ,  2-C ) :   1.2473 B(  2-C ,  3-C ) :   1.4603 B(  2-C , 10-H ) :   0.9554
B(  3-C ,  4-N ) :   0.9334 B(  3-C ,  7-C ) :   1.2053 B(  4-N ,  5-O ) :   1.5321
B(  4-N ,  6-O ) :   1.4538 B(  5-O ,  6-O ) :   0.2627 B(  7-C ,  8-N ) :   1.3075
B(  8-N , 11-H ) :   0.9108 B(  8-N , 12-H ) :   0.9375

Dispersion correction           -0.025567122
FINAL SINGLE POINT ENERGY      -812.475169713364

DIPOLE MOMENT
-------------
                                X             Y             Z
Electronic contribution:      2.70460       2.61994      -0.26272
Nuclear contribution   :     -4.16329      -2.21707       0.53336
                        -----------------------------------------
Total Dipole Moment    :     -1.45870       0.40287       0.27064
                        -----------------------------------------
Magnitude (a.u.)       :      1.53732
Magnitude (Debye)      :      3.90755

Rotational constants in cm-1:     0.082002     0.040361     0.027110
Rotational constants in MHz :  2458.358598  1209.991395   812.741177

                             ****ORCA TERMINATED NORMALLY****
TOTAL RUN TIME: 0 days 0 hours 6 minutes 15 seconds 86 msec
