                         Program Version 4.2.0 -  RELEASE  -
|  1> # ORCA input file
|  2> # SCF done        -37.085822176351          0.000488069497
|  3> ! B3LYP/G D3BJ Opt RIJCOSX def2-SVP def2/J
|  4> * xyz 0 1
|  5>    C       -1.33330        -1.40839        -0.07564
|  6>    S       -2.48955        -0.13836        -0.01967
|  7>    C       -1.28156         1.10412         0.07732
|  8>    C       -0.01449         0.53090         0.06084
|  9>    C       -0.07250        -0.90375        -0.02623
| 10>    S        1.50084        -1.64784        -0.05267
| 11>    C        2.20504        -0.05091         0.04631
| 12>    N        3.61017         0.03268         0.06177
| 13>    O        4.10862         1.13925         0.13714
| 14>    O        4.22290        -1.01584        -0.00164
| 15>    C        1.32199         0.98801         0.09812
| 16>    C       -1.72132         2.46711         0.15673
| 17>    C       -0.95153         3.54465         0.30658
| 18>    H       -1.65169        -2.42817        -0.14099
| 19>    H        1.64721         2.00970         0.15407
| 20>    H       -2.79589         2.58693         0.09172
| 21>    H        0.11815         3.49014         0.39047
| 22>    H       -1.38617         4.52725         0.35558
| 23> *
| 24>
| 25>                          ****END OF INPUT****
 Total Charge           Charge          ....    0
 Multiplicity           Mult            ....    1
 Number of Electrons    NEL             ....  108
Dispersion correction           -0.044874006
FINAL SINGLE POINT ENERGY     -1308.745226817882
Dispersion correction            ... done
Dispersion correction           -0.044639830
FINAL SINGLE POINT ENERGY     -1308.748390964366
Dispersion correction            ... done
Dispersion correction           -0.044594505
FINAL SINGLE POINT ENERGY     -1308.748569451084
Dispersion correction            ... done
FINAL SINGLE POINT ENERGY     -1308.748579343953
FINAL SINGLE POINT ENERGY     -1308.748518690073
FINAL SINGLE POINT ENERGY     -1308.748593570905
Dispersion correction            ... done
Dispersion correction           -0.044588761
FINAL SINGLE POINT ENERGY     -1308.748606520266
Dispersion correction            ... done
Dispersion correction           -0.044586834
FINAL SINGLE POINT ENERGY     -1308.748612430426
Dispersion correction            ... done
                    ***********************HURRAY********************

CARTESIAN COORDINATES (ANGSTROEM)
---------------------------------
  C     -1.363348   -1.434594   -0.085531
  S     -2.506446   -0.142275   -0.016552
  C     -1.290823    1.098530    0.086637
  C     -0.021194    0.508617    0.065979
  C     -0.085121   -0.932854   -0.034356
  S      1.505500   -1.679270   -0.070307
  C      2.209090   -0.073368    0.057173
  N      3.647186    0.045031    0.072514
  O      4.122592    1.160682    0.219599
  O      4.281618   -0.993447   -0.064610
  C      1.333565    0.971805    0.118818
  C     -1.728458    2.478834    0.180705
  C     -0.955336    3.574951    0.267123
  H     -1.696787   -2.466642   -0.166726
  H      1.677215    1.999768    0.197060
  H     -2.815623    2.615830    0.179032
  H      0.135095    3.531300    0.277861
  H     -1.411806    4.564580    0.335390

 Multiplicity           Mult            ....    1
 Number of Electrons    NEL             ....  108
 Basis Dimension        Dim             ....  215

ORBITAL ENERGIES
----------------

  NO   OCC          E(Eh)            E(eV)
   0   2.0000     -88.905700     -2419.2471
   1   2.0000     -88.898096     -2419.0402
   2   2.0000     -19.167710      -521.5799
   3   2.0000     -19.167099      -521.5633
   4   2.0000     -14.569500      -396.4562
   5   2.0000     -10.274979      -279.5964
   6   2.0000     -10.249434      -278.9013
   7   2.0000     -10.246056      -278.8094
   8   2.0000     -10.240622      -278.6615
   9   2.0000     -10.237586      -278.5789
  10   2.0000     -10.230879      -278.3964
  11   2.0000     -10.225395      -278.2471
  12   2.0000     -10.210727      -277.8480
  13   2.0000      -8.000310      -217.6995
  14   2.0000      -7.992667      -217.4915
  15   2.0000      -5.968233      -162.4039
  16   2.0000      -5.964196      -162.2940
  17   2.0000      -5.962038      -162.2353
  18   2.0000      -5.961483      -162.2202
  19   2.0000      -5.957499      -162.1118
  20   2.0000      -5.952273      -161.9696
  21   2.0000      -1.228806       -33.4375
  22   2.0000      -1.055447       -28.7202
  23   2.0000      -0.931593       -25.3499
  24   2.0000      -0.881877       -23.9971
  25   2.0000      -0.812068       -22.0975
  26   2.0000      -0.789077       -21.4719
  27   2.0000      -0.770976       -20.9793
  28   2.0000      -0.717699       -19.5296
  29   2.0000      -0.699293       -19.0287
  30   2.0000      -0.624868       -17.0035
  31   2.0000      -0.586108       -15.9488
  32   2.0000      -0.570748       -15.5308
  33   2.0000      -0.554215       -15.0809
  34   2.0000      -0.549178       -14.9439
  35   2.0000      -0.528014       -14.3680
  36   2.0000      -0.511646       -13.9226
  37   2.0000      -0.501677       -13.6513
  38   2.0000      -0.481611       -13.1053
  39   2.0000      -0.460693       -12.5361
  40   2.0000      -0.439351       -11.9553
  41   2.0000      -0.429306       -11.6820
  42   2.0000      -0.413900       -11.2628
  43   2.0000      -0.389745       -10.6055
  44   2.0000      -0.381501       -10.3812
  45   2.0000      -0.372386       -10.1331
  46   2.0000      -0.365449        -9.9444
  47   2.0000      -0.335077        -9.1179
  48   2.0000      -0.317994        -8.6531
  49   2.0000      -0.317086        -8.6283
  50   2.0000      -0.301246        -8.1973
  51   2.0000      -0.289293        -7.8721
  52   2.0000      -0.270791        -7.3686
  53   2.0000      -0.225353        -6.1322
  54   0.0000      -0.110811        -3.0153
  55   0.0000      -0.057930        -1.5763
  56   0.0000       0.000170         0.0046
  57   0.0000       0.001183         0.0322
  58   0.0000       0.007199         0.1959

MULLIKEN ATOMIC CHARGES
-----------------------
   0 C :   -0.147168
   1 S :    0.145900
   2 C :   -0.154310
   3 C :    0.108792
   4 C :   -0.012374
   5 S :    0.170461
   6 C :    0.004870
   7 N :    0.250628
   8 O :   -0.245051
   9 O :   -0.250992
  10 C :    0.017363
  11 C :    0.049829
  12 C :   -0.034882
  13 H :    0.033373
  14 H :    0.012160
  15 H :   -0.004397
  16 H :    0.022843
  17 H :    0.032954
Sum of atomic charges:   -0.0000000

LOEWDIN ATOMIC CHARGES
----------------------
   0 C :   -0.214473
   1 S :    0.481565
   2 C :   -0.171832
   3 C :   -0.073901
   4 C :   -0.181495
   5 S :    0.417082
   6 C :   -0.167830
   7 N :    0.265141
   8 O :   -0.209585
   9 O :   -0.214848
  10 C :   -0.012740
  11 C :   -0.044176
  12 C :   -0.036603
  13 H :    0.032133
  14 H :    0.043553
  15 H :    0.032117
  16 H :    0.023918
  17 H :    0.031972

  Mayer bond orders larger than 0.100000
B(  0-C ,  1-S ) :   1.1614 B(  0-C ,  4-C ) :   1.5260 B(  0-C , 13-H ) :   0.9713
B(  1-S ,  2-C ) :   1.1668 B(  2-C ,  3-C ) :   1.3766 B(  2-C , 11-C ) :   1.1349
B(  3-C ,  4-C ) :   1.2216 B(  3-C , 10-C ) :   1.1420 B(  4-C ,  5-S ) :   1.0178
B(  5-S ,  6-C ) :   1.0792 B(  6-C ,  7-N ) :   0.9231 B(  6-C , 10-C ) :   1.5438
B(  7-N ,  8-O ) :   1.5194 B(  7-N ,  9-O ) :   1.5078 B(  8-O ,  9-O ) :   0.2802
B( 10-C , 14-H ) :   0.9911 B( 11-C , 12-C ) :   1.8942 B( 11-C , 15-H ) :   0.9455
B( 12-C , 16-H ) :   0.9564 B( 12-C , 17-H ) :   0.9422

Dispersion correction           -0.044586692
FINAL SINGLE POINT ENERGY     -1308.748612335623

DIPOLE MOMENT
-------------
                                X             Y             Z
Electronic contribution:      4.50502      -8.82390      -0.57279
Nuclear contribution   :     -6.47894       9.01272       0.56869
                        -----------------------------------------
Total Dipole Moment    :     -1.97393       0.18882      -0.00410
                        -----------------------------------------
Magnitude (a.u.)       :      1.98294
Magnitude (Debye)      :      5.04024

Rotational constants in cm-1:     0.038728     0.014423     0.010511
Rotational constants in MHz :  1161.043762   432.386719   315.110417

                             ****ORCA TERMINATED NORMALLY****
TOTAL RUN TIME: 0 days 0 hours 11 minutes 38 seconds 286 msec
