                         Program Version 4.2.0 -  RELEASE  -
|  1> # ORCA input file
|  2> # SCF done        -46.390541082061          0.000902863547
|  3> ! B3LYP/G D3BJ Opt RIJCOSX def2-SVP def2/J
|  4> * xyz 0 1
|  5>    C        1.68627         1.13571         0.09682
|  6>    S        2.83375        -0.13557         0.09011
|  7>    C        1.58835        -1.30970         0.03360
|  8>    C        0.34876        -0.74560         0.02503
|  9>    C        0.40568         0.67420         0.05357
| 10>    C       -0.81640         1.53115         0.08383
| 11>    N       -1.06795         2.00171         1.47843
| 12>    O       -1.47567         3.12858         1.60661
| 13>    O       -0.88195         1.21471         2.37451
| 14>    C       -2.05331         0.74248        -0.36646
| 15>    C       -2.12594        -0.61379         0.32907
| 16>    C       -0.93601        -1.50234        -0.05682
| 17>    N       -1.15294        -1.96939        -1.45847
| 18>    O       -0.90851        -1.19198        -2.34902
| 19>    O       -1.58724        -3.08486        -1.59966
| 20>    H        2.01791         2.15449         0.13076
| 21>    H        1.83708        -2.35216         0.01183
| 22>    H       -0.69785         2.43350        -0.52283
| 23>    H       -1.98303         0.60582        -1.44794
| 24>    H       -2.95477         1.32102        -0.15622
| 25>    H       -3.05965        -1.11730         0.07150
| 26>    H       -2.10112        -0.48261         1.41329
| 27>    H       -0.91720        -2.40437         0.56166
| 28> *
| 29>
| 30>                          ****END OF INPUT****
 Total Charge           Charge          ....    0
 Multiplicity           Mult            ....    1
 Number of Electrons    NEL             ....  118
Dispersion correction           -0.053950165
FINAL SINGLE POINT ENERGY     -1117.470747879452
Dispersion correction            ... done
Dispersion correction           -0.053098729
FINAL SINGLE POINT ENERGY     -1117.475188127388
Dispersion correction            ... done
Dispersion correction           -0.053047273
FINAL SINGLE POINT ENERGY     -1117.475262471634
Dispersion correction            ... done
FINAL SINGLE POINT ENERGY     -1117.475392820699
FINAL SINGLE POINT ENERGY     -1117.475719394523
FINAL SINGLE POINT ENERGY     -1117.475505822890
FINAL SINGLE POINT ENERGY     -1117.475735588441
FINAL SINGLE POINT ENERGY     -1117.475727720936
FINAL SINGLE POINT ENERGY     -1117.475700417142
FINAL SINGLE POINT ENERGY     -1117.475713035486
FINAL SINGLE POINT ENERGY     -1117.475718331599
FINAL SINGLE POINT ENERGY     -1117.475685833278
FINAL SINGLE POINT ENERGY     -1117.475589842601
FINAL SINGLE POINT ENERGY     -1117.475676396966
Dispersion correction            ... done
Dispersion correction           -0.052842467
FINAL SINGLE POINT ENERGY     -1117.475721271270
Dispersion correction            ... done
Dispersion correction           -0.052849559
FINAL SINGLE POINT ENERGY     -1117.475729117706
Dispersion correction            ... done
                    ***********************HURRAY********************

CARTESIAN COORDINATES (ANGSTROEM)
---------------------------------
  C      1.684993    1.148153    0.070649
  S      2.829631   -0.141860    0.090165
  C      1.578740   -1.328502    0.057377
  C      0.330606   -0.751942    0.033516
  C      0.392084    0.680643    0.043073
  C     -0.835812    1.540043    0.093858
  N     -0.995746    2.085978    1.519913
  O     -1.015691    3.295223    1.644094
  O     -1.095025    1.275892    2.424049
  C     -2.108243    0.783981   -0.309331
  C     -2.186541   -0.635827    0.260145
  C     -0.965624   -1.504208   -0.066795
  N     -1.085514   -2.071137   -1.487712
  O     -1.211398   -1.277574   -2.402709
  O     -1.035033   -3.280637   -1.599647
  H      2.018769    2.184629    0.099436
  H      1.825287   -2.389222    0.038274
  H     -0.718601    2.450001   -0.503968
  H     -2.115541    0.737835   -1.407178
  H     -2.988616    1.367230    0.001814
  H     -3.095630   -1.138498   -0.104478
  H     -2.254773   -0.589579    1.356210
  H     -0.954065   -2.406921    0.552445

 Multiplicity           Mult            ....    1
 Number of Electrons    NEL             ....  118
 Basis Dimension        Dim             ....  254

ORBITAL ENERGIES
----------------

  NO   OCC          E(Eh)            E(eV)
   0   2.0000     -88.902625     -2419.1634
   1   2.0000     -19.177316      -521.8413
   2   2.0000     -19.176938      -521.8310
   3   2.0000     -19.176236      -521.8119
   4   2.0000     -19.175737      -521.7983
   5   2.0000     -14.563170      -396.2840
   6   2.0000     -14.562638      -396.2695
   7   2.0000     -10.267838      -279.4021
   8   2.0000     -10.267632      -279.3965
   9   2.0000     -10.239151      -278.6215
  10   2.0000     -10.239045      -278.6186
  11   2.0000     -10.228348      -278.3275
  12   2.0000     -10.227786      -278.3122
  13   2.0000     -10.222644      -278.1723
  14   2.0000     -10.222476      -278.1677
  15   2.0000      -7.997607      -217.6260
  16   2.0000      -5.965575      -162.3315
  17   2.0000      -5.961369      -162.2171
  18   2.0000      -5.959375      -162.1628
  19   2.0000      -1.233956       -33.5777
  20   2.0000      -1.233317       -33.5603
  21   2.0000      -1.062564       -28.9138
  22   2.0000      -1.062060       -28.9001
  23   2.0000      -0.919220       -25.0132
  24   2.0000      -0.865078       -23.5400
  25   2.0000      -0.838003       -22.8032
  26   2.0000      -0.766344       -20.8533
  27   2.0000      -0.739614       -20.1259
  28   2.0000      -0.732850       -19.9419
  29   2.0000      -0.664812       -18.0905
  30   2.0000      -0.616982       -16.7889
  31   2.0000      -0.613087       -16.6829
  32   2.0000      -0.597174       -16.2499
  33   2.0000      -0.570456       -15.5229
  34   2.0000      -0.561558       -15.2808
  35   2.0000      -0.547707       -14.9039
  36   2.0000      -0.540809       -14.7162
  37   2.0000      -0.530871       -14.4457
  38   2.0000      -0.526889       -14.3374
  39   2.0000      -0.506552       -13.7840
  40   2.0000      -0.502219       -13.6661
  41   2.0000      -0.472611       -12.8604
  42   2.0000      -0.461656       -12.5623
  43   2.0000      -0.445065       -12.1108
  44   2.0000      -0.433489       -11.7958
  45   2.0000      -0.432912       -11.7801
  46   2.0000      -0.406981       -11.0745
  47   2.0000      -0.394486       -10.7345
  48   2.0000      -0.377783       -10.2800
  49   2.0000      -0.374222       -10.1831
  50   2.0000      -0.369341       -10.0503
  51   2.0000      -0.327698        -8.9171
  52   2.0000      -0.326960        -8.8970
  53   2.0000      -0.318805        -8.6751
  54   2.0000      -0.310001        -8.4356
  55   2.0000      -0.306725        -8.3464
  56   2.0000      -0.305158        -8.3038
  57   2.0000      -0.276806        -7.5323
  58   2.0000      -0.265620        -7.2279
  59   0.0000      -0.075836        -2.0636
  60   0.0000      -0.075128        -2.0443
  61   0.0000      -0.053636        -1.4595
  62   0.0000       0.002896         0.0788
  63   0.0000       0.024063         0.6548

MULLIKEN ATOMIC CHARGES
-----------------------
   0 C :   -0.120365
   1 S :    0.140831
   2 C :   -0.119477
   3 C :    0.001383
   4 C :   -0.000403
   5 C :    0.158588
   6 N :    0.187421
   7 O :   -0.230575
   8 O :   -0.231476
   9 C :    0.055541
  10 C :    0.060885
  11 C :    0.159464
  12 N :    0.188780
  13 O :   -0.232408
  14 O :   -0.230402
  15 H :    0.034707
  16 H :    0.036197
  17 H :    0.004636
  18 H :    0.049166
  19 H :    0.019514
  20 H :    0.017638
  21 H :    0.045787
  22 H :    0.004570
Sum of atomic charges:    0.0000000

LOEWDIN ATOMIC CHARGES
----------------------
   0 C :   -0.176527
   1 S :    0.473180
   2 C :   -0.176757
   3 C :   -0.074555
   4 C :   -0.075910
   5 C :    0.031589
   6 N :    0.264153
   7 O :   -0.198065
   8 O :   -0.204296
   9 C :   -0.023780
  10 C :   -0.025023
  11 C :    0.032287
  12 N :    0.264938
  13 O :   -0.203673
  14 O :   -0.197891
  15 H :    0.032202
  16 H :    0.032721
  17 H :    0.038308
  18 H :    0.039683
  19 H :    0.034755
  20 H :    0.034880
  21 H :    0.039199
  22 H :    0.038583

  Mayer bond orders larger than 0.100000
B(  0-C ,  1-S ) :   1.1846 B(  0-C ,  4-C ) :   1.5366 B(  0-C , 15-H ) :   0.9652
B(  1-S ,  2-C ) :   1.1846 B(  2-C ,  3-C ) :   1.5375 B(  2-C , 16-H ) :   0.9640
B(  3-C ,  4-C ) :   1.2799 B(  3-C , 11-C ) :   1.0106 B(  4-C ,  5-C ) :   1.0053
B(  5-C ,  6-N ) :   0.8078 B(  5-C ,  9-C ) :   1.0650 B(  5-C , 17-H ) :   0.8963
B(  6-N ,  7-O ) :   1.5518 B(  6-N ,  8-O ) :   1.5572 B(  7-O ,  8-O ) :   0.2823
B(  9-C , 10-C ) :   1.0529 B(  9-C , 18-H ) :   0.9239 B(  9-C , 19-H ) :   0.9254
B( 10-C , 11-C ) :   1.0614 B( 10-C , 20-H ) :   0.9258 B( 10-C , 21-H ) :   0.9226
B( 11-C , 12-N ) :   0.8086 B( 11-C , 22-H ) :   0.8930 B( 12-N , 13-O ) :   1.5568
B( 12-N , 14-O ) :   1.5523 B( 13-O , 14-O ) :   0.2822

Dispersion correction           -0.052854046
FINAL SINGLE POINT ENERGY     -1117.475728549899

DIPOLE MOMENT
-------------
                                X             Y             Z
Electronic contribution:      6.85771      -0.35715       0.18562
Nuclear contribution   :     -6.54555       0.36291      -0.18979
                        -----------------------------------------
Total Dipole Moment    :      0.31217       0.00576      -0.00417
                        -----------------------------------------
Magnitude (a.u.)       :      0.31225
Magnitude (Debye)      :      0.79367

Rotational constants in cm-1:     0.023853     0.016804     0.011394
Rotational constants in MHz :   715.081260   503.784797   341.591331

                             ****ORCA TERMINATED NORMALLY****
TOTAL RUN TIME: 0 days 0 hours 37 minutes 17 seconds 332 msec
