                         Program Version 4.2.0 -  RELEASE  -
|  1> # ORCA input file
|  2> # SCF done        -21.447868522476          0.000368016833
|  3> ! B3LYP/G D3BJ Opt RIJCOSX def2-SVP def2/J
|  4> * xyz 0 1
|  5>    C       -2.13423        -0.04849        -0.00542
|  6>    C       -1.33718        -1.13172         0.00053
|  7>    C        0.02092        -0.67093        -0.00011
|  8>    N        1.29167        -1.14333         0.00371
|  9>    C        2.13791        -0.06995         0.00048
| 10>    C        1.40834         1.09738        -0.00597
| 11>    C        0.05996         0.71484        -0.00594
| 12>    C       -1.33754         1.23164        -0.00966
| 13>    H       -3.20947        -0.05001        -0.00678
| 14>    H       -1.64961        -2.16106         0.00494
| 15>    H        1.57673        -2.10821         0.00801
| 16>    H        3.20163        -0.20827         0.00292
| 17>    H        1.81243         2.09079        -0.00972
| 18>    H       -1.56231         1.83303        -0.89307
| 19>    H       -1.56451         1.84121         0.86754
| 20> *
| 21>
| 22>                          ****END OF INPUT****
 Total Charge           Charge          ....    0
 Multiplicity           Mult            ....    1
 Number of Electrons    NEL             ....   56
Dispersion correction           -0.024990866
FINAL SINGLE POINT ENERGY      -325.461262421434
Dispersion correction            ... done
Dispersion correction           -0.025055141
FINAL SINGLE POINT ENERGY      -325.464168942955
Dispersion correction            ... done
Dispersion correction           -0.025060707
FINAL SINGLE POINT ENERGY      -325.464255281205
Dispersion correction            ... done
FINAL SINGLE POINT ENERGY      -325.464270971323
Dispersion correction            ... done
Dispersion correction           -0.025052772
FINAL SINGLE POINT ENERGY      -325.464270025815
Dispersion correction            ... done
Dispersion correction           -0.025051304
FINAL SINGLE POINT ENERGY      -325.464268039764
Dispersion correction            ... done
                    ***********************HURRAY********************

CARTESIAN COORDINATES (ANGSTROEM)
---------------------------------
  C     -2.161483   -0.052453   -0.005083
  C     -1.351765   -1.142490    0.000412
  C      0.021341   -0.664449    0.000066
  N      1.302543   -1.144006    0.003776
  C      2.173086   -0.069689    0.000426
  C      1.433563    1.108696   -0.005634
  C      0.065921    0.723989   -0.005826
  C     -1.348999    1.233995   -0.009927
  H     -3.252279   -0.072686   -0.006273
  H     -1.678885   -2.183143    0.004505
  H      1.584961   -2.114190    0.008305
  H      3.249644   -0.228809    0.002587
  H      1.854559    2.112396   -0.009438
  H     -1.587596    1.850668   -0.895984
  H     -1.589871    1.859090    0.869548

 Multiplicity           Mult            ....    1
 Number of Electrons    NEL             ....   56
 Basis Dimension        Dim             ....  147

ORBITAL ENERGIES
----------------

  NO   OCC          E(Eh)            E(eV)
   0   2.0000     -14.370132      -391.0312
   1   2.0000     -10.202283      -277.6182
   2   2.0000     -10.196313      -277.4558
   3   2.0000     -10.189674      -277.2751
   4   2.0000     -10.188525      -277.2439
   5   2.0000     -10.179519      -276.9988
   6   2.0000     -10.168231      -276.6916
   7   2.0000     -10.160053      -276.4691
   8   2.0000      -0.962822       -26.1997
   9   2.0000      -0.830929       -22.6107
  10   2.0000      -0.752685       -20.4816
  11   2.0000      -0.689762       -18.7694
  12   2.0000      -0.674921       -18.3655
  13   2.0000      -0.578600       -15.7445
  14   2.0000      -0.569081       -15.4855
  15   2.0000      -0.536931       -14.6106
  16   2.0000      -0.504053       -13.7160
  17   2.0000      -0.443128       -12.0581
  18   2.0000      -0.435657       -11.8548
  19   2.0000      -0.419382       -11.4120
  20   2.0000      -0.402654       -10.9568
  21   2.0000      -0.392487       -10.6801
  22   2.0000      -0.375530       -10.2187
  23   2.0000      -0.352541        -9.5931
  24   2.0000      -0.343276        -9.3410
  25   2.0000      -0.282102        -7.6764
  26   2.0000      -0.237979        -6.4757
  27   2.0000      -0.185104        -5.0369
  28   0.0000      -0.007609        -0.2070
  29   0.0000       0.055171         1.5013
  30   0.0000       0.058087         1.5806
  31   0.0000       0.084043         2.2869
  32   0.0000       0.102296         2.7836

MULLIKEN ATOMIC CHARGES
-----------------------
   0 C :   -0.129546
   1 C :    0.020620
   2 C :    0.020615
   3 N :   -0.052071
   4 C :    0.034597
   5 C :   -0.063826
   6 C :   -0.102700
   7 C :    0.200220
   8 H :   -0.010039
   9 H :   -0.036290
  10 H :    0.114454
  11 H :   -0.009269
  12 H :   -0.037541
  13 H :    0.025333
  14 H :    0.025446
Sum of atomic charges:    0.0000000

LOEWDIN ATOMIC CHARGES
----------------------
   0 C :   -0.038996
   1 C :   -0.041481
   2 C :   -0.036401
   3 N :    0.074174
   4 C :   -0.029643
   5 C :   -0.082470
   6 C :   -0.074491
   7 C :   -0.019295
   8 H :    0.017956
   9 H :    0.021174
  10 H :    0.084825
  11 H :    0.015379
  12 H :    0.020120
  13 H :    0.044583
  14 H :    0.044567

  Mayer bond orders larger than 0.100000
B(  0-C ,  1-C ) :   1.7128 B(  0-C ,  7-C ) :   1.0381 B(  0-C ,  8-H ) :   0.9821
B(  1-C ,  2-C ) :   1.0732 B(  1-C ,  9-H ) :   1.0166 B(  2-C ,  3-N ) :   1.1955
B(  2-C ,  6-C ) :   1.4920 B(  3-N ,  4-C ) :   1.1914 B(  3-N , 10-H ) :   0.9431
B(  4-C ,  5-C ) :   1.4609 B(  4-C , 11-H ) :   0.9845 B(  5-C ,  6-C ) :   1.3163
B(  5-C , 12-H ) :   1.0157 B(  6-C ,  7-C ) :   1.0489 B(  7-C , 13-H ) :   0.8943
B(  7-C , 14-H ) :   0.8944

Dispersion correction           -0.025051351
FINAL SINGLE POINT ENERGY      -325.464267725342

DIPOLE MOMENT
-------------
                                X             Y             Z
Electronic contribution:      1.69207      -1.77516       0.01011
Nuclear contribution   :     -1.49839       1.21187      -0.00750
                        -----------------------------------------
Total Dipole Moment    :      0.19368      -0.56329       0.00260
                        -----------------------------------------
Magnitude (a.u.)       :      0.59567
Magnitude (Debye)      :      1.51407

Rotational constants in cm-1:     0.167063     0.069634     0.049603
Rotational constants in MHz :  5008.418765  2087.575332  1487.052754

                             ****ORCA TERMINATED NORMALLY****
TOTAL RUN TIME: 0 days 0 hours 3 minutes 47 seconds 227 msec
