                         Program Version 4.2.0 -  RELEASE  -
|  1> # ORCA input file
|  2> # SCF done        -39.463475062189          0.000673405715
|  3> ! B3LYP/G D3BJ Opt RIJCOSX def2-SVP def2/J
|  4> * xyz 0 1
|  5>    C        1.62680        -1.24063        -0.02157
|  6>    C        2.04588         0.05635        -0.02950
|  7>    C        3.45729         0.53190        -0.04048
|  8>    F        4.32355        -0.48976        -0.04137
|  9>    F        3.74333         1.28000        -1.11983
| 10>    F        3.75674         1.28954         1.02854
| 11>    S        0.74791         1.19282        -0.02587
| 12>    C       -0.38889        -0.11364        -0.01320
| 13>    C       -1.76318         0.13989        -0.00729
| 14>    N       -2.89408         0.33491         0.00213
| 15>    C        0.21657        -1.36164        -0.01222
| 16>    C       -0.54175        -2.59537        -0.00312
| 17>    C       -0.01388        -3.81501        -0.00303
| 18>    H        2.30589        -2.07300        -0.02275
| 19>    H       -1.61638        -2.46736         0.00524
| 20>    H        1.04833        -3.98890        -0.00829
| 21>    H       -0.63977        -4.68963         0.00701
| 22> *
| 23>
| 24>                          ****END OF INPUT****
 Total Charge           Charge          ....    0
 Multiplicity           Mult            ....    1
 Number of Electrons    NEL             ....  102
Dispersion correction           -0.036190101
FINAL SINGLE POINT ENERGY     -1059.119573369803
Dispersion correction            ... done
Dispersion correction           -0.036009332
FINAL SINGLE POINT ENERGY     -1059.122199188492
Dispersion correction            ... done
Dispersion correction           -0.035969169
FINAL SINGLE POINT ENERGY     -1059.122259882587
Dispersion correction            ... done
FINAL SINGLE POINT ENERGY     -1059.122246696479
FINAL SINGLE POINT ENERGY     -1059.122131694275
FINAL SINGLE POINT ENERGY     -1059.121465037544
FINAL SINGLE POINT ENERGY     -1059.122102188956
FINAL SINGLE POINT ENERGY     -1059.122203100624
FINAL SINGLE POINT ENERGY     -1059.122327306257
FINAL SINGLE POINT ENERGY     -1059.122293178224
FINAL SINGLE POINT ENERGY     -1059.122361759645
Dispersion correction            ... done
Dispersion correction           -0.035945437
FINAL SINGLE POINT ENERGY     -1059.122356689699
Dispersion correction            ... done
Dispersion correction           -0.035946170
FINAL SINGLE POINT ENERGY     -1059.122355915058
Dispersion correction            ... done
                    ***********************HURRAY********************

CARTESIAN COORDINATES (ANGSTROEM)
---------------------------------
  C      1.645746   -1.242220   -0.008839
  C      2.071809    0.060054    0.013999
  C      3.487019    0.555489   -0.038912
  F      4.359223   -0.441933    0.156017
  F      3.764980    1.110855   -1.230626
  F      3.708943    1.494733    0.896294
  S      0.763392    1.195466    0.044148
  C     -0.386510   -0.111306    0.019464
  C     -1.777160    0.159640    0.030742
  N     -2.919827    0.374662    0.041045
  C      0.220010   -1.367429   -0.005741
  C     -0.545956   -2.610803   -0.025695
  C     -0.032827   -3.849877   -0.042428
  H      2.334002   -2.086234   -0.028702
  H     -1.633788   -2.484623   -0.026849
  H      1.043426   -4.042822   -0.042160
  H     -0.688121   -4.723185   -0.057358

 Multiplicity           Mult            ....    1
 Number of Electrons    NEL             ....  102
 Basis Dimension        Dim             ....  206

ORBITAL ENERGIES
----------------

  NO   OCC          E(Eh)            E(eV)
   0   2.0000     -88.921409     -2419.6745
   1   2.0000     -24.741381      -673.2472
   2   2.0000     -24.735981      -673.1003
   3   2.0000     -24.733734      -673.0391
   4   2.0000     -14.347699      -390.4207
   5   2.0000     -10.461511      -284.6722
   6   2.0000     -10.274399      -279.5806
   7   2.0000     -10.262819      -279.2655
   8   2.0000     -10.249915      -278.9144
   9   2.0000     -10.248152      -278.8664
  10   2.0000     -10.240265      -278.6518
  11   2.0000     -10.225894      -278.2607
  12   2.0000     -10.218378      -278.0562
  13   2.0000      -8.016019      -218.1270
  14   2.0000      -5.984245      -162.8396
  15   2.0000      -5.980131      -162.7276
  16   2.0000      -5.977057      -162.6440
  17   2.0000      -1.318286       -35.8724
  18   2.0000      -1.228048       -33.4169
  19   2.0000      -1.222217       -33.2582
  20   2.0000      -0.936735       -25.4899
  21   2.0000      -0.910122       -24.7657
  22   2.0000      -0.827538       -22.5185
  23   2.0000      -0.800049       -21.7705
  24   2.0000      -0.757793       -20.6206
  25   2.0000      -0.726430       -19.7672
  26   2.0000      -0.661106       -17.9896
  27   2.0000      -0.646484       -17.5917
  28   2.0000      -0.612089       -16.6558
  29   2.0000      -0.610869       -16.6226
  30   2.0000      -0.587881       -15.9971
  31   2.0000      -0.566277       -15.4092
  32   2.0000      -0.519764       -14.1435
  33   2.0000      -0.491010       -13.3611
  34   2.0000      -0.488108       -13.2821
  35   2.0000      -0.482713       -13.1353
  36   2.0000      -0.471888       -12.8407
  37   2.0000      -0.456163       -12.4128
  38   2.0000      -0.444518       -12.0959
  39   2.0000      -0.437589       -11.9074
  40   2.0000      -0.435984       -11.8637
  41   2.0000      -0.427235       -11.6257
  42   2.0000      -0.420835       -11.4515
  43   2.0000      -0.401199       -10.9172
  44   2.0000      -0.383409       -10.4331
  45   2.0000      -0.377075       -10.2607
  46   2.0000      -0.373465       -10.1625
  47   2.0000      -0.353594        -9.6218
  48   2.0000      -0.340749        -9.2722
  49   2.0000      -0.287767        -7.8305
  50   2.0000      -0.260529        -7.0894
  51   0.0000      -0.093541        -2.5454
  52   0.0000      -0.044886        -1.2214
  53   0.0000      -0.017072        -0.4645
  54   0.0000       0.000688         0.0187
  55   0.0000       0.035881         0.9764

MULLIKEN ATOMIC CHARGES
-----------------------
   0 C :   -0.023340
   1 C :   -0.216485
   2 C :    0.582627
   3 F :   -0.157200
   4 F :   -0.161183
   5 F :   -0.165418
   6 S :    0.238014
   7 C :   -0.279018
   8 C :   -0.157341
   9 N :    0.095468
  10 C :    0.183943
  11 C :   -0.021203
  12 C :   -0.008393
  13 H :    0.008050
  14 H :    0.020153
  15 H :    0.022370
  16 H :    0.038956
Sum of atomic charges:   -0.0000000

LOEWDIN ATOMIC CHARGES
----------------------
   0 C :   -0.023505
   1 C :   -0.224171
   2 C :    0.155068
   3 F :   -0.050741
   4 F :   -0.059856
   5 F :   -0.060546
   6 S :    0.502886
   7 C :   -0.214132
   8 C :   -0.051959
   9 N :   -0.048624
  10 C :   -0.022258
  11 C :   -0.024176
  12 C :   -0.019266
  13 H :    0.040448
  14 H :    0.041284
  15 H :    0.024685
  16 H :    0.034864

  Mayer bond orders larger than 0.100000
B(  0-C ,  1-C ) :   1.5756 B(  0-C , 10-C ) :   1.2043 B(  0-C , 13-H ) :   0.9915
B(  1-C ,  2-C ) :   0.9430 B(  1-C ,  6-S ) :   1.1296 B(  1-C ,  7-C ) :   0.1147
B(  2-C ,  3-F ) :   1.1586 B(  2-C ,  4-F ) :   1.1690 B(  2-C ,  5-F ) :   1.1539
B(  6-S ,  7-C ) :   1.1392 B(  7-C ,  8-C ) :   1.2141 B(  7-C , 10-C ) :   1.4409
B(  8-C ,  9-N ) :   2.9574 B( 10-C , 11-C ) :   1.1148 B( 11-C , 12-C ) :   1.9130
B( 11-C , 14-H ) :   0.9504 B( 12-C , 15-H ) :   0.9513 B( 12-C , 16-H ) :   0.9436

Dispersion correction           -0.035946904
FINAL SINGLE POINT ENERGY     -1059.122355201531

DIPOLE MOMENT
-------------
                                X             Y             Z
Electronic contribution:     11.96893      13.46082      -0.02689
Nuclear contribution   :    -11.25352     -14.41060       0.02917
                        -----------------------------------------
Total Dipole Moment    :      0.71541      -0.94978       0.00228
                        -----------------------------------------
Magnitude (a.u.)       :      1.18907
Magnitude (Debye)      :      3.02238

Rotational constants in cm-1:     0.038793     0.015490     0.011755
Rotational constants in MHz :  1162.988206   464.374994   352.410485

                             ****ORCA TERMINATED NORMALLY****
TOTAL RUN TIME: 0 days 0 hours 17 minutes 29 seconds 586 msec
