                         Program Version 4.2.0 -  RELEASE  -
|  1> # ORCA input file
|  2> # SCF done        -45.598954561696          0.000409475740
|  3> ! B3LYP/G D3BJ Opt RIJCOSX def2-SVP def2/J
|  4> * xyz 0 1
|  5>    C        3.45218         0.15778         0.07382
|  6>    C        2.53314         1.19901         0.06664
|  7>    C        1.18881         0.89816         0.02474
|  8>    C        0.76058        -0.43700        -0.00986
|  9>    C        1.67948        -1.47260        -0.00266
| 10>    C        3.02938        -1.16179         0.03949
| 11>    C       -0.69330        -0.45336        -0.04972
| 12>    C       -1.15221         0.87199        -0.03943
| 13>    C        0.00733         1.83944         0.00800
| 14>    C        0.03013         2.74649        -1.23612
| 15>    C        0.10250         1.95639        -2.53736
| 16>    C       -0.03826         2.70656         1.27953
| 17>    C       -0.03709         1.87552         2.55706
| 18>    C       -2.50314         1.14288        -0.07137
| 19>    C       -3.39803         0.08161        -0.11393
| 20>    C       -2.94491        -1.22824        -0.12434
| 21>    C       -1.58814        -1.50904        -0.09231
| 22>    H        4.50923         0.37901         0.10650
| 23>    H        2.87347         2.22428         0.09354
| 24>    H        1.35323        -2.50183        -0.02932
| 25>    H        3.76182        -1.95608         0.04571
| 26>    H        0.89245         3.41374        -1.16894
| 27>    H       -0.87086         3.36410        -1.23597
| 28>    H        1.00936         1.35651        -2.57173
| 29>    H        0.10480         2.63399        -3.38820
| 30>    H       -0.75213         1.28955        -2.62927
| 31>    H       -0.93798         3.32528         1.24966
| 32>    H        0.82631         3.37428         1.28086
| 33>    H       -0.89531         1.20741         2.58082
| 34>    H       -0.08154         2.52582         3.42783
| 35>    H        0.86667         1.27348         2.62196
| 36>    H       -2.86757         2.16020        -0.06369
| 37>    H       -4.45991         0.27943        -0.13930
| 38>    H       -3.65885        -2.03855        -0.15787
| 39>    H       -1.23837        -2.53083        -0.10054
| 40> *
| 41>
| 42>                          ****END OF INPUT****
 Total Charge           Charge          ....    0
 Multiplicity           Mult            ....    1
 Number of Electrons    NEL             ....  120
Dispersion correction           -0.081692474
FINAL SINGLE POINT ENERGY      -658.281272233465
Dispersion correction            ... done
Dispersion correction           -0.080460795
FINAL SINGLE POINT ENERGY      -658.286302540543
Dispersion correction            ... done
Dispersion correction           -0.080376390
FINAL SINGLE POINT ENERGY      -658.286453158665
Dispersion correction            ... done
Dispersion correction           -0.080350802
FINAL SINGLE POINT ENERGY      -658.286487038484
Dispersion correction            ... done
Dispersion correction           -0.080356114
FINAL SINGLE POINT ENERGY      -658.286489698929
Dispersion correction            ... done
                    ***********************HURRAY********************

CARTESIAN COORDINATES (ANGSTROEM)
---------------------------------
  C      3.493889    0.136053    0.069766
  C      2.560792    1.181727    0.065390
  C      1.204348    0.877658    0.024709
  C      0.774716   -0.465740   -0.010499
  C      1.703940   -1.508817   -0.005396
  C      3.067328   -1.197782    0.034600
  C     -0.694337   -0.482319   -0.048909
  C     -1.155222    0.850962   -0.038401
  C      0.013217    1.829817    0.008530
  C      0.036024    2.744869   -1.240435
  C      0.088218    2.012776   -2.579060
  C     -0.030731    2.705562    1.284569
  C     -0.066836    1.931599    2.599827
  C     -2.518279    1.124692   -0.070327
  C     -3.426779    0.058311   -0.111006
  C     -2.969294   -1.265623   -0.120490
  C     -1.599085   -1.546030   -0.089953
  H      4.562388    0.364325    0.102236
  H      2.900910    2.220440    0.095411
  H      1.373909   -2.550402   -0.033124
  H      3.806495   -2.002275    0.038988
  H      0.904487    3.420846   -1.149530
  H     -0.857131    3.392977   -1.203030
  H      0.991827    1.389245   -2.662714
  H      0.095742    2.732056   -3.412918
  H     -0.782609    1.352091   -2.711721
  H     -0.914585    3.363620    1.213704
  H      0.847215    3.375096    1.267830
  H     -0.951425    1.278541    2.658808
  H     -0.101584    2.623825    3.455531
  H      0.823096    1.293745    2.716688
  H     -2.882761    2.155544   -0.064226
  H     -4.500274    0.262680   -0.137431
  H     -3.689346   -2.086542   -0.153955
  H     -1.244990   -2.579937   -0.099230

 Multiplicity           Mult            ....    1
 Number of Electrons    NEL             ....  120
 Basis Dimension        Dim             ....  328

ORBITAL ENERGIES
----------------

  NO   OCC          E(Eh)            E(eV)
   0   2.0000     -10.200408      -277.5672
   1   2.0000     -10.191449      -277.3234
   2   2.0000     -10.191314      -277.3198
   3   2.0000     -10.191062      -277.3129
   4   2.0000     -10.191041      -277.3123
   5   2.0000     -10.190470      -277.2968
   6   2.0000     -10.190463      -277.2966
   7   2.0000     -10.190379      -277.2943
   8   2.0000     -10.190349      -277.2935
   9   2.0000     -10.190116      -277.2872
  10   2.0000     -10.190014      -277.2844
  11   2.0000     -10.187478      -277.2154
  12   2.0000     -10.187389      -277.2129
  13   2.0000     -10.187339      -277.2116
  14   2.0000     -10.187316      -277.2110
  15   2.0000     -10.172885      -276.8183
  16   2.0000     -10.172859      -276.8176
  17   2.0000      -0.884505       -24.0686
  18   2.0000      -0.837335       -22.7850
  19   2.0000      -0.812286       -22.1034
  20   2.0000      -0.770949       -20.9786
  21   2.0000      -0.744627       -20.2623
  22   2.0000      -0.736388       -20.0381
  23   2.0000      -0.735726       -20.0201
  24   2.0000      -0.706865       -19.2348
  25   2.0000      -0.671448       -18.2710
  26   2.0000      -0.634539       -17.2667
  27   2.0000      -0.610091       -16.6014
  28   2.0000      -0.590775       -16.0758
  29   2.0000      -0.580656       -15.8005
  30   2.0000      -0.571740       -15.5578
  31   2.0000      -0.549781       -14.9603
  32   2.0000      -0.506876       -13.7928
  33   2.0000      -0.497004       -13.5242
  34   2.0000      -0.472928       -12.8690
  35   2.0000      -0.458333       -12.4719
  36   2.0000      -0.455646       -12.3987
  37   2.0000      -0.446122       -12.1396
  38   2.0000      -0.436450       -11.8764
  39   2.0000      -0.434796       -11.8314
  40   2.0000      -0.424421       -11.5491
  41   2.0000      -0.421387       -11.4665
  42   2.0000      -0.405916       -11.0455
  43   2.0000      -0.397855       -10.8262
  44   2.0000      -0.397207       -10.8086
  45   2.0000      -0.380774       -10.3614
  46   2.0000      -0.372391       -10.1333
  47   2.0000      -0.361757        -9.8439
  48   2.0000      -0.355592        -9.6761
  49   2.0000      -0.354727        -9.6526
  50   2.0000      -0.346671        -9.4334
  51   2.0000      -0.342594        -9.3225
  52   2.0000      -0.334019        -9.0891
  53   2.0000      -0.328461        -8.9379
  54   2.0000      -0.317464        -8.6386
  55   2.0000      -0.313681        -8.5357
  56   2.0000      -0.286331        -7.7915
  57   2.0000      -0.253334        -6.8936
  58   2.0000      -0.249069        -6.7775
  59   2.0000      -0.219791        -5.9808
  60   0.0000      -0.039618        -1.0780
  61   0.0000      -0.017733        -0.4825
  62   0.0000       0.000505         0.0137
  63   0.0000       0.032682         0.8893
  64   0.0000       0.050150         1.3647

MULLIKEN ATOMIC CHARGES
-----------------------
   0 C :    0.014879
   1 C :   -0.033594
   2 C :   -0.000636
   3 C :    0.105644
   4 C :   -0.055229
   5 C :    0.029846
   6 C :    0.105822
   7 C :    0.000009
   8 C :   -0.127437
   9 C :    0.053921
  10 C :    0.023564
  11 C :    0.053966
  12 C :    0.022742
  13 C :   -0.034892
  14 C :    0.013219
  15 C :    0.030971
  16 C :   -0.054058
  17 H :   -0.019441
  18 H :   -0.038920
  19 H :   -0.037210
  20 H :   -0.018154
  21 H :   -0.004631
  22 H :   -0.004945
  23 H :    0.020609
  24 H :    0.006986
  25 H :    0.021043
  26 H :   -0.005222
  27 H :   -0.003850
  28 H :    0.021756
  29 H :    0.006172
  30 H :    0.020792
  31 H :   -0.038607
  32 H :   -0.018564
  33 H :   -0.018607
  34 H :   -0.037943
Sum of atomic charges:    0.0000000

LOEWDIN ATOMIC CHARGES
----------------------
   0 C :   -0.027015
   1 C :   -0.028308
   2 C :    0.000416
   3 C :   -0.017441
   4 C :   -0.024130
   5 C :   -0.027385
   6 C :   -0.017431
   7 C :    0.000447
   8 C :   -0.031521
   9 C :   -0.013042
  10 C :   -0.057353
  11 C :   -0.013110
  12 C :   -0.057285
  13 C :   -0.028450
  14 C :   -0.027252
  15 C :   -0.027227
  16 C :   -0.023987
  17 H :    0.025742
  18 H :    0.022973
  19 H :    0.024109
  20 H :    0.026550
  21 H :    0.018348
  22 H :    0.018255
  23 H :    0.025233
  24 H :    0.023526
  25 H :    0.025311
  26 H :    0.018227
  27 H :    0.018438
  28 H :    0.025432
  29 H :    0.023308
  30 H :    0.025240
  31 H :    0.023017
  32 H :    0.025917
  33 H :    0.026455
  34 H :    0.023994

  Mayer bond orders larger than 0.100000
B(  0-C ,  1-C ) :   1.3406 B(  0-C ,  5-C ) :   1.3797 B(  0-C , 17-H ) :   0.9824
B(  1-C ,  2-C ) :   1.3971 B(  1-C , 18-H ) :   0.9946 B(  2-C ,  3-C ) :   1.3623
B(  2-C ,  8-C ) :   0.9281 B(  3-C ,  4-C ) :   1.3438 B(  3-C ,  6-C ) :   1.0030
B(  4-C ,  5-C ) :   1.3696 B(  4-C , 19-H ) :   0.9872 B(  5-C , 20-H ) :   0.9789
B(  6-C ,  7-C ) :   1.3615 B(  6-C , 16-C ) :   1.3443 B(  7-C ,  8-C ) :   0.9286
B(  7-C , 13-C ) :   1.3968 B(  8-C ,  9-C ) :   1.0260 B(  8-C , 11-C ) :   1.0257
B(  9-C , 10-C ) :   1.1076 B(  9-C , 21-H ) :   0.9360 B(  9-C , 22-H ) :   0.9357
B( 10-C , 23-H ) :   0.9627 B( 10-C , 24-H ) :   0.9610 B( 10-C , 25-H ) :   0.9628
B( 11-C , 12-C ) :   1.1065 B( 11-C , 26-H ) :   0.9358 B( 11-C , 27-H ) :   0.9361
B( 12-C , 28-H ) :   0.9632 B( 12-C , 29-H ) :   0.9612 B( 12-C , 30-H ) :   0.9629
B( 13-C , 14-C ) :   1.3421 B( 13-C , 31-H ) :   0.9947 B( 14-C , 15-C ) :   1.3790
B( 14-C , 32-H ) :   0.9821 B( 15-C , 16-C ) :   1.3696 B( 15-C , 33-H ) :   0.9790
B( 16-C , 34-H ) :   0.9871

Dispersion correction           -0.080361653
FINAL SINGLE POINT ENERGY      -658.286490438100

DIPOLE MOMENT
-------------
                                X             Y             Z
Electronic contribution:      0.10864      -8.87969      -0.13859
Nuclear contribution   :     -0.11106       9.03787       0.13938
                        -----------------------------------------
Total Dipole Moment    :     -0.00242       0.15818       0.00078
                        -----------------------------------------
Magnitude (a.u.)       :      0.15821
Magnitude (Debye)      :      0.40213

Rotational constants in cm-1:     0.022650     0.014934     0.012430
Rotational constants in MHz :   679.033573   447.716390   372.644353

                             ****ORCA TERMINATED NORMALLY****
TOTAL RUN TIME: 0 days 0 hours 21 minutes 1 seconds 259 msec
