                         Program Version 4.2.0 -  RELEASE  -
|  1> # ORCA input file
|  2> # SCF done        -29.665423657702          0.000714297538
|  3> ! B3LYP/G D3BJ Opt RIJCOSX def2-SVP def2/J
|  4> * xyz 0 1
|  5>    C        0.10448         1.21494        -0.00482
|  6>    S       -1.09003        -0.01385        -0.01328
|  7>    C        0.13813        -1.22498        -0.00980
|  8>    C       -0.19868        -2.67192        -0.01379
|  9>    F       -1.51644        -2.90385        -0.03297
| 10>    F        0.31985        -3.31362        -1.07872
| 11>    F        0.28803        -3.31253         1.06689
| 12>    C        1.39476        -0.69096        -0.00205
| 13>    C        1.36972         0.71791         0.00077
| 14>    H       -0.20188         2.24214        -0.00425
| 15>    H        2.29034        -1.28534         0.00125
| 16>    H        2.25333         1.32916         0.00668
| 17> *
| 18>
| 19>                          ****END OF INPUT****
 Total Charge           Charge          ....    0
 Multiplicity           Mult            ....    1
 Number of Electrons    NEL             ....   76
Dispersion correction           -0.021978834
FINAL SINGLE POINT ENERGY      -889.591046411536
Dispersion correction            ... done
Dispersion correction           -0.021954084
FINAL SINGLE POINT ENERGY      -889.592661619337
Dispersion correction            ... done
Dispersion correction           -0.021943919
FINAL SINGLE POINT ENERGY      -889.592726315166
Dispersion correction            ... done
Dispersion correction           -0.021940675
FINAL SINGLE POINT ENERGY      -889.592727514356
Dispersion correction            ... done
Dispersion correction           -0.021942559
FINAL SINGLE POINT ENERGY      -889.592739464432
Dispersion correction            ... done
                    ***********************HURRAY********************

CARTESIAN COORDINATES (ANGSTROEM)
---------------------------------
  C      0.095914    1.228083   -0.004251
  S     -1.091062   -0.023282   -0.013350
  C      0.140920   -1.241122   -0.010984
  C     -0.201197   -2.697055   -0.013603
  F     -1.531728   -2.889112   -0.034108
  F      0.318268   -3.326397   -1.083857
  F      0.281681   -3.323384    1.075149
  C      1.402749   -0.695864   -0.003339
  C      1.376625    0.728301    0.000534
  H     -0.220505    2.270523   -0.002360
  H      2.311324   -1.298735   -0.000803
  H      2.268620    1.355144    0.006882

 Multiplicity           Mult            ....    1
 Number of Electrons    NEL             ....   76
 Basis Dimension        Dim             ....  145

ORBITAL ENERGIES
----------------

  NO   OCC          E(Eh)            E(eV)
   0   2.0000     -88.896302     -2418.9913
   1   2.0000     -24.723304      -672.7553
   2   2.0000     -24.716396      -672.5673
   3   2.0000     -24.716223      -672.5626
   4   2.0000     -10.441661      -284.1320
   5   2.0000     -10.233907      -278.4788
   6   2.0000     -10.231792      -278.4212
   7   2.0000     -10.216350      -278.0010
   8   2.0000     -10.212435      -277.8945
   9   2.0000      -7.991114      -217.4493
  10   2.0000      -5.959219      -162.1586
  11   2.0000      -5.954977      -162.0432
  12   2.0000      -5.952663      -161.9802
  13   2.0000      -1.298747       -35.3407
  14   2.0000      -1.208901       -32.8959
  15   2.0000      -1.202846       -32.7311
  16   2.0000      -0.901593       -24.5336
  17   2.0000      -0.773179       -21.0393
  18   2.0000      -0.754201       -20.5229
  19   2.0000      -0.689472       -18.7615
  20   2.0000      -0.617983       -16.8162
  21   2.0000      -0.601300       -16.3622
  22   2.0000      -0.592268       -16.1164
  23   2.0000      -0.567935       -15.4543
  24   2.0000      -0.544087       -14.8054
  25   2.0000      -0.486042       -13.2259
  26   2.0000      -0.469999       -12.7893
  27   2.0000      -0.469477       -12.7751
  28   2.0000      -0.437918       -11.9164
  29   2.0000      -0.434265       -11.8170
  30   2.0000      -0.422058       -11.4848
  31   2.0000      -0.409397       -11.1403
  32   2.0000      -0.405050       -11.0220
  33   2.0000      -0.397922       -10.8280
  34   2.0000      -0.395101       -10.7512
  35   2.0000      -0.366620        -9.9762
  36   2.0000      -0.275165        -7.4876
  37   2.0000      -0.262444        -7.1415
  38   0.0000      -0.045296        -1.2326
  39   0.0000       0.025556         0.6954
  40   0.0000       0.031682         0.8621
  41   0.0000       0.064604         1.7580
  42   0.0000       0.078494         2.1359

MULLIKEN ATOMIC CHARGES
-----------------------
   0 C :   -0.083336
   1 S :    0.161792
   2 C :   -0.274471
   3 C :    0.572388
   4 F :   -0.172480
   5 F :   -0.170941
   6 F :   -0.170662
   7 C :    0.048824
   8 C :    0.038524
   9 H :    0.041567
  10 H :    0.005748
  11 H :    0.003049
Sum of atomic charges:   -0.0000000

LOEWDIN ATOMIC CHARGES
----------------------
   0 C :   -0.180538
   1 S :    0.467220
   2 C :   -0.252347
   3 C :    0.158011
   4 F :   -0.065906
   5 F :   -0.065604
   6 F :   -0.065597
   7 C :   -0.036789
   8 C :   -0.060157
   9 H :    0.029989
  10 H :    0.037530
  11 H :    0.034190

  Mayer bond orders larger than 0.100000
B(  0-C ,  1-S ) :   1.1822 B(  0-C ,  2-C ) :   0.1008 B(  0-C ,  8-C ) :   1.5492
B(  0-C ,  9-H ) :   0.9695 B(  1-S ,  2-C ) :   1.1561 B(  2-C ,  3-C ) :   0.9733
B(  2-C ,  7-C ) :   1.5453 B(  3-C ,  4-F ) :   1.1397 B(  3-C ,  5-F ) :   1.1571
B(  3-C ,  6-F ) :   1.1580 B(  7-C ,  8-C ) :   1.2680 B(  7-C , 10-H ) :   0.9956
B(  8-C , 11-H ) :   0.9916

Dispersion correction           -0.021943025
FINAL SINGLE POINT ENERGY      -889.592739649890

DIPOLE MOMENT
-------------
                                X             Y             Z
Electronic contribution:     -4.63300     -10.01167      -0.04003
Nuclear contribution   :      4.98540      11.03018       0.04361
                        -----------------------------------------
Total Dipole Moment    :      0.35240       1.01850       0.00358
                        -----------------------------------------
Magnitude (a.u.)       :      1.07775
Magnitude (Debye)      :      2.73943

Rotational constants in cm-1:     0.091978     0.035364     0.029503
Rotational constants in MHz :  2757.440197  1060.193074   884.480833

                             ****ORCA TERMINATED NORMALLY****
TOTAL RUN TIME: 0 days 0 hours 3 minutes 3 seconds 813 msec
