                         Program Version 4.2.0 -  RELEASE  -
|  1> # ORCA input file
|  2> # SCF done        -28.683495993125          0.000342496074
|  3> ! B3LYP/G D3BJ Opt RIJCOSX def2-SVP def2/J
|  4> * xyz 0 1
|  5>    C       -1.58146        -1.14947         0.16575
|  6>    S       -2.72571         0.11719         0.23537
|  7>    C       -1.51148         1.31135         0.14006
|  8>    C       -0.25393         0.75969         0.05684
|  9>    C       -0.29243        -0.68110         0.06666
| 10>    C        0.92965        -1.42282        -0.00520
| 11>    C        0.89347        -2.87904        -0.01248
| 12>    C        1.88385        -3.67591         0.37202
| 13>    C        2.10069        -0.71305        -0.08661
| 14>    C        2.13192         0.69789        -0.09558
| 15>    C        0.98867         1.43270        -0.02707
| 16>    H       -1.92970        -2.16154         0.20795
| 17>    H       -1.77838         2.34894         0.15429
| 18>    H       -0.03467        -3.31858        -0.35328
| 19>    H        2.81600        -3.29372         0.75210
| 20>    H        1.79131        -4.74766         0.33353
| 21>    H        3.03691        -1.24385        -0.16942
| 22>    H        3.09028         1.19141        -0.16580
| 23>    H        1.00494         2.51211        -0.03813
| 24> *
| 25>
| 26>                          ****END OF INPUT****
 Total Charge           Charge          ....    0
 Multiplicity           Mult            ....    1
 Number of Electrons    NEL             ....   84
Dispersion correction           -0.042215183
FINAL SINGLE POINT ENERGY      -783.692331223276
Dispersion correction            ... done
Dispersion correction           -0.041998043
FINAL SINGLE POINT ENERGY      -783.695509034962
Dispersion correction            ... done
Dispersion correction           -0.041971006
FINAL SINGLE POINT ENERGY      -783.695598211286
Dispersion correction            ... done
FINAL SINGLE POINT ENERGY      -783.695590470505
Dispersion correction            ... done
Dispersion correction           -0.041970228
FINAL SINGLE POINT ENERGY      -783.695612564831
Dispersion correction            ... done
Dispersion correction           -0.041974752
FINAL SINGLE POINT ENERGY      -783.695615942256
Dispersion correction            ... done
                    ***********************HURRAY********************

CARTESIAN COORDINATES (ANGSTROEM)
---------------------------------
  C     -1.591740   -1.163028    0.171315
  S     -2.735520    0.110989    0.259831
  C     -1.536363    1.328697    0.154783
  C     -0.262466    0.778418    0.053712
  C     -0.293090   -0.676162    0.059655
  C      0.940367   -1.421887   -0.021901
  C      0.903724   -2.890987   -0.028656
  C      1.875776   -3.709833    0.398512
  C      2.119063   -0.705562   -0.098970
  C      2.146476    0.721305   -0.101016
  C      0.990939    1.457835   -0.034834
  H     -1.926143   -2.196709    0.219761
  H     -1.810303    2.381725    0.172629
  H     -0.015023   -3.340576   -0.421312
  H      2.800478   -3.326471    0.838647
  H      1.765722   -4.795163    0.330268
  H      3.062376   -1.247051   -0.194377
  H      3.111120    1.229039   -0.175066
  H      1.014538    2.549961   -0.051983

 Multiplicity           Mult            ....    1
 Number of Electrons    NEL             ....   84
 Basis Dimension        Dim             ....  198

ORBITAL ENERGIES
----------------

  NO   OCC          E(Eh)            E(eV)
   0   2.0000     -88.886028     -2418.7118
   1   2.0000     -10.212343      -277.8920
   2   2.0000     -10.212263      -277.8898
   3   2.0000     -10.200361      -277.5659
   4   2.0000     -10.200101      -277.5589
   5   2.0000     -10.199855      -277.5522
   6   2.0000     -10.196597      -277.4635
   7   2.0000     -10.194395      -277.4036
   8   2.0000     -10.192001      -277.3384
   9   2.0000     -10.190699      -277.3030
  10   2.0000     -10.189218      -277.2627
  11   2.0000      -7.980673      -217.1652
  12   2.0000      -5.948367      -161.8633
  13   2.0000      -5.944207      -161.7501
  14   2.0000      -5.943121      -161.7205
  15   2.0000      -0.891588       -24.2613
  16   2.0000      -0.832441       -22.6519
  17   2.0000      -0.787800       -21.4371
  18   2.0000      -0.736959       -20.0537
  19   2.0000      -0.731540       -19.9062
  20   2.0000      -0.692389       -18.8409
  21   2.0000      -0.625772       -17.0281
  22   2.0000      -0.589764       -16.0483
  23   2.0000      -0.576437       -15.6856
  24   2.0000      -0.544570       -14.8185
  25   2.0000      -0.515137       -14.0176
  26   2.0000      -0.472755       -12.8643
  27   2.0000      -0.466917       -12.7055
  28   2.0000      -0.454886       -12.3781
  29   2.0000      -0.429708       -11.6930
  30   2.0000      -0.416440       -11.3319
  31   2.0000      -0.410878       -11.1806
  32   2.0000      -0.402533       -10.9535
  33   2.0000      -0.377865       -10.2822
  34   2.0000      -0.360859        -9.8195
  35   2.0000      -0.353360        -9.6154
  36   2.0000      -0.343055        -9.3350
  37   2.0000      -0.339000        -9.2246
  38   2.0000      -0.307600        -8.3702
  39   2.0000      -0.259480        -7.0608
  40   2.0000      -0.251736        -6.8501
  41   2.0000      -0.201819        -5.4918
  42   0.0000      -0.066159        -1.8003
  43   0.0000      -0.011620        -0.3162
  44   0.0000       0.020368         0.5543
  45   0.0000       0.048911         1.3309
  46   0.0000       0.055683         1.5152

MULLIKEN ATOMIC CHARGES
-----------------------
   0 C :   -0.163107
   1 S :    0.138659
   2 C :   -0.144898
   3 C :    0.094516
   4 C :    0.070605
   5 C :    0.099453
   6 C :   -0.041019
   7 C :   -0.015604
   8 C :   -0.052809
   9 C :    0.028059
  10 C :   -0.004622
  11 H :    0.017854
  12 H :    0.017284
  13 H :   -0.007718
  14 H :    0.016778
  15 H :    0.024291
  16 H :   -0.028797
  17 H :   -0.021642
  18 H :   -0.027285
Sum of atomic charges:    0.0000000

LOEWDIN ATOMIC CHARGES
----------------------
   0 C :   -0.215630
   1 S :    0.484215
   2 C :   -0.212046
   3 C :   -0.050373
   4 C :   -0.044529
   5 C :   -0.023378
   6 C :   -0.021266
   7 C :   -0.043171
   8 C :   -0.022661
   9 C :   -0.031194
  10 C :   -0.021085
  11 H :    0.022460
  12 H :    0.024403
  13 H :    0.026771
  14 H :    0.021773
  15 H :    0.025902
  16 H :    0.025272
  17 H :    0.026915
  18 H :    0.027622

  Mayer bond orders larger than 0.100000
B(  0-C ,  1-S ) :   1.2006 B(  0-C ,  2-C ) :   0.1187 B(  0-C ,  4-C ) :   1.4308
B(  0-C , 11-H ) :   0.9531 B(  1-S ,  2-C ) :   1.2095 B(  2-C ,  3-C ) :   1.3979
B(  2-C , 12-H ) :   0.9645 B(  3-C ,  4-C ) :   1.1988 B(  3-C , 10-C ) :   1.1859
B(  4-C ,  5-C ) :   1.1626 B(  5-C ,  6-C ) :   1.0676 B(  5-C ,  8-C ) :   1.5147
B(  6-C ,  7-C ) :   1.9515 B(  6-C , 13-H ) :   0.9486 B(  7-C , 14-H ) :   0.9478
B(  7-C , 15-H ) :   0.9446 B(  8-C ,  9-C ) :   1.1985 B(  8-C , 16-H ) :   0.9809
B(  9-C , 10-C ) :   1.5249 B(  9-C , 17-H ) :   0.9800 B( 10-C , 18-H ) :   0.9944

Dispersion correction           -0.041976957
FINAL SINGLE POINT ENERGY      -783.695617024486

DIPOLE MOMENT
-------------
                                X             Y             Z
Electronic contribution:     -8.38903       4.49399       0.06658
Nuclear contribution   :      8.33672      -4.44234      -0.06555
                        -----------------------------------------
Total Dipole Moment    :     -0.05232       0.05165       0.00102
                        -----------------------------------------
Magnitude (a.u.)       :      0.07352
Magnitude (Debye)      :      0.18688

Rotational constants in cm-1:     0.054929     0.026973     0.018194
Rotational constants in MHz :  1646.743015   808.631252   545.439127

                             ****ORCA TERMINATED NORMALLY****
TOTAL RUN TIME: 0 days 0 hours 7 minutes 51 seconds 489 msec
