                         Program Version 4.2.0 -  RELEASE  -
|  1> # ORCA input file
|  2> # SCF done        -24.722491766338          0.000796729177
|  3> ! B3LYP/G D3BJ Opt RIJCOSX def2-SVP def2/J
|  4> * xyz 0 1
|  5>    C       -1.30807         0.16408         0.03723
|  6>    S       -0.62407        -1.41712         0.05830
|  7>    C       -0.35585         1.12817        -0.00876
|  8>    O       -0.55666         2.47648        -0.05501
|  9>    C        0.97633         0.59727        -0.02447
| 10>    N        2.07905         1.42999        -0.00230
| 11>    N        3.33707         0.95898        -0.42246
| 12>    C        0.97377        -0.76491        -0.00091
| 13>    H       -2.37323         0.28388         0.05674
| 14>    H       -1.50033         2.66290        -0.01339
| 15>    H        1.88754         2.36513        -0.34084
| 16>    H        3.25957         0.37913        -1.26123
| 17>    H        3.73430         0.38556         0.31875
| 18>    H        1.80761        -1.43668         0.00304
| 19> *
| 20>
| 21>                          ****END OF INPUT****
 Total Charge           Charge          ....    0
 Multiplicity           Mult            ....    1
 Number of Electrons    NEL             ....   68
Dispersion correction           -0.025215376
FINAL SINGLE POINT ENERGY      -738.559600550803
Dispersion correction            ... done
Dispersion correction           -0.025216370
FINAL SINGLE POINT ENERGY      -738.561167757289
Dispersion correction            ... done
Dispersion correction           -0.025227780
FINAL SINGLE POINT ENERGY      -738.561355206036
Dispersion correction            ... done
FINAL SINGLE POINT ENERGY      -738.561391538996
FINAL SINGLE POINT ENERGY      -738.561395064626
Dispersion correction            ... done
Dispersion correction           -0.025233740
FINAL SINGLE POINT ENERGY      -738.561398757814
Dispersion correction            ... done
Dispersion correction           -0.025231689
FINAL SINGLE POINT ENERGY      -738.561397064926
Dispersion correction            ... done
                    ***********************HURRAY********************

CARTESIAN COORDINATES (ANGSTROEM)
---------------------------------
  C     -1.329086    0.149637    0.043392
  S     -0.630979   -1.441572    0.041580
  C     -0.364864    1.121532    0.009822
  O     -0.522378    2.473249   -0.024241
  C      0.977992    0.593578   -0.012469
  N      2.077323    1.438608   -0.009601
  N      3.323885    0.968071   -0.432070
  C      0.980416   -0.782628   -0.011427
  H     -2.409431    0.288909    0.063415
  H     -1.461572    2.693762   -0.061493
  H      1.875700    2.380906   -0.329837
  H      3.220698    0.338484   -1.236508
  H      3.754079    0.430428    0.320738
  H      1.845246   -1.440105   -0.016611

 Multiplicity           Mult            ....    1
 Number of Electrons    NEL             ....   68
 Basis Dimension        Dim             ....  146

ORBITAL ENERGIES
----------------

  NO   OCC          E(Eh)            E(eV)
   0   2.0000     -88.861165     -2418.0352
   1   2.0000     -19.172713      -521.7160
   2   2.0000     -14.353935      -390.5904
   3   2.0000     -14.341780      -390.2597
   4   2.0000     -10.246785      -278.8292
   5   2.0000     -10.219740      -278.0933
   6   2.0000     -10.201375      -277.5935
   7   2.0000     -10.195305      -277.4284
   8   2.0000      -7.955738      -216.4866
   9   2.0000      -5.924332      -161.2093
  10   2.0000      -5.920358      -161.1011
  11   2.0000      -5.916129      -160.9861
  12   2.0000      -1.056606       -28.7517
  13   2.0000      -0.973972       -26.5031
  14   2.0000      -0.864928       -23.5359
  15   2.0000      -0.786266       -21.3954
  16   2.0000      -0.709827       -19.3154
  17   2.0000      -0.695063       -18.9136
  18   2.0000      -0.607475       -16.5302
  19   2.0000      -0.559601       -15.2275
  20   2.0000      -0.545661       -14.8482
  21   2.0000      -0.506168       -13.7735
  22   2.0000      -0.491185       -13.3658
  23   2.0000      -0.478116       -13.0102
  24   2.0000      -0.421372       -11.4661
  25   2.0000      -0.416657       -11.3378
  26   2.0000      -0.402574       -10.9546
  27   2.0000      -0.382148       -10.3988
  28   2.0000      -0.348183        -9.4745
  29   2.0000      -0.341843        -9.3020
  30   2.0000      -0.301873        -8.2144
  31   2.0000      -0.263136        -7.1603
  32   2.0000      -0.219641        -5.9767
  33   2.0000      -0.195242        -5.3128
  34   0.0000       0.000223         0.0061
  35   0.0000       0.032498         0.8843
  36   0.0000       0.047512         1.2929
  37   0.0000       0.062061         1.6888
  38   0.0000       0.089777         2.4430

MULLIKEN ATOMIC CHARGES
-----------------------
   0 C :   -0.204950
   1 S :    0.071749
   2 C :    0.169943
   3 O :   -0.208117
   4 C :    0.100446
   5 N :   -0.112981
   6 N :   -0.114699
   7 C :   -0.204143
   8 H :    0.006749
   9 H :    0.182757
  10 H :    0.125856
  11 H :    0.090522
  12 H :    0.109664
  13 H :   -0.012797
Sum of atomic charges:    0.0000000

LOEWDIN ATOMIC CHARGES
----------------------
   0 C :   -0.260225
   1 S :    0.394050
   2 C :   -0.006066
   3 O :   -0.062159
   4 C :   -0.045962
   5 N :   -0.006763
   6 N :   -0.046681
   7 C :   -0.259316
   8 H :    0.019560
   9 H :    0.097688
  10 H :    0.068605
  11 H :    0.041630
  12 H :    0.053569
  13 H :    0.012069

  Mayer bond orders larger than 0.100000
B(  0-C ,  1-S ) :   1.1201 B(  0-C ,  2-C ) :   1.5109 B(  0-C ,  8-H ) :   0.9711
B(  1-S ,  7-C ) :   1.0999 B(  2-C ,  3-O ) :   1.1880 B(  2-C ,  4-C ) :   1.2298
B(  3-O ,  9-H ) :   0.9591 B(  4-C ,  5-N ) :   1.1668 B(  4-C ,  7-C ) :   1.5121
B(  5-N ,  6-N ) :   1.0541 B(  5-N , 10-H ) :   0.9232 B(  6-N , 11-H ) :   0.9663
B(  6-N , 12-H ) :   0.9719 B(  7-C , 13-H ) :   0.9710

Dispersion correction           -0.025230864
FINAL SINGLE POINT ENERGY      -738.561395757826

DIPOLE MOMENT
-------------
                                X             Y             Z
Electronic contribution:     -4.37544      -2.39710       0.70756
Nuclear contribution   :      3.97411       2.55795      -0.92015
                        -----------------------------------------
Total Dipole Moment    :     -0.40133       0.16084      -0.21259
                        -----------------------------------------
Magnitude (a.u.)       :      0.48180
Magnitude (Debye)      :      1.22464

Rotational constants in cm-1:     0.087192     0.049639     0.031912
Rotational constants in MHz :  2613.960575  1488.139234   956.710276

                             ****ORCA TERMINATED NORMALLY****
TOTAL RUN TIME: 0 days 0 hours 5 minutes 9 seconds 741 msec
