                         Program Version 4.2.0 -  RELEASE  -
|  1> # ORCA input file
|  2> # SCF done        -44.547641888011          0.000716221660
|  3> ! B3LYP/G D3BJ Opt RIJCOSX def2-SVP def2/J
|  4> * xyz 0 1
|  5>    C       -3.44071         0.23665        -0.01374
|  6>    C       -2.53228        -0.81354        -0.03918
|  7>    C       -1.18450        -0.52735        -0.02186
|  8>    C       -0.74246         0.80344         0.02110
|  9>    C       -1.65131         1.84868         0.04590
| 10>    C       -3.00433         1.55172         0.02790
| 11>    C        0.70983         0.80522         0.03265
| 12>    C        1.15836        -0.52341        -0.00359
| 13>    C       -0.01136        -1.48171        -0.04560
| 14>    C       -0.00024        -2.30729        -1.33609
| 15>    C       -0.01952        -2.40155         1.17895
| 16>    C        2.50337        -0.80558        -0.00155
| 17>    C        3.43611         0.23852         0.04271
| 18>    C        2.97261         1.55669         0.07303
| 19>    C        1.62208         1.84818         0.06820
| 20>    C        4.85345        -0.09799         0.05164
| 21>    C        5.87171         0.73698         0.22816
| 22>    H       -4.50033         0.02621        -0.02678
| 23>    H       -2.88444        -1.83460        -0.07192
| 24>    H       -1.31339         2.87394         0.07879
| 25>    H       -3.72878         2.35318         0.04666
| 26>    H        0.00237        -1.64930        -2.20267
| 27>    H       -0.88098        -2.94344        -1.38548
| 28>    H        0.88625        -2.93612        -1.37481
| 29>    H       -0.02610        -1.81089         2.09277
| 30>    H        0.86433        -3.03529         1.18147
| 31>    H       -0.90270        -3.03620         1.16909
| 32>    H        2.85282        -1.82859        -0.02893
| 33>    H        3.68341         2.36833         0.09314
| 34>    H        1.28510         2.87421         0.08993
| 35>    H        5.06422        -1.15124        -0.09230
| 36>    H        5.74062         1.79320         0.39071
| 37>    H        6.88953         0.38630         0.22139
| 38> *
| 39>
| 40>                          ****END OF INPUT****
 Total Charge           Charge          ....    0
 Multiplicity           Mult            ....    1
 Number of Electrons    NEL             ....  118
Dispersion correction           -0.074262120
FINAL SINGLE POINT ENERGY      -657.051486234930
Dispersion correction            ... done
Dispersion correction           -0.073734685
FINAL SINGLE POINT ENERGY      -657.056064090669
Dispersion correction            ... done
Dispersion correction           -0.073656423
FINAL SINGLE POINT ENERGY      -657.056169415006
Dispersion correction            ... done
FINAL SINGLE POINT ENERGY      -657.056198991594
Dispersion correction            ... done
Dispersion correction           -0.073622132
FINAL SINGLE POINT ENERGY      -657.056204106487
Dispersion correction            ... done
Dispersion correction           -0.073633809
FINAL SINGLE POINT ENERGY      -657.056206876591
Dispersion correction            ... done
                    ***********************HURRAY********************

CARTESIAN COORDINATES (ANGSTROEM)
---------------------------------
  C     -3.487730    0.227619   -0.029483
  C     -2.560855   -0.822905   -0.057253
  C     -1.202667   -0.526419   -0.030641
  C     -0.762922    0.814277    0.024986
  C     -1.687591    1.861904    0.051980
  C     -3.052693    1.558042    0.024206
  C      0.704405    0.819191    0.046147
  C      1.157182   -0.514515    0.003763
  C     -0.017262   -1.486462   -0.051354
  C      0.006018   -2.308592   -1.353278
  C     -0.029045   -2.406352    1.182771
  C      2.515184   -0.798426    0.020146
  C      3.461163    0.245791    0.077427
  C      2.991302    1.576838    0.114886
  C      1.628940    1.868911    0.100100
  C      4.888515   -0.102664    0.098498
  C      5.939266    0.728807    0.147279
  H     -4.557770    0.005391   -0.050060
  H     -2.906774   -1.859298   -0.100881
  H     -1.352326    2.901131    0.096459
  H     -3.787537    2.366177    0.045978
  H      0.012781   -1.643784   -2.230365
  H     -0.879028   -2.961118   -1.421976
  H      0.902471   -2.947445   -1.398249
  H     -0.046831   -1.811748    2.108774
  H      0.866165   -3.048449    1.202649
  H     -0.914944   -3.061416    1.176335
  H      2.866633   -1.833945   -0.011198
  H      3.708441    2.398783    0.159910
  H      1.290779    2.907608    0.133988
  H      5.091253   -1.179897    0.069993
  H      5.830428    1.816744    0.178874
  H      6.957787    0.333579    0.159277

 Multiplicity           Mult            ....    1
 Number of Electrons    NEL             ....  118
 Basis Dimension        Dim             ....  318

ORBITAL ENERGIES
----------------

  NO   OCC          E(Eh)            E(eV)
   0   2.0000     -10.207196      -277.7519
   1   2.0000     -10.198091      -277.5042
   2   2.0000     -10.194437      -277.4047
   3   2.0000     -10.193728      -277.3854
   4   2.0000     -10.192562      -277.3537
   5   2.0000     -10.192428      -277.3501
   6   2.0000     -10.192147      -277.3424
   7   2.0000     -10.191888      -277.3354
   8   2.0000     -10.191638      -277.3286
   9   2.0000     -10.191541      -277.3259
  10   2.0000     -10.191437      -277.3231
  11   2.0000     -10.191310      -277.3197
  12   2.0000     -10.189311      -277.2653
  13   2.0000     -10.189178      -277.2616
  14   2.0000     -10.186533      -277.1896
  15   2.0000     -10.186500      -277.1888
  16   2.0000     -10.186466      -277.1878
  17   2.0000      -0.886067       -24.1111
  18   2.0000      -0.843417       -22.9505
  19   2.0000      -0.812844       -22.1186
  20   2.0000      -0.784329       -21.3427
  21   2.0000      -0.751519       -20.4499
  22   2.0000      -0.737833       -20.0775
  23   2.0000      -0.726897       -19.7799
  24   2.0000      -0.700944       -19.0737
  25   2.0000      -0.683461       -18.5979
  26   2.0000      -0.641117       -17.4457
  27   2.0000      -0.626752       -17.0548
  28   2.0000      -0.594167       -16.1681
  29   2.0000      -0.575255       -15.6535
  30   2.0000      -0.567143       -15.4327
  31   2.0000      -0.536834       -14.6080
  32   2.0000      -0.510442       -13.8898
  33   2.0000      -0.496037       -13.4978
  34   2.0000      -0.479013       -13.0346
  35   2.0000      -0.460706       -12.5364
  36   2.0000      -0.450776       -12.2663
  37   2.0000      -0.437732       -11.9113
  38   2.0000      -0.436887       -11.8883
  39   2.0000      -0.436116       -11.8673
  40   2.0000      -0.431050       -11.7295
  41   2.0000      -0.429191       -11.6789
  42   2.0000      -0.410812       -11.1788
  43   2.0000      -0.395110       -10.7515
  44   2.0000      -0.389985       -10.6120
  45   2.0000      -0.382777       -10.4159
  46   2.0000      -0.380462       -10.3529
  47   2.0000      -0.367403        -9.9975
  48   2.0000      -0.362560        -9.8658
  49   2.0000      -0.349034        -9.4977
  50   2.0000      -0.347683        -9.4609
  51   2.0000      -0.345688        -9.4067
  52   2.0000      -0.324328        -8.8254
  53   2.0000      -0.322991        -8.7890
  54   2.0000      -0.311612        -8.4794
  55   2.0000      -0.263611        -7.1732
  56   2.0000      -0.255134        -6.9426
  57   2.0000      -0.251347        -6.8395
  58   2.0000      -0.210841        -5.7373
  59   0.0000      -0.053546        -1.4571
  60   0.0000      -0.020008        -0.5444
  61   0.0000      -0.003943        -0.1073
  62   0.0000       0.007584         0.2064
  63   0.0000       0.051299         1.3959

MULLIKEN ATOMIC CHARGES
-----------------------
   0 C :    0.017106
   1 C :   -0.038663
   2 C :    0.016881
   3 C :    0.096847
   4 C :   -0.054492
   5 C :    0.029587
   6 C :    0.090822
   7 C :    0.034188
   8 C :   -0.144295
   9 C :    0.089032
  10 C :    0.088788
  11 C :   -0.098612
  12 C :    0.102817
  13 C :   -0.013940
  14 C :   -0.044726
  15 C :   -0.004280
  16 C :   -0.028763
  17 H :   -0.018489
  18 H :   -0.039223
  19 H :   -0.036178
  20 H :   -0.017355
  21 H :    0.017607
  22 H :    0.008915
  23 H :    0.008599
  24 H :    0.017236
  25 H :    0.008546
  26 H :    0.008668
  27 H :   -0.045152
  28 H :   -0.033729
  29 H :   -0.038265
  30 H :   -0.017782
  31 H :    0.019068
  32 H :    0.019236
Sum of atomic charges:   -0.0000000

LOEWDIN ATOMIC CHARGES
----------------------
   0 C :   -0.026382
   1 C :   -0.027576
   2 C :    0.000702
   3 C :   -0.018001
   4 C :   -0.024264
   5 C :   -0.026649
   6 C :   -0.016991
   7 C :    0.000184
   8 C :   -0.035309
   9 C :   -0.027758
  10 C :   -0.027547
  11 C :   -0.021096
  12 C :   -0.027115
  13 C :   -0.013281
  14 C :   -0.020871
  15 C :   -0.021923
  16 C :   -0.052267
  17 H :    0.026012
  18 H :    0.022995
  19 H :    0.024323
  20 H :    0.026810
  21 H :    0.028098
  22 H :    0.021470
  23 H :    0.021438
  24 H :    0.027982
  25 H :    0.021326
  26 H :    0.021417
  27 H :    0.021401
  28 H :    0.024806
  29 H :    0.025091
  30 H :    0.026663
  31 H :    0.020636
  32 H :    0.025677

  Mayer bond orders larger than 0.100000
B(  0-C ,  1-C ) :   1.3417 B(  0-C ,  5-C ) :   1.3807 B(  0-C , 17-H ) :   0.9819
B(  1-C ,  2-C ) :   1.3991 B(  1-C , 18-H ) :   0.9945 B(  2-C ,  3-C ) :   1.3738
B(  2-C ,  8-C ) :   0.9430 B(  3-C ,  4-C ) :   1.3363 B(  3-C ,  6-C ) :   1.0078
B(  4-C ,  5-C ) :   1.3731 B(  4-C , 19-H ) :   0.9872 B(  5-C , 20-H ) :   0.9790
B(  6-C ,  7-C ) :   1.3835 B(  6-C , 14-C ) :   1.3067 B(  7-C ,  8-C ) :   0.9408
B(  7-C , 11-C ) :   1.3677 B(  8-C ,  9-C ) :   1.0250 B(  8-C , 10-C ) :   1.0255
B(  9-C , 21-H ) :   0.9641 B(  9-C , 22-H ) :   0.9616 B(  9-C , 23-H ) :   0.9616
B( 10-C , 24-H ) :   0.9643 B( 10-C , 25-H ) :   0.9618 B( 10-C , 26-H ) :   0.9619
B( 11-C , 12-C ) :   1.2895 B( 11-C , 27-H ) :   1.0006 B( 12-C , 13-C ) :   1.3363
B( 12-C , 15-C ) :   1.0820 B( 13-C , 14-C ) :   1.4008 B( 13-C , 28-H ) :   0.9791
B( 14-C , 29-H ) :   0.9875 B( 15-C , 16-C ) :   1.9173 B( 15-C , 30-H ) :   0.9626
B( 16-C , 31-H ) :   0.9450 B( 16-C , 32-H ) :   0.9444

Dispersion correction           -0.073641664
FINAL SINGLE POINT ENERGY      -657.056211431657

DIPOLE MOMENT
-------------
                                X             Y             Z
Electronic contribution:     -2.90880       7.03159       0.19517
Nuclear contribution   :      2.78887      -7.22509      -0.19903
                        -----------------------------------------
Total Dipole Moment    :     -0.11993      -0.19350      -0.00386
                        -----------------------------------------
Magnitude (a.u.)       :      0.22768
Magnitude (Debye)      :      0.57872

Rotational constants in cm-1:     0.034788     0.010283     0.008370
Rotational constants in MHz :  1042.918410   308.264786   250.938132

                             ****ORCA TERMINATED NORMALLY****
TOTAL RUN TIME: 0 days 0 hours 26 minutes 27 seconds 370 msec
