                         Program Version 4.2.0 -  RELEASE  -
|  1> # ORCA input file
|  2> # SCF done        -49.131260365585          0.000525241087
|  3> ! B3LYP/G D3BJ Opt RIJCOSX def2-SVP def2/J
|  4> * xyz 0 1
|  5>    C       -2.47134         0.59308        -0.44908
|  6>    C       -2.70694        -0.91076        -0.42990
|  7>    O       -3.63164        -1.50689        -0.89150
|  8>    O       -1.69038        -1.51321         0.21290
|  9>    C       -0.67712        -0.57946         0.56871
| 10>    C       -1.40883         0.77471         0.63246
| 11>    C       -0.51083         1.99855         0.49889
| 12>    C        0.44797         1.90705        -0.68055
| 13>    C        1.26958         0.62364        -0.70366
| 14>    C        0.45743        -0.66392        -0.47820
| 15>    O        1.41657        -1.62513        -0.05609
| 16>    C        2.53959        -1.04920         0.40196
| 17>    O        3.46431        -1.67076         0.82786
| 18>    C        2.42316         0.47594         0.30407
| 19>    C        2.20042         1.00890         1.68809
| 20>    C        2.89448         2.00607         2.20597
| 21>    H       -3.39750         1.13016        -0.25785
| 22>    H       -2.10760         0.87370        -1.43896
| 23>    H       -0.28259        -0.89764         1.53769
| 24>    H       -1.91844         0.82554         1.60142
| 25>    H        0.05928         2.12277         1.41910
| 26>    H       -1.14129         2.88166         0.38074
| 27>    H        1.12862         2.75936        -0.65724
| 28>    H       -0.11552         1.96525        -1.61433
| 29>    H        1.72374         0.54020        -1.69866
| 30>    H        0.02113        -1.03977        -1.41020
| 31>    H        3.35163         0.89534        -0.08801
| 32>    H        1.45641         0.49528         2.28193
| 33>    H        3.65772         2.52032         1.64537
| 34>    H        2.72813         2.34917         3.21239
| 35> *
| 36>
| 37>                          ****END OF INPUT****
 Total Charge           Charge          ....    0
 Multiplicity           Mult            ....    1
 Number of Electrons    NEL             ....  118
Dispersion correction           -0.064522407
FINAL SINGLE POINT ENERGY      -766.098009338803
Dispersion correction            ... done
Dispersion correction           -0.063624591
FINAL SINGLE POINT ENERGY      -766.100906524183
Dispersion correction            ... done
Dispersion correction           -0.063571445
FINAL SINGLE POINT ENERGY      -766.101116807227
Dispersion correction            ... done
FINAL SINGLE POINT ENERGY      -766.101181311372
FINAL SINGLE POINT ENERGY      -766.101274378402
FINAL SINGLE POINT ENERGY      -766.101293279878
Dispersion correction            ... done
Dispersion correction           -0.063709146
FINAL SINGLE POINT ENERGY      -766.101303012525
Dispersion correction            ... done
Dispersion correction           -0.063707165
FINAL SINGLE POINT ENERGY      -766.101305163558
Dispersion correction            ... done
                    ***********************HURRAY********************

CARTESIAN COORDINATES (ANGSTROEM)
---------------------------------
  C     -2.487834    0.563956   -0.460947
  C     -2.755307   -0.931942   -0.377848
  O     -3.706681   -1.543759   -0.763275
  O     -1.692445   -1.529685    0.238731
  C     -0.671875   -0.571311    0.560945
  C     -1.417601    0.783422    0.608427
  C     -0.536991    2.025378    0.468919
  C      0.460404    1.929652   -0.687260
  C      1.275127    0.634525   -0.697975
  C      0.457938   -0.655885   -0.484482
  O      1.429026   -1.637279   -0.087068
  C      2.579994   -1.060607    0.359597
  O      3.517149   -1.695609    0.740404
  C      2.433559    0.468246    0.314191
  C      2.214781    0.995580    1.707786
  C      2.921945    1.983784    2.260207
  H     -3.416763    1.128309   -0.309873
  H     -2.121652    0.794151   -1.477147
  H     -0.262361   -0.858020    1.539759
  H     -1.932452    0.826936    1.581868
  H      0.005525    2.190975    1.409511
  H     -1.183653    2.906758    0.330049
  H      1.150617    2.787967   -0.657548
  H     -0.077559    2.007375   -1.647161
  H      1.742287    0.535812   -1.690881
  H      0.014686   -1.010719   -1.426648
  H      3.367338    0.895852   -0.075640
  H      1.427538    0.511896    2.296932
  H      3.726301    2.485935    1.714255
  H      2.719110    2.328258    3.277494

 Multiplicity           Mult            ....    1
 Number of Electrons    NEL             ....  118
 Basis Dimension        Dim             ....  294

ORBITAL ENERGIES
----------------

  NO   OCC          E(Eh)            E(eV)
   0   2.0000     -19.186827      -522.1001
   1   2.0000     -19.183654      -522.0138
   2   2.0000     -19.128982      -520.5261
   3   2.0000     -19.126748      -520.4653
   4   2.0000     -10.321492      -280.8621
   5   2.0000     -10.320398      -280.8323
   6   2.0000     -10.270973      -279.4874
   7   2.0000     -10.270504      -279.4746
   8   2.0000     -10.227897      -278.3152
   9   2.0000     -10.226921      -278.2887
  10   2.0000     -10.226197      -278.2690
  11   2.0000     -10.220066      -278.1021
  12   2.0000     -10.219188      -278.0782
  13   2.0000     -10.216611      -278.0081
  14   2.0000     -10.212280      -277.8903
  15   2.0000     -10.208474      -277.7867
  16   2.0000      -1.108482       -30.1633
  17   2.0000      -1.100873       -29.9563
  18   2.0000      -1.028327       -27.9822
  19   2.0000      -1.022408       -27.8211
  20   2.0000      -0.866156       -23.5693
  21   2.0000      -0.830444       -22.5975
  22   2.0000      -0.792191       -21.5566
  23   2.0000      -0.768862       -20.9218
  24   2.0000      -0.752984       -20.4897
  25   2.0000      -0.716684       -19.5020
  26   2.0000      -0.660654       -17.9773
  27   2.0000      -0.639006       -17.3882
  28   2.0000      -0.598290       -16.2803
  29   2.0000      -0.590676       -16.0731
  30   2.0000      -0.573834       -15.6148
  31   2.0000      -0.556136       -15.1332
  32   2.0000      -0.541971       -14.7478
  33   2.0000      -0.531174       -14.4540
  34   2.0000      -0.500979       -13.6323
  35   2.0000      -0.493726       -13.4350
  36   2.0000      -0.482040       -13.1170
  37   2.0000      -0.470906       -12.8140
  38   2.0000      -0.469456       -12.7745
  39   2.0000      -0.457377       -12.4459
  40   2.0000      -0.453560       -12.3420
  41   2.0000      -0.451123       -12.2757
  42   2.0000      -0.435086       -11.8393
  43   2.0000      -0.424745       -11.5579
  44   2.0000      -0.410316       -11.1653
  45   2.0000      -0.397893       -10.8272
  46   2.0000      -0.393791       -10.7156
  47   2.0000      -0.392208       -10.6725
  48   2.0000      -0.384973       -10.4757
  49   2.0000      -0.373546       -10.1647
  50   2.0000      -0.371271       -10.1028
  51   2.0000      -0.362703        -9.8696
  52   2.0000      -0.342374        -9.3165
  53   2.0000      -0.341422        -9.2906
  54   2.0000      -0.324540        -8.8312
  55   2.0000      -0.302516        -8.2319
  56   2.0000      -0.296443        -8.0666
  57   2.0000      -0.279402        -7.6029
  58   2.0000      -0.269638        -7.3372
  59   0.0000      -0.026585        -0.7234
  60   0.0000      -0.004115        -0.1120
  61   0.0000       0.003252         0.0885
  62   0.0000       0.022971         0.6251
  63   0.0000       0.024275         0.6605

MULLIKEN ATOMIC CHARGES
-----------------------
   0 C :    0.032262
   1 C :    0.161551
   2 O :   -0.164777
   3 O :   -0.288472
   4 C :    0.180321
   5 C :   -0.136939
   6 C :    0.116417
   7 C :    0.102469
   8 C :   -0.086674
   9 C :    0.190167
  10 O :   -0.280844
  11 C :    0.194815
  12 O :   -0.159665
  13 C :   -0.038213
  14 C :   -0.011092
  15 C :   -0.009009
  16 H :    0.036816
  17 H :    0.037347
  18 H :    0.010153
  19 H :    0.010951
  20 H :    0.006926
  21 H :    0.002554
  22 H :    0.007596
  23 H :    0.000044
  24 H :    0.010824
  25 H :    0.006504
  26 H :    0.012471
  27 H :    0.004068
  28 H :    0.022852
  29 H :    0.028579
Sum of atomic charges:    0.0000000

LOEWDIN ATOMIC CHARGES
----------------------
   0 C :   -0.056867
   1 C :    0.082790
   2 O :   -0.143404
   3 O :   -0.091975
   4 C :    0.071444
   5 C :   -0.037362
   6 C :   -0.027087
   7 C :   -0.024514
   8 C :   -0.032070
   9 C :    0.073653
  10 O :   -0.086104
  11 C :    0.087295
  12 O :   -0.137403
  13 C :   -0.054539
  14 C :   -0.018734
  15 C :   -0.041528
  16 H :    0.043513
  17 H :    0.040139
  18 H :    0.024275
  19 H :    0.033261
  20 H :    0.025777
  21 H :    0.030255
  22 H :    0.032815
  23 H :    0.023348
  24 H :    0.035656
  25 H :    0.027432
  26 H :    0.042657
  27 H :    0.022146
  28 H :    0.025518
  29 H :    0.029613

  Mayer bond orders larger than 0.100000
B(  0-C ,  1-C ) :   0.9595 B(  0-C ,  5-C ) :   1.0246 B(  0-C , 16-H ) :   0.9270
B(  0-C , 17-H ) :   0.9233 B(  1-C ,  2-O ) :   2.2131 B(  1-C ,  3-O ) :   1.0939
B(  3-O ,  4-C ) :   0.9463 B(  4-C ,  5-C ) :   1.0179 B(  4-C ,  9-C ) :   0.9790
B(  4-C , 18-H ) :   0.9060 B(  5-C ,  6-C ) :   1.0672 B(  5-C , 19-H ) :   0.9092
B(  6-C ,  7-C ) :   1.0674 B(  6-C , 20-H ) :   0.9225 B(  6-C , 21-H ) :   0.9204
B(  7-C ,  8-C ) :   1.0646 B(  7-C , 22-H ) :   0.9200 B(  7-C , 23-H ) :   0.9310
B(  8-C ,  9-C ) :   1.0139 B(  8-C , 13-C ) :   0.9950 B(  8-C , 24-H ) :   0.8998
B(  9-C , 10-O ) :   0.9526 B(  9-C , 25-H ) :   0.9094 B( 10-O , 11-C ) :   1.1005
B( 11-C , 12-O ) :   2.2239 B( 11-C , 13-C ) :   0.8873 B( 13-C , 14-C ) :   1.0203
B( 13-C , 26-H ) :   0.9011 B( 14-C , 15-C ) :   1.9985 B( 14-C , 27-H ) :   0.9429
B( 15-C , 28-H ) :   0.9546 B( 15-C , 29-H ) :   0.9452

Dispersion correction           -0.063701656
FINAL SINGLE POINT ENERGY      -766.101306603903

DIPOLE MOMENT
-------------
                                X             Y             Z
Electronic contribution:     -1.62404     -14.29901      -1.65387
Nuclear contribution   :      1.76452      16.99272       1.60594
                        -----------------------------------------
Total Dipole Moment    :      0.14048       2.69371      -0.04792
                        -----------------------------------------
Magnitude (a.u.)       :      2.69780
Magnitude (Debye)      :      6.85726

Rotational constants in cm-1:     0.032646     0.013352     0.010864
Rotational constants in MHz :   978.690601   400.287107   325.684644

                             ****ORCA TERMINATED NORMALLY****
TOTAL RUN TIME: 0 days 0 hours 29 minutes 28 seconds 378 msec
