                         Program Version 4.2.0 -  RELEASE  -
|  1> # ORCA input file
|  2> # SCF done        -16.987767339895          0.000336351214
|  3> ! B3LYP/G D3BJ Opt RIJCOSX def2-SVP def2/J
|  4> * xyz 0 1
|  5>    C       -1.58677         0.16328         0.00857
|  6>    S       -0.15460         1.11659         0.01747
|  7>    C        0.84155        -0.30305         0.00747
|  8>    C        2.32636        -0.19050         0.01138
|  9>    C        0.07884        -1.42895        -0.00124
| 10>    C       -1.31007        -1.16347         0.00067
| 11>    H       -2.54146         0.65029         0.01086
| 12>    H        2.62937         0.85317        -0.00669
| 13>    H        2.74939        -0.69218        -0.85895
| 14>    H        2.74250        -0.65843         0.90380
| 15>    H        0.49457        -2.42124        -0.00774
| 16>    H       -2.06441        -1.93011        -0.00457
| 17> *
| 18>
| 19>                          ****END OF INPUT****
 Total Charge           Charge          ....    0
 Multiplicity           Mult            ....    1
 Number of Electrons    NEL             ....   52
Dispersion correction           -0.020732118
FINAL SINGLE POINT ENERGY      -592.093900509164
Dispersion correction            ... done
Dispersion correction           -0.020633597
FINAL SINGLE POINT ENERGY      -592.095802913104
Dispersion correction            ... done
Dispersion correction           -0.020621696
FINAL SINGLE POINT ENERGY      -592.095858700628
Dispersion correction            ... done
FINAL SINGLE POINT ENERGY      -592.095856577747
Dispersion correction            ... done
Dispersion correction           -0.020620744
FINAL SINGLE POINT ENERGY      -592.095867755889
Dispersion correction            ... done
Dispersion correction           -0.020622101
FINAL SINGLE POINT ENERGY      -592.095866971599
Dispersion correction            ... done
                    ***********************HURRAY********************

CARTESIAN COORDINATES (ANGSTROEM)
---------------------------------
  C     -1.610370    0.174519    0.012274
  S     -0.156898    1.114802    0.021227
  C      0.846993   -0.305149    0.006759
  C      2.341421   -0.185826    0.012180
  C      0.071570   -1.440744   -0.003998
  C     -1.330399   -1.168134   -0.000981
  H     -2.582858    0.663839    0.016643
  H      2.665046    0.864586   -0.019036
  H      2.786577   -0.696243   -0.857033
  H      2.777004   -0.640238    0.917273
  H      0.498014   -2.445672   -0.014716
  H     -2.100830   -1.940340   -0.009561

 Multiplicity           Mult            ....    1
 Number of Electrons    NEL             ....   52
 Basis Dimension        Dim             ....  118

ORBITAL ENERGIES
----------------

  NO   OCC          E(Eh)            E(eV)
   0   2.0000     -88.866056     -2418.1683
   1   2.0000     -10.211761      -277.8761
   2   2.0000     -10.204036      -277.6659
   3   2.0000     -10.198840      -277.5246
   4   2.0000     -10.188079      -277.2317
   5   2.0000     -10.183603      -277.1099
   6   2.0000      -7.961353      -216.6394
   7   2.0000      -5.929310      -161.3447
   8   2.0000      -5.925414      -161.2387
   9   2.0000      -5.922825      -161.1683
  10   2.0000      -0.871981       -23.7278
  11   2.0000      -0.754161       -20.5218
  12   2.0000      -0.724088       -19.7034
  13   2.0000      -0.667212       -18.1558
  14   2.0000      -0.552262       -15.0278
  15   2.0000      -0.528839       -14.3904
  16   2.0000      -0.496493       -13.5103
  17   2.0000      -0.427409       -11.6304
  18   2.0000      -0.426523       -11.6063
  19   2.0000      -0.402637       -10.9563
  20   2.0000      -0.384870       -10.4729
  21   2.0000      -0.363456        -9.8901
  22   2.0000      -0.363126        -9.8812
  23   2.0000      -0.338137        -9.2012
  24   2.0000      -0.249333        -6.7847
  25   2.0000      -0.227241        -6.1836
  26   0.0000      -0.010702        -0.2912
  27   0.0000       0.040086         1.0908
  28   0.0000       0.056035         1.5248
  29   0.0000       0.071719         1.9516
  30   0.0000       0.081812         2.2262

MULLIKEN ATOMIC CHARGES
-----------------------
   0 C :   -0.095242
   1 S :    0.090555
   2 C :   -0.231461
   3 C :    0.105089
   4 C :    0.031888
   5 C :    0.031901
   6 H :    0.024755
   7 H :    0.010901
   8 H :    0.031705
   9 H :    0.032473
  10 H :   -0.024304
  11 H :   -0.008261
Sum of atomic charges:    0.0000000

LOEWDIN ATOMIC CHARGES
----------------------
   0 C :   -0.202126
   1 S :    0.414059
   2 C :   -0.185587
   3 C :   -0.058075
   4 C :   -0.080784
   5 C :   -0.066939
   6 H :    0.022751
   7 H :    0.029360
   8 H :    0.037048
   9 H :    0.037008
  10 H :    0.025104
  11 H :    0.028180

  Mayer bond orders larger than 0.100000
B(  0-C ,  1-S ) :   1.1545 B(  0-C ,  5-C ) :   1.5677 B(  0-C ,  6-H ) :   0.9721
B(  1-S ,  2-C ) :   1.1633 B(  2-C ,  3-C ) :   1.0794 B(  2-C ,  4-C ) :   1.5694
B(  3-C ,  7-H ) :   0.9529 B(  3-C ,  8-H ) :   0.9571 B(  3-C ,  9-H ) :   0.9567
B(  4-C ,  5-C ) :   1.2523 B(  4-C , 10-H ) :   0.9969 B(  5-C , 11-H ) :   0.9892

Dispersion correction           -0.020622983
FINAL SINGLE POINT ENERGY      -592.095865656962

DIPOLE MOMENT
-------------
                                X             Y             Z
Electronic contribution:     -3.45012       3.60103       0.02761
Nuclear contribution   :      3.63329      -3.76035      -0.02785
                        -----------------------------------------
Total Dipole Moment    :      0.18317      -0.15932      -0.00024
                        -----------------------------------------
Magnitude (a.u.)       :      0.24276
Magnitude (Debye)      :      0.61704

Rotational constants in cm-1:     0.174779     0.103162     0.065675
Rotational constants in MHz :  5239.748074  3092.726781  1968.883460

                             ****ORCA TERMINATED NORMALLY****
TOTAL RUN TIME: 0 days 0 hours 3 minutes 15 seconds 824 msec
