                         Program Version 4.2.0 -  RELEASE  -
|  1> # ORCA input file
|  2> # SCF done        -20.355561780178          0.000328791580
|  3> ! B3LYP/G D3BJ Opt RIJCOSX def2-SVP def2/J
|  4> * xyz 0 1
|  5>    C       -1.13327        -0.04364        -0.00643
|  6>    N       -0.32639         1.04885        -0.04028
|  7>    C       -0.76692         2.41679        -0.01479
|  8>    C       -0.90999         2.93632         1.41602
|  9>    C        0.96694         0.63378        -0.01181
| 10>    C        0.98838        -0.73350         0.02734
| 11>    C       -0.35164        -1.16570         0.02914
| 12>    H       -2.20132         0.05643        -0.02022
| 13>    H       -1.72986         2.48335        -0.52996
| 14>    H       -0.04114         3.02871        -0.55902
| 15>    H       -1.63436         2.33749         1.96304
| 16>    H       -1.24388         3.97061         1.40842
| 17>    H        0.04430         2.87925         1.93423
| 18>    H        1.77515         1.33905        -0.03072
| 19>    H        1.86105        -1.35635         0.04741
| 20>    H       -0.69585        -2.18101         0.05090
| 21> *
| 22>
| 23>                          ****END OF INPUT****
 Total Charge           Charge          ....    0
 Multiplicity           Mult            ....    1
 Number of Electrons    NEL             ....   52
Dispersion correction           -0.023492918
FINAL SINGLE POINT ENERGY      -288.611719169766
Dispersion correction            ... done
Dispersion correction           -0.023408575
FINAL SINGLE POINT ENERGY      -288.614492956205
Dispersion correction            ... done
Dispersion correction           -0.023406539
FINAL SINGLE POINT ENERGY      -288.614587083534
Dispersion correction            ... done
FINAL SINGLE POINT ENERGY      -288.614606246438
FINAL SINGLE POINT ENERGY      -288.614603389673
Dispersion correction            ... done
Dispersion correction           -0.023431422
FINAL SINGLE POINT ENERGY      -288.614597958485
Dispersion correction            ... done
Dispersion correction           -0.023435800
FINAL SINGLE POINT ENERGY      -288.614594273901
Dispersion correction            ... done
                    ***********************HURRAY********************

CARTESIAN COORDINATES (ANGSTROEM)
---------------------------------
  C     -1.139368   -0.043365    0.002392
  N     -0.311484    1.052333   -0.071261
  C     -0.752100    2.434659   -0.007194
  C     -0.936466    2.934692    1.424748
  C      0.997201    0.626895   -0.053068
  C      1.005135   -0.753818    0.018314
  C     -0.355284   -1.180290    0.053748
  H     -2.221146    0.078282    0.007759
  H     -1.696850    2.516422   -0.567894
  H     -0.015420    3.053149   -0.543376
  H     -1.676201    2.319754    1.958926
  H     -1.289936    3.978235    1.428814
  H      0.011586    2.882305    1.981707
  H      1.815205    1.342669   -0.102064
  H      1.889556   -1.387783    0.030269
  H     -0.723227   -2.203709    0.101449

 Multiplicity           Mult            ....    1
 Number of Electrons    NEL             ....   52
 Basis Dimension        Dim             ....  143

ORBITAL ENERGIES
----------------

  NO   OCC          E(Eh)            E(eV)
   0   2.0000     -14.367071      -390.9479
   1   2.0000     -10.235682      -278.5271
   2   2.0000     -10.196274      -277.4547
   3   2.0000     -10.195727      -277.4398
   4   2.0000     -10.192243      -277.3450
   5   2.0000     -10.162319      -276.5308
   6   2.0000     -10.162067      -276.5239
   7   2.0000      -0.970280       -26.4026
   8   2.0000      -0.802545       -21.8384
   9   2.0000      -0.722556       -19.6617
  10   2.0000      -0.706619       -19.2281
  11   2.0000      -0.633740       -17.2449
  12   2.0000      -0.563560       -15.3353
  13   2.0000      -0.538276       -14.6472
  14   2.0000      -0.522429       -14.2160
  15   2.0000      -0.457851       -12.4588
  16   2.0000      -0.450962       -12.2713
  17   2.0000      -0.418307       -11.3827
  18   2.0000      -0.414158       -11.2698
  19   2.0000      -0.383771       -10.4429
  20   2.0000      -0.383295       -10.4300
  21   2.0000      -0.369303       -10.0492
  22   2.0000      -0.364773        -9.9260
  23   2.0000      -0.356456        -9.6997
  24   2.0000      -0.232186        -6.3181
  25   2.0000      -0.208433        -5.6717
  26   0.0000       0.032898         0.8952
  27   0.0000       0.054211         1.4752
  28   0.0000       0.078269         2.1298
  29   0.0000       0.087996         2.3945
  30   0.0000       0.088896         2.4190

MULLIKEN ATOMIC CHARGES
-----------------------
   0 C :    0.044928
   1 N :   -0.187954
   2 C :    0.104373
   3 C :    0.008155
   4 C :    0.048579
   5 C :   -0.020086
   6 C :   -0.019985
   7 H :   -0.011049
   8 H :    0.013839
   9 H :    0.016579
  10 H :    0.023318
  11 H :    0.015806
  12 H :    0.023575
  13 H :   -0.012333
  14 H :   -0.023176
  15 H :   -0.024572
Sum of atomic charges:   -0.0000000

LOEWDIN ATOMIC CHARGES
----------------------
   0 C :   -0.034367
   1 N :    0.050164
   2 C :    0.043503
   3 C :   -0.060829
   4 C :   -0.032757
   5 C :   -0.085842
   6 C :   -0.084737
   7 H :    0.015065
   8 H :    0.025594
   9 H :    0.026218
  10 H :    0.027342
  11 H :    0.027460
  12 H :    0.027590
  13 H :    0.014968
  14 H :    0.020417
  15 H :    0.020210

  Mayer bond orders larger than 0.100000
B(  0-C ,  1-N ) :   1.1969 B(  0-C ,  6-C ) :   1.4804 B(  0-C ,  7-H ) :   0.9876
B(  1-N ,  2-C ) :   0.9807 B(  1-N ,  4-C ) :   1.1958 B(  2-C ,  3-C ) :   1.1078
B(  2-C ,  8-H ) :   0.9478 B(  2-C ,  9-H ) :   0.9487 B(  3-C , 10-H ) :   0.9661
B(  3-C , 11-H ) :   0.9619 B(  3-C , 12-H ) :   0.9659 B(  4-C ,  5-C ) :   1.4847
B(  4-C , 13-H ) :   0.9868 B(  5-C ,  6-C ) :   1.3017 B(  5-C , 14-H ) :   1.0033
B(  6-C , 15-H ) :   1.0053

Dispersion correction           -0.023438739
FINAL SINGLE POINT ENERGY      -288.614592015102

DIPOLE MOMENT
-------------
                                X             Y             Z
Electronic contribution:      1.40901      -4.26360      -2.14692
Nuclear contribution   :     -1.66999       5.08602       2.19898
                        -----------------------------------------
Total Dipole Moment    :     -0.26098       0.82242       0.05205
                        -----------------------------------------
Magnitude (a.u.)       :      0.86441
Magnitude (Debye)      :      2.19715

Rotational constants in cm-1:     0.214811     0.065071     0.056707
Rotational constants in MHz :  6439.862137  1950.779077  1700.019893

                             ****ORCA TERMINATED NORMALLY****
TOTAL RUN TIME: 0 days 0 hours 5 minutes 30 seconds 519 msec
