                         Program Version 4.2.0 -  RELEASE  -
|  1> # ORCA input file
|  2> # SCF done        -31.339455003557          0.000642348539
|  3> ! B3LYP/G D3BJ Opt RIJCOSX def2-SVP def2/J
|  4> * xyz 0 1
|  5>    C       -0.47307         1.63616         0.30024
|  6>    S       -1.35815         0.18161         0.29556
|  7>    C        0.06349        -0.73283        -0.04289
|  8>    C        1.16452         0.06099        -0.14534
|  9>    C        0.85897         1.44960         0.05468
| 10>    C        1.80425         2.59239         0.01813
| 11>    O        1.44556         3.72556         0.20132
| 12>    O        3.08493         2.29683        -0.22903
| 13>    O        2.44394        -0.33295        -0.40548
| 14>    C        2.67160        -1.71283        -0.58972
| 15>    H       -0.95410         2.57629         0.48203
| 16>    H       -0.01316        -1.79609        -0.14253
| 17>    H        3.21955         1.34192        -0.35464
| 18>    H        3.73627        -1.81401        -0.79092
| 19>    H        2.09871        -2.09563        -1.43878
| 20>    H        2.41188        -2.27705         0.31036
| 21> *
| 22>
| 23>                          ****END OF INPUT****
 Total Charge           Charge          ....    0
 Multiplicity           Mult            ....    1
 Number of Electrons    NEL             ....   82
Dispersion correction           -0.030322651
FINAL SINGLE POINT ENERGY      -855.686505876644
Dispersion correction            ... done
Dispersion correction           -0.030270718
FINAL SINGLE POINT ENERGY      -855.687957598774
Dispersion correction            ... done
Dispersion correction           -0.030258781
FINAL SINGLE POINT ENERGY      -855.688054504182
Dispersion correction            ... done
FINAL SINGLE POINT ENERGY      -855.688037593770
FINAL SINGLE POINT ENERGY      -855.688065545071
FINAL SINGLE POINT ENERGY      -855.688056545209
FINAL SINGLE POINT ENERGY      -855.688042262141
Dispersion correction            ... done
Dispersion correction           -0.030269187
FINAL SINGLE POINT ENERGY      -855.688022579577
Dispersion correction            ... done
Dispersion correction           -0.030268705
FINAL SINGLE POINT ENERGY      -855.687998775378
Dispersion correction            ... done
                    ***********************HURRAY********************

CARTESIAN COORDINATES (ANGSTROEM)
---------------------------------
  C     -0.487671    1.652043    0.276018
  S     -1.379446    0.183949    0.284711
  C      0.048318   -0.758496   -0.008224
  C      1.155063    0.050966   -0.103419
  C      0.855261    1.451682    0.061368
  C      1.813752    2.598782    0.013812
  O      1.463730    3.743137    0.156627
  O      3.100046    2.279037   -0.199344
  O      2.438278   -0.333719   -0.336049
  C      2.685168   -1.701846   -0.607855
  H     -0.962634    2.619592    0.427885
  H     -0.012408   -1.839686   -0.097168
  H      3.200782    1.313815   -0.298583
  H      3.747045   -1.787303   -0.870565
  H      2.068592   -2.048628   -1.454214
  H      2.471314   -2.323364    0.277991

 Multiplicity           Mult            ....    1
 Number of Electrons    NEL             ....   82
 Basis Dimension        Dim             ....  174

ORBITAL ENERGIES
----------------

  NO   OCC          E(Eh)            E(eV)
   0   2.0000     -88.895023     -2418.9566
   1   2.0000     -19.206568      -522.6373
   2   2.0000     -19.160944      -521.3958
   3   2.0000     -19.104261      -519.8534
   4   2.0000     -10.310879      -280.5733
   5   2.0000     -10.276658      -279.6421
   6   2.0000     -10.274615      -279.5865
   7   2.0000     -10.233274      -278.4616
   8   2.0000     -10.226573      -278.2792
   9   2.0000     -10.213145      -277.9138
  10   2.0000      -7.989960      -217.4179
  11   2.0000      -5.958037      -162.1264
  12   2.0000      -5.954013      -162.0169
  13   2.0000      -5.951289      -161.9428
  14   2.0000      -1.098940       -29.9037
  15   2.0000      -1.074822       -29.2474
  16   2.0000      -0.994500       -27.0617
  17   2.0000      -0.898465       -24.4485
  18   2.0000      -0.778658       -21.1884
  19   2.0000      -0.749700       -20.4004
  20   2.0000      -0.711997       -19.3744
  21   2.0000      -0.622270       -16.9328
  22   2.0000      -0.596360       -16.2278
  23   2.0000      -0.589816       -16.0497
  24   2.0000      -0.571729       -15.5575
  25   2.0000      -0.504113       -13.7176
  26   2.0000      -0.499714       -13.5979
  27   2.0000      -0.486148       -13.2287
  28   2.0000      -0.446583       -12.1521
  29   2.0000      -0.445084       -12.1114
  30   2.0000      -0.426005       -11.5922
  31   2.0000      -0.416538       -11.3346
  32   2.0000      -0.409882       -11.1535
  33   2.0000      -0.404735       -11.0134
  34   2.0000      -0.365202        -9.9376
  35   2.0000      -0.358707        -9.7609
  36   2.0000      -0.355981        -9.6867
  37   2.0000      -0.307258        -8.3609
  38   2.0000      -0.269303        -7.3281
  39   2.0000      -0.264894        -7.2081
  40   2.0000      -0.247789        -6.7427
  41   0.0000      -0.048640        -1.3236
  42   0.0000       0.005987         0.1629
  43   0.0000       0.024729         0.6729
  44   0.0000       0.045499         1.2381
  45   0.0000       0.062733         1.7070

MULLIKEN ATOMIC CHARGES
-----------------------
   0 C :   -0.095765
   1 S :    0.130648
   2 C :   -0.205639
   3 C :    0.235968
   4 C :   -0.057629
   5 C :    0.178210
   6 O :   -0.197637
   7 O :   -0.165783
   8 O :   -0.366699
   9 C :    0.186174
  10 H :    0.048826
  11 H :    0.024760
  12 H :    0.174732
  13 H :    0.043771
  14 H :    0.031419
  15 H :    0.034645
Sum of atomic charges:   -0.0000000

LOEWDIN ATOMIC CHARGES
----------------------
   0 C :   -0.138876
   1 S :    0.457685
   2 C :   -0.254991
   3 C :    0.015499
   4 C :   -0.138404
   5 C :    0.076689
   6 O :   -0.174156
   7 O :   -0.035572
   8 O :   -0.100629
   9 C :    0.091023
  10 H :    0.039758
  11 H :    0.025249
  12 H :    0.064306
  13 H :    0.031812
  14 H :    0.020001
  15 H :    0.020607

  Mayer bond orders larger than 0.100000
B(  0-C ,  1-S ) :   1.2134 B(  0-C ,  4-C ) :   1.5403 B(  0-C , 10-H ) :   0.9600
B(  1-S ,  2-C ) :   1.1150 B(  2-C ,  3-C ) :   1.5098 B(  2-C , 11-H ) :   0.9715
B(  3-C ,  4-C ) :   1.2053 B(  3-C ,  8-O ) :   1.0627 B(  4-C ,  5-C ) :   0.8993
B(  5-C ,  6-O ) :   2.1565 B(  5-C ,  7-O ) :   1.2685 B(  7-O , 12-H ) :   0.9208
B(  8-O ,  9-C ) :   0.9327 B(  9-C , 13-H ) :   0.9784 B(  9-C , 14-H ) :   0.9665
B(  9-C , 15-H ) :   0.9697

Dispersion correction           -0.030269473
FINAL SINGLE POINT ENERGY      -855.687998729659

DIPOLE MOMENT
-------------
                                X             Y             Z
Electronic contribution:     -4.81126       5.99027       1.54088
Nuclear contribution   :      4.60686      -8.45891      -1.78310
                        -----------------------------------------
Total Dipole Moment    :     -0.20440      -2.46864      -0.24221
                        -----------------------------------------
Magnitude (a.u.)       :      2.48890
Magnitude (Debye)      :      6.32628

Rotational constants in cm-1:     0.046161     0.037875     0.020895
Rotational constants in MHz :  1383.866963  1135.470150   626.419157

                             ****ORCA TERMINATED NORMALLY****
TOTAL RUN TIME: 0 days 0 hours 8 minutes 56 seconds 98 msec
