                         Program Version 4.2.0 -  RELEASE  -
|  1> # ORCA input file
|  2> # SCF done        -22.465373369138          0.000355184076
|  3> ! B3LYP/G D3BJ Opt RIJCOSX def2-SVP def2/J
|  4> * xyz 0 1
|  5>    C       -0.11082        -1.08695         0.14327
|  6>    N       -1.35452        -0.53300         0.18050
|  7>    C       -1.24310         0.80862         0.04474
|  8>    C        0.09187         1.13651        -0.08679
|  9>    C        0.81576        -0.09348        -0.02194
| 10>    C        2.28892        -0.30719        -0.09854
| 11>    C        0.55013         2.49819        -0.25229
| 12>    C        1.78876         2.92489        -0.47127
| 13>    H        0.03132        -2.14605         0.23677
| 14>    H       -2.21560        -1.04115         0.29140
| 15>    H       -2.10440         1.44809         0.04552
| 16>    H        2.80274         0.27355         0.66648
| 17>    H        2.67465        -0.00973        -1.07335
| 18>    H        2.51677        -1.36017         0.05412
| 19>    H       -0.24842         3.22994        -0.19059
| 20>    H        2.63074         2.26310        -0.55281
| 21>    H        2.00063         3.97551        -0.58122
| 22> *
| 23>
| 24>                          ****END OF INPUT****
 Total Charge           Charge          ....    0
 Multiplicity           Mult            ....    1
 Number of Electrons    NEL             ....   58
Dispersion correction           -0.027500890
FINAL SINGLE POINT ENERGY      -326.681380386564
Dispersion correction            ... done
Dispersion correction           -0.027436943
FINAL SINGLE POINT ENERGY      -326.684030922589
Dispersion correction            ... done
Dispersion correction           -0.027434756
FINAL SINGLE POINT ENERGY      -326.684096282506
Dispersion correction            ... done
FINAL SINGLE POINT ENERGY      -326.684107795580
FINAL SINGLE POINT ENERGY      -326.684115657320
FINAL SINGLE POINT ENERGY      -326.684127412983
Dispersion correction            ... done
Dispersion correction           -0.027437161
FINAL SINGLE POINT ENERGY      -326.684136690352
Dispersion correction            ... done
Dispersion correction           -0.027437763
FINAL SINGLE POINT ENERGY      -326.684144729311
Dispersion correction            ... done
                    ***********************HURRAY********************

CARTESIAN COORDINATES (ANGSTROEM)
---------------------------------
  C     -0.119758   -1.109242    0.157831
  N     -1.374251   -0.545103    0.200236
  C     -1.273778    0.808852    0.048033
  C      0.072373    1.136921   -0.098393
  C      0.808946   -0.104381   -0.024261
  C      2.287750   -0.304246   -0.126075
  C      0.550124    2.500400   -0.287873
  C      1.814467    2.935925   -0.429998
  H      0.027517   -2.181933    0.266967
  H     -2.236244   -1.053858    0.339082
  H     -2.151177    1.452506    0.054867
  H      2.833185    0.264848    0.644175
  H      2.678385    0.026404   -1.103762
  H      2.548088   -1.366427   -0.002697
  H     -0.248389    3.252758   -0.316414
  H      2.675709    2.267981   -0.416007
  H      2.022483    3.999276   -0.571714

 Multiplicity           Mult            ....    1
 Number of Electrons    NEL             ....   58
 Basis Dimension        Dim             ....  157

ORBITAL ENERGIES
----------------

  NO   OCC          E(Eh)            E(eV)
   0   2.0000     -14.374031      -391.1373
   1   2.0000     -10.206253      -277.7263
   2   2.0000     -10.201829      -277.6059
   3   2.0000     -10.182716      -277.0858
   4   2.0000     -10.179555      -276.9998
   5   2.0000     -10.172812      -276.8163
   6   2.0000     -10.171228      -276.7732
   7   2.0000     -10.167309      -276.6665
   8   2.0000      -0.967322       -26.3222
   9   2.0000      -0.793605       -21.5951
  10   2.0000      -0.748290       -20.3620
  11   2.0000      -0.711369       -19.3573
  12   2.0000      -0.679137       -18.4803
  13   2.0000      -0.601577       -16.3698
  14   2.0000      -0.559292       -15.2191
  15   2.0000      -0.536399       -14.5962
  16   2.0000      -0.508897       -13.8478
  17   2.0000      -0.457148       -12.4396
  18   2.0000      -0.426795       -11.6137
  19   2.0000      -0.422299       -11.4913
  20   2.0000      -0.409711       -11.1488
  21   2.0000      -0.404094       -10.9960
  22   2.0000      -0.389050       -10.5866
  23   2.0000      -0.382284       -10.4025
  24   2.0000      -0.362298        -9.8586
  25   2.0000      -0.325846        -8.8667
  26   2.0000      -0.296735        -8.0746
  27   2.0000      -0.220783        -6.0078
  28   2.0000      -0.201739        -5.4896
  29   0.0000       0.000153         0.0042
  30   0.0000       0.042625         1.1599
  31   0.0000       0.048910         1.3309
  32   0.0000       0.078684         2.1411
  33   0.0000       0.087914         2.3923

MULLIKEN ATOMIC CHARGES
-----------------------
   0 C :   -0.013487
   1 N :   -0.055083
   2 C :   -0.007440
   3 C :    0.036668
   4 C :   -0.112790
   5 C :    0.103970
   6 C :   -0.003959
   7 C :   -0.050411
   8 H :   -0.017630
   9 H :    0.118757
  10 H :   -0.014379
  11 H :    0.026023
  12 H :    0.021724
  13 H :   -0.009313
  14 H :   -0.027364
  15 H :   -0.004499
  16 H :    0.009213
Sum of atomic charges:    0.0000000

LOEWDIN ATOMIC CHARGES
----------------------
   0 C :   -0.037510
   1 N :    0.083129
   2 C :   -0.019558
   3 C :   -0.079891
   4 C :   -0.066227
   5 C :   -0.046300
   6 C :   -0.020167
   7 C :   -0.080490
   8 H :    0.016092
   9 H :    0.086252
  10 H :    0.017296
  11 H :    0.030030
  12 H :    0.029868
  13 H :    0.026209
  14 H :    0.025079
  15 H :    0.016181
  16 H :    0.020007

  Mayer bond orders larger than 0.100000
B(  0-C ,  1-N ) :   1.1891 B(  0-C ,  4-C ) :   1.5070 B(  0-C ,  8-H ) :   0.9856
B(  1-N ,  2-C ) :   1.2350 B(  1-N ,  9-H ) :   0.9438 B(  2-C ,  3-C ) :   1.4103
B(  2-C , 10-H ) :   0.9854 B(  3-C ,  4-C ) :   1.2980 B(  3-C ,  6-C ) :   1.1243
B(  4-C ,  5-C ) :   1.1216 B(  5-C , 11-H ) :   0.9417 B(  5-C , 12-H ) :   0.9420
B(  5-C , 13-H ) :   0.9438 B(  6-C ,  7-C ) :   1.9101 B(  6-C , 14-H ) :   0.9512
B(  7-C , 15-H ) :   0.9503 B(  7-C , 16-H ) :   0.9418

Dispersion correction           -0.027438263
FINAL SINGLE POINT ENERGY      -326.684146303216

DIPOLE MOMENT
-------------
                                X             Y             Z
Electronic contribution:     -5.36498      -1.41814       0.59169
Nuclear contribution   :      4.58729       0.76557      -0.44888
                        -----------------------------------------
Total Dipole Moment    :     -0.77768      -0.65257       0.14281
                        -----------------------------------------
Magnitude (a.u.)       :      1.02520
Magnitude (Debye)      :      2.60585

Rotational constants in cm-1:     0.114651     0.062659     0.040827
Rotational constants in MHz :  3437.145908  1878.474053  1223.952400

                             ****ORCA TERMINATED NORMALLY****
TOTAL RUN TIME: 0 days 0 hours 6 minutes 58 seconds 302 msec
