                         Program Version 4.2.0 -  RELEASE  -
|  1> # ORCA input file
|  2> # SCF done        -32.772616653612          0.000827927385
|  3> ! B3LYP/G D3BJ Opt RIJCOSX def2-SVP def2/J
|  4> * xyz 0 1
|  5>    C       -1.52330        -1.24484         0.15390
|  6>    S       -2.69451        -0.03231         0.40577
|  7>    C       -1.52572         1.21341         0.34402
|  8>    C       -0.26071         0.71982         0.13539
|  9>    C       -0.25666        -0.71672         0.02290
| 10>    C        0.95861        -1.40366        -0.19356
| 11>    C        2.12780        -0.69439        -0.28754
| 12>    C        3.45061        -1.33357        -0.49635
| 13>    O        4.47661        -0.68945        -0.45877
| 14>    C        3.46562        -2.82160        -0.75924
| 15>    C        2.11300         0.72926        -0.17101
| 16>    C        0.96613         1.42396         0.02943
| 17>    H       -1.81809        -2.27435         0.11435
| 18>    H       -1.82791         2.23418         0.46485
| 19>    H        0.93112        -2.47920        -0.27145
| 20>    H        2.86836        -3.05442        -1.63848
| 21>    H        3.05725        -3.35692         0.09524
| 22>    H        4.49073        -3.14333        -0.92388
| 23>    H        3.06416         1.23337        -0.25163
| 24>    H        0.96516         2.50021         0.11260
| 25> *
| 26>
| 27>                          ****END OF INPUT****
 Total Charge           Charge          ....    0
 Multiplicity           Mult            ....    1
 Number of Electrons    NEL             ....   92
Dispersion correction           -0.043824481
FINAL SINGLE POINT ENERGY      -858.886409183063
Dispersion correction            ... done
Dispersion correction           -0.043604133
FINAL SINGLE POINT ENERGY      -858.889160309369
Dispersion correction            ... done
Dispersion correction           -0.043568143
FINAL SINGLE POINT ENERGY      -858.889255702441
Dispersion correction            ... done
FINAL SINGLE POINT ENERGY      -858.889258199310
Dispersion correction            ... done
Dispersion correction           -0.043564138
FINAL SINGLE POINT ENERGY      -858.889284516369
Dispersion correction            ... done
Dispersion correction           -0.043566235
FINAL SINGLE POINT ENERGY      -858.889282076417
Dispersion correction            ... done
                    ***********************HURRAY********************

CARTESIAN COORDINATES (ANGSTROEM)
---------------------------------
  C     -1.546825   -1.254773    0.161294
  S     -2.715529   -0.032266    0.420388
  C     -1.557411    1.233199    0.344710
  C     -0.278212    0.736117    0.130265
  C     -0.272232   -0.713677    0.018493
  C      0.959630   -1.396225   -0.204862
  C      2.136267   -0.682706   -0.286527
  C      3.460035   -1.350125   -0.494313
  O      4.492624   -0.708054   -0.454252
  C      3.486087   -2.843951   -0.760869
  C      2.124665    0.752335   -0.160914
  C      0.961939    1.445682    0.025833
  H     -1.838347   -2.302744    0.125205
  H     -1.863313    2.270174    0.468708
  H      0.948020   -2.482579   -0.306515
  H      2.857838   -3.104269   -1.627073
  H      3.098170   -3.406997    0.102846
  H      4.522284   -3.147656   -0.953535
  H      3.086228    1.262748   -0.230516
  H      0.966344    2.535216    0.108174

 Multiplicity           Mult            ....    1
 Number of Electrons    NEL             ....   92
 Basis Dimension        Dim             ....  212

ORBITAL ENERGIES
----------------

  NO   OCC          E(Eh)            E(eV)
   0   2.0000     -88.896154     -2418.9873
   1   2.0000     -19.119451      -520.2667
   2   2.0000     -10.272351      -279.5249
   3   2.0000     -10.224533      -278.2237
   4   2.0000     -10.220904      -278.1249
   5   2.0000     -10.211874      -277.8792
   6   2.0000     -10.210481      -277.8413
   7   2.0000     -10.209087      -277.8034
   8   2.0000     -10.201160      -277.5877
   9   2.0000     -10.200507      -277.5699
  10   2.0000     -10.194138      -277.3966
  11   2.0000     -10.192771      -277.3594
  12   2.0000      -7.990836      -217.4417
  13   2.0000      -5.958510      -162.1393
  14   2.0000      -5.954327      -162.0255
  15   2.0000      -5.953287      -161.9972
  16   2.0000      -1.026720       -27.9385
  17   2.0000      -0.901080       -24.5196
  18   2.0000      -0.839002       -22.8304
  19   2.0000      -0.775408       -21.0999
  20   2.0000      -0.752304       -20.4712
  21   2.0000      -0.730871       -19.8880
  22   2.0000      -0.702018       -19.1029
  23   2.0000      -0.635720       -17.2988
  24   2.0000      -0.597234       -16.2516
  25   2.0000      -0.583974       -15.8907
  26   2.0000      -0.537887       -14.6366
  27   2.0000      -0.515142       -14.0177
  28   2.0000      -0.486892       -13.2490
  29   2.0000      -0.472313       -12.8523
  30   2.0000      -0.449895       -12.2423
  31   2.0000      -0.445976       -12.1356
  32   2.0000      -0.435742       -11.8571
  33   2.0000      -0.422086       -11.4855
  34   2.0000      -0.416286       -11.3277
  35   2.0000      -0.413161       -11.2427
  36   2.0000      -0.397157       -10.8072
  37   2.0000      -0.376940       -10.2571
  38   2.0000      -0.370255       -10.0751
  39   2.0000      -0.363846        -9.9008
  40   2.0000      -0.350288        -9.5318
  41   2.0000      -0.337751        -9.1907
  42   2.0000      -0.297563        -8.0971
  43   2.0000      -0.259500        -7.0613
  44   2.0000      -0.251944        -6.8557
  45   2.0000      -0.217827        -5.9274
  46   0.0000      -0.078643        -2.1400
  47   0.0000      -0.032227        -0.8770
  48   0.0000       0.013797         0.3754
  49   0.0000       0.040790         1.1100
  50   0.0000       0.050252         1.3674

MULLIKEN ATOMIC CHARGES
-----------------------
   0 C :   -0.136861
   1 S :    0.147596
   2 C :   -0.145950
   3 C :    0.105193
   4 C :    0.102419
   5 C :   -0.048508
   6 C :    0.028675
   7 C :    0.001990
   8 O :   -0.194475
   9 C :    0.051972
  10 C :   -0.000081
  11 C :    0.007209
  12 H :    0.021647
  13 H :    0.020839
  14 H :   -0.030407
  15 H :    0.031803
  16 H :    0.035928
  17 H :    0.027808
  18 H :   -0.003643
  19 H :   -0.023156
Sum of atomic charges:   -0.0000000

LOEWDIN ATOMIC CHARGES
----------------------
   0 C :   -0.203747
   1 S :    0.491487
   2 C :   -0.209278
   3 C :   -0.046079
   4 C :   -0.053708
   5 C :    0.002352
   6 C :   -0.071310
   7 C :    0.080828
   8 O :   -0.151283
   9 C :   -0.077430
  10 C :   -0.005194
  11 C :   -0.017780
  12 H :    0.026276
  13 H :    0.026442
  14 H :    0.027815
  15 H :    0.038378
  16 H :    0.041020
  17 H :    0.037663
  18 H :    0.033453
  19 H :    0.030093

  Mayer bond orders larger than 0.100000
B(  0-C ,  1-S ) :   1.2184 B(  0-C ,  2-C ) :   0.1137 B(  0-C ,  4-C ) :   1.3907
B(  0-C , 12-H ) :   0.9637 B(  1-S ,  2-C ) :   1.1990 B(  2-C ,  3-C ) :   1.4139
B(  2-C , 13-H ) :   0.9648 B(  3-C ,  4-C ) :   1.1972 B(  3-C , 11-C ) :   1.1598
B(  4-C ,  5-C ) :   1.1785 B(  5-C ,  6-C ) :   1.4894 B(  5-C , 14-H ) :   0.9855
B(  6-C ,  7-C ) :   0.9233 B(  6-C , 10-C ) :   1.1927 B(  7-C ,  8-O ) :   2.1465
B(  7-C ,  9-C ) :   1.0654 B(  9-C , 15-H ) :   0.9432 B(  9-C , 16-H ) :   0.9358
B(  9-C , 17-H ) :   0.9477 B( 10-C , 11-C ) :   1.5425 B( 10-C , 18-H ) :   0.9837
B( 11-C , 19-H ) :   0.9965

Dispersion correction           -0.043565867
FINAL SINGLE POINT ENERGY      -858.889272089984

DIPOLE MOMENT
-------------
                                X             Y             Z
Electronic contribution:     -7.75134       4.45639       1.76000
Nuclear contribution   :      6.49790      -4.90332      -1.72709
                        -----------------------------------------
Total Dipole Moment    :     -1.25345      -0.44693       0.03290
                        -----------------------------------------
Magnitude (a.u.)       :      1.33115
Magnitude (Debye)      :      3.38351

Rotational constants in cm-1:     0.077777     0.015251     0.012791
Rotational constants in MHz :  2331.689379   457.215006   383.470085

                             ****ORCA TERMINATED NORMALLY****
TOTAL RUN TIME: 0 days 0 hours 10 minutes 27 seconds 691 msec
