                         Program Version 4.2.0 -  RELEASE  -
|  1> # ORCA input file
|  2> # SCF done        -48.954932561273          0.000403496054
|  3> ! B3LYP/G D3BJ Opt RIJCOSX def2-SVP def2/J
|  4> * xyz 0 1
|  5>    C       -2.76499         0.75316         0.12298
|  6>    C       -1.51273         1.34460        -0.51961
|  7>    C       -0.27002         0.74057         0.11926
|  8>    C       -0.25530        -0.77048        -0.08675
|  9>    C       -1.50117        -1.36404         0.59051
| 10>    C       -2.76975        -0.76710        -0.01038
| 11>    N        0.94538        -1.44061         0.40805
| 12>    C        1.42984        -2.49019        -0.46344
| 13>    C        2.18325        -2.05622        -1.72844
| 14>    C        1.88744        -0.60167         1.11548
| 15>    C        2.50632         0.55273         0.31020
| 16>    S        1.22654         1.47524        -0.63320
| 17>    C        3.26597         1.48459         1.24571
| 18>    C        4.38438         0.71583         1.94561
| 19>    C        3.82350        -0.48892         2.69632
| 20>    C        3.03089        -1.39341         1.75515
| 21>    H       -3.65362         1.17344        -0.35144
| 22>    H       -2.78986         1.02417         1.18112
| 23>    H       -1.49572         2.42901        -0.39401
| 24>    H       -1.50651         1.13351        -1.59122
| 25>    H       -0.25799         0.99621         1.18181
| 26>    H       -0.34146        -0.94058        -1.16970
| 27>    H       -1.45557        -1.15456         1.66091
| 28>    H       -1.49377        -2.44766         0.46433
| 29>    H       -3.64828        -1.18140         0.48834
| 30>    H       -2.82781        -1.03599        -1.06784
| 31>    H        2.06341        -3.15681         0.12558
| 32>    H        0.54856        -3.06664        -0.75975
| 33>    H        3.20211        -1.75536        -1.49863
| 34>    H        1.67923        -1.22248        -2.21190
| 35>    H        2.22765        -2.88563        -2.43042
| 36>    H        1.32114        -0.15633         1.94589
| 37>    H        3.18956         0.16709        -0.44850
| 38>    H        2.57566         1.89520         1.98682
| 39>    H        3.67872         2.31936         0.67599
| 40>    H        4.90837         1.37668         2.63872
| 41>    H        5.10576         0.37424         1.19938
| 42>    H        3.17176        -0.14332         3.50216
| 43>    H        4.63984        -1.05611         3.14840
| 44>    H        2.61311        -2.23645         2.30790
| 45>    H        3.69926        -1.78131         0.98507
| 46> *
| 47>
| 48>                          ****END OF INPUT****
 Total Charge           Charge          ....    0
 Multiplicity           Mult            ....    1
 Number of Electrons    NEL             ....  132
Dispersion correction           -0.090993707
FINAL SINGLE POINT ENERGY     -1001.039170542065
Dispersion correction            ... done
Dispersion correction           -0.089753026
FINAL SINGLE POINT ENERGY     -1001.043159019587
Dispersion correction            ... done
Dispersion correction           -0.089598713
FINAL SINGLE POINT ENERGY     -1001.043519890630
Dispersion correction            ... done
FINAL SINGLE POINT ENERGY     -1001.043490201839
FINAL SINGLE POINT ENERGY     -1001.043431624948
FINAL SINGLE POINT ENERGY     -1001.043366956797
FINAL SINGLE POINT ENERGY     -1001.043334966540
Dispersion correction            ... done
Dispersion correction           -0.089355316
FINAL SINGLE POINT ENERGY     -1001.043342640773
Dispersion correction            ... done
Dispersion correction           -0.089357597
FINAL SINGLE POINT ENERGY     -1001.043357763568
Dispersion correction            ... done
                    ***********************HURRAY********************

CARTESIAN COORDINATES (ANGSTROEM)
---------------------------------
  C     -2.828523    0.723038    0.093443
  C     -1.549152    1.393400   -0.421758
  C     -0.297980    0.758770    0.189072
  C     -0.260073   -0.749528   -0.082572
  C     -1.530864   -1.416401    0.466521
  C     -2.800605   -0.793952   -0.121357
  N      0.950744   -1.398560    0.426636
  C      1.416953   -2.500218   -0.399680
  C      2.128999   -2.137011   -1.712566
  C      1.903676   -0.561296    1.140736
  C      2.510328    0.606871    0.327927
  S      1.183442    1.571207   -0.522196
  C      3.370508    1.511252    1.217268
  C      4.475422    0.714074    1.919519
  C      3.892886   -0.466159    2.701802
  C      3.030847   -1.361722    1.803687
  H     -3.704712    1.169262   -0.404457
  H     -2.937599    0.935906    1.171874
  H     -1.557440    2.471546   -0.191311
  H     -1.493170    1.299332   -1.521192
  H     -0.318284    0.947435    1.274634
  H     -0.286227   -0.838074   -1.187484
  H     -1.523398   -1.317541    1.566769
  H     -1.489616   -2.495632    0.244638
  H     -3.695147   -1.261457    0.321322
  H     -2.840308   -1.009163   -1.204865
  H      2.065489   -3.156615    0.201621
  H      0.534206   -3.116698   -0.641249
  H      3.136291   -1.730394   -1.532324
  H      1.562523   -1.380917   -2.277552
  H      2.237684   -3.028313   -2.352341
  H      1.352365   -0.093614    1.974964
  H      3.137211    0.189677   -0.475081
  H      2.713516    1.989475    1.965786
  H      3.798389    2.328607    0.614327
  H      5.052140    1.375887    2.587070
  H      5.187493    0.334035    1.164323
  H      3.275116   -0.079455    3.532326
  H      4.699937   -1.058528    3.162903
  H      2.586142   -2.186392    2.382932
  H      3.673891   -1.819771    1.032346

 Multiplicity           Mult            ....    1
 Number of Electrons    NEL             ....  132
 Basis Dimension        Dim             ....  353

ORBITAL ENERGIES
----------------

  NO   OCC          E(Eh)            E(eV)
   0   2.0000     -88.817628     -2416.8505
   1   2.0000     -14.305131      -389.2624
   2   2.0000     -10.215401      -277.9752
   3   2.0000     -10.209423      -277.8125
   4   2.0000     -10.208090      -277.7763
   5   2.0000     -10.206885      -277.7435
   6   2.0000     -10.202877      -277.6344
   7   2.0000     -10.186980      -277.2018
   8   2.0000     -10.184902      -277.1453
   9   2.0000     -10.184673      -277.1390
  10   2.0000     -10.184044      -277.1219
  11   2.0000     -10.183933      -277.1189
  12   2.0000     -10.182599      -277.0826
  13   2.0000     -10.181524      -277.0533
  14   2.0000     -10.175655      -276.8936
  15   2.0000     -10.173234      -276.8278
  16   2.0000      -7.912485      -215.3097
  17   2.0000      -5.881673      -160.0485
  18   2.0000      -5.878216      -159.9544
  19   2.0000      -5.870963      -159.7570
  20   2.0000      -0.918741       -25.0002
  21   2.0000      -0.830980       -22.6121
  22   2.0000      -0.825351       -22.4590
  23   2.0000      -0.775676       -21.1072
  24   2.0000      -0.743450       -20.2303
  25   2.0000      -0.741199       -20.1690
  26   2.0000      -0.735186       -20.0054
  27   2.0000      -0.704824       -19.1792
  28   2.0000      -0.657528       -17.8922
  29   2.0000      -0.628494       -17.1022
  30   2.0000      -0.614721       -16.7274
  31   2.0000      -0.596521       -16.2322
  32   2.0000      -0.571644       -15.5552
  33   2.0000      -0.565137       -15.3782
  34   2.0000      -0.561732       -15.2855
  35   2.0000      -0.534060       -14.5325
  36   2.0000      -0.499969       -13.6049
  37   2.0000      -0.480475       -13.0744
  38   2.0000      -0.458319       -12.4715
  39   2.0000      -0.450571       -12.2607
  40   2.0000      -0.446949       -12.1621
  41   2.0000      -0.444543       -12.0966
  42   2.0000      -0.439362       -11.9557
  43   2.0000      -0.429169       -11.6783
  44   2.0000      -0.419327       -11.4105
  45   2.0000      -0.414061       -11.2672
  46   2.0000      -0.402681       -10.9575
  47   2.0000      -0.399410       -10.8685
  48   2.0000      -0.384965       -10.4754
  49   2.0000      -0.379893       -10.3374
  50   2.0000      -0.374415       -10.1884
  51   2.0000      -0.364367        -9.9149
  52   2.0000      -0.356669        -9.7054
  53   2.0000      -0.352067        -9.5802
  54   2.0000      -0.346701        -9.4342
  55   2.0000      -0.344027        -9.3615
  56   2.0000      -0.339722        -9.2443
  57   2.0000      -0.333076        -9.0635
  58   2.0000      -0.326793        -8.8925
  59   2.0000      -0.324083        -8.8188
  60   2.0000      -0.317228        -8.6322
  61   2.0000      -0.311688        -8.4815
  62   2.0000      -0.298511        -8.1229
  63   2.0000      -0.286488        -7.7957
  64   2.0000      -0.211155        -5.7458
  65   2.0000      -0.196260        -5.3405
  66   0.0000       0.037895         1.0312
  67   0.0000       0.043785         1.1914
  68   0.0000       0.048569         1.3216
  69   0.0000       0.070890         1.9290
  70   0.0000       0.072156         1.9635

MULLIKEN ATOMIC CHARGES
-----------------------
   0 C :    0.033101
   1 C :    0.085680
   2 C :   -0.178193
   3 C :    0.118639
   4 C :    0.073296
   5 C :    0.041058
   6 N :   -0.330000
   7 C :    0.112709
   8 C :   -0.002171
   9 C :    0.099844
  10 C :   -0.146337
  11 S :   -0.052607
  12 C :    0.120784
  13 C :    0.011686
  14 C :    0.050518
  15 C :    0.052462
  16 H :   -0.004203
  17 H :   -0.010883
  18 H :    0.006101
  19 H :    0.000864
  20 H :    0.016844
  21 H :   -0.025573
  22 H :   -0.014752
  23 H :   -0.007608
  24 H :   -0.007659
  25 H :   -0.013307
  26 H :    0.000030
  27 H :   -0.005661
  28 H :    0.013059
  29 H :    0.016332
  30 H :    0.003994
  31 H :   -0.026571
  32 H :    0.015286
  33 H :   -0.016155
  34 H :   -0.002572
  35 H :    0.001280
  36 H :   -0.010552
  37 H :   -0.010871
  38 H :   -0.005578
  39 H :    0.004867
  40 H :   -0.007181
Sum of atomic charges:   -0.0000000

LOEWDIN ATOMIC CHARGES
----------------------
   0 C :   -0.030697
   1 C :   -0.039086
   2 C :   -0.128306
   3 C :    0.018696
   4 C :   -0.036288
   5 C :   -0.033812
   6 N :   -0.117969
   7 C :    0.028793
   8 C :   -0.077383
   9 C :    0.018349
  10 C :   -0.137208
  11 S :    0.219157
  12 C :   -0.041800
  13 C :   -0.034800
  14 C :   -0.029016
  15 C :   -0.027598
  16 H :    0.022046
  17 H :    0.018190
  18 H :    0.023113
  19 H :    0.018755
  20 H :    0.012186
  21 H :    0.004953
  22 H :    0.016341
  23 H :    0.019656
  24 H :    0.020610
  25 H :    0.017877
  26 H :    0.016168
  27 H :    0.016437
  28 H :    0.015389
  29 H :    0.021648
  30 H :    0.022814
  31 H :    0.013924
  32 H :    0.011992
  33 H :    0.016264
  34 H :    0.020614
  35 H :    0.022567
  36 H :    0.017760
  37 H :    0.017725
  38 H :    0.021105
  39 H :    0.023856
  40 H :    0.016979

  Mayer bond orders larger than 0.100000
B(  0-C ,  1-C ) :   1.1056 B(  0-C ,  5-C ) :   1.0953 B(  0-C , 16-H ) :   0.9321
B(  0-C , 17-H ) :   0.9301 B(  1-C ,  2-C ) :   1.0396 B(  1-C , 18-H ) :   0.9266
B(  1-C , 19-H ) :   0.9248 B(  2-C ,  3-C ) :   0.9797 B(  2-C , 11-S ) :   1.0383
B(  2-C , 20-H ) :   0.8987 B(  3-C ,  4-C ) :   1.0589 B(  3-C ,  6-N ) :   0.9782
B(  3-C , 21-H ) :   0.8867 B(  4-C ,  5-C ) :   1.0842 B(  4-C , 22-H ) :   0.9219
B(  4-C , 23-H ) :   0.9226 B(  5-C , 24-H ) :   0.9311 B(  5-C , 25-H ) :   0.9273
B(  6-N ,  7-C ) :   1.0386 B(  6-N ,  9-C ) :   1.0611 B(  7-C ,  8-C ) :   1.1061
B(  7-C , 26-H ) :   0.9385 B(  7-C , 27-H ) :   0.9361 B(  8-C , 28-H ) :   0.9548
B(  8-C , 29-H ) :   0.9557 B(  8-C , 30-H ) :   0.9520 B(  9-C , 10-C ) :   0.9802
B(  9-C , 15-C ) :   1.0610 B(  9-C , 31-H ) :   0.8913 B( 10-C , 11-S ) :   0.9859
B( 10-C , 12-C ) :   1.0207 B( 10-C , 32-H ) :   0.8990 B( 12-C , 13-C ) :   1.0909
B( 12-C , 33-H ) :   0.9208 B( 12-C , 34-H ) :   0.9298 B( 13-C , 14-C ) :   1.0897
B( 13-C , 35-H ) :   0.9346 B( 13-C , 36-H ) :   0.9302 B( 14-C , 15-C ) :   1.0936
B( 14-C , 37-H ) :   0.9282 B( 14-C , 38-H ) :   0.9320 B( 15-C , 39-H ) :   0.9230
B( 15-C , 40-H ) :   0.9179

Dispersion correction           -0.089361490
FINAL SINGLE POINT ENERGY     -1001.043363120011

DIPOLE MOMENT
-------------
                                X             Y             Z
Electronic contribution:     -0.24080       7.31011      -1.95598
Nuclear contribution   :      0.25805      -7.71709       2.27839
                        -----------------------------------------
Total Dipole Moment    :      0.01726      -0.40698       0.32241
                        -----------------------------------------
Magnitude (a.u.)       :      0.51950
Magnitude (Debye)      :      1.32047

Rotational constants in cm-1:     0.025307     0.011628     0.009976
Rotational constants in MHz :   758.671148   348.608217   299.081623

                             ****ORCA TERMINATED NORMALLY****
TOTAL RUN TIME: 0 days 0 hours 46 minutes 27 seconds 39 msec
