                         Program Version 4.2.0 -  RELEASE  -
|  1> # ORCA input file
|  2> # SCF done        -21.347375110678          0.000412508216
|  3> ! B3LYP/G D3BJ Opt RIJCOSX def2-SVP def2/J
|  4> * xyz 0 1
|  5>    C       -1.36853        -1.21100         0.00144
|  6>    S       -2.49563         0.09307         0.00144
|  7>    C       -1.24760         1.27645         0.00100
|  8>    C       -0.01159         0.69711         0.00073
|  9>    C       -0.09753        -0.73518         0.00092
| 10>    S        1.48057        -1.47030        -0.00017
| 11>    C        2.21671         0.11446         0.00042
| 12>    C        1.34704         1.14147         0.00014
| 13>    H       -1.71701        -2.22298         0.00154
| 14>    H       -1.50390         2.31627         0.00085
| 15>    H        3.28876         0.16327         0.00019
| 16>    H        1.63453         2.17705        -0.00031
| 17> *
| 18>
| 19>                          ****END OF INPUT****
 Total Charge           Charge          ....    0
 Multiplicity           Mult            ....    1
 Number of Electrons    NEL             ....   72
Dispersion correction           -0.028810853
FINAL SINGLE POINT ENERGY     -1027.043145213197
Dispersion correction            ... done
Dispersion correction           -0.028783917
FINAL SINGLE POINT ENERGY     -1027.045326193188
Dispersion correction            ... done
Dispersion correction           -0.028780967
FINAL SINGLE POINT ENERGY     -1027.045402405498
Dispersion correction            ... done
FINAL SINGLE POINT ENERGY     -1027.045410773395
Dispersion correction            ... done
Dispersion correction           -0.028775840
FINAL SINGLE POINT ENERGY     -1027.045411552534
Dispersion correction            ... done
Dispersion correction           -0.028775134
FINAL SINGLE POINT ENERGY     -1027.045411172701
Dispersion correction            ... done
                    ***********************HURRAY********************

CARTESIAN COORDINATES (ANGSTROEM)
---------------------------------
  C     -1.389751   -1.226259    0.001133
  S     -2.513225    0.092321    0.000731
  C     -1.265241    1.285198    0.001214
  C     -0.015091    0.696693    0.000785
  C     -0.102139   -0.746954    0.000967
  S      1.493381   -1.484952    0.001388
  C      2.238226    0.112636   -0.000149
  C      1.358337    1.147842    0.000298
  H     -1.746582   -2.253714    0.001431
  H     -1.523196    2.342665    0.001266
  H      3.326350    0.179987   -0.000794
  H      1.664750    2.194224   -0.000079

 Multiplicity           Mult            ....    1
 Number of Electrons    NEL             ....   72
 Basis Dimension        Dim             ....  140

ORBITAL ENERGIES
----------------

  NO   OCC          E(Eh)            E(eV)
   0   2.0000     -88.881129     -2418.5785
   1   2.0000     -88.868348     -2418.2307
   2   2.0000     -10.220122      -278.1037
   3   2.0000     -10.219006      -278.0733
   4   2.0000     -10.217063      -278.0204
   5   2.0000     -10.215373      -277.9744
   6   2.0000     -10.203499      -277.6513
   7   2.0000     -10.199698      -277.5479
   8   2.0000      -7.975695      -217.0297
   9   2.0000      -7.963308      -216.6926
  10   2.0000      -5.943824      -161.7397
  11   2.0000      -5.939565      -161.6238
  12   2.0000      -5.937337      -161.5631
  13   2.0000      -5.932089      -161.4204
  14   2.0000      -5.928091      -161.3116
  15   2.0000      -5.923165      -161.1775
  16   2.0000      -0.899202       -24.4685
  17   2.0000      -0.839286       -22.8381
  18   2.0000      -0.753410       -20.5013
  19   2.0000      -0.716490       -19.4967
  20   2.0000      -0.689366       -18.7586
  21   2.0000      -0.589039       -16.0286
  22   2.0000      -0.566067       -15.4035
  23   2.0000      -0.533945       -14.5294
  24   2.0000      -0.497428       -13.5357
  25   2.0000      -0.437047       -11.8927
  26   2.0000      -0.430123       -11.7042
  27   2.0000      -0.409867       -11.1531
  28   2.0000      -0.404587       -11.0094
  29   2.0000      -0.385679       -10.4949
  30   2.0000      -0.353033        -9.6065
  31   2.0000      -0.339720        -9.2442
  32   2.0000      -0.339628        -9.2418
  33   2.0000      -0.284222        -7.7341
  34   2.0000      -0.243229        -6.6186
  35   2.0000      -0.209396        -5.6980
  36   0.0000      -0.039736        -1.0813
  37   0.0000       0.012665         0.3446
  38   0.0000       0.030935         0.8418
  39   0.0000       0.035379         0.9627
  40   0.0000       0.078789         2.1440

MULLIKEN ATOMIC CHARGES
-----------------------
   0 C :   -0.157967
   1 S :    0.108151
   2 C :   -0.139699
   3 C :    0.090955
   4 C :   -0.016132
   5 S :    0.085952
   6 C :   -0.084116
   7 C :    0.050057
   8 H :    0.022963
   9 H :    0.020435
  10 H :    0.033755
  11 H :   -0.014354
Sum of atomic charges:    0.0000000

LOEWDIN ATOMIC CHARGES
----------------------
   0 C :   -0.222440
   1 S :    0.449316
   2 C :   -0.207336
   3 C :   -0.078715
   4 C :   -0.191004
   5 S :    0.361401
   6 C :   -0.159154
   7 C :   -0.062998
   8 H :    0.026561
   9 H :    0.025767
  10 H :    0.026579
  11 H :    0.032024

  Mayer bond orders larger than 0.100000
B(  0-C ,  1-S ) :   1.1707 B(  0-C ,  2-C ) :   0.1043 B(  0-C ,  4-C ) :   1.5260
B(  0-C ,  8-H ) :   0.9752 B(  1-S ,  2-C ) :   1.1758 B(  2-C ,  3-C ) :   1.4612
B(  2-C ,  9-H ) :   0.9663 B(  3-C ,  4-C ) :   1.2326 B(  3-C ,  7-C ) :   1.1393
B(  4-C ,  5-S ) :   1.0353 B(  5-S ,  6-C ) :   1.0902 B(  6-C ,  7-C ) :   1.6535
B(  6-C , 10-H ) :   0.9615 B(  7-C , 11-H ) :   0.9948

Dispersion correction           -0.028775545
FINAL SINGLE POINT ENERGY     -1027.045411592755

DIPOLE MOMENT
-------------
                                X             Y             Z
Electronic contribution:     -2.12258      -2.79603       0.00139
Nuclear contribution   :      2.19937       3.06058      -0.00153
                        -----------------------------------------
Total Dipole Moment    :      0.07679       0.26455      -0.00014
                        -----------------------------------------
Magnitude (a.u.)       :      0.27547
Magnitude (Debye)      :      0.70019

Rotational constants in cm-1:     0.122972     0.039596     0.029952
Rotational constants in MHz :  3686.598129  1187.049873   897.926184

                             ****ORCA TERMINATED NORMALLY****
TOTAL RUN TIME: 0 days 0 hours 3 minutes 51 seconds 955 msec
