                         Program Version 4.2.0 -  RELEASE  -
|  1> # ORCA input file
|  2> # SCF done        -32.332055280878          0.000752124058
|  3> ! B3LYP/G D3BJ Opt RIJCOSX def2-SVP def2/J
|  4> * xyz 0 1
|  5>    C        1.36426         0.66781         0.20535
|  6>    N        0.22935        -0.05752         0.05293
|  7>    C        0.51695        -1.39508         0.09885
|  8>    C       -0.51369        -2.37730        -0.03857
|  9>    C       -0.32359        -3.70964        -0.00206
| 10>    C       -1.35595        -4.69002        -0.14077
| 11>    N       -1.07319        -6.02832        -0.08854
| 12>    C       -2.20976        -6.75029        -0.24491
| 13>    C       -3.25288        -5.87400        -0.40203
| 14>    C       -2.72261        -4.57781        -0.33747
| 15>    C        1.88512        -1.50328         0.28711
| 16>    C        2.41129        -0.20547         0.35314
| 17>    H        1.35053         1.73996         0.19848
| 18>    H       -0.69399         0.32159        -0.07529
| 19>    H       -1.51526        -1.99347        -0.18192
| 20>    H        0.67748        -4.09441         0.14212
| 21>    H       -0.15208        -6.41033         0.04690
| 22>    H       -2.19989        -7.82244        -0.23401
| 23>    H       -4.28291        -6.13378        -0.54737
| 24>    H       -3.27722        -3.66517        -0.42513
| 25>    H        2.44339        -2.41436         0.36774
| 26>    H        3.44128         0.05749         0.49310
| 27> *
| 28>
| 29>                          ****END OF INPUT****
 Total Charge           Charge          ....    0
 Multiplicity           Mult            ....    1
 Number of Electrons    NEL             ....   84
Dispersion correction           -0.039260017
FINAL SINGLE POINT ENERGY      -496.245313164690
Dispersion correction            ... done
Dispersion correction           -0.039121450
FINAL SINGLE POINT ENERGY      -496.249293795760
Dispersion correction            ... done
Dispersion correction           -0.039101561
FINAL SINGLE POINT ENERGY      -496.249357655515
Dispersion correction            ... done
FINAL SINGLE POINT ENERGY      -496.249360587077
Dispersion correction            ... done
Dispersion correction           -0.039092669
FINAL SINGLE POINT ENERGY      -496.249353148776
Dispersion correction            ... done
Dispersion correction           -0.039094306
FINAL SINGLE POINT ENERGY      -496.249347592770
Dispersion correction            ... done
                    ***********************HURRAY********************

CARTESIAN COORDINATES (ANGSTROEM)
---------------------------------
  C      1.390280    0.714098    0.202404
  N      0.250388   -0.030306    0.055893
  C      0.538936   -1.381117    0.109423
  C     -0.505227   -2.369697   -0.023095
  C     -0.335963   -3.713580   -0.019906
  C     -1.380128   -4.702155   -0.152444
  N     -1.091617   -6.052967   -0.098746
  C     -2.231536   -6.797352   -0.245188
  C     -3.290135   -5.917290   -0.401057
  C     -2.760228   -4.601994   -0.345037
  C      1.919062   -1.481255    0.301847
  C      2.448929   -0.165949    0.358035
  H      1.368317    1.801380    0.183403
  H     -0.677048    0.346958   -0.086011
  H     -1.521517   -1.976421   -0.141349
  H      0.680331   -4.106844    0.098358
  H     -0.164270   -6.430225    0.043752
  H     -2.209648   -7.884631   -0.225967
  H     -4.330300   -6.201379   -0.549304
  H     -3.316323   -3.672550   -0.442909
  H      2.475213   -2.410699    0.399396
  H      3.489113    0.118135    0.506152

 Multiplicity           Mult            ....    1
 Number of Electrons    NEL             ....   84
 Basis Dimension        Dim             ....  218

ORBITAL ENERGIES
----------------

  NO   OCC          E(Eh)            E(eV)
   0   2.0000     -14.371127      -391.0582
   1   2.0000     -14.371117      -391.0580
   2   2.0000     -10.209324      -277.8098
   3   2.0000     -10.209292      -277.8089
   4   2.0000     -10.206286      -277.7272
   5   2.0000     -10.206278      -277.7269
   6   2.0000     -10.190766      -277.3049
   7   2.0000     -10.190141      -277.2878
   8   2.0000     -10.169805      -276.7345
   9   2.0000     -10.169804      -276.7344
  10   2.0000     -10.167505      -276.6719
  11   2.0000     -10.167497      -276.6717
  12   2.0000      -0.967718       -26.3329
  13   2.0000      -0.967094       -26.3160
  14   2.0000      -0.792718       -21.5709
  15   2.0000      -0.763522       -20.7765
  16   2.0000      -0.762709       -20.7544
  17   2.0000      -0.732570       -19.9342
  18   2.0000      -0.681253       -18.5378
  19   2.0000      -0.607927       -16.5425
  20   2.0000      -0.585311       -15.9271
  21   2.0000      -0.584890       -15.9157
  22   2.0000      -0.566404       -15.4126
  23   2.0000      -0.562231       -15.2991
  24   2.0000      -0.512756       -13.9528
  25   2.0000      -0.504267       -13.7218
  26   2.0000      -0.446033       -12.1372
  27   2.0000      -0.436474       -11.8771
  28   2.0000      -0.428969       -11.6728
  29   2.0000      -0.415932       -11.3181
  30   2.0000      -0.414212       -11.2713
  31   2.0000      -0.410292       -11.1646
  32   2.0000      -0.402510       -10.9529
  33   2.0000      -0.387111       -10.5338
  34   2.0000      -0.381864       -10.3910
  35   2.0000      -0.373850       -10.1730
  36   2.0000      -0.352616        -9.5952
  37   2.0000      -0.307218        -8.3598
  38   2.0000      -0.246750        -6.7144
  39   2.0000      -0.246458        -6.7065
  40   2.0000      -0.232265        -6.3202
  41   2.0000      -0.173308        -4.7160
  42   0.0000      -0.034789        -0.9467
  43   0.0000       0.048864         1.3297
  44   0.0000       0.051450         1.4000
  45   0.0000       0.052289         1.4229
  46   0.0000       0.059113         1.6086

MULLIKEN ATOMIC CHARGES
-----------------------
   0 C :    0.040743
   1 N :   -0.068354
   2 C :    0.080855
   3 C :    0.010912
   4 C :    0.010918
   5 C :    0.080845
   6 N :   -0.068360
   7 C :    0.040733
   8 C :   -0.010059
   9 C :   -0.066344
  10 C :   -0.066365
  11 C :   -0.010053
  12 H :   -0.003830
  13 H :    0.113011
  14 H :   -0.041031
  15 H :   -0.041031
  16 H :    0.113014
  17 H :   -0.003829
  18 H :   -0.023209
  19 H :   -0.032675
  20 H :   -0.032674
  21 H :   -0.023217
Sum of atomic charges:   -0.0000000

LOEWDIN ATOMIC CHARGES
----------------------
   0 C :   -0.026438
   1 N :    0.082963
   2 C :   -0.022426
   3 C :   -0.044478
   4 C :   -0.044480
   5 C :   -0.022424
   6 N :    0.082958
   7 C :   -0.026438
   8 C :   -0.077322
   9 C :   -0.078115
  10 C :   -0.078115
  11 C :   -0.077323
  12 H :    0.018292
  13 H :    0.084116
  14 H :    0.022324
  15 H :    0.022324
  16 H :    0.084117
  17 H :    0.018292
  18 H :    0.022331
  19 H :    0.018756
  20 H :    0.018756
  21 H :    0.022331

  Mayer bond orders larger than 0.100000
B(  0-C ,  1-N ) :   1.2124 B(  0-C , 11-C ) :   1.4568 B(  0-C , 12-H ) :   0.9883
B(  1-N ,  2-C ) :   1.1965 B(  1-N , 13-H ) :   0.9389 B(  2-C ,  3-C ) :   1.0946
B(  2-C , 10-C ) :   1.4386 B(  3-C ,  4-C ) :   1.6999 B(  3-C , 14-H ) :   0.9562
B(  4-C ,  5-C ) :   1.0946 B(  4-C , 15-H ) :   0.9562 B(  5-C ,  6-N ) :   1.1965
B(  5-C ,  9-C ) :   1.4386 B(  6-N ,  7-C ) :   1.2124 B(  6-N , 16-H ) :   0.9389
B(  7-C ,  8-C ) :   1.4568 B(  7-C , 17-H ) :   0.9883 B(  8-C ,  9-C ) :   1.3169
B(  8-C , 18-H ) :   0.9999 B(  9-C , 19-H ) :   1.0014 B( 10-C , 11-C ) :   1.3170
B( 10-C , 20-H ) :   1.0014 B( 11-C , 21-H ) :   0.9999

Dispersion correction           -0.039095988
FINAL SINGLE POINT ENERGY      -496.249347386250

DIPOLE MOMENT
-------------
                                X             Y             Z
Electronic contribution:      0.00003      -0.00001      -0.00003
Nuclear contribution   :     -0.00008       0.00003       0.00035
                        -----------------------------------------
Total Dipole Moment    :     -0.00005       0.00001       0.00032
                        -----------------------------------------
Magnitude (a.u.)       :      0.00033
Magnitude (Debye)      :      0.00083

Rotational constants in cm-1:     0.138385     0.011977     0.011023
Rotational constants in MHz :  4148.665775   359.070546   330.473830

                             ****ORCA TERMINATED NORMALLY****
TOTAL RUN TIME: 0 days 0 hours 8 minutes 13 seconds 329 msec
