                         Program Version 4.2.0 -  RELEASE  -
|  1> # ORCA input file
|  2> # SCF done        -52.045622553939          0.000390401067
|  3> ! B3LYP/G D3BJ Opt RIJCOSX def2-SVP def2/J
|  4> * xyz 0 1
|  5>    C        0.24076         1.34403         0.12972
|  6>    C        1.40848         0.59744         0.18132
|  7>    N        2.66590         1.05726         0.26971
|  8>    S        3.66499        -0.19144         0.30750
|  9>    N        2.59430        -1.37796         0.21842
| 10>    C        1.36538        -0.84886         0.15003
| 11>    C        0.15745        -1.56650         0.06345
| 12>    C       -1.01363        -0.78671        -0.01188
| 13>    C       -0.96023         0.65105         0.03348
| 14>    N       -2.10964         1.37160        -0.01004
| 15>    C       -3.25298         0.75877        -0.10638
| 16>    C       -4.47148         1.63012        -0.18021
| 17>    C       -4.80258         1.95864        -1.63808
| 18>    C       -3.30788        -0.67177        -0.18823
| 19>    C       -4.59465        -1.43662        -0.28975
| 20>    C       -5.13112        -1.75319         1.10878
| 21>    N       -2.22061        -1.38622        -0.13747
| 22>    C        0.22896        -3.01246         0.06416
| 23>    C       -0.79119        -3.86664         0.10732
| 24>    H        0.25051         2.42000         0.16596
| 25>    H       -4.25177         2.55829         0.34886
| 26>    H       -5.32346         1.14473         0.29583
| 27>    H       -3.96211         2.46916        -2.10154
| 28>    H       -5.67432         2.60679        -1.68642
| 29>    H       -5.01043         1.05464        -2.20714
| 30>    H       -4.39278        -2.37280        -0.81251
| 31>    H       -5.33724        -0.87291        -0.85382
| 32>    H       -4.40446        -2.34445         1.66072
| 33>    H       -6.05752        -2.31787         1.03588
| 34>    H       -5.32435        -0.84025         1.66859
| 35>    H        1.24601        -3.38422         0.04664
| 36>    H       -1.80953        -3.52545         0.13818
| 37>    H       -0.61914        -4.93016         0.11033
| 38> *
| 39>
| 40>                          ****END OF INPUT****
 Total Charge           Charge          ....    0
 Multiplicity           Mult            ....    1
 Number of Electrons    NEL             ....  142
Dispersion correction           -0.075571842
FINAL SINGLE POINT ENERGY     -1158.492475327068
Dispersion correction            ... done
Dispersion correction           -0.074640424
FINAL SINGLE POINT ENERGY     -1158.498405196006
Dispersion correction            ... done
Dispersion correction           -0.074591616
FINAL SINGLE POINT ENERGY     -1158.498905210156
Dispersion correction            ... done
FINAL SINGLE POINT ENERGY     -1158.499029436925
FINAL SINGLE POINT ENERGY     -1158.499034387959
Dispersion correction            ... done
Dispersion correction           -0.074623042
FINAL SINGLE POINT ENERGY     -1158.499118710914
Dispersion correction            ... done
Dispersion correction           -0.074617197
FINAL SINGLE POINT ENERGY     -1158.499123362401
Dispersion correction            ... done
                    ***********************HURRAY********************

CARTESIAN COORDINATES (ANGSTROEM)
---------------------------------
  C      0.252416    1.350065    0.171293
  C      1.436657    0.599047    0.274885
  N      2.682614    1.083151    0.445911
  S      3.678754   -0.206878    0.522808
  N      2.605387   -1.421851    0.342446
  C      1.390792   -0.860165    0.212130
  C      0.166350   -1.581416    0.045079
  C     -1.005811   -0.792718   -0.026483
  C     -0.949308    0.660696    0.029951
  N     -2.107366    1.393784   -0.049335
  C     -3.254001    0.782320   -0.146357
  C     -4.487520    1.646086   -0.274028
  C     -4.859308    1.923316   -1.738757
  C     -3.318641   -0.675951   -0.176061
  C     -4.637740   -1.411654   -0.168439
  C     -5.126930   -1.669371    1.265953
  N     -2.230478   -1.395246   -0.130017
  C      0.257062   -3.038819   -0.023064
  C     -0.721269   -3.951781   -0.155794
  H      0.251921    2.438694    0.212172
  H     -4.260424    2.595776    0.231210
  H     -5.337835    1.185635    0.251974
  H     -4.017537    2.401806   -2.262413
  H     -5.728955    2.595485   -1.805429
  H     -5.109811    0.996405   -2.278167
  H     -4.486365   -2.371046   -0.683800
  H     -5.399078   -0.851862   -0.731719
  H     -4.379089   -2.250970    1.825758
  H     -6.072393   -2.233539    1.267178
  H     -5.295167   -0.726547    1.809616
  H      1.287888   -3.397282    0.046301
  H     -1.769522   -3.666650   -0.228775
  H     -0.455653   -5.012482   -0.194618

 Multiplicity           Mult            ....    1
 Number of Electrons    NEL             ....  142
 Basis Dimension        Dim             ....  340

ORBITAL ENERGIES
----------------

  NO   OCC          E(Eh)            E(eV)
   0   2.0000     -88.942361     -2420.2447
   1   2.0000     -14.359925      -390.7534
   2   2.0000     -14.358295      -390.7091
   3   2.0000     -14.339505      -390.1978
   4   2.0000     -14.338539      -390.1715
   5   2.0000     -10.247322      -278.8438
   6   2.0000     -10.245626      -278.7977
   7   2.0000     -10.244685      -278.7720
   8   2.0000     -10.244101      -278.7562
   9   2.0000     -10.239918      -278.6423
  10   2.0000     -10.239088      -278.6198
  11   2.0000     -10.217032      -278.0196
  12   2.0000     -10.204543      -277.6797
  13   2.0000     -10.202668      -277.6287
  14   2.0000     -10.201021      -277.5839
  15   2.0000     -10.195444      -277.4321
  16   2.0000     -10.194767      -277.4137
  17   2.0000     -10.191621      -277.3281
  18   2.0000     -10.183969      -277.1199
  19   2.0000      -8.033319      -218.5977
  20   2.0000      -6.003112      -163.3530
  21   2.0000      -5.995856      -163.1555
  22   2.0000      -5.994948      -163.1308
  23   2.0000      -1.020368       -27.7656
  24   2.0000      -0.980681       -26.6857
  25   2.0000      -0.911901       -24.8141
  26   2.0000      -0.887127       -24.1399
  27   2.0000      -0.856980       -23.3196
  28   2.0000      -0.803351       -21.8603
  29   2.0000      -0.788008       -21.4428
  30   2.0000      -0.767186       -20.8762
  31   2.0000      -0.748237       -20.3606
  32   2.0000      -0.725080       -19.7304
  33   2.0000      -0.687229       -18.7004
  34   2.0000      -0.663348       -18.0506
  35   2.0000      -0.633341       -17.2341
  36   2.0000      -0.619513       -16.8578
  37   2.0000      -0.612291       -16.6613
  38   2.0000      -0.601185       -16.3591
  39   2.0000      -0.555397       -15.1131
  40   2.0000      -0.542727       -14.7683
  41   2.0000      -0.541367       -14.7314
  42   2.0000      -0.513917       -13.9844
  43   2.0000      -0.475332       -12.9344
  44   2.0000      -0.466699       -12.6995
  45   2.0000      -0.461573       -12.5600
  46   2.0000      -0.459196       -12.4954
  47   2.0000      -0.452695       -12.3185
  48   2.0000      -0.447957       -12.1895
  49   2.0000      -0.441120       -12.0035
  50   2.0000      -0.431641       -11.7455
  51   2.0000      -0.424194       -11.5429
  52   2.0000      -0.409101       -11.1322
  53   2.0000      -0.404803       -11.0152
  54   2.0000      -0.392606       -10.6834
  55   2.0000      -0.389436       -10.5971
  56   2.0000      -0.378120       -10.2892
  57   2.0000      -0.365809        -9.9542
  58   2.0000      -0.365269        -9.9395
  59   2.0000      -0.360892        -9.8204
  60   2.0000      -0.357060        -9.7161
  61   2.0000      -0.355838        -9.6829
  62   2.0000      -0.337258        -9.1773
  63   2.0000      -0.328422        -8.9368
  64   2.0000      -0.326938        -8.8964
  65   2.0000      -0.303328        -8.2540
  66   2.0000      -0.300860        -8.1868
  67   2.0000      -0.284142        -7.7319
  68   2.0000      -0.265292        -7.2190
  69   2.0000      -0.247392        -6.7319
  70   2.0000      -0.216263        -5.8848
  71   0.0000      -0.115906        -3.1540
  72   0.0000      -0.048715        -1.3256
  73   0.0000      -0.030315        -0.8249
  74   0.0000      -0.015159        -0.4125
  75   0.0000       0.020024         0.5449

MULLIKEN ATOMIC CHARGES
-----------------------
   0 C :   -0.092775
   1 C :    0.115039
   2 N :   -0.289999
   3 S :    0.491946
   4 N :   -0.299387
   5 C :   -0.013771
   6 C :    0.086719
   7 C :   -0.038486
   8 C :    0.056275
   9 N :   -0.039908
  10 C :   -0.137210
  11 C :    0.114411
  12 C :   -0.008873
  13 C :   -0.120648
  14 C :    0.101429
  15 C :   -0.002305
  16 N :   -0.042259
  17 C :   -0.060580
  18 C :    0.011093
  19 H :   -0.032855
  20 H :    0.010241
  21 H :   -0.000289
  22 H :    0.026024
  23 H :    0.025267
  24 H :    0.014082
  25 H :    0.014131
  26 H :    0.001508
  27 H :    0.027427
  28 H :    0.023190
  29 H :    0.013540
  30 H :   -0.001484
  31 H :    0.030303
  32 H :    0.018203
Sum of atomic charges:   -0.0000000

LOEWDIN ATOMIC CHARGES
----------------------
   0 C :   -0.021457
   1 C :   -0.051505
   2 N :   -0.289961
   3 S :    0.634372
   4 N :   -0.287021
   5 C :   -0.042436
   6 C :   -0.022306
   7 C :   -0.007122
   8 C :   -0.006034
   9 N :   -0.054201
  10 C :    0.006532
  11 C :   -0.035820
  12 C :   -0.047510
  13 C :    0.011214
  14 C :   -0.036560
  15 C :   -0.046341
  16 N :   -0.046198
  17 C :   -0.027621
  18 C :   -0.021324
  19 H :    0.040270
  20 H :    0.035427
  21 H :    0.024482
  22 H :    0.029092
  23 H :    0.028164
  24 H :    0.020637
  25 H :    0.035218
  26 H :    0.024875
  27 H :    0.029206
  28 H :    0.027709
  29 H :    0.021448
  30 H :    0.031664
  31 H :    0.019487
  32 H :    0.023620

  Mayer bond orders larger than 0.100000
B(  0-C ,  1-C ) :   1.1735 B(  0-C ,  6-C ) :   0.1387 B(  0-C ,  8-C ) :   1.3179
B(  0-C , 19-H ) :   1.0460 B(  1-C ,  2-N ) :   1.4398 B(  1-C ,  5-C ) :   1.1028
B(  2-N ,  3-S ) :   1.2682 B(  2-N ,  4-N ) :   0.1760 B(  3-S ,  4-N ) :   1.2586
B(  4-N ,  5-C ) :   1.4911 B(  5-C ,  6-C ) :   1.2087 B(  6-C ,  7-C ) :   1.2905
B(  6-C , 17-C ) :   1.1567 B(  7-C ,  8-C ) :   1.1247 B(  7-C , 16-N ) :   1.3857
B(  8-C ,  9-N ) :   1.3193 B(  9-N , 10-C ) :   1.7355 B( 10-C , 11-C ) :   1.0609
B( 10-C , 13-C ) :   1.0989 B( 11-C , 12-C ) :   1.1084 B( 11-C , 20-H ) :   0.9093
B( 11-C , 21-H ) :   0.9118 B( 12-C , 22-H ) :   0.9630 B( 12-C , 23-H ) :   0.9668
B( 12-C , 24-H ) :   0.9683 B( 13-C , 14-C ) :   1.0681 B( 13-C , 16-N ) :   1.7071
B( 14-C , 15-C ) :   1.1081 B( 14-C , 25-H ) :   0.9098 B( 14-C , 26-H ) :   0.9115
B( 15-C , 27-H ) :   0.9636 B( 15-C , 28-H ) :   0.9651 B( 15-C , 29-H ) :   0.9673
B( 17-C , 18-C ) :   1.8805 B( 17-C , 30-H ) :   0.9469 B( 18-C , 31-H ) :   0.9269
B( 18-C , 32-H ) :   0.9373

Dispersion correction           -0.074618085
FINAL SINGLE POINT ENERGY     -1158.499125726270

DIPOLE MOMENT
-------------
                                X             Y             Z
Electronic contribution:     36.05319       2.66187       3.01647
Nuclear contribution   :    -37.12523      -2.72567      -3.08524
                        -----------------------------------------
Total Dipole Moment    :     -1.07204      -0.06379      -0.06877
                        -----------------------------------------
Magnitude (a.u.)       :      1.07614
Magnitude (Debye)      :      2.73533

Rotational constants in cm-1:     0.022487     0.007071     0.005643
Rotational constants in MHz :   674.132362   211.973919   169.183749

                             ****ORCA TERMINATED NORMALLY****
TOTAL RUN TIME: 0 days 0 hours 33 minutes 38 seconds 365 msec
