                         Program Version 4.2.0 -  RELEASE  -
|  1> # ORCA input file
|  2> # SCF done        -36.237303990017          0.000568917749
|  3> ! B3LYP/G D3BJ Opt RIJCOSX def2-SVP def2/J
|  4> * xyz 0 1
|  5>    C       -2.79905         0.45261         0.02911
|  6>    C       -3.15345        -0.84645        -0.05311
|  7>    S       -1.80297        -1.92935        -0.12222
|  8>    C       -0.70461        -0.58748        -0.03889
|  9>    C       -1.38551         0.64005         0.03797
| 10>    C       -0.65903         1.83567         0.10287
| 11>    C        0.72036         1.84076         0.07117
| 12>    C        1.40878         0.60270         0.03598
| 13>    C        0.68342        -0.60174        -0.02397
| 14>    S        1.72631        -1.99029        -0.04418
| 15>    C        3.11425        -0.96385         0.06874
| 16>    C        2.81079         0.35062         0.10347
| 17>    C        1.42217         3.12435         0.06005
| 18>    C        2.47900         3.41267        -0.68638
| 19>    H       -3.50144         1.26517         0.08063
| 20>    H       -4.14147        -1.26297        -0.07928
| 21>    H       -1.19813         2.77067         0.14946
| 22>    H        4.08484        -1.41861         0.10698
| 23>    H        3.54880         1.12512         0.20185
| 24>    H        0.97697         3.89410         0.67894
| 25>    H        2.91654         2.69550        -1.36069
| 26>    H        2.92830         4.39130        -0.67144
| 27> *
| 28>
| 29>                          ****END OF INPUT****
 Total Charge           Charge          ....    0
 Multiplicity           Mult            ....    1
 Number of Electrons    NEL             ....  112
Dispersion correction           -0.058189445
FINAL SINGLE POINT ENERGY     -1257.963692090454
Dispersion correction            ... done
Dispersion correction           -0.057920933
FINAL SINGLE POINT ENERGY     -1257.967639325176
Dispersion correction            ... done
Dispersion correction           -0.057895592
FINAL SINGLE POINT ENERGY     -1257.967867702239
Dispersion correction            ... done
FINAL SINGLE POINT ENERGY     -1257.968001741223
FINAL SINGLE POINT ENERGY     -1257.968096890158
FINAL SINGLE POINT ENERGY     -1257.968127931140
Dispersion correction            ... done
Dispersion correction           -0.057865686
FINAL SINGLE POINT ENERGY     -1257.968142272473
Dispersion correction            ... done
Dispersion correction           -0.057861023
FINAL SINGLE POINT ENERGY     -1257.968147945757
Dispersion correction            ... done
                    ***********************HURRAY********************

CARTESIAN COORDINATES (ANGSTROEM)
---------------------------------
  C     -2.836908    0.440433    0.047496
  C     -3.195333   -0.873171   -0.013364
  S     -1.823555   -1.954185   -0.082661
  C     -0.722450   -0.601699   -0.028540
  C     -1.408826    0.633192    0.040612
  C     -0.669860    1.836556    0.083232
  C      0.722357    1.849133    0.035484
  C      1.418358    0.595045    0.006487
  C      0.679913   -0.615188   -0.030279
  S      1.715101   -2.019965   -0.038726
  C      3.131515   -1.006457    0.033490
  C      2.834902    0.324240    0.054401
  C      1.398003    3.156830   -0.001701
  C      2.556586    3.465604   -0.602615
  H     -3.554326    1.260626    0.096604
  H     -4.200622   -1.292140   -0.022348
  H     -1.207680    2.786733    0.128142
  H      4.117198   -1.468091    0.070019
  H      3.598886    1.094545    0.131512
  H      0.839028    3.967921    0.480269
  H      3.143316    2.731317   -1.156825
  H      2.939268    4.489271   -0.583627

 Multiplicity           Mult            ....    1
 Number of Electrons    NEL             ....  112
 Basis Dimension        Dim             ....  244

ORBITAL ENERGIES
----------------

  NO   OCC          E(Eh)            E(eV)
   0   2.0000     -88.876449     -2418.4511
   1   2.0000     -88.875315     -2418.4203
   2   2.0000     -10.225512      -278.2503
   3   2.0000     -10.224685      -278.2278
   4   2.0000     -10.220820      -278.1227
   5   2.0000     -10.219142      -278.0770
   6   2.0000     -10.205036      -277.6932
   7   2.0000     -10.204749      -277.6853
   8   2.0000     -10.203028      -277.6385
   9   2.0000     -10.200311      -277.5646
  10   2.0000     -10.198813      -277.5238
  11   2.0000     -10.197675      -277.4928
  12   2.0000     -10.196528      -277.4616
  13   2.0000     -10.188719      -277.2491
  14   2.0000      -7.971258      -216.9089
  15   2.0000      -7.970281      -216.8824
  16   2.0000      -5.939686      -161.6271
  17   2.0000      -5.938684      -161.5998
  18   2.0000      -5.935594      -161.5157
  19   2.0000      -5.934626      -161.4894
  20   2.0000      -5.931989      -161.4176
  21   2.0000      -5.931002      -161.3908
  22   2.0000      -0.903093       -24.5744
  23   2.0000      -0.870981       -23.7006
  24   2.0000      -0.824462       -22.4348
  25   2.0000      -0.774646       -21.0792
  26   2.0000      -0.757241       -20.6056
  27   2.0000      -0.737188       -20.0599
  28   2.0000      -0.704744       -19.1771
  29   2.0000      -0.699705       -19.0399
  30   2.0000      -0.613744       -16.7008
  31   2.0000      -0.602663       -16.3993
  32   2.0000      -0.586391       -15.9565
  33   2.0000      -0.553535       -15.0625
  34   2.0000      -0.545088       -14.8326
  35   2.0000      -0.513890       -13.9837
  36   2.0000      -0.474951       -12.9241
  37   2.0000      -0.470301       -12.7975
  38   2.0000      -0.464092       -12.6286
  39   2.0000      -0.442089       -12.0299
  40   2.0000      -0.428008       -11.6467
  41   2.0000      -0.420198       -11.4342
  42   2.0000      -0.411281       -11.1915
  43   2.0000      -0.401642       -10.9292
  44   2.0000      -0.381652       -10.3853
  45   2.0000      -0.375489       -10.2176
  46   2.0000      -0.371835       -10.1181
  47   2.0000      -0.361310        -9.8317
  48   2.0000      -0.356213        -9.6930
  49   2.0000      -0.339299        -9.2328
  50   2.0000      -0.331832        -9.0296
  51   2.0000      -0.289104        -7.8669
  52   2.0000      -0.279403        -7.6029
  53   2.0000      -0.262259        -7.1364
  54   2.0000      -0.220549        -6.0015
  55   2.0000      -0.213711        -5.8154
  56   0.0000      -0.048986        -1.3330
  57   0.0000      -0.034299        -0.9333
  58   0.0000       0.012122         0.3299
  59   0.0000       0.013084         0.3560
  60   0.0000       0.024687         0.6718

MULLIKEN ATOMIC CHARGES
-----------------------
   0 C :    0.026328
   1 C :   -0.066356
   2 S :    0.112415
   3 C :   -0.119657
   4 C :    0.100042
   5 C :   -0.080027
   6 C :    0.078877
   7 C :    0.065227
   8 C :   -0.127917
   9 S :    0.110183
  10 C :   -0.063241
  11 C :    0.002420
  12 C :   -0.038616
  13 C :   -0.034860
  14 H :   -0.014865
  15 H :    0.029052
  16 H :   -0.040685
  17 H :    0.026913
  18 H :   -0.010558
  19 H :   -0.002748
  20 H :    0.026450
  21 H :    0.021625
Sum of atomic charges:    0.0000000

LOEWDIN ATOMIC CHARGES
----------------------
   0 C :   -0.056970
   1 C :   -0.169736
   2 S :    0.399763
   3 C :   -0.178885
   4 C :   -0.050436
   5 C :   -0.019034
   6 C :   -0.026845
   7 C :   -0.041245
   8 C :   -0.175679
   9 S :    0.401128
  10 C :   -0.171278
  11 C :   -0.059866
  12 C :   -0.017927
  13 C :   -0.054033
  14 H :    0.031866
  15 H :    0.026818
  16 H :    0.026646
  17 H :    0.026597
  18 H :    0.031705
  19 H :    0.029864
  20 H :    0.022090
  21 H :    0.025456

  Mayer bond orders larger than 0.100000
B(  0-C ,  1-C ) :   1.6103 B(  0-C ,  4-C ) :   1.1728 B(  0-C , 14-H ) :   0.9915
B(  1-C ,  2-S ) :   1.1073 B(  1-C , 15-H ) :   0.9657 B(  2-S ,  3-C ) :   1.0824
B(  3-C ,  4-C ) :   1.3433 B(  3-C ,  8-C ) :   1.3901 B(  4-C ,  5-C ) :   1.2262
B(  5-C ,  6-C ) :   1.4225 B(  5-C , 16-H ) :   0.9935 B(  6-C ,  7-C ) :   1.2214
B(  6-C , 12-C ) :   1.0603 B(  7-C ,  8-C ) :   1.3535 B(  7-C , 11-C ) :   1.1976
B(  8-C ,  9-S ) :   1.0835 B(  9-S , 10-C ) :   1.1106 B( 10-C , 11-C ) :   1.6027
B( 10-C , 17-H ) :   0.9643 B( 11-C , 18-H ) :   0.9829 B( 12-C , 13-C ) :   1.9356
B( 12-C , 19-H ) :   0.9556 B( 13-C , 20-H ) :   0.9508 B( 13-C , 21-H ) :   0.9440

Dispersion correction           -0.057858435
FINAL SINGLE POINT ENERGY     -1257.968151930326

DIPOLE MOMENT
-------------
                                X             Y             Z
Electronic contribution:     -3.70548     -12.69881       0.51580
Nuclear contribution   :      3.63395      12.95565      -0.48091
                        -----------------------------------------
Total Dipole Moment    :     -0.07152       0.25684       0.03489
                        -----------------------------------------
Magnitude (a.u.)       :      0.26889
Magnitude (Debye)      :      0.68346

Rotational constants in cm-1:     0.028238     0.016970     0.010678
Rotational constants in MHz :   846.547209   508.761353   320.111352

                             ****ORCA TERMINATED NORMALLY****
TOTAL RUN TIME: 0 days 0 hours 15 minutes 36 seconds 827 msec
