                         Program Version 4.2.0 -  RELEASE  -
|  1> # ORCA input file
|  2> # SCF done        -60.190192260214          0.000480990353
|  3> ! B3LYP/G D3BJ Opt RIJCOSX def2-SVP def2/J
|  4> * xyz 0 1
|  5>    C        1.62220        -1.97039        -0.26189
|  6>    S        0.35219        -3.11314        -0.02138
|  7>    C       -0.69384        -1.85940         0.58370
|  8>    C       -0.06378        -0.59704         0.60316
|  9>    C        1.26862        -0.71728         0.09889
| 10>    F        2.10667         0.32444        -0.01310
| 11>    C       -0.79151         0.52054         1.03486
| 12>    O       -0.32156         1.80159         1.03184
| 13>    C        0.59148         2.13068         2.07736
| 14>    C        0.90562         3.61084         1.96140
| 15>    C       -2.09554         0.28581         1.44599
| 16>    C       -2.72856        -0.98341         1.44718
| 17>    C       -2.00870        -2.09576         0.97854
| 18>    O       -2.42736        -3.37800         0.90788
| 19>    C       -3.72454        -3.68002         0.39815
| 20>    C       -3.57942        -4.74984        -0.67450
| 21>    C       -4.04170        -0.84537         2.00330
| 22>    F       -4.88377        -1.87413         2.20538
| 23>    C       -4.38141         0.41269         2.35830
| 24>    S       -3.12586         1.55253         2.05211
| 25>    H        2.56506        -2.28540        -0.66206
| 26>    H        1.50822         1.53657         1.98656
| 27>    H        0.12569         1.90847         3.04842
| 28>    H        1.36365         3.81380         0.99771
| 29>    H        1.58875         3.90480         2.75297
| 30>    H       -0.01019         4.19002         2.04138
| 31>    H       -4.18683        -2.78278        -0.02430
| 32>    H       -4.34641        -4.04886         1.22012
| 33>    H       -3.09838        -5.62875        -0.25544
| 34>    H       -2.97008        -4.38109        -1.49584
| 35>    H       -4.56011        -5.02425        -1.05225
| 36>    H       -5.30723         0.72656         2.79689
| 37> *
| 38>
| 39>                          ****END OF INPUT****
 Total Charge           Charge          ....    0
 Multiplicity           Mult            ....    1
 Number of Electrons    NEL             ....  162
Dispersion correction           -0.074771440
FINAL SINGLE POINT ENERGY     -1686.389247415538
Dispersion correction            ... done
Dispersion correction           -0.074603045
FINAL SINGLE POINT ENERGY     -1686.392686286824
Dispersion correction            ... done
Dispersion correction           -0.074627845
FINAL SINGLE POINT ENERGY     -1686.393089640899
Dispersion correction            ... done
FINAL SINGLE POINT ENERGY     -1686.393437480821
FINAL SINGLE POINT ENERGY     -1686.393600610390
FINAL SINGLE POINT ENERGY     -1686.393715568766
FINAL SINGLE POINT ENERGY     -1686.393784672192
FINAL SINGLE POINT ENERGY     -1686.393842808582
FINAL SINGLE POINT ENERGY     -1686.394018142727
FINAL SINGLE POINT ENERGY     -1686.394201625518
FINAL SINGLE POINT ENERGY     -1686.394358437957
FINAL SINGLE POINT ENERGY     -1686.394350250310
FINAL SINGLE POINT ENERGY     -1686.394540697064
FINAL SINGLE POINT ENERGY     -1686.394733116400
FINAL SINGLE POINT ENERGY     -1686.394747542196
Dispersion correction            ... done
Dispersion correction           -0.076112588
FINAL SINGLE POINT ENERGY     -1686.394751594106
Dispersion correction            ... done
Dispersion correction           -0.076138629
FINAL SINGLE POINT ENERGY     -1686.394753773649
Dispersion correction            ... done
                    ***********************HURRAY********************

CARTESIAN COORDINATES (ANGSTROEM)
---------------------------------
  C      1.513931   -2.259194   -0.063860
  S      0.213256   -3.362138    0.314448
  C     -0.812663   -2.022765    0.797103
  C     -0.155361   -0.762827    0.672546
  C      1.182889   -0.962223    0.171351
  F      2.035265    0.050213   -0.025384
  C     -0.856559    0.413323    1.001830
  O     -0.341617    1.666724    0.886159
  C      0.602456    2.058852    1.895495
  C      0.860605    3.543052    1.758495
  C     -2.165359    0.266576    1.462567
  C     -2.821283   -0.992975    1.601147
  C     -2.125270   -2.170868    1.252723
  O     -2.626715   -3.426883    1.393765
  C     -3.684995   -3.836104    0.512514
  C     -3.198912   -4.082730   -0.906841
  C     -4.137478   -0.784974    2.158925
  F     -4.986909   -1.790045    2.403045
  C     -4.452508    0.513359    2.410065
  S     -3.164915    1.611854    1.980666
  H      2.468005   -2.622139   -0.440522
  H      1.533131    1.483292    1.765858
  H      0.180343    1.819676    2.888489
  H      1.246998    3.777354    0.754572
  H      1.606515    3.867923    2.499522
  H     -0.063808    4.118107    1.919638
  H     -4.495469   -3.090316    0.534770
  H     -4.078066   -4.758405    0.964303
  H     -2.390353   -4.829563   -0.925912
  H     -2.816847   -3.157157   -1.365235
  H     -4.029059   -4.453552   -1.529132
  H     -5.387874    0.878985    2.828220

 Multiplicity           Mult            ....    1
 Number of Electrons    NEL             ....  162
 Basis Dimension        Dim             ....  348

ORBITAL ENERGIES
----------------

  NO   OCC          E(Eh)            E(eV)
   0   2.0000     -88.880189     -2418.5529
   1   2.0000     -88.879923     -2418.5457
   2   2.0000     -24.711428      -672.4321
   3   2.0000     -24.711144      -672.4244
   4   2.0000     -19.160129      -521.3736
   5   2.0000     -19.158761      -521.3364
   6   2.0000     -10.283243      -279.8213
   7   2.0000     -10.282548      -279.8024
   8   2.0000     -10.262941      -279.2688
   9   2.0000     -10.260649      -279.2064
  10   2.0000     -10.245111      -278.7836
  11   2.0000     -10.243340      -278.7355
  12   2.0000     -10.227965      -278.3171
  13   2.0000     -10.227688      -278.3095
  14   2.0000     -10.221837      -278.1503
  15   2.0000     -10.221741      -278.1477
  16   2.0000     -10.216908      -278.0162
  17   2.0000     -10.215871      -277.9880
  18   2.0000     -10.187466      -277.2151
  19   2.0000     -10.186943      -277.2008
  20   2.0000      -7.974447      -216.9957
  21   2.0000      -7.974056      -216.9851
  22   2.0000      -5.943021      -161.7178
  23   2.0000      -5.942650      -161.7077
  24   2.0000      -5.939160      -161.6128
  25   2.0000      -5.938760      -161.6019
  26   2.0000      -5.934624      -161.4893
  27   2.0000      -5.934233      -161.4787
  28   2.0000      -1.219609       -33.1873
  29   2.0000      -1.219330       -33.1797
  30   2.0000      -1.056193       -28.7405
  31   2.0000      -1.054973       -28.7073
  32   2.0000      -0.904513       -24.6130
  33   2.0000      -0.884181       -24.0598
  34   2.0000      -0.814921       -22.1751
  35   2.0000      -0.790590       -21.5131
  36   2.0000      -0.758158       -20.6305
  37   2.0000      -0.745333       -20.2815
  38   2.0000      -0.743023       -20.2187
  39   2.0000      -0.729266       -19.8443
  40   2.0000      -0.691334       -18.8122
  41   2.0000      -0.653603       -17.7854
  42   2.0000      -0.626928       -17.0596
  43   2.0000      -0.619904       -16.8684
  44   2.0000      -0.600391       -16.3375
  45   2.0000      -0.585154       -15.9229
  46   2.0000      -0.581021       -15.8104
  47   2.0000      -0.550843       -14.9892
  48   2.0000      -0.545497       -14.8437
  49   2.0000      -0.523636       -14.2489
  50   2.0000      -0.515925       -14.0390
  51   2.0000      -0.492626       -13.4050
  52   2.0000      -0.490613       -13.3503
  53   2.0000      -0.481864       -13.1122
  54   2.0000      -0.478307       -13.0154
  55   2.0000      -0.475023       -12.9260
  56   2.0000      -0.471074       -12.8186
  57   2.0000      -0.460546       -12.5321
  58   2.0000      -0.444454       -12.0942
  59   2.0000      -0.433543       -11.7973
  60   2.0000      -0.426167       -11.5966
  61   2.0000      -0.416545       -11.3348
  62   2.0000      -0.408739       -11.1223
  63   2.0000      -0.401913       -10.9366
  64   2.0000      -0.393998       -10.7212
  65   2.0000      -0.392389       -10.6774
  66   2.0000      -0.385490       -10.4897
  67   2.0000      -0.382451       -10.4070
  68   2.0000      -0.374981       -10.2038
  69   2.0000      -0.367929       -10.0119
  70   2.0000      -0.365614        -9.9489
  71   2.0000      -0.359442        -9.7809
  72   2.0000      -0.348556        -9.4847
  73   2.0000      -0.341866        -9.3026
  74   2.0000      -0.310644        -8.4531
  75   2.0000      -0.298409        -8.1201
  76   2.0000      -0.286317        -7.7911
  77   2.0000      -0.276931        -7.5357
  78   2.0000      -0.254093        -6.9142
  79   2.0000      -0.246110        -6.6970
  80   2.0000      -0.200485        -5.4555
  81   0.0000      -0.054963        -1.4956
  82   0.0000      -0.014202        -0.3865
  83   0.0000       0.012477         0.3395
  84   0.0000       0.023413         0.6371
  85   0.0000       0.028486         0.7751

MULLIKEN ATOMIC CHARGES
-----------------------
   0 C :   -0.135425
   1 S :    0.132086
   2 C :   -0.112110
   3 C :    0.007098
   4 C :    0.244931
   5 F :   -0.181941
   6 C :    0.086836
   7 O :   -0.340879
   8 C :    0.202608
   9 C :   -0.003670
  10 C :   -0.117070
  11 C :    0.003253
  12 C :    0.095311
  13 O :   -0.337299
  14 C :    0.198523
  15 C :   -0.036147
  16 C :    0.242656
  17 F :   -0.182479
  18 C :   -0.133287
  19 S :    0.129858
  20 H :    0.026781
  21 H :    0.010989
  22 H :   -0.000107
  23 H :    0.027052
  24 H :    0.016182
  25 H :    0.022557
  26 H :    0.015527
  27 H :    0.014200
  28 H :    0.028420
  29 H :    0.030086
  30 H :    0.018684
  31 H :    0.026779
Sum of atomic charges:   -0.0000000

LOEWDIN ATOMIC CHARGES
----------------------
   0 C :   -0.207057
   1 S :    0.415261
   2 C :   -0.168705
   3 C :   -0.084959
   4 C :    0.040433
   5 F :   -0.052862
   6 C :    0.019525
   7 O :   -0.131215
   8 C :    0.093316
   9 C :   -0.060724
  10 C :   -0.166905
  11 C :   -0.087212
  12 C :    0.022563
  13 O :   -0.125144
  14 C :    0.092052
  15 C :   -0.075234
  16 C :    0.039704
  17 F :   -0.053343
  18 C :   -0.207349
  19 S :    0.410702
  20 H :    0.032637
  21 H :    0.006642
  22 H :    0.009031
  23 H :    0.030648
  24 H :    0.031261
  25 H :    0.027362
  26 H :    0.008669
  27 H :    0.023261
  28 H :    0.025082
  29 H :    0.028037
  30 H :    0.031925
  31 H :    0.032600

  Mayer bond orders larger than 0.100000
B(  0-C ,  1-S ) :   1.0732 B(  0-C ,  4-C ) :   1.6153 B(  0-C , 20-H ) :   0.9569
B(  1-S ,  2-C ) :   1.0619 B(  2-C ,  3-C ) :   1.2981 B(  2-C , 12-C ) :   1.4158
B(  3-C ,  4-C ) :   1.1034 B(  3-C ,  6-C ) :   1.2605 B(  4-C ,  5-F ) :   1.1193
B(  6-C ,  7-O ) :   1.2202 B(  6-C , 10-C ) :   1.4182 B(  7-O ,  8-C ) :   0.9057
B(  8-C ,  9-C ) :   1.1181 B(  8-C , 21-H ) :   0.9408 B(  8-C , 22-H ) :   0.9391
B(  9-C , 23-H ) :   0.9671 B(  9-C , 24-H ) :   0.9588 B(  9-C , 25-H ) :   0.9687
B( 10-C , 11-C ) :   1.2987 B( 10-C , 19-S ) :   1.0634 B( 11-C , 12-C ) :   1.2500
B( 11-C , 16-C ) :   1.1031 B( 12-C , 13-O ) :   1.2064 B( 13-O , 14-C ) :   0.9199
B( 14-C , 15-C ) :   1.1057 B( 14-C , 26-H ) :   0.9471 B( 14-C , 27-H ) :   0.9564
B( 15-C , 28-H ) :   0.9630 B( 15-C , 29-H ) :   0.9646 B( 15-C , 30-H ) :   0.9552
B( 16-C , 17-F ) :   1.1182 B( 16-C , 18-C ) :   1.6184 B( 18-C , 19-S ) :   1.0713
B( 18-C , 31-H ) :   0.9571

Dispersion correction           -0.076134131
FINAL SINGLE POINT ENERGY     -1686.394755744521

DIPOLE MOMENT
-------------
                                X             Y             Z
Electronic contribution:     -1.23894      -2.76350       3.12916
Nuclear contribution   :      1.20756       2.77990      -3.15548
                        -----------------------------------------
Total Dipole Moment    :     -0.03138       0.01641      -0.02632
                        -----------------------------------------
Magnitude (a.u.)       :      0.04412
Magnitude (Debye)      :      0.11215

Rotational constants in cm-1:     0.011513     0.009467     0.005450
Rotational constants in MHz :   345.162628   283.813290   163.384334

                             ****ORCA TERMINATED NORMALLY****
TOTAL RUN TIME: 0 days 1 hours 3 minutes 59 seconds 934 msec
