                         Program Version 4.2.0 -  RELEASE  -
|  1> # ORCA input file
|  2> # SCF done        -40.121828559720          0.000479803705
|  3> ! B3LYP/G D3BJ Opt RIJCOSX def2-SVP def2/J
|  4> * xyz 0 1
|  5>    C        1.48560        -1.32573         0.13918
|  6>    S        2.71951        -0.13912         0.19828
|  7>    C        1.53997         1.14732         0.19128
|  8>    C        0.26263         0.64152         0.12424
|  9>    C        0.23841        -0.77909         0.08371
| 10>    C       -1.03722        -1.56523         0.00402
| 11>    C       -1.32362        -2.09367        -1.40771
| 12>    O       -2.41025        -1.99537        -1.91560
| 13>    C       -0.17578        -2.77985        -2.09907
| 14>    C       -2.20680        -0.71270         0.50169
| 15>    C       -2.21719         0.62348        -0.23294
| 16>    C       -0.99204         1.45616         0.13706
| 17>    C        2.05427         2.49212         0.24996
| 18>    C        1.38916         3.61283         0.51779
| 19>    H        1.75773        -2.36240         0.15743
| 20>    H       -0.93727        -2.46411         0.62698
| 21>    H        0.61251        -2.05857        -2.30280
| 22>    H       -0.52102        -3.20880        -3.03622
| 23>    H        0.23542        -3.56282        -1.46737
| 24>    H       -2.10821        -0.54624         1.57649
| 25>    H       -3.14002        -1.24516         0.31497
| 26>    H       -3.12084         1.18062         0.01949
| 27>    H       -2.23227         0.43704        -1.30746
| 28>    H       -1.12676         1.86308         1.14535
| 29>    H       -0.89226         2.29946        -0.55057
| 30>    H        3.12102         2.55336         0.06967
| 31>    H        0.34017         3.63941         0.74383
| 32>    H        1.90169         4.55936         0.53178
| 33> *
| 34>
| 35>                          ****END OF INPUT****
 Total Charge           Charge          ....    0
 Multiplicity           Mult            ....    1
 Number of Electrons    NEL             ....  110
Dispersion correction           -0.062224990
FINAL SINGLE POINT ENERGY      -938.659270860868
Dispersion correction            ... done
Dispersion correction           -0.061394267
FINAL SINGLE POINT ENERGY      -938.663023029375
Dispersion correction            ... done
Dispersion correction           -0.061317186
FINAL SINGLE POINT ENERGY      -938.663198226019
Dispersion correction            ... done
FINAL SINGLE POINT ENERGY      -938.663100705616
FINAL SINGLE POINT ENERGY      -938.663147213036
FINAL SINGLE POINT ENERGY      -938.663179095367
FINAL SINGLE POINT ENERGY      -938.663222339355
Dispersion correction            ... done
Dispersion correction           -0.061241735
FINAL SINGLE POINT ENERGY      -938.663213868945
Dispersion correction            ... done
Dispersion correction           -0.061216523
FINAL SINGLE POINT ENERGY      -938.663211672769
Dispersion correction            ... done
                    ***********************HURRAY********************

CARTESIAN COORDINATES (ANGSTROEM)
---------------------------------
  C      1.505557   -1.361845    0.257141
  S      2.732109   -0.162198    0.371612
  C      1.562353    1.135621    0.267876
  C      0.272461    0.626112    0.148587
  C      0.250092   -0.809389    0.127825
  C     -1.041405   -1.583121   -0.019691
  C     -1.302104   -2.056358   -1.468624
  O     -2.379993   -1.891499   -1.994638
  C     -0.174612   -2.763033   -2.191957
  C     -2.225180   -0.768269    0.517871
  C     -2.266908    0.625949   -0.113978
  C     -0.991418    1.446320    0.146319
  C      2.079695    2.494016    0.324136
  C      1.407387    3.659584    0.344240
  H      1.767760   -2.417895    0.292828
  H     -0.943450   -2.523580    0.553302
  H      0.576685   -2.021218   -2.506255
  H     -0.577603   -3.270231   -3.078093
  H      0.343922   -3.482498   -1.540196
  H     -2.134255   -0.689149    1.614290
  H     -3.158544   -1.304287    0.295594
  H     -3.135012    1.184579    0.269873
  H     -2.427263    0.508522   -1.196415
  H     -1.064306    1.951740    1.126966
  H     -0.914124    2.258438   -0.595758
  H      3.174718    2.551263    0.351995
  H      0.320004    3.727920    0.329497
  H      1.959972    4.601408    0.379110

 Multiplicity           Mult            ....    1
 Number of Electrons    NEL             ....  110
 Basis Dimension        Dim             ....  270

ORBITAL ENERGIES
----------------

  NO   OCC          E(Eh)            E(eV)
   0   2.0000     -88.874335     -2418.3936
   1   2.0000     -19.128690      -520.5181
   2   2.0000     -10.278050      -279.6799
   3   2.0000     -10.216880      -278.0154
   4   2.0000     -10.213668      -277.9280
   5   2.0000     -10.207134      -277.7502
   6   2.0000     -10.205875      -277.7160
   7   2.0000     -10.202414      -277.6218
   8   2.0000     -10.199159      -277.5332
   9   2.0000     -10.194937      -277.4183
  10   2.0000     -10.194230      -277.3991
  11   2.0000     -10.189960      -277.2829
  12   2.0000     -10.185996      -277.1750
  13   2.0000     -10.183129      -277.0970
  14   2.0000      -7.969460      -216.8600
  15   2.0000      -5.937398      -161.5648
  16   2.0000      -5.933543      -161.4599
  17   2.0000      -5.930944      -161.3892
  18   2.0000      -1.036977       -28.2176
  19   2.0000      -0.888812       -24.1858
  20   2.0000      -0.821191       -22.3457
  21   2.0000      -0.789131       -21.4734
  22   2.0000      -0.762925       -20.7603
  23   2.0000      -0.736481       -20.0407
  24   2.0000      -0.725386       -19.7387
  25   2.0000      -0.693634       -18.8747
  26   2.0000      -0.641425       -17.4541
  27   2.0000      -0.608635       -16.5618
  28   2.0000      -0.583603       -15.8807
  29   2.0000      -0.565236       -15.3808
  30   2.0000      -0.525646       -14.3036
  31   2.0000      -0.507089       -13.7986
  32   2.0000      -0.491585       -13.3767
  33   2.0000      -0.478680       -13.0255
  34   2.0000      -0.459816       -12.5122
  35   2.0000      -0.452734       -12.3195
  36   2.0000      -0.446294       -12.1443
  37   2.0000      -0.443109       -12.0576
  38   2.0000      -0.419620       -11.4184
  39   2.0000      -0.415210       -11.2984
  40   2.0000      -0.411545       -11.1987
  41   2.0000      -0.405123       -11.0239
  42   2.0000      -0.394552       -10.7363
  43   2.0000      -0.388907       -10.5827
  44   2.0000      -0.370714       -10.0876
  45   2.0000      -0.366481        -9.9725
  46   2.0000      -0.359789        -9.7904
  47   2.0000      -0.343839        -9.3563
  48   2.0000      -0.332421        -9.0456
  49   2.0000      -0.328524        -8.9396
  50   2.0000      -0.322421        -8.7735
  51   2.0000      -0.305716        -8.3190
  52   2.0000      -0.265261        -7.2181
  53   2.0000      -0.239234        -6.5099
  54   2.0000      -0.216983        -5.9044
  55   0.0000      -0.048522        -1.3204
  56   0.0000      -0.022272        -0.6061
  57   0.0000       0.023516         0.6399
  58   0.0000       0.029629         0.8062
  59   0.0000       0.047739         1.2990

MULLIKEN ATOMIC CHARGES
-----------------------
   0 C :   -0.140985
   1 S :    0.105964
   2 C :   -0.162290
   3 C :   -0.037072
   4 C :   -0.022352
   5 C :    0.003352
   6 C :   -0.010549
   7 O :   -0.193250
   8 C :    0.070938
   9 C :    0.086507
  10 C :    0.027707
  11 C :    0.080843
  12 C :    0.036205
  13 C :   -0.041949
  14 H :    0.012709
  15 H :    0.010247
  16 H :    0.053791
  17 H :    0.029045
  18 H :    0.016074
  19 H :   -0.002330
  20 H :    0.002569
  21 H :   -0.006471
  22 H :    0.016360
  23 H :    0.018128
  24 H :    0.023647
  25 H :   -0.009956
  26 H :    0.014075
  27 H :    0.019044
Sum of atomic charges:   -0.0000000

LOEWDIN ATOMIC CHARGES
----------------------
   0 C :   -0.205365
   1 S :    0.433243
   2 C :   -0.182208
   3 C :   -0.051181
   4 C :   -0.062660
   5 C :   -0.053207
   6 C :    0.095737
   7 O :   -0.142887
   8 C :   -0.075221
   9 C :   -0.019178
  10 C :   -0.028674
  11 C :   -0.027831
  12 C :   -0.042782
  13 C :   -0.057815
  14 H :    0.019871
  15 H :    0.043103
  16 H :    0.051185
  17 H :    0.037151
  18 H :    0.032661
  19 H :    0.021261
  20 H :    0.027149
  21 H :    0.024558
  22 H :    0.024200
  23 H :    0.032273
  24 H :    0.032829
  25 H :    0.027909
  26 H :    0.019932
  27 H :    0.025947

  Mayer bond orders larger than 0.100000
B(  0-C ,  1-S ) :   1.1552 B(  0-C ,  4-C ) :   1.5157 B(  0-C , 14-H ) :   0.9656
B(  1-S ,  2-C ) :   1.1281 B(  2-C ,  3-C ) :   1.4989 B(  2-C , 12-C ) :   1.1247
B(  3-C ,  4-C ) :   1.3053 B(  3-C , 11-C ) :   1.0739 B(  4-C ,  5-C ) :   0.9732
B(  5-C ,  6-C ) :   0.8972 B(  5-C ,  9-C ) :   1.0746 B(  5-C , 15-H ) :   0.8697
B(  6-C ,  7-O ) :   2.1549 B(  6-C ,  8-C ) :   1.0524 B(  8-C , 16-H ) :   0.9338
B(  8-C , 17-H ) :   0.9466 B(  8-C , 18-H ) :   0.9451 B(  9-C , 10-C ) :   1.0795
B(  9-C , 19-H ) :   0.9354 B(  9-C , 20-H ) :   0.9150 B( 10-C , 11-C ) :   1.0783
B( 10-C , 21-H ) :   0.9278 B( 10-C , 22-H ) :   0.9387 B( 11-C , 23-H ) :   0.9103
B( 11-C , 24-H ) :   0.9067 B( 12-C , 13-C ) :   1.9035 B( 12-C , 25-H ) :   0.9422
B( 13-C , 26-H ) :   0.9541 B( 13-C , 27-H ) :   0.9397

Dispersion correction           -0.061211077
FINAL SINGLE POINT ENERGY      -938.663210601374

DIPOLE MOMENT
-------------
                                X             Y             Z
Electronic contribution:      8.51224      -2.84803       1.10604
Nuclear contribution   :     -7.98665       2.67851      -0.73711
                        -----------------------------------------
Total Dipole Moment    :      0.52558      -0.16952       0.36893
                        -----------------------------------------
Magnitude (a.u.)       :      0.66414
Magnitude (Debye)      :      1.68811

Rotational constants in cm-1:     0.032580     0.015742     0.011990
Rotational constants in MHz :   976.713447   471.942958   359.449527

                             ****ORCA TERMINATED NORMALLY****
TOTAL RUN TIME: 0 days 0 hours 23 minutes 35 seconds 635 msec
