                         Program Version 4.2.0 -  RELEASE  -
|  1> # ORCA input file
|  2> # SCF done        -40.121165937805          0.000422353235
|  3> ! B3LYP/G D3BJ Opt RIJCOSX def2-SVP def2/J
|  4> * xyz 0 1
|  5>    C        1.40313        -1.40171         0.04787
|  6>    S        2.65287        -0.23319        -0.05912
|  7>    C        1.49706         1.07319         0.02838
|  8>    C        0.21639         0.58665         0.15036
|  9>    C        0.17232        -0.83290         0.16105
| 10>    C       -1.10667        -1.59578         0.31401
| 11>    C       -2.28898        -0.73433        -0.12995
| 12>    C       -2.36512        -0.46314        -1.62897
| 13>    O       -2.89658         0.52883        -2.06128
| 14>    C       -1.78207        -1.51251        -2.53898
| 15>    C       -2.24736         0.58493         0.64938
| 16>    C       -1.02580         1.41491         0.25029
| 17>    C        2.02721         2.41162        -0.02497
| 18>    C        1.35996         3.54493        -0.22625
| 19>    H        1.64863        -2.44535         0.02655
| 20>    H       -1.24292        -1.84390         1.37239
| 21>    H       -1.05564        -2.54018        -0.22877
| 22>    H       -3.22173        -1.26169         0.11172
| 23>    H       -0.69953        -1.52629        -2.42484
| 24>    H       -2.02743        -1.27398        -3.57090
| 25>    H       -2.16987        -2.49713        -2.28816
| 26>    H       -2.21633         0.36271         1.71791
| 27>    H       -3.14897         1.16292         0.44486
| 28>    H       -0.87541         2.21991         0.97395
| 29>    H       -1.21951         1.87560        -0.72300
| 30>    H        3.10303         2.45579         0.09963
| 31>    H        0.30055         3.58498        -0.39660
| 32>    H        1.88119         4.48680        -0.24524
| 33> *
| 34>
| 35>                          ****END OF INPUT****
 Total Charge           Charge          ....    0
 Multiplicity           Mult            ....    1
 Number of Electrons    NEL             ....  110
Dispersion correction           -0.062577660
FINAL SINGLE POINT ENERGY      -938.660061638782
Dispersion correction            ... done
Dispersion correction           -0.061712948
FINAL SINGLE POINT ENERGY      -938.663612752265
Dispersion correction            ... done
Dispersion correction           -0.061501799
FINAL SINGLE POINT ENERGY      -938.663887231649
Dispersion correction            ... done
FINAL SINGLE POINT ENERGY      -938.663723955389
FINAL SINGLE POINT ENERGY      -938.663823400167
FINAL SINGLE POINT ENERGY      -938.663867111974
FINAL SINGLE POINT ENERGY      -938.664001344464
FINAL SINGLE POINT ENERGY      -938.664128526590
FINAL SINGLE POINT ENERGY      -938.663969106579
Dispersion correction            ... done
Dispersion correction           -0.061595073
FINAL SINGLE POINT ENERGY      -938.664098786963
Dispersion correction            ... done
Dispersion correction           -0.061644052
FINAL SINGLE POINT ENERGY      -938.664101944259
Dispersion correction            ... done
                    ***********************HURRAY********************

CARTESIAN COORDINATES (ANGSTROEM)
---------------------------------
  C      1.443744   -1.374923   -0.052068
  S      2.678115   -0.184559   -0.199692
  C      1.531978    1.123062    0.002155
  C      0.244881    0.625462    0.178590
  C      0.205725   -0.808885    0.153671
  C     -1.085599   -1.560939    0.333118
  C     -2.264135   -0.711491   -0.179665
  C     -2.244510   -0.529711   -1.702047
  O     -2.467252    0.547346   -2.212186
  C     -1.949117   -1.755681   -2.541434
  C     -2.284490    0.634656    0.551704
  C     -1.002003    1.459666    0.321422
  C      2.055097    2.479294   -0.042460
  C      1.383149    3.644727   -0.007843
  H      1.687685   -2.434565   -0.114202
  H     -1.256802   -1.771780    1.403517
  H     -1.036835   -2.539576   -0.164486
  H     -3.199941   -1.260863    0.038325
  H     -0.867441   -1.967146   -2.503665
  H     -2.238667   -1.566373   -3.582930
  H     -2.467110   -2.646104   -2.153682
  H     -2.422717    0.432059    1.626568
  H     -3.148845    1.226016    0.218324
  H     -0.874767    2.185762    1.142457
  H     -1.125748    2.053253   -0.598425
  H      3.147899    2.534707   -0.116368
  H      0.297317    3.710290    0.051118
  H      1.932810    4.587983   -0.048498

 Multiplicity           Mult            ....    1
 Number of Electrons    NEL             ....  110
 Basis Dimension        Dim             ....  270

ORBITAL ENERGIES
----------------

  NO   OCC          E(Eh)            E(eV)
   0   2.0000     -88.869541     -2418.2632
   1   2.0000     -19.125756      -520.4383
   2   2.0000     -10.274481      -279.5829
   3   2.0000     -10.212288      -277.8905
   4   2.0000     -10.209403      -277.8120
   5   2.0000     -10.203985      -277.6646
   6   2.0000     -10.203876      -277.6616
   7   2.0000     -10.201304      -277.5916
   8   2.0000     -10.196663      -277.4653
   9   2.0000     -10.194099      -277.3955
  10   2.0000     -10.194083      -277.3951
  11   2.0000     -10.189448      -277.2690
  12   2.0000     -10.189065      -277.2586
  13   2.0000     -10.185445      -277.1601
  14   2.0000      -7.964705      -216.7306
  15   2.0000      -5.932687      -161.4366
  16   2.0000      -5.928792      -161.3306
  17   2.0000      -5.926123      -161.2580
  18   2.0000      -1.033120       -28.1126
  19   2.0000      -0.884583       -24.0707
  20   2.0000      -0.826691       -22.4954
  21   2.0000      -0.783388       -21.3171
  22   2.0000      -0.759546       -20.6683
  23   2.0000      -0.736454       -20.0399
  24   2.0000      -0.727269       -19.7900
  25   2.0000      -0.688179       -18.7263
  26   2.0000      -0.640747       -17.4356
  27   2.0000      -0.612842       -16.6763
  28   2.0000      -0.590464       -16.0673
  29   2.0000      -0.557071       -15.1587
  30   2.0000      -0.525093       -14.2885
  31   2.0000      -0.498834       -13.5740
  32   2.0000      -0.492495       -13.4015
  33   2.0000      -0.475966       -12.9517
  34   2.0000      -0.456020       -12.4089
  35   2.0000      -0.454623       -12.3709
  36   2.0000      -0.448276       -12.1982
  37   2.0000      -0.433645       -11.8001
  38   2.0000      -0.424578       -11.5534
  39   2.0000      -0.414544       -11.2803
  40   2.0000      -0.412618       -11.2279
  41   2.0000      -0.401953       -10.9377
  42   2.0000      -0.393620       -10.7110
  43   2.0000      -0.388555       -10.5731
  44   2.0000      -0.371900       -10.1199
  45   2.0000      -0.368690       -10.0326
  46   2.0000      -0.359113        -9.7720
  47   2.0000      -0.344418        -9.3721
  48   2.0000      -0.338715        -9.2169
  49   2.0000      -0.331194        -9.0122
  50   2.0000      -0.321729        -8.7547
  51   2.0000      -0.299027        -8.1369
  52   2.0000      -0.250616        -6.8196
  53   2.0000      -0.242535        -6.5997
  54   2.0000      -0.213585        -5.8119
  55   0.0000      -0.044423        -1.2088
  56   0.0000      -0.019234        -0.5234
  57   0.0000       0.023923         0.6510
  58   0.0000       0.034194         0.9305
  59   0.0000       0.043291         1.1780

MULLIKEN ATOMIC CHARGES
-----------------------
   0 C :   -0.133600
   1 S :    0.101774
   2 C :   -0.163613
   3 C :   -0.029595
   4 C :   -0.077515
   5 C :    0.180294
   6 C :   -0.118835
   7 C :    0.006722
   8 O :   -0.196524
   9 C :    0.061527
  10 C :    0.112606
  11 C :    0.070574
  12 C :    0.034474
  13 C :   -0.040153
  14 H :    0.009389
  15 H :    0.013328
  16 H :   -0.015406
  17 H :    0.011778
  18 H :    0.044990
  19 H :    0.030008
  20 H :    0.020060
  21 H :   -0.008730
  22 H :    0.001637
  23 H :    0.020022
  24 H :    0.043503
  25 H :   -0.012047
  26 H :    0.015871
  27 H :    0.017459
Sum of atomic charges:    0.0000000

LOEWDIN ATOMIC CHARGES
----------------------
   0 C :   -0.205950
   1 S :    0.429613
   2 C :   -0.180644
   3 C :   -0.052965
   4 C :   -0.072235
   5 C :   -0.013330
   6 C :   -0.059844
   7 C :    0.091310
   8 O :   -0.145643
   9 C :   -0.075556
  10 C :   -0.017014
  11 C :   -0.027182
  12 C :   -0.042597
  13 C :   -0.056594
  14 H :    0.021244
  15 H :    0.033980
  16 H :    0.023277
  17 H :    0.038373
  18 H :    0.048276
  19 H :    0.037576
  20 H :    0.033178
  21 H :    0.020745
  22 H :    0.028907
  23 H :    0.031917
  24 H :    0.037496
  25 H :    0.027268
  26 H :    0.021102
  27 H :    0.025291

  Mayer bond orders larger than 0.100000
B(  0-C ,  1-S ) :   1.1533 B(  0-C ,  4-C ) :   1.5236 B(  0-C , 14-H ) :   0.9650
B(  1-S ,  2-C ) :   1.1276 B(  2-C ,  3-C ) :   1.5019 B(  2-C , 12-C ) :   1.1248
B(  3-C ,  4-C ) :   1.2951 B(  3-C , 11-C ) :   1.0780 B(  4-C ,  5-C ) :   1.0383
B(  5-C ,  6-C ) :   1.0526 B(  5-C , 15-H ) :   0.9034 B(  5-C , 16-H ) :   0.9077
B(  6-C ,  7-C ) :   0.8999 B(  6-C , 10-C ) :   1.0671 B(  6-C , 17-H ) :   0.8822
B(  7-C ,  8-O ) :   2.1612 B(  7-C ,  9-C ) :   1.0475 B(  9-C , 18-H ) :   0.9344
B(  9-C , 19-H ) :   0.9474 B(  9-C , 20-H ) :   0.9477 B( 10-C , 11-C ) :   1.0822
B( 10-C , 21-H ) :   0.9289 B( 10-C , 22-H ) :   0.9155 B( 11-C , 23-H ) :   0.9081
B( 11-C , 24-H ) :   0.9007 B( 12-C , 13-C ) :   1.9034 B( 12-C , 25-H ) :   0.9424
B( 13-C , 26-H ) :   0.9528 B( 13-C , 27-H ) :   0.9400

Dispersion correction           -0.061647570
FINAL SINGLE POINT ENERGY      -938.664098909917

DIPOLE MOMENT
-------------
                                X             Y             Z
Electronic contribution:      9.97711      -0.52266      -0.25269
Nuclear contribution   :    -10.15090      -0.40749       0.71390
                        -----------------------------------------
Total Dipole Moment    :     -0.17380      -0.93015       0.46121
                        -----------------------------------------
Magnitude (a.u.)       :      1.05267
Magnitude (Debye)      :      2.67567

Rotational constants in cm-1:     0.031005     0.016162     0.013096
Rotational constants in MHz :   929.515927   484.523040   392.597257

                             ****ORCA TERMINATED NORMALLY****
TOTAL RUN TIME: 0 days 0 hours 28 minutes 49 seconds 273 msec
