                         Program Version 4.2.0 -  RELEASE  -
|  1> # ORCA input file
|  2> # SCF done        -42.451695536829          0.000473012599
|  3> ! B3LYP/G D3BJ Opt RIJCOSX def2-SVP def2/J
|  4> * xyz 0 1
|  5>    C       -0.26721         1.41516         0.59368
|  6>    S       -1.62153         0.36893         0.67552
|  7>    C       -0.79121        -0.90935        -0.11180
|  8>    C        0.48945        -0.54612        -0.42751
|  9>    C        0.79704         0.79765        -0.00703
| 10>    N        2.04239         1.31247        -0.17472
| 11>    C        2.93958         0.54649        -0.73140
| 12>    C        2.57796        -0.75374        -1.30174
| 13>    N        3.46909        -1.44213        -2.07333
| 14>    C        3.03029        -2.60200        -2.81166
| 15>    N        1.39548        -1.27703        -1.12814
| 16>    N        4.22040         1.04872        -0.83865
| 17>    C        4.40470         2.48151        -0.74072
| 18>    C        5.33535         0.24006        -0.71965
| 19>    C        6.59815         0.64413        -0.82357
| 20>    H       -0.31774         2.40031         1.00934
| 21>    H       -1.28485        -1.84102        -0.29595
| 22>    H        4.20468        -0.89970        -2.50092
| 23>    H        2.37577        -3.18357        -2.16708
| 24>    H        3.90163        -3.19243        -3.08921
| 25>    H        2.47228        -2.33164        -3.71354
| 26>    H        3.42603         2.94481        -0.65461
| 27>    H        4.91312         2.85049        -1.63391
| 28>    H        4.99970         2.73330         0.13871
| 29>    H        5.11631        -0.79206        -0.48547
| 30>    H        6.88237         1.65704        -1.03988
| 31>    H        7.39767        -0.05997        -0.68724
| 32> *
| 33>
| 34>                          ****END OF INPUT****
 Total Charge           Charge          ....    0
 Multiplicity           Mult            ....    1
 Number of Electrons    NEL             ....  116
Dispersion correction           -0.057511302
FINAL SINGLE POINT ENERGY     -1004.955812562721
Dispersion correction            ... done
Dispersion correction           -0.057086016
FINAL SINGLE POINT ENERGY     -1004.960035851957
Dispersion correction            ... done
Dispersion correction           -0.057061073
FINAL SINGLE POINT ENERGY     -1004.960401299392
Dispersion correction            ... done
FINAL SINGLE POINT ENERGY     -1004.960555710330
FINAL SINGLE POINT ENERGY     -1004.960793643391
FINAL SINGLE POINT ENERGY     -1004.961004252566
FINAL SINGLE POINT ENERGY     -1004.961140219315
FINAL SINGLE POINT ENERGY     -1004.961185459767
FINAL SINGLE POINT ENERGY     -1004.961058812606
FINAL SINGLE POINT ENERGY     -1004.961162771721
FINAL SINGLE POINT ENERGY     -1004.961179303623
FINAL SINGLE POINT ENERGY     -1004.961183254766
FINAL SINGLE POINT ENERGY     -1004.961175147310
Dispersion correction            ... done
Dispersion correction           -0.056989802
FINAL SINGLE POINT ENERGY     -1004.961168264932
Dispersion correction            ... done
Dispersion correction           -0.056989441
FINAL SINGLE POINT ENERGY     -1004.961164237522
Dispersion correction            ... done
                    ***********************HURRAY********************

CARTESIAN COORDINATES (ANGSTROEM)
---------------------------------
  C     -0.180685    1.369232    0.809476
  S     -1.582390    0.373402    0.828146
  C     -0.834923   -0.876072   -0.097678
  C      0.469123   -0.539320   -0.420333
  C      0.844803    0.758417    0.107513
  N      2.106764    1.253112   -0.083260
  C      2.942989    0.522464   -0.755499
  C      2.536145   -0.763989   -1.366995
  N      3.423001   -1.435588   -2.166328
  C      3.000755   -2.608895   -2.901809
  N      1.341074   -1.264500   -1.184222
  N      4.237076    1.027046   -0.990747
  C      4.393978    2.472006   -1.024564
  C      5.351050    0.259583   -0.641229
  C      6.615111    0.697012   -0.512118
  H     -0.161428    2.333945    1.310508
  H     -1.376242   -1.777361   -0.375786
  H      4.188534   -0.889732   -2.540904
  H      2.576697   -3.349277   -2.208577
  H      3.870985   -3.044513   -3.412559
  H      2.216053   -2.381373   -3.645798
  H      3.454158    2.929742   -1.349856
  H      5.194395    2.734637   -1.732168
  H      4.652629    2.879785   -0.032069
  H      5.119094   -0.790747   -0.453953
  H      6.913907    1.735010   -0.663930
  H      7.394250   -0.013715   -0.235742

 Multiplicity           Mult            ....    1
 Number of Electrons    NEL             ....  116
 Basis Dimension        Dim             ....  274

ORBITAL ENERGIES
----------------

  NO   OCC          E(Eh)            E(eV)
   0   2.0000     -88.878225     -2418.4994
   1   2.0000     -14.367727      -390.9657
   2   2.0000     -14.355271      -390.6268
   3   2.0000     -14.328825      -389.9072
   4   2.0000     -14.315356      -389.5406
   5   2.0000     -10.270428      -279.4725
   6   2.0000     -10.268833      -279.4292
   7   2.0000     -10.228298      -278.3261
   8   2.0000     -10.222795      -278.1764
   9   2.0000     -10.220802      -278.1221
  10   2.0000     -10.216815      -278.0137
  11   2.0000     -10.216445      -278.0036
  12   2.0000     -10.205863      -277.7157
  13   2.0000     -10.200960      -277.5822
  14   2.0000     -10.176660      -276.9210
  15   2.0000      -7.972689      -216.9479
  16   2.0000      -5.940535      -161.6502
  17   2.0000      -5.936488      -161.5401
  18   2.0000      -5.934705      -161.4915
  19   2.0000      -0.996991       -27.1295
  20   2.0000      -0.953122       -25.9358
  21   2.0000      -0.930339       -25.3158
  22   2.0000      -0.879838       -23.9416
  23   2.0000      -0.861417       -23.4404
  24   2.0000      -0.760632       -20.6979
  25   2.0000      -0.743386       -20.2285
  26   2.0000      -0.717211       -19.5163
  27   2.0000      -0.703948       -19.1554
  28   2.0000      -0.689301       -18.7568
  29   2.0000      -0.628627       -17.1058
  30   2.0000      -0.613342       -16.6899
  31   2.0000      -0.586864       -15.9694
  32   2.0000      -0.557900       -15.1812
  33   2.0000      -0.548420       -14.9233
  34   2.0000      -0.528995       -14.3947
  35   2.0000      -0.518251       -14.1023
  36   2.0000      -0.483137       -13.1468
  37   2.0000      -0.470007       -12.7895
  38   2.0000      -0.455646       -12.3988
  39   2.0000      -0.449929       -12.2432
  40   2.0000      -0.443875       -12.0785
  41   2.0000      -0.433187       -11.7876
  42   2.0000      -0.422208       -11.4889
  43   2.0000      -0.418149       -11.3784
  44   2.0000      -0.402907       -10.9637
  45   2.0000      -0.398810       -10.8522
  46   2.0000      -0.396897       -10.8001
  47   2.0000      -0.376537       -10.2461
  48   2.0000      -0.366080        -9.9616
  49   2.0000      -0.351953        -9.5771
  50   2.0000      -0.349774        -9.5178
  51   2.0000      -0.324305        -8.8248
  52   2.0000      -0.302610        -8.2344
  53   2.0000      -0.288620        -7.8538
  54   2.0000      -0.248590        -6.7645
  55   2.0000      -0.243956        -6.6384
  56   2.0000      -0.208420        -5.6714
  57   2.0000      -0.207210        -5.6385
  58   0.0000      -0.062655        -1.7049
  59   0.0000       0.012255         0.3335
  60   0.0000       0.019585         0.5329
  61   0.0000       0.031917         0.8685
  62   0.0000       0.055338         1.5058

MULLIKEN ATOMIC CHARGES
-----------------------
   0 C :   -0.147920
   1 S :    0.119323
   2 C :   -0.168487
   3 C :    0.084947
   4 C :    0.054850
   5 N :   -0.037852
   6 C :    0.040309
   7 C :   -0.033765
   8 N :   -0.159630
   9 C :    0.142832
  10 N :   -0.080083
  11 N :   -0.281755
  12 C :    0.148305
  13 C :    0.067448
  14 C :   -0.081124
  15 H :    0.009931
  16 H :    0.008307
  17 H :    0.130122
  18 H :    0.030704
  19 H :    0.011911
  20 H :    0.019061
  21 H :    0.031132
  22 H :    0.023436
  23 H :    0.022578
  24 H :    0.017733
  25 H :    0.009412
  26 H :    0.018274
Sum of atomic charges:   -0.0000000

LOEWDIN ATOMIC CHARGES
----------------------
   0 C :   -0.210632
   1 S :    0.463193
   2 C :   -0.222807
   3 C :   -0.048303
   4 C :   -0.060657
   5 N :   -0.077523
   6 C :    0.020202
   7 C :    0.019526
   8 N :   -0.019213
   9 C :    0.028865
  10 N :   -0.118684
  11 N :   -0.040219
  12 C :    0.038801
  13 C :    0.016291
  14 C :   -0.132848
  15 H :    0.026204
  16 H :    0.024689
  17 H :    0.075899
  18 H :    0.030053
  19 H :    0.022487
  20 H :    0.018716
  21 H :    0.029941
  22 H :    0.022020
  23 H :    0.022003
  24 H :    0.025148
  25 H :    0.018898
  26 H :    0.027951

  Mayer bond orders larger than 0.100000
B(  0-C ,  1-S ) :   1.1922 B(  0-C ,  2-C ) :   0.1161 B(  0-C ,  4-C ) :   1.4086
B(  0-C , 15-H ) :   0.9673 B(  1-S ,  2-C ) :   1.1700 B(  2-C ,  3-C ) :   1.4138
B(  2-C , 16-H ) :   0.9681 B(  3-C ,  4-C ) :   1.1908 B(  3-C , 10-N ) :   1.3140
B(  4-C ,  5-N ) :   1.2889 B(  5-N ,  6-C ) :   1.7453 B(  6-C ,  7-C ) :   1.0433
B(  6-C , 11-N ) :   1.0466 B(  7-C ,  8-N ) :   1.2643 B(  7-C , 10-N ) :   1.6573
B(  8-N ,  9-C ) :   1.0118 B(  8-N , 17-H ) :   0.9014 B(  9-C , 18-H ) :   0.9674
B(  9-C , 19-H ) :   0.9712 B(  9-C , 20-H ) :   0.9659 B( 11-N , 12-C ) :   0.9909
B( 11-N , 13-C ) :   1.0649 B( 12-C , 21-H ) :   0.9639 B( 12-C , 22-H ) :   0.9620
B( 12-C , 23-H ) :   0.9664 B( 13-C , 14-C ) :   1.9074 B( 13-C , 24-H ) :   0.9486
B( 14-C , 25-H ) :   0.9552 B( 14-C , 26-H ) :   0.9414

Dispersion correction           -0.056990572
FINAL SINGLE POINT ENERGY     -1004.961164585852

DIPOLE MOMENT
-------------
                                X             Y             Z
Electronic contribution:    -17.76602       0.76208       7.00101
Nuclear contribution   :     18.38328      -0.79085      -7.66831
                        -----------------------------------------
Total Dipole Moment    :      0.61726      -0.02877      -0.66730
                        -----------------------------------------
Magnitude (a.u.)       :      0.90947
Magnitude (Debye)      :      2.31168

Rotational constants in cm-1:     0.032354     0.011668     0.008971
Rotational constants in MHz :   969.946136   349.786858   268.953860

                             ****ORCA TERMINATED NORMALLY****
TOTAL RUN TIME: 0 days 0 hours 35 minutes 6 seconds 370 msec
