                         Program Version 4.2.0 -  RELEASE  -
|  1> # ORCA input file
|  2> # SCF done        -26.279647098034          0.000119300695
|  3> ! B3LYP/G D3BJ Opt RIJCOSX def2-SVP def2/J
|  4> * xyz 0 1
|  5>    C        0.78287        -1.07963        -0.12991
|  6>    C        0.65651         0.29688         0.02125
|  7>    O        1.67744         1.19130        -0.07141
|  8>    C        2.98012         0.72022        -0.35004
|  9>    C        3.90562         1.92573        -0.40490
| 10>    C       -0.60144         0.83990         0.29040
| 11>    C       -1.70521         0.02190         0.40436
| 12>    C       -1.57808        -1.35062         0.25288
| 13>    C       -0.33453        -1.89084        -0.01294
| 14>    H        1.74062        -1.53091        -0.33765
| 15>    H        2.99227         0.18926        -1.31253
| 16>    H        3.30808         0.02680         0.43744
| 17>    H        3.58117         2.60705        -1.18660
| 18>    H        4.92222         1.60287        -0.61071
| 19>    H        3.88278         2.45320         0.54473
| 20>    H       -0.68176         1.90950         0.40519
| 21>    H       -2.67197         0.45616         0.61240
| 22>    H       -2.44237        -1.99107         0.34168
| 23>    H       -0.22288        -2.95875        -0.13274
| 24> *
| 25>
| 26>                          ****END OF INPUT****
 Total Charge           Charge          ....    0
 Multiplicity           Mult            ....    1
 Number of Electrons    NEL             ....   66
Dispersion correction           -0.030062884
FINAL SINGLE POINT ENERGY      -385.841774371873
Dispersion correction            ... done
Dispersion correction           -0.029950098
FINAL SINGLE POINT ENERGY      -385.843697479805
Dispersion correction            ... done
Dispersion correction           -0.029932194
FINAL SINGLE POINT ENERGY      -385.843740954498
Dispersion correction            ... done
FINAL SINGLE POINT ENERGY      -385.843715335803
FINAL SINGLE POINT ENERGY      -385.843687717118
Dispersion correction            ... done
Dispersion correction           -0.029930055
FINAL SINGLE POINT ENERGY      -385.843667529739
Dispersion correction            ... done
Dispersion correction           -0.029930436
FINAL SINGLE POINT ENERGY      -385.843658506198
Dispersion correction            ... done
                    ***********************HURRAY********************

CARTESIAN COORDINATES (ANGSTROEM)
---------------------------------
  C      0.802488   -1.085641   -0.071801
  C      0.667138    0.301701    0.086181
  O      1.696393    1.183147    0.029188
  C      2.988512    0.723481   -0.325638
  C      3.901232    1.927436   -0.437135
  C     -0.606055    0.851148    0.316002
  C     -1.725593    0.027082    0.372174
  C     -1.598591   -1.358384    0.206838
  C     -0.332682   -1.901915   -0.009171
  H      1.776444   -1.539209   -0.252071
  H      2.944494    0.179455   -1.288102
  H      3.361261    0.012809    0.436135
  H      3.511927    2.637340   -1.182675
  H      4.907887    1.608407   -0.749373
  H      3.980378    2.452509    0.526896
  H     -0.683464    1.932555    0.445393
  H     -2.708006    0.471666    0.550321
  H     -2.478102   -2.003793    0.248429
  H     -0.214203   -2.980845   -0.140691

 Multiplicity           Mult            ....    1
 Number of Electrons    NEL             ....   66
 Basis Dimension        Dim             ....  176

ORBITAL ENERGIES
----------------

  NO   OCC          E(Eh)            E(eV)
   0   2.0000     -19.160188      -521.3752
   1   2.0000     -10.246344      -278.8172
   2   2.0000     -10.245681      -278.7992
   3   2.0000     -10.190008      -277.2842
   4   2.0000     -10.189027      -277.2575
   5   2.0000     -10.188801      -277.2514
   6   2.0000     -10.185706      -277.1672
   7   2.0000     -10.182218      -277.0722
   8   2.0000     -10.181395      -277.0498
   9   2.0000      -1.056951       -28.7611
  10   2.0000      -0.842115       -22.9151
  11   2.0000      -0.773498       -21.0480
  12   2.0000      -0.737260       -20.0619
  13   2.0000      -0.715937       -19.4816
  14   2.0000      -0.639747       -17.4084
  15   2.0000      -0.598833       -16.2951
  16   2.0000      -0.578325       -15.7370
  17   2.0000      -0.539910       -14.6917
  18   2.0000      -0.487096       -13.2546
  19   2.0000      -0.485676       -13.2159
  20   2.0000      -0.470166       -12.7939
  21   2.0000      -0.439955       -11.9718
  22   2.0000      -0.420524       -11.4430
  23   2.0000      -0.403198       -10.9716
  24   2.0000      -0.400042       -10.8857
  25   2.0000      -0.396448       -10.7879
  26   2.0000      -0.363461        -9.8903
  27   2.0000      -0.361172        -9.8280
  28   2.0000      -0.356552        -9.7023
  29   2.0000      -0.325442        -8.8557
  30   2.0000      -0.317730        -8.6459
  31   2.0000      -0.254182        -6.9166
  32   2.0000      -0.222407        -6.0520
  33   0.0000      -0.007316        -0.1991
  34   0.0000       0.007618         0.2073
  35   0.0000       0.058344         1.5876
  36   0.0000       0.065987         1.7956
  37   0.0000       0.090784         2.4703

MULLIKEN ATOMIC CHARGES
-----------------------
   0 C :   -0.075586
   1 C :    0.215117
   2 O :   -0.313607
   3 C :    0.147556
   4 C :    0.023545
   5 C :   -0.019445
   6 C :    0.017360
   7 C :    0.023087
   8 C :    0.011945
   9 H :   -0.029776
  10 H :    0.007594
  11 H :    0.011526
  12 H :    0.025983
  13 H :    0.010790
  14 H :    0.023671
  15 H :   -0.022297
  16 H :   -0.019952
  17 H :   -0.022300
  18 H :   -0.015211
Sum of atomic charges:   -0.0000000

LOEWDIN ATOMIC CHARGES
----------------------
   0 C :   -0.079279
   1 C :    0.053075
   2 O :   -0.102544
   3 C :    0.082667
   4 C :   -0.058815
   5 C :   -0.049598
   6 C :   -0.017117
   7 C :   -0.051139
   8 C :   -0.017925
   9 H :    0.024535
  10 H :    0.010217
  11 H :    0.010228
  12 H :    0.029757
  13 H :    0.029498
  14 H :    0.028855
  15 H :    0.029785
  16 H :    0.026530
  17 H :    0.024373
  18 H :    0.026895

  Mayer bond orders larger than 0.100000
B(  0-C ,  1-C ) :   1.3231 B(  0-C ,  8-C ) :   1.3516 B(  0-C ,  9-H ) :   0.9897
B(  1-C ,  2-O ) :   1.1273 B(  1-C ,  5-C ) :   1.3572 B(  2-O ,  3-C ) :   0.9514
B(  3-C ,  4-C ) :   1.1063 B(  3-C , 10-H ) :   0.9431 B(  3-C , 11-H ) :   0.9454
B(  4-C , 12-H ) :   0.9661 B(  4-C , 13-H ) :   0.9575 B(  4-C , 14-H ) :   0.9663
B(  5-C ,  6-C ) :   1.4011 B(  5-C , 15-H ) :   0.9888 B(  6-C ,  7-C ) :   1.3543
B(  6-C , 16-H ) :   0.9840 B(  7-C ,  8-C ) :   1.4002 B(  7-C , 17-H ) :   0.9891
B(  8-C , 18-H ) :   0.9810

Dispersion correction           -0.029930227
FINAL SINGLE POINT ENERGY      -385.843654633055

DIPOLE MOMENT
-------------
                                X             Y             Z
Electronic contribution:     -6.05119      -1.58475       1.22600
Nuclear contribution   :      6.54522       1.42217      -1.37231
                        -----------------------------------------
Total Dipole Moment    :      0.49403      -0.16258      -0.14631
                        -----------------------------------------
Magnitude (a.u.)       :      0.54028
Magnitude (Debye)      :      1.37329

Rotational constants in cm-1:     0.161612     0.030594     0.026005
Rotational constants in MHz :  4845.000847   917.177817   779.603472

                             ****ORCA TERMINATED NORMALLY****
TOTAL RUN TIME: 0 days 0 hours 6 minutes 11 seconds 86 msec
