                         Program Version 4.2.0 -  RELEASE  -
|  1> # ORCA input file
|  2> # SCF done        -29.296638935321          0.000289990994
|  3> ! B3LYP/G D3BJ Opt RIJCOSX def2-SVP def2/J
|  4> * xyz 0 1
|  5>    C       -0.28552         0.96735         0.04073
|  6>    O       -1.00881        -0.14595        -0.01220
|  7>    C       -0.14801        -1.19085        -0.12991
|  8>    C        1.14077        -0.72434        -0.15257
|  9>    C        1.05962         0.69146        -0.04104
| 10>    C        2.13498         1.69011        -0.01519
| 11>    O        1.90619         2.87459         0.08691
| 12>    C        3.53309         1.13505        -0.12529
| 13>    C       -0.64846        -2.54087        -0.21106
| 14>    C       -1.93736        -2.86353        -0.17978
| 15>    H       -0.79819         1.90447         0.13526
| 16>    H        2.02590        -1.32025        -0.23751
| 17>    H        3.63672         0.58227        -1.05647
| 18>    H        3.72362         0.45393         0.70121
| 19>    H        4.25432         1.94723        -0.10146
| 20>    H        0.11778        -3.29784        -0.30255
| 21>    H       -2.70010        -2.10918        -0.08839
| 22>    H       -2.26528        -3.88569        -0.24385
| 23> *
| 24>
| 25>                          ****END OF INPUT****
 Total Charge           Charge          ....    0
 Multiplicity           Mult            ....    1
 Number of Electrons    NEL             ....   72
Dispersion correction           -0.029105499
FINAL SINGLE POINT ENERGY      -459.769515383685
Dispersion correction            ... done
Dispersion correction           -0.028993662
FINAL SINGLE POINT ENERGY      -459.772055012734
Dispersion correction            ... done
Dispersion correction           -0.028965662
FINAL SINGLE POINT ENERGY      -459.772212479277
Dispersion correction            ... done
FINAL SINGLE POINT ENERGY      -459.772237405163
FINAL SINGLE POINT ENERGY      -459.772230725846
FINAL SINGLE POINT ENERGY      -459.772250240595
FINAL SINGLE POINT ENERGY      -459.772249326969
FINAL SINGLE POINT ENERGY      -459.772241695242
Dispersion correction            ... done
Dispersion correction           -0.028960417
FINAL SINGLE POINT ENERGY      -459.772234764241
Dispersion correction            ... done
Dispersion correction           -0.028958876
FINAL SINGLE POINT ENERGY      -459.772229112766
Dispersion correction            ... done
                    ***********************HURRAY********************

CARTESIAN COORDINATES (ANGSTROEM)
---------------------------------
  C     -0.269525    0.959770    0.024741
  O     -0.997542   -0.168814   -0.027941
  C     -0.134801   -1.230638   -0.138769
  C      1.155181   -0.758350   -0.157381
  C      1.073451    0.673231   -0.049846
  C      2.146130    1.694218   -0.020617
  O      1.881509    2.878727    0.066912
  C      3.572787    1.192732   -0.113630
  C     -0.687818   -2.564754   -0.209920
  C     -1.994400   -2.868910   -0.160900
  H     -0.805306    1.899718    0.119553
  H      2.052578   -1.365762   -0.242613
  H      3.736261    0.698230   -1.086467
  H      3.779543    0.442646    0.666502
  H      4.263591    2.038782   -0.009901
  H      0.058743   -3.357579   -0.313754
  H     -2.754291   -2.090917   -0.056413
  H     -2.334832   -3.904370   -0.222715

 Multiplicity           Mult            ....    1
 Number of Electrons    NEL             ....   72
 Basis Dimension        Dim             ....  180

ORBITAL ENERGIES
----------------

  NO   OCC          E(Eh)            E(eV)
   0   2.0000     -19.218703      -522.9675
   1   2.0000     -19.120355      -520.2913
   2   2.0000     -10.278159      -279.6829
   3   2.0000     -10.259394      -279.1723
   4   2.0000     -10.256338      -279.0891
   5   2.0000     -10.210804      -277.8501
   6   2.0000     -10.205734      -277.7121
   7   2.0000     -10.200658      -277.5740
   8   2.0000     -10.198286      -277.5095
   9   2.0000     -10.195435      -277.4319
  10   2.0000      -1.123365       -30.5683
  11   2.0000      -1.027501       -27.9597
  12   2.0000      -0.818858       -22.2823
  13   2.0000      -0.807669       -21.9778
  14   2.0000      -0.741743       -20.1839
  15   2.0000      -0.731373       -19.9017
  16   2.0000      -0.639400       -17.3989
  17   2.0000      -0.619513       -16.8578
  18   2.0000      -0.585051       -15.9200
  19   2.0000      -0.532102       -14.4792
  20   2.0000      -0.507936       -13.8216
  21   2.0000      -0.478715       -13.0265
  22   2.0000      -0.473384       -12.8814
  23   2.0000      -0.462485       -12.5848
  24   2.0000      -0.443760       -12.0753
  25   2.0000      -0.439771       -11.9668
  26   2.0000      -0.435988       -11.8638
  27   2.0000      -0.415347       -11.3022
  28   2.0000      -0.394857       -10.7446
  29   2.0000      -0.379908       -10.3378
  30   2.0000      -0.376337       -10.2407
  31   2.0000      -0.367543       -10.0013
  32   2.0000      -0.321743        -8.7551
  33   2.0000      -0.294187        -8.0052
  34   2.0000      -0.255311        -6.9474
  35   2.0000      -0.228345        -6.2136
  36   0.0000      -0.051548        -1.4027
  37   0.0000      -0.041539        -1.1303
  38   0.0000       0.056256         1.5308
  39   0.0000       0.062964         1.7133
  40   0.0000       0.072048         1.9605

MULLIKEN ATOMIC CHARGES
-----------------------
   0 C :    0.131168
   1 O :   -0.203151
   2 C :    0.147760
   3 C :   -0.061508
   4 C :   -0.005319
   5 C :    0.017313
   6 O :   -0.197951
   7 C :    0.036234
   8 C :   -0.017256
   9 C :   -0.006992
  10 H :    0.024685
  11 H :   -0.016288
  12 H :    0.034721
  13 H :    0.033559
  14 H :    0.031007
  15 H :   -0.003723
  16 H :    0.031548
  17 H :    0.024193
Sum of atomic charges:    0.0000000

LOEWDIN ATOMIC CHARGES
----------------------
   0 C :    0.091375
   1 O :    0.016217
   2 C :    0.029182
   3 C :   -0.058489
   4 C :   -0.118312
   5 C :    0.078218
   6 O :   -0.159833
   7 C :   -0.076102
   8 C :   -0.042763
   9 C :   -0.036604
  10 H :    0.033041
  11 H :    0.030904
  12 H :    0.042856
  13 H :    0.039186
  14 H :    0.038056
  15 H :    0.037161
  16 H :    0.028048
  17 H :    0.027860

  Mayer bond orders larger than 0.100000
B(  0-C ,  1-O ) :   1.1722 B(  0-C ,  4-C ) :   1.4811 B(  0-C , 10-H ) :   1.0001
B(  1-O ,  2-C ) :   1.1133 B(  2-C ,  3-C ) :   1.4884 B(  2-C ,  8-C ) :   1.1255
B(  3-C ,  4-C ) :   1.1977 B(  3-C , 11-H ) :   0.9995 B(  4-C ,  5-C ) :   0.9396
B(  5-C ,  6-O ) :   2.1786 B(  5-C ,  7-C ) :   1.0621 B(  7-C , 12-H ) :   0.9430
B(  7-C , 13-H ) :   0.9449 B(  7-C , 14-H ) :   0.9492 B(  8-C ,  9-C ) :   1.9008
B(  8-C , 15-H ) :   0.9528 B(  9-C , 16-H ) :   0.9540 B(  9-C , 17-H ) :   0.9426

Dispersion correction           -0.028958086
FINAL SINGLE POINT ENERGY      -459.772228381449

DIPOLE MOMENT
-------------
                                X             Y             Z
Electronic contribution:     -2.88180       4.27558       0.40439
Nuclear contribution   :      3.05498      -5.40590      -0.49570
                        -----------------------------------------
Total Dipole Moment    :      0.17318      -1.13031      -0.09131
                        -----------------------------------------
Magnitude (a.u.)       :      1.14714
Magnitude (Debye)      :      2.91580

Rotational constants in cm-1:     0.138443     0.023715     0.020324
Rotational constants in MHz :  4150.405004   710.964720   609.310520

                             ****ORCA TERMINATED NORMALLY****
TOTAL RUN TIME: 0 days 0 hours 10 minutes 24 seconds 40 msec
