                         Program Version 4.2.0 -  RELEASE  -
|  1> # ORCA input file
|  2> # SCF done        -12.047990107742          0.000200818433
|  3> ! B3LYP/G D3BJ Opt RIJCOSX def2-SVP def2/J
|  4> * xyz 0 1
|  5>    C        0.97335        -0.01526         0.08514
|  6>    C        0.23380        -0.94090        -0.52000
|  7>    N        2.34848        -0.17380         0.12236
|  8>    N        2.96373         0.74460         0.71270
|  9>    H        0.55000         0.86938         0.55737
| 10>    H        0.69966        -1.79934        -0.97353
| 11>    H       -0.83766        -0.86496        -0.57684
| 12>    H        3.97394         0.54555         0.69189
| 13> *
| 14>
| 15>                          ****END OF INPUT****
 Total Charge           Charge          ....    0
 Multiplicity           Mult            ....    1
 Number of Electrons    NEL             ....   30
Dispersion correction           -0.007914245
FINAL SINGLE POINT ENERGY      -187.908940010767
Dispersion correction            ... done
Dispersion correction           -0.007897043
FINAL SINGLE POINT ENERGY      -187.910233237363
Dispersion correction            ... done
Dispersion correction           -0.007890369
FINAL SINGLE POINT ENERGY      -187.910325407663
Dispersion correction            ... done
FINAL SINGLE POINT ENERGY      -187.910327966306
Dispersion correction            ... done
Dispersion correction           -0.007891813
FINAL SINGLE POINT ENERGY      -187.910330612305
Dispersion correction            ... done
Dispersion correction           -0.007892345
FINAL SINGLE POINT ENERGY      -187.910331662823
Dispersion correction            ... done
                    ***********************HURRAY********************

CARTESIAN COORDINATES (ANGSTROEM)
---------------------------------
  C      0.974955   -0.024170    0.090171
  C      0.226817   -0.948009   -0.524900
  N      2.375992   -0.181971    0.136917
  N      2.953605    0.765811    0.707672
  H      0.563689    0.874296    0.570318
  H      0.702918   -1.818942   -0.982560
  H     -0.859240   -0.848939   -0.585517
  H      3.966565    0.547195    0.686988

 Multiplicity           Mult            ....    1
 Number of Electrons    NEL             ....   30
 Basis Dimension        Dim             ....   76

ORBITAL ENERGIES
----------------

  NO   OCC          E(Eh)            E(eV)
   0   2.0000     -14.378594      -391.2614
   1   2.0000     -14.367296      -390.9540
   2   2.0000     -10.221952      -278.1535
   3   2.0000     -10.209980      -277.8277
   4   2.0000      -1.024872       -27.8882
   5   2.0000      -0.799880       -21.7658
   6   2.0000      -0.680505       -18.5175
   7   2.0000      -0.553481       -15.0610
   8   2.0000      -0.519008       -14.1229
   9   2.0000      -0.450519       -12.2592
  10   2.0000      -0.418500       -11.3880
  11   2.0000      -0.414948       -11.2913
  12   2.0000      -0.381091       -10.3700
  13   2.0000      -0.282367        -7.6836
  14   2.0000      -0.235380        -6.4050
  15   0.0000      -0.072517        -1.9733
  16   0.0000       0.036226         0.9858
  17   0.0000       0.080487         2.1902
  18   0.0000       0.085980         2.3396
  19   0.0000       0.100171         2.7258

MULLIKEN ATOMIC CHARGES
-----------------------
   0 C :    0.028952
   1 C :    0.022019
   2 N :   -0.149465
   3 N :   -0.091177
   4 H :    0.001045
   5 H :    0.035097
   6 H :    0.042531
   7 H :    0.110998
Sum of atomic charges:    0.0000000

LOEWDIN ATOMIC CHARGES
----------------------
   0 C :   -0.021919
   1 C :   -0.013909
   2 N :   -0.036293
   3 N :   -0.057018
   4 H :    0.011696
   5 H :    0.033529
   6 H :    0.034657
   7 H :    0.049256

  Mayer bond orders larger than 0.100000
B(  0-C ,  1-C ) :   1.8952 B(  0-C ,  2-N ) :   1.1250 B(  0-C ,  4-H ) :   0.9543
B(  1-C ,  3-N ) :   0.1308 B(  1-C ,  5-H ) :   0.9382 B(  1-C ,  6-H ) :   0.9541
B(  2-N ,  3-N ) :   1.7608 B(  3-N ,  7-H ) :   0.9422

Dispersion correction           -0.007892593
FINAL SINGLE POINT ENERGY      -187.910333058445

DIPOLE MOMENT
-------------
                                X             Y             Z
Electronic contribution:      1.94088       0.65194       0.57808
Nuclear contribution   :     -2.14325      -0.84690      -0.70950
                        -----------------------------------------
Total Dipole Moment    :     -0.20237      -0.19496      -0.13142
                        -----------------------------------------
Magnitude (a.u.)       :      0.31021
Magnitude (Debye)      :      0.78850

Rotational constants in cm-1:     1.748510     0.166096     0.151701
Rotational constants in MHz : 52419.008610  4979.426039  4547.877141

                             ****ORCA TERMINATED NORMALLY****
TOTAL RUN TIME: 0 days 0 hours 1 minutes 26 seconds 348 msec
