                         Program Version 4.2.0 -  RELEASE  -
|  1> # ORCA input file
|  2> # SCF done        -24.276578376923          0.000671719844
|  3> ! B3LYP/G D3BJ Opt RIJCOSX def2-SVP def2/J
|  4> * xyz 0 1
|  5>    C        2.24922         0.04851        -0.00014
|  6>    S        1.46070        -1.48996        -0.00100
|  7>    C       -0.06289        -0.72089         0.00095
|  8>    C        0.04746         0.65451         0.00228
|  9>    C        1.37967         1.10030         0.00098
| 10>    C       -1.32953         1.20850         0.00478
| 11>    O       -1.67918         2.36220         0.00586
| 12>    C       -2.21121        -0.00679         0.00274
| 13>    C       -1.46075        -1.11843         0.00171
| 14>    H        3.32088         0.07632        -0.00044
| 15>    H        1.68302         2.13109         0.00179
| 16>    H       -3.28275         0.06074         0.00277
| 17>    H       -1.79877        -2.13909         0.00098
| 18> *
| 19>
| 20>                          ****END OF INPUT****
 Total Charge           Charge          ....    0
 Multiplicity           Mult            ....    1
 Number of Electrons    NEL             ....   70
Dispersion correction           -0.028021426
FINAL SINGLE POINT ENERGY      -742.183486201801
Dispersion correction            ... done
Dispersion correction           -0.027990754
FINAL SINGLE POINT ENERGY      -742.185890489767
Dispersion correction            ... done
Dispersion correction           -0.027986738
FINAL SINGLE POINT ENERGY      -742.185959316192
Dispersion correction            ... done
FINAL SINGLE POINT ENERGY      -742.185955082958
Dispersion correction            ... done
Dispersion correction           -0.027985110
FINAL SINGLE POINT ENERGY      -742.185973533217
Dispersion correction            ... done
Dispersion correction           -0.027984758
FINAL SINGLE POINT ENERGY      -742.185973349792
Dispersion correction            ... done
                    ***********************HURRAY********************

CARTESIAN COORDINATES (ANGSTROEM)
---------------------------------
  C      2.284651    0.050072   -0.000037
  S      1.474251   -1.492930   -0.000841
  C     -0.059147   -0.722499    0.001026
  C      0.057217    0.653774    0.002231
  C      1.400128    1.108132    0.001529
  C     -1.340538    1.209240    0.003952
  O     -1.691925    2.366333    0.005310
  C     -2.242127   -0.011637    0.003029
  C     -1.482038   -1.128441    0.001518
  H      3.373223    0.082000   -0.000947
  H      1.708879    2.153549    0.002225
  H     -3.329415    0.058824    0.003701
  H     -1.837289   -2.159405    0.000563

 Multiplicity           Mult            ....    1
 Number of Electrons    NEL             ....   70
 Basis Dimension        Dim             ....  150

ORBITAL ENERGIES
----------------

  NO   OCC          E(Eh)            E(eV)
   0   2.0000     -88.897733     -2419.0303
   1   2.0000     -19.140237      -520.8323
   2   2.0000     -10.285704      -279.8882
   3   2.0000     -10.230679      -278.3909
   4   2.0000     -10.229866      -278.3688
   5   2.0000     -10.226727      -278.2834
   6   2.0000     -10.213237      -277.9163
   7   2.0000     -10.203229      -277.6440
   8   2.0000     -10.196686      -277.4659
   9   2.0000      -7.992082      -217.4756
  10   2.0000      -5.960074      -162.1819
  11   2.0000      -5.956003      -162.0711
  12   2.0000      -5.953769      -162.0103
  13   2.0000      -1.041693       -28.3459
  14   2.0000      -0.907432       -24.6925
  15   2.0000      -0.834770       -22.7152
  16   2.0000      -0.753944       -20.5159
  17   2.0000      -0.708510       -19.2795
  18   2.0000      -0.653997       -17.7962
  19   2.0000      -0.592073       -16.1111
  20   2.0000      -0.554358       -15.0848
  21   2.0000      -0.534099       -14.5336
  22   2.0000      -0.487103       -13.2548
  23   2.0000      -0.469106       -12.7650
  24   2.0000      -0.437994       -11.9184
  25   2.0000      -0.436964       -11.8904
  26   2.0000      -0.426648       -11.6097
  27   2.0000      -0.401876       -10.9356
  28   2.0000      -0.395581       -10.7643
  29   2.0000      -0.386471       -10.5164
  30   2.0000      -0.368131       -10.0174
  31   2.0000      -0.321117        -8.7380
  32   2.0000      -0.273772        -7.4497
  33   2.0000      -0.263463        -7.1692
  34   2.0000      -0.229951        -6.2573
  35   0.0000      -0.103125        -2.8062
  36   0.0000      -0.012562        -0.3418
  37   0.0000       0.027934         0.7601
  38   0.0000       0.051181         1.3927
  39   0.0000       0.074361         2.0235

MULLIKEN ATOMIC CHARGES
-----------------------
   0 C :   -0.105943
   1 S :    0.148948
   2 C :   -0.113352
   3 C :   -0.029991
   4 C :    0.046281
   5 C :    0.158769
   6 O :   -0.139719
   7 C :   -0.067884
   8 C :    0.059401
   9 H :    0.038792
  10 H :    0.000227
  11 H :    0.003642
  12 H :    0.000830
Sum of atomic charges:   -0.0000000

LOEWDIN ATOMIC CHARGES
----------------------
   0 C :   -0.188855
   1 S :    0.458833
   2 C :   -0.191095
   3 C :   -0.109007
   4 C :   -0.031271
   5 C :    0.087285
   6 O :   -0.111863
   7 C :   -0.057086
   8 C :    0.011798
   9 H :    0.027191
  10 H :    0.039068
  11 H :    0.032487
  12 H :    0.032514

  Mayer bond orders larger than 0.100000
B(  0-C ,  1-S ) :   1.1597 B(  0-C ,  4-C ) :   1.5194 B(  0-C ,  9-H ) :   0.9662
B(  1-S ,  2-C ) :   1.1493 B(  2-C ,  3-C ) :   1.4783 B(  2-C ,  8-C ) :   1.0412
B(  3-C ,  4-C ) :   1.2958 B(  3-C ,  5-C ) :   0.9136 B(  4-C , 10-H ) :   1.0002
B(  5-C ,  6-O ) :   2.1950 B(  5-C ,  7-C ) :   0.9771 B(  7-C ,  8-C ) :   1.7019
B(  7-C , 11-H ) :   0.9999 B(  8-C , 12-H ) :   1.0068

Dispersion correction           -0.027984356
FINAL SINGLE POINT ENERGY      -742.185973965344

DIPOLE MOMENT
-------------
                                X             Y             Z
Electronic contribution:      0.75931      -1.09059      -0.00076
Nuclear contribution   :     -0.24351       0.09370      -0.00081
                        -----------------------------------------
Total Dipole Moment    :      0.51579      -0.99690      -0.00157
                        -----------------------------------------
Magnitude (a.u.)       :      1.12243
Magnitude (Debye)      :      2.85299

Rotational constants in cm-1:     0.101730     0.041863     0.029658
Rotational constants in MHz :  3049.781194  1255.022503   889.133239

                             ****ORCA TERMINATED NORMALLY****
TOTAL RUN TIME: 0 days 0 hours 4 minutes 1 seconds 694 msec
