                         Program Version 4.2.0 -  RELEASE  -
|  1> # ORCA input file
|  2> # SCF done        -37.306154236475          0.000989988727
|  3> ! B3LYP/G D3BJ Opt RIJCOSX def2-SVP def2/J
|  4> * xyz 0 1
|  5>    C       -1.48550        -1.25029         0.21389
|  6>    S       -2.66625        -0.03338         0.28389
|  7>    C       -1.50725         1.21807         0.15238
|  8>    C       -0.22581         0.72221         0.05718
|  9>    C       -0.21329        -0.72059         0.09473
| 10>    C        1.01163        -1.39246         0.01107
| 11>    C        2.18758        -0.68503        -0.11024
| 12>    N        3.38297        -1.45445        -0.19848
| 13>    O        3.30483        -2.65393        -0.01427
| 14>    O        4.44050        -0.89594        -0.46034
| 15>    C        2.19521         0.75854        -0.15250
| 16>    N        3.35362         1.45606        -0.22730
| 17>    C        0.98701         1.42174        -0.06673
| 18>    H       -1.76532        -2.28307         0.26486
| 19>    H       -1.82475         2.24064         0.15356
| 20>    H        1.04735        -2.47109         0.03457
| 21>    H        4.21584         0.96245        -0.39912
| 22>    H        3.31189         2.45350        -0.33001
| 23>    H        0.97368         2.50064        -0.09402
| 24> *
| 25>
| 26>                          ****END OF INPUT****
 Total Charge           Charge          ....    0
 Multiplicity           Mult            ....    1
 Number of Electrons    NEL             ....  100
Dispersion correction           -0.043447468
FINAL SINGLE POINT ENERGY      -966.015975559772
Dispersion correction            ... done
Dispersion correction           -0.043206447
FINAL SINGLE POINT ENERGY      -966.019079253503
Dispersion correction            ... done
Dispersion correction           -0.043184083
FINAL SINGLE POINT ENERGY      -966.018810984768
Dispersion correction            ... done
FINAL SINGLE POINT ENERGY      -966.019192559951
FINAL SINGLE POINT ENERGY      -966.019259556754
FINAL SINGLE POINT ENERGY      -966.019375436620
FINAL SINGLE POINT ENERGY      -966.019339806545
FINAL SINGLE POINT ENERGY      -966.019337590944
FINAL SINGLE POINT ENERGY      -966.019288464867
FINAL SINGLE POINT ENERGY      -966.019270261445
FINAL SINGLE POINT ENERGY      -966.019226116380
Dispersion correction            ... done
Dispersion correction           -0.043193606
FINAL SINGLE POINT ENERGY      -966.019240179145
Dispersion correction            ... done
Dispersion correction           -0.043193267
FINAL SINGLE POINT ENERGY      -966.019243323262
Dispersion correction            ... done
                    ***********************HURRAY********************

CARTESIAN COORDINATES (ANGSTROEM)
---------------------------------
  C     -1.506373   -1.263836    0.244677
  S     -2.688178   -0.038109    0.293938
  C     -1.539811    1.231007    0.128545
  C     -0.241744    0.733691    0.040617
  C     -0.227374   -0.719599    0.106428
  C      1.010752   -1.396204    0.021174
  C      2.183408   -0.682015   -0.093433
  N      3.407341   -1.483254   -0.224793
  O      3.318143   -2.696685   -0.139683
  O      4.475157   -0.904208   -0.427046
  C      2.208951    0.777077   -0.120192
  N      3.384505    1.475656   -0.136149
  C      0.986460    1.436236   -0.079410
  H     -1.782364   -2.313506    0.322620
  H     -1.867522    2.268049    0.104042
  H      1.068390   -2.483485    0.038821
  H      4.221656    0.964471   -0.388450
  H      3.333503    2.459950   -0.361186
  H      0.979040    2.528383   -0.117397

 Multiplicity           Mult            ....    1
 Number of Electrons    NEL             ....  100
 Basis Dimension        Dim             ....  216

ORBITAL ENERGIES
----------------

  NO   OCC          E(Eh)            E(eV)
   0   2.0000     -88.898499     -2419.0511
   1   2.0000     -19.164684      -521.4976
   2   2.0000     -19.161960      -521.4234
   3   2.0000     -14.562597      -396.2684
   4   2.0000     -14.341908      -390.2632
   5   2.0000     -10.256522      -279.0942
   6   2.0000     -10.251046      -278.9451
   7   2.0000     -10.229452      -278.3575
   8   2.0000     -10.223782      -278.2033
   9   2.0000     -10.216322      -278.0002
  10   2.0000     -10.214121      -277.9404
  11   2.0000     -10.213428      -277.9215
  12   2.0000     -10.193466      -277.3783
  13   2.0000      -7.993006      -217.5007
  14   2.0000      -5.960608      -162.1964
  15   2.0000      -5.956443      -162.0830
  16   2.0000      -5.955642      -162.0613
  17   2.0000      -1.223267       -33.2868
  18   2.0000      -1.047212       -28.4961
  19   2.0000      -0.929755       -25.2999
  20   2.0000      -0.900525       -24.5045
  21   2.0000      -0.847948       -23.0738
  22   2.0000      -0.788964       -21.4688
  23   2.0000      -0.761936       -20.7333
  24   2.0000      -0.712664       -19.3926
  25   2.0000      -0.683509       -18.5992
  26   2.0000      -0.628255       -17.0957
  27   2.0000      -0.592228       -16.1153
  28   2.0000      -0.583520       -15.8784
  29   2.0000      -0.546920       -14.8825
  30   2.0000      -0.543099       -14.7785
  31   2.0000      -0.538634       -14.6570
  32   2.0000      -0.520011       -14.1502
  33   2.0000      -0.512208       -13.9379
  34   2.0000      -0.484471       -13.1831
  35   2.0000      -0.454772       -12.3750
  36   2.0000      -0.441829       -12.0228
  37   2.0000      -0.429575       -11.6893
  38   2.0000      -0.421796       -11.4777
  39   2.0000      -0.414715       -11.2850
  40   2.0000      -0.380317       -10.3489
  41   2.0000      -0.368464       -10.0264
  42   2.0000      -0.364969        -9.9313
  43   2.0000      -0.326094        -8.8735
  44   2.0000      -0.313975        -8.5437
  45   2.0000      -0.311998        -8.4899
  46   2.0000      -0.296123        -8.0579
  47   2.0000      -0.290647        -7.9089
  48   2.0000      -0.250379        -6.8132
  49   2.0000      -0.200066        -5.4441
  50   0.0000      -0.099490        -2.7073
  51   0.0000      -0.048486        -1.3194
  52   0.0000       0.013964         0.3800
  53   0.0000       0.027537         0.7493
  54   0.0000       0.040420         1.0999

MULLIKEN ATOMIC CHARGES
-----------------------
   0 C :   -0.122916
   1 S :    0.154744
   2 C :   -0.160414
   3 C :    0.152292
   4 C :    0.099468
   5 C :   -0.075731
   6 C :    0.143142
   7 N :    0.242822
   8 O :   -0.238450
   9 O :   -0.276162
  10 C :    0.004201
  11 N :   -0.024659
  12 C :   -0.120061
  13 H :    0.026911
  14 H :    0.016223
  15 H :    0.000425
  16 H :    0.126986
  17 H :    0.107909
  18 H :   -0.056730
Sum of atomic charges:   -0.0000000

LOEWDIN ATOMIC CHARGES
----------------------
   0 C :   -0.195582
   1 S :    0.501842
   2 C :   -0.230320
   3 C :   -0.033805
   4 C :   -0.064731
   5 C :    0.024459
   6 C :   -0.048895
   7 N :    0.283230
   8 O :   -0.203514
   9 O :   -0.220564
  10 C :    0.029801
  11 N :   -0.005579
  12 C :   -0.087524
  13 H :    0.029408
  14 H :    0.024083
  15 H :    0.041993
  16 H :    0.057591
  17 H :    0.073990
  18 H :    0.024116

  Mayer bond orders larger than 0.100000
B(  0-C ,  1-S ) :   1.2498 B(  0-C ,  2-C ) :   0.1208 B(  0-C ,  4-C ) :   1.3560
B(  0-C , 13-H ) :   0.9664 B(  1-S ,  2-C ) :   1.1785 B(  2-C ,  3-C ) :   1.3930
B(  2-C , 14-H ) :   0.9648 B(  3-C ,  4-C ) :   1.1796 B(  3-C , 12-C ) :   1.1816
B(  4-C ,  5-C ) :   1.1510 B(  5-C ,  6-C ) :   1.4803 B(  5-C , 12-C ) :   0.1046
B(  5-C , 15-H ) :   0.9975 B(  6-C ,  7-N ) :   0.8903 B(  6-C , 10-C ) :   1.1412
B(  7-N ,  8-O ) :   1.5605 B(  7-N ,  9-O ) :   1.4594 B(  8-O ,  9-O ) :   0.2570
B( 10-C , 11-N ) :   1.3357 B( 10-C , 12-C ) :   1.4166 B( 11-N , 16-H ) :   0.9040
B( 11-N , 17-H ) :   0.9302 B( 12-C , 18-H ) :   0.9976

Dispersion correction           -0.043192978
FINAL SINGLE POINT ENERGY      -966.019246855250

DIPOLE MOMENT
-------------
                                X             Y             Z
Electronic contribution:     -1.80275      -3.67606       0.24463
Nuclear contribution   :      0.75679       4.73102      -0.33402
                        -----------------------------------------
Total Dipole Moment    :     -1.04596       1.05496      -0.08939
                        -----------------------------------------
Magnitude (a.u.)       :      1.48828
Magnitude (Debye)      :      3.78290

Rotational constants in cm-1:     0.057370     0.014500     0.011583
Rotational constants in MHz :  1719.917261   434.690202   347.254916

                             ****ORCA TERMINATED NORMALLY****
TOTAL RUN TIME: 0 days 0 hours 19 minutes 50 seconds 582 msec
