                         Program Version 4.2.0 -  RELEASE  -
|  1> # ORCA input file
|  2> # SCF done        -32.551463433949          0.000588446902
|  3> ! B3LYP/G D3BJ Opt RIJCOSX def2-SVP def2/J
|  4> * xyz 0 1
|  5>    C       -0.01590         1.49000         0.40024
|  6>    S       -1.29564         0.38271         0.11711
|  7>    C       -0.18423        -0.85545        -0.26053
|  8>    C        1.11589        -0.43885        -0.17425
|  9>    C        2.24338        -1.34140        -0.45758
| 10>    O        3.41517        -1.05146        -0.44058
| 11>    O        1.81130        -2.58203        -0.75532
| 12>    C        2.82437        -3.53228        -1.04617
| 13>    C        1.22247         0.94221         0.21533
| 14>    C        2.48278         1.64340         0.38492
| 15>    C        2.61494         2.90369         0.78219
| 16>    H       -0.25732         2.49299         0.68787
| 17>    H       -0.53617        -1.83107        -0.52885
| 18>    H        2.31222        -4.42660        -1.39143
| 19>    H        3.40924        -3.74920        -0.14959
| 20>    H        3.49521        -3.14901        -1.81792
| 21>    H        3.35913         1.05281         0.16286
| 22>    H        1.77471         3.53326         1.02224
| 23>    H        3.58753         3.35283         0.88347
| 24> *
| 25>
| 26>                          ****END OF INPUT****
 Total Charge           Charge          ....    0
 Multiplicity           Mult            ....    1
 Number of Electrons    NEL             ....   88
Dispersion correction           -0.036483540
FINAL SINGLE POINT ENERGY      -857.873925678754
Dispersion correction            ... done
Dispersion correction           -0.036273185
FINAL SINGLE POINT ENERGY      -857.876214360639
Dispersion correction            ... done
Dispersion correction           -0.036255177
FINAL SINGLE POINT ENERGY      -857.876241684232
Dispersion correction            ... done
FINAL SINGLE POINT ENERGY      -857.876280470542
FINAL SINGLE POINT ENERGY      -857.876281984319
FINAL SINGLE POINT ENERGY      -857.876279687458
FINAL SINGLE POINT ENERGY      -857.876283600406
FINAL SINGLE POINT ENERGY      -857.876294016847
FINAL SINGLE POINT ENERGY      -857.876304791683
FINAL SINGLE POINT ENERGY      -857.876315846185
Dispersion correction            ... done
Dispersion correction           -0.036272745
FINAL SINGLE POINT ENERGY      -857.876322409184
Dispersion correction            ... done
Dispersion correction           -0.036273471
FINAL SINGLE POINT ENERGY      -857.876322807159
Dispersion correction            ... done
                    ***********************HURRAY********************

CARTESIAN COORDINATES (ANGSTROEM)
---------------------------------
  C     -0.033083    1.491247    0.443764
  S     -1.311512    0.381859    0.112831
  C     -0.200219   -0.870616   -0.258898
  C      1.109130   -0.452836   -0.137366
  C      2.247298   -1.357489   -0.425302
  O      3.423182   -1.070296   -0.374507
  O      1.817413   -2.588235   -0.773551
  C      2.825232   -3.541786   -1.095225
  C      1.218768    0.934137    0.272293
  C      2.490746    1.641445    0.476963
  C      2.623172    2.955778    0.701852
  H     -0.268983    2.502190    0.769991
  H     -0.541211   -1.857662   -0.560467
  H      2.297247   -4.429262   -1.465825
  H      3.420915   -3.799104   -0.205210
  H      3.507059   -3.149600   -1.863872
  H      3.378619    1.010331    0.420204
  H      1.766588    3.635363    0.740701
  H      3.608717    3.401084    0.855635

 Multiplicity           Mult            ....    1
 Number of Electrons    NEL             ....   88
 Basis Dimension        Dim             ....  198

ORBITAL ENERGIES
----------------

  NO   OCC          E(Eh)            E(eV)
   0   2.0000     -88.888812     -2418.7875
   1   2.0000     -19.179537      -521.9017
   2   2.0000     -19.124014      -520.3909
   3   2.0000     -10.319334      -280.8034
   4   2.0000     -10.247898      -278.8595
   5   2.0000     -10.226348      -278.2731
   6   2.0000     -10.217709      -278.0380
   7   2.0000     -10.209703      -277.8201
   8   2.0000     -10.209311      -277.8095
   9   2.0000     -10.189499      -277.2704
  10   2.0000     -10.185041      -277.1490
  11   2.0000      -7.984160      -217.2600
  12   2.0000      -5.952049      -161.9635
  13   2.0000      -5.947896      -161.8505
  14   2.0000      -5.945947      -161.7974
  15   2.0000      -1.099334       -29.9144
  16   2.0000      -1.007760       -27.4225
  17   2.0000      -0.893405       -24.3108
  18   2.0000      -0.786284       -21.3959
  19   2.0000      -0.770660       -20.9707
  20   2.0000      -0.715207       -19.4618
  21   2.0000      -0.707283       -19.2461
  22   2.0000      -0.609007       -16.5719
  23   2.0000      -0.599919       -16.3246
  24   2.0000      -0.566300       -15.4098
  25   2.0000      -0.547740       -14.9048
  26   2.0000      -0.508887       -13.8475
  27   2.0000      -0.488737       -13.2992
  28   2.0000      -0.473367       -12.8810
  29   2.0000      -0.458546       -12.4777
  30   2.0000      -0.454518       -12.3681
  31   2.0000      -0.421898       -11.4804
  32   2.0000      -0.416262       -11.3271
  33   2.0000      -0.411370       -11.1940
  34   2.0000      -0.389633       -10.6024
  35   2.0000      -0.385245       -10.4830
  36   2.0000      -0.382078       -10.3969
  37   2.0000      -0.360939        -9.8217
  38   2.0000      -0.346367        -9.4251
  39   2.0000      -0.312270        -8.4973
  40   2.0000      -0.305636        -8.3168
  41   2.0000      -0.280127        -7.6226
  42   2.0000      -0.260811        -7.0970
  43   2.0000      -0.228912        -6.2290
  44   0.0000      -0.048530        -1.3206
  45   0.0000      -0.037639        -1.0242
  46   0.0000       0.038691         1.0528
  47   0.0000       0.052592         1.4311
  48   0.0000       0.070073         1.9068

MULLIKEN ATOMIC CHARGES
-----------------------
   0 C :   -0.148081
   1 S :    0.130890
   2 C :   -0.085596
   3 C :   -0.017879
   4 C :    0.210889
   5 O :   -0.221929
   6 O :   -0.315072
   7 C :    0.196779
   8 C :    0.079790
   9 C :    0.002889
  10 C :   -0.020682
  11 H :    0.024637
  12 H :    0.034368
  13 H :    0.027233
  14 H :    0.027578
  15 H :    0.032386
  16 H :    0.013552
  17 H :    0.007093
  18 H :    0.021156
Sum of atomic charges:   -0.0000000

LOEWDIN ATOMIC CHARGES
----------------------
   0 C :   -0.186638
   1 S :    0.462745
   2 C :   -0.161746
   3 C :   -0.104790
   4 C :    0.093883
   5 O :   -0.176217
   6 O :   -0.099405
   7 C :    0.084274
   8 C :   -0.044058
   9 C :   -0.022897
  10 C :   -0.043933
  11 H :    0.024693
  12 H :    0.030682
  13 H :    0.023459
  14 H :    0.021574
  15 H :    0.021956
  16 H :    0.033603
  17 H :    0.016615
  18 H :    0.026199

  Mayer bond orders larger than 0.100000
B(  0-C ,  1-S ) :   1.1622 B(  0-C ,  8-C ) :   1.5300 B(  0-C , 11-H ) :   0.9509
B(  1-S ,  2-C ) :   1.2011 B(  2-C ,  3-C ) :   1.5046 B(  2-C , 12-H ) :   0.9555
B(  3-C ,  4-C ) :   0.9713 B(  3-C ,  8-C ) :   1.2306 B(  4-C ,  5-O ) :   2.0289
B(  4-C ,  6-O ) :   1.2107 B(  6-O ,  7-C ) :   0.9225 B(  7-C , 13-H ) :   0.9790
B(  7-C , 14-H ) :   0.9754 B(  7-C , 15-H ) :   0.9717 B(  8-C ,  9-C ) :   1.1006
B(  9-C , 10-C ) :   1.9279 B(  9-C , 16-H ) :   0.9445 B( 10-C , 17-H ) :   0.9472
B( 10-C , 18-H ) :   0.9445

Dispersion correction           -0.036273418
FINAL SINGLE POINT ENERGY      -857.876323918292

DIPOLE MOMENT
-------------
                                X             Y             Z
Electronic contribution:     -7.58960       0.41798       0.40775
Nuclear contribution   :      7.00336      -0.82797      -0.51934
                        -----------------------------------------
Total Dipole Moment    :     -0.58624      -0.40999      -0.11160
                        -----------------------------------------
Magnitude (a.u.)       :      0.72403
Magnitude (Debye)      :      1.84033

Rotational constants in cm-1:     0.044478     0.024893     0.016017
Rotational constants in MHz :  1333.429184   746.271942   480.185064

                             ****ORCA TERMINATED NORMALLY****
TOTAL RUN TIME: 0 days 0 hours 15 minutes 2 seconds 154 msec
