                         Program Version 4.2.0 -  RELEASE  -
|  1> # ORCA input file
|  2> # SCF done        -25.506467759553          0.000775257966
|  3> ! B3LYP/G D3BJ Opt RIJCOSX def2-SVP def2/J
|  4> * xyz 0 1
|  5>    C        1.60762        -0.75592         0.17167
|  6>    C        1.66952         0.64239         0.07042
|  7>    C        0.51456         1.19147        -0.41483
|  8>    S        0.23186         2.89805        -0.65968
|  9>    C       -1.40327         2.87077        -1.44483
| 10>    S       -0.67435        -0.02513        -0.74928
| 11>    C        0.41160        -1.28917        -0.23215
| 12>    C       -0.03583        -2.65397        -0.28525
| 13>    C        0.69016        -3.71540         0.05821
| 14>    H        2.42539        -1.35357         0.53135
| 15>    H        2.52586         1.23398         0.33833
| 16>    H       -1.66120         3.90461        -1.64959
| 17>    H       -2.12605         2.42931        -0.76511
| 18>    H       -1.35161         2.30408        -2.36968
| 19>    H       -1.05043        -2.78863        -0.63734
| 20>    H        1.70125        -3.62669         0.41437
| 21>    H        0.28764        -4.71065        -0.00470
| 22> *
| 23>
| 24>                          ****END OF INPUT****
 Total Charge           Charge          ....    0
 Multiplicity           Mult            ....    1
 Number of Electrons    NEL             ....   82
Dispersion correction           -0.036280148
FINAL SINGLE POINT ENERGY     -1067.526373004994
Dispersion correction            ... done
Dispersion correction           -0.036014301
FINAL SINGLE POINT ENERGY     -1067.529009615337
Dispersion correction            ... done
Dispersion correction           -0.035955680
FINAL SINGLE POINT ENERGY     -1067.529073240663
Dispersion correction            ... done
FINAL SINGLE POINT ENERGY     -1067.529102633461
FINAL SINGLE POINT ENERGY     -1067.529106473421
FINAL SINGLE POINT ENERGY     -1067.529110738555
FINAL SINGLE POINT ENERGY     -1067.529111455576
FINAL SINGLE POINT ENERGY     -1067.529105621756
FINAL SINGLE POINT ENERGY     -1067.529109461729
Dispersion correction            ... done
Dispersion correction           -0.035946128
FINAL SINGLE POINT ENERGY     -1067.529120597715
Dispersion correction            ... done
Dispersion correction           -0.035946143
FINAL SINGLE POINT ENERGY     -1067.529120648029
Dispersion correction            ... done
                    ***********************HURRAY********************

CARTESIAN COORDINATES (ANGSTROEM)
---------------------------------
  C      1.647267   -0.748424    0.169976
  C      1.701905    0.667330    0.067186
  C      0.553365    1.213393   -0.476189
  S      0.264157    2.921250   -0.773763
  C     -1.442483    2.890221   -1.400871
  S     -0.599857   -0.032364   -0.861672
  C      0.464710   -1.298318   -0.287464
  C      0.006861   -2.676896   -0.351810
  C      0.646599   -3.757742    0.124572
  H      2.463526   -1.353035    0.567792
  H      2.556076    1.271070    0.376028
  H     -1.706573    3.933284   -1.621938
  H     -2.134248    2.492884   -0.643599
  H     -1.517989    2.296167   -2.323885
  H     -0.963656   -2.822933   -0.839113
  H      1.614288   -3.687467    0.628118
  H      0.208770   -4.752889    0.018540

 Multiplicity           Mult            ....    1
 Number of Electrons    NEL             ....   82
 Basis Dimension        Dim             ....  174

ORBITAL ENERGIES
----------------

  NO   OCC          E(Eh)            E(eV)
   0   2.0000     -88.876492     -2418.4523
   1   2.0000     -88.860402     -2418.0145
   2   2.0000     -10.236795      -278.5574
   3   2.0000     -10.226487      -278.2769
   4   2.0000     -10.213809      -277.9319
   5   2.0000     -10.201884      -277.6074
   6   2.0000     -10.194105      -277.3957
   7   2.0000     -10.192990      -277.3654
   8   2.0000     -10.185542      -277.1627
   9   2.0000      -7.971323      -216.9107
  10   2.0000      -7.955058      -216.4681
  11   2.0000      -5.939622      -161.6253
  12   2.0000      -5.935525      -161.5138
  13   2.0000      -5.932302      -161.4262
  14   2.0000      -5.924286      -161.2080
  15   2.0000      -5.920505      -161.1051
  16   2.0000      -5.913750      -160.9213
  17   2.0000      -0.886183       -24.1143
  18   2.0000      -0.810798       -22.0629
  19   2.0000      -0.772595       -21.0234
  20   2.0000      -0.734016       -19.9736
  21   2.0000      -0.707398       -19.2493
  22   2.0000      -0.648735       -17.6530
  23   2.0000      -0.600360       -16.3366
  24   2.0000      -0.538683       -14.6583
  25   2.0000      -0.523659       -14.2495
  26   2.0000      -0.499015       -13.5789
  27   2.0000      -0.454944       -12.3797
  28   2.0000      -0.442941       -12.0530
  29   2.0000      -0.438043       -11.9197
  30   2.0000      -0.425658       -11.5827
  31   2.0000      -0.398127       -10.8336
  32   2.0000      -0.393382       -10.7045
  33   2.0000      -0.386034       -10.5045
  34   2.0000      -0.360481        -9.8092
  35   2.0000      -0.350086        -9.5263
  36   2.0000      -0.331839        -9.0298
  37   2.0000      -0.317741        -8.6462
  38   2.0000      -0.263382        -7.1670
  39   2.0000      -0.257871        -7.0170
  40   2.0000      -0.195726        -5.3260
  41   0.0000      -0.042722        -1.1625
  42   0.0000       0.013614         0.3704
  43   0.0000       0.024965         0.6793
  44   0.0000       0.027545         0.7495
  45   0.0000       0.068503         1.8641

MULLIKEN ATOMIC CHARGES
-----------------------
   0 C :    0.016266
   1 C :    0.025629
   2 C :   -0.140151
   3 S :    0.007563
   4 C :   -0.098475
   5 S :    0.087768
   6 C :   -0.102313
   7 C :    0.051975
   8 C :   -0.039755
   9 H :   -0.018349
  10 H :   -0.016331
  11 H :    0.063104
  12 H :    0.071534
  13 H :    0.070083
  14 H :   -0.015813
  15 H :    0.014994
  16 H :    0.022272
Sum of atomic charges:    0.0000000

LOEWDIN ATOMIC CHARGES
----------------------
   0 C :   -0.050729
   1 C :   -0.093788
   2 C :   -0.325625
   3 S :    0.295029
   4 C :   -0.163199
   5 S :    0.412247
   6 C :   -0.189476
   7 C :   -0.042199
   8 C :   -0.058798
   9 H :    0.029370
  10 H :    0.028644
  11 H :    0.035018
  12 H :    0.025776
  13 H :    0.024322
  14 H :    0.026453
  15 H :    0.021110
  16 H :    0.025845

  Mayer bond orders larger than 0.100000
B(  0-C ,  1-C ) :   1.2848 B(  0-C ,  6-C ) :   1.5245 B(  0-C ,  9-H ) :   0.9841
B(  1-C ,  2-C ) :   1.5266 B(  1-C , 10-H ) :   0.9865 B(  2-C ,  3-S ) :   1.0263
B(  2-C ,  5-S ) :   1.1226 B(  3-S ,  4-C ) :   1.0217 B(  4-C , 11-H ) :   0.9699
B(  4-C , 12-H ) :   0.9622 B(  4-C , 13-H ) :   0.9606 B(  5-S ,  6-C ) :   1.0934
B(  6-C ,  7-C ) :   1.1123 B(  7-C ,  8-C ) :   1.9289 B(  7-C , 14-H ) :   0.9457
B(  8-C , 15-H ) :   0.9499 B(  8-C , 16-H ) :   0.9451

Dispersion correction           -0.035946059
FINAL SINGLE POINT ENERGY     -1067.529120058262

DIPOLE MOMENT
-------------
                                X             Y             Z
Electronic contribution:      0.70437       4.87155      -0.50672
Nuclear contribution   :     -1.06265      -4.70856       0.36331
                        -----------------------------------------
Total Dipole Moment    :     -0.35829       0.16299      -0.14341
                        -----------------------------------------
Magnitude (a.u.)       :      0.41893
Magnitude (Debye)      :      1.06483

Rotational constants in cm-1:     0.115303     0.021802     0.018409
Rotational constants in MHz :  3456.697040   653.619981   551.889037

                             ****ORCA TERMINATED NORMALLY****
TOTAL RUN TIME: 0 days 0 hours 8 minutes 19 seconds 538 msec
