                         Program Version 4.2.0 -  RELEASE  -
|  1> # ORCA input file
|  2> # SCF done        -22.272219540476          0.000389059853
|  3> ! B3LYP/G D3BJ Opt RIJCOSX def2-SVP def2/J
|  4> * xyz 0 1
|  5>    C        1.59038        -0.15809         0.02417
|  6>    C        0.36285         0.21644         0.40565
|  7>    C       -0.26789         1.50288         0.77549
|  8>    S       -1.99142         1.37474         0.12977
|  9>    C       -1.72243        -0.26262        -0.65892
| 10>    C       -0.60972        -0.90127         0.15627
| 11>    C        0.25585        -1.95362        -0.46220
| 12>    C        1.52317        -1.51948        -0.48009
| 13>    H        2.48985         0.42958         0.05606
| 14>    H        0.22202         2.36396         0.32218
| 15>    H       -0.33390         1.65348         1.85460
| 16>    H       -1.41400        -0.10442        -1.69263
| 17>    H       -2.66390        -0.80529        -0.63145
| 18>    H       -1.02306        -1.27009         1.10216
| 19>    H       -0.11275        -2.91385        -0.77081
| 20>    H        2.38085        -2.06069        -0.83874
| 21> *
| 22>
| 23>                          ****END OF INPUT****
 Total Charge           Charge          ....    0
 Multiplicity           Mult            ....    1
 Number of Electrons    NEL             ....   66
Dispersion correction           -0.031487785
FINAL SINGLE POINT ENERGY      -669.431133808796
Dispersion correction            ... done
Dispersion correction           -0.031349619
FINAL SINGLE POINT ENERGY      -669.433692270721
Dispersion correction            ... done
Dispersion correction           -0.031327112
FINAL SINGLE POINT ENERGY      -669.433814162336
Dispersion correction            ... done
FINAL SINGLE POINT ENERGY      -669.433836407793
Dispersion correction            ... done
Dispersion correction           -0.031325269
FINAL SINGLE POINT ENERGY      -669.433841402594
Dispersion correction            ... done
Dispersion correction           -0.031325539
FINAL SINGLE POINT ENERGY      -669.433841794290
Dispersion correction            ... done
                    ***********************HURRAY********************

CARTESIAN COORDINATES (ANGSTROEM)
---------------------------------
  C      1.601000   -0.159062    0.041369
  C      0.359689    0.217660    0.421663
  C     -0.275463    1.522728    0.780355
  S     -2.025184    1.386907    0.150089
  C     -1.733364   -0.252147   -0.659778
  C     -0.609619   -0.906115    0.150268
  C      0.254120   -1.971082   -0.471068
  C      1.535043   -1.532623   -0.487047
  H      2.502106    0.456004    0.064767
  H      0.236984    2.377218    0.315680
  H     -0.321096    1.697176    1.868201
  H     -1.420377   -0.109391   -1.705998
  H     -2.676583   -0.816743   -0.638528
  H     -1.033908   -1.277863    1.104505
  H     -0.106096   -2.948818   -0.791756
  H      2.398649   -2.092190   -0.851213

 Multiplicity           Mult            ....    1
 Number of Electrons    NEL             ....   66
 Basis Dimension        Dim             ....  156

ORBITAL ENERGIES
----------------

  NO   OCC          E(Eh)            E(eV)
   0   2.0000     -88.828192     -2417.1380
   1   2.0000     -10.219093      -278.0757
   2   2.0000     -10.219014      -278.0735
   3   2.0000     -10.202493      -277.6240
   4   2.0000     -10.195386      -277.4305
   5   2.0000     -10.192663      -277.3564
   6   2.0000     -10.190943      -277.3097
   7   2.0000     -10.187676      -277.2208
   8   2.0000      -7.923264      -215.6030
   9   2.0000      -5.893069      -160.3586
  10   2.0000      -5.888928      -160.2459
  11   2.0000      -5.881174      -160.0349
  12   2.0000      -0.875489       -23.8233
  13   2.0000      -0.798341       -21.7240
  14   2.0000      -0.742054       -20.1923
  15   2.0000      -0.687066       -18.6960
  16   2.0000      -0.665984       -18.1224
  17   2.0000      -0.585467       -15.9314
  18   2.0000      -0.545362       -14.8401
  19   2.0000      -0.531068       -14.4511
  20   2.0000      -0.501405       -13.6439
  21   2.0000      -0.471130       -12.8201
  22   2.0000      -0.433948       -11.8083
  23   2.0000      -0.411870       -11.2075
  24   2.0000      -0.403580       -10.9820
  25   2.0000      -0.386314       -10.5122
  26   2.0000      -0.376236       -10.2379
  27   2.0000      -0.361721        -9.8429
  28   2.0000      -0.343636        -9.3508
  29   2.0000      -0.313072        -8.5191
  30   2.0000      -0.303829        -8.2676
  31   2.0000      -0.225565        -6.1379
  32   2.0000      -0.217445        -5.9170
  33   0.0000      -0.036914        -1.0045
  34   0.0000       0.038811         1.0561
  35   0.0000       0.047726         1.2987
  36   0.0000       0.060741         1.6529
  37   0.0000       0.086435         2.3520

MULLIKEN ATOMIC CHARGES
-----------------------
   0 C :   -0.022150
   1 C :   -0.141349
   2 C :    0.102875
   3 S :   -0.129053
   4 C :   -0.005924
   5 C :    0.023384
   6 C :   -0.012806
   7 C :    0.013918
   8 H :   -0.025745
   9 H :    0.040852
  10 H :    0.053178
  11 H :    0.048170
  12 H :    0.045324
  13 H :    0.037826
  14 H :   -0.012456
  15 H :   -0.016044
Sum of atomic charges:    0.0000000

LOEWDIN ATOMIC CHARGES
----------------------
   0 C :   -0.040886
   1 C :   -0.043456
   2 C :   -0.112523
   3 S :    0.179430
   4 C :   -0.103289
   5 C :   -0.039546
   6 C :   -0.034908
   7 C :   -0.023629
   8 H :    0.021293
   9 H :    0.026891
  10 H :    0.030636
  11 H :    0.021554
  12 H :    0.023952
  13 H :    0.052201
  14 H :    0.020684
  15 H :    0.021596

  Mayer bond orders larger than 0.100000
B(  0-C ,  1-C ) :   1.7686 B(  0-C ,  7-C ) :   1.0622 B(  0-C ,  8-H ) :   1.0038
B(  1-C ,  2-C ) :   1.0468 B(  1-C ,  5-C ) :   1.0435 B(  2-C ,  3-S ) :   0.9740
B(  2-C ,  9-H ) :   0.9339 B(  2-C , 10-H ) :   0.9247 B(  3-S ,  4-C ) :   1.0049
B(  4-C ,  5-C ) :   0.9962 B(  4-C , 11-H ) :   0.9474 B(  4-C , 12-H ) :   0.9451
B(  5-C ,  6-C ) :   1.0088 B(  5-C , 13-H ) :   0.8712 B(  6-C ,  7-C ) :   1.7537
B(  6-C , 14-H ) :   0.9942 B(  7-C , 15-H ) :   0.9928

Dispersion correction           -0.031324773
FINAL SINGLE POINT ENERGY      -669.433841564345

DIPOLE MOMENT
-------------
                                X             Y             Z
Electronic contribution:     -2.39525       2.52675       0.67671
Nuclear contribution   :      2.78017      -2.87144      -0.68851
                        -----------------------------------------
Total Dipole Moment    :      0.38492      -0.34469      -0.01180
                        -----------------------------------------
Magnitude (a.u.)       :      0.51683
Magnitude (Debye)      :      1.31368

Rotational constants in cm-1:     0.134740     0.047582     0.037214
Rotational constants in MHz :  4039.401459  1426.470807  1115.660505

                             ****ORCA TERMINATED NORMALLY****
TOTAL RUN TIME: 0 days 0 hours 5 minutes 25 seconds 80 msec
