                         Program Version 4.2.0 -  RELEASE  -
|  1> # ORCA input file
|  2> # SCF done        -17.888378783591          0.000186213404
|  3> ! B3LYP/G D3BJ Opt RIJCOSX def2-SVP def2/J
|  4> * xyz 0 1
|  5>    C       -1.27872        -0.11606        -0.00065
|  6>    S       -0.47348         1.40255        -0.00302
|  7>    C        1.06141         0.63493        -0.00103
|  8>    C        0.95631        -0.71727         0.00165
|  9>    C       -0.39594        -1.15335         0.00136
| 10>    O       -0.79019        -2.45525         0.00316
| 11>    H       -2.34744        -0.16565        -0.00102
| 12>    H        1.95204         1.23044        -0.00209
| 13>    H        1.79850        -1.38808         0.00323
| 14>    H       -0.01054        -3.02168         0.00565
| 15> *
| 16>
| 17>                          ****END OF INPUT****
 Total Charge           Charge          ....    0
 Multiplicity           Mult            ....    1
 Number of Electrons    NEL             ....   52
Dispersion correction           -0.017309275
FINAL SINGLE POINT ENERGY      -627.960984043685
Dispersion correction            ... done
Dispersion correction           -0.017285819
FINAL SINGLE POINT ENERGY      -627.962336894029
Dispersion correction            ... done
Dispersion correction           -0.017286394
FINAL SINGLE POINT ENERGY      -627.962384218043
Dispersion correction            ... done
FINAL SINGLE POINT ENERGY      -627.962391685789
Dispersion correction            ... done
Dispersion correction           -0.017287986
FINAL SINGLE POINT ENERGY      -627.962393928095
Dispersion correction            ... done
Dispersion correction           -0.017287868
FINAL SINGLE POINT ENERGY      -627.962395420740
Dispersion correction            ... done
                    ***********************HURRAY********************

CARTESIAN COORDINATES (ANGSTROEM)
---------------------------------
  C     -1.294186   -0.114949   -0.000672
  S     -0.478036    1.412050   -0.003031
  C      1.071335    0.648053   -0.000933
  C      0.965083   -0.719213    0.001189
  C     -0.399814   -1.160718    0.001292
  O     -0.797294   -2.459577    0.002947
  H     -2.379994   -0.175370   -0.001082
  H      1.981400    1.245743   -0.001644
  H      1.822459   -1.395958    0.002733
  H     -0.019003   -3.029480    0.006440

 Multiplicity           Mult            ....    1
 Number of Electrons    NEL             ....   52
 Basis Dimension        Dim             ....  108

ORBITAL ENERGIES
----------------

  NO   OCC          E(Eh)            E(eV)
   0   2.0000     -88.871203     -2418.3084
   1   2.0000     -19.164220      -521.4849
   2   2.0000     -10.247916      -278.8600
   3   2.0000     -10.214436      -277.9489
   4   2.0000     -10.197483      -277.4876
   5   2.0000     -10.195796      -277.4417
   6   2.0000      -7.966136      -216.7696
   7   2.0000      -5.934362      -161.4822
   8   2.0000      -5.930270      -161.3709
   9   2.0000      -5.927304      -161.2901
  10   2.0000      -1.050167       -28.5765
  11   2.0000      -0.871928       -23.7264
  12   2.0000      -0.727254       -19.7896
  13   2.0000      -0.716025       -19.4840
  14   2.0000      -0.591018       -16.0824
  15   2.0000      -0.562382       -15.3032
  16   2.0000      -0.527862       -14.3639
  17   2.0000      -0.468372       -12.7451
  18   2.0000      -0.424915       -11.5625
  19   2.0000      -0.415205       -11.2983
  20   2.0000      -0.399633       -10.8746
  21   2.0000      -0.362452        -9.8628
  22   2.0000      -0.348170        -9.4742
  23   2.0000      -0.346420        -9.4266
  24   2.0000      -0.248543        -6.7632
  25   2.0000      -0.217245        -5.9115
  26   0.0000      -0.013633        -0.3710
  27   0.0000       0.029527         0.8035
  28   0.0000       0.066845         1.8189
  29   0.0000       0.074884         2.0377
  30   0.0000       0.079635         2.1670

MULLIKEN ATOMIC CHARGES
-----------------------
   0 C :   -0.168483
   1 S :    0.093186
   2 C :   -0.091252
   3 C :   -0.012656
   4 C :    0.169759
   5 O :   -0.197890
   6 H :    0.022469
   7 H :    0.030760
   8 H :   -0.022121
   9 H :    0.176230
Sum of atomic charges:    0.0000000

LOEWDIN ATOMIC CHARGES
----------------------
   0 C :   -0.244414
   1 S :    0.424809
   2 C :   -0.187491
   3 C :   -0.108791
   4 C :    0.004545
   5 O :   -0.058208
   6 H :    0.026747
   7 H :    0.025489
   8 H :    0.025089
   9 H :    0.092225

  Mayer bond orders larger than 0.100000
B(  0-C ,  1-S ) :   1.1311 B(  0-C ,  4-C ) :   1.5366 B(  0-C ,  6-H ) :   0.9701
B(  1-S ,  2-C ) :   1.1984 B(  2-C ,  3-C ) :   1.5428 B(  2-C ,  7-H ) :   0.9662
B(  3-C ,  4-C ) :   1.2230 B(  3-C ,  8-H ) :   0.9855 B(  4-C ,  5-O ) :   1.1792
B(  5-O ,  9-H ) :   0.9671

Dispersion correction           -0.017287631
FINAL SINGLE POINT ENERGY      -627.962395362179

DIPOLE MOMENT
-------------
                                X             Y             Z
Electronic contribution:     -1.50935       2.40205      -0.00529
Nuclear contribution   :      2.16207      -2.71568       0.00741
                        -----------------------------------------
Total Dipole Moment    :      0.65272      -0.31363       0.00212
                        -----------------------------------------
Magnitude (a.u.)       :      0.72416
Magnitude (Debye)      :      1.84067

Rotational constants in cm-1:     0.238029     0.083918     0.062044
Rotational constants in MHz :  7135.916712  2515.801861  1860.036959

                             ****ORCA TERMINATED NORMALLY****
TOTAL RUN TIME: 0 days 0 hours 1 minutes 59 seconds 673 msec
