                         Program Version 4.2.0 -  RELEASE  -
|  1> # ORCA input file
|  2> # SCF done        -18.010288381506          0.000928167742
|  3> ! B3LYP/G D3BJ Opt RIJCOSX def2-SVP def2/J
|  4> * xyz 0 1
|  5>    C        2.51772         0.77895         0.52667
|  6>    C        2.11423        -0.28441        -0.19521
|  7>    C        2.72019        -1.24003         0.77733
|  8>    C        3.05925        -2.42011         1.29278
|  9>    S        3.94878        -2.16009         2.79921
| 10>    C        3.81912        -0.40114         2.66728
| 11>    C        3.15059        -0.09520         1.55701
| 12>    H        2.43415         1.84356         0.43253
| 13>    H        1.57361        -0.42736        -1.10982
| 14>    H        2.89358        -3.42806         0.96873
| 15>    H        4.26097         0.19951         3.43696
| 16> *
| 17>
| 18>                          ****END OF INPUT****
 Total Charge           Charge          ....    0
 Multiplicity           Mult            ....    1
 Number of Electrons    NEL             ....   56
Dispersion correction           -0.020322762
FINAL SINGLE POINT ENERGY      -628.856844124835
Dispersion correction            ... done
Dispersion correction           -0.020338132
FINAL SINGLE POINT ENERGY      -628.859385561244
Dispersion correction            ... done
Dispersion correction           -0.020350502
FINAL SINGLE POINT ENERGY      -628.859543238539
Dispersion correction            ... done
FINAL SINGLE POINT ENERGY      -628.859565976283
Dispersion correction            ... done
Dispersion correction           -0.020347058
FINAL SINGLE POINT ENERGY      -628.859586524896
Dispersion correction            ... done
Dispersion correction           -0.020342360
FINAL SINGLE POINT ENERGY      -628.859590063618
Dispersion correction            ... done
                    ***********************HURRAY********************

CARTESIAN COORDINATES (ANGSTROEM)
---------------------------------
  C      2.514528    0.793079    0.522296
  C      2.107380   -0.284406   -0.205559
  C      2.725450   -1.241836    0.786528
  C      3.066711   -2.437705    1.305597
  S      3.962809   -2.185445    2.827209
  C      3.834268   -0.411167    2.686954
  C      3.158584   -0.099591    1.562074
  H      2.406908    1.870871    0.394154
  H      1.557079   -0.401830   -1.139127
  H      2.883892   -3.451737    0.951530
  H      4.274583    0.215386    3.461812

 Multiplicity           Mult            ....    1
 Number of Electrons    NEL             ....   56
 Basis Dimension        Dim             ....  122

ORBITAL ENERGIES
----------------

  NO   OCC          E(Eh)            E(eV)
   0   2.0000     -88.857898     -2417.9463
   1   2.0000     -10.222682      -278.1733
   2   2.0000     -10.221773      -278.1486
   3   2.0000     -10.216596      -278.0077
   4   2.0000     -10.215991      -277.9912
   5   2.0000     -10.197529      -277.4889
   6   2.0000     -10.196663      -277.4653
   7   2.0000      -7.952522      -216.3991
   8   2.0000      -5.921578      -161.1343
   9   2.0000      -5.917147      -161.0137
  10   2.0000      -5.912330      -160.8827
  11   2.0000      -0.900415       -24.5015
  12   2.0000      -0.819725       -22.3058
  13   2.0000      -0.718769       -19.5587
  14   2.0000      -0.673286       -18.3210
  15   2.0000      -0.597866       -16.2688
  16   2.0000      -0.577071       -15.7029
  17   2.0000      -0.515414       -14.0251
  18   2.0000      -0.503541       -13.7021
  19   2.0000      -0.433985       -11.8093
  20   2.0000      -0.407103       -11.0778
  21   2.0000      -0.403475       -10.9791
  22   2.0000      -0.373074       -10.1519
  23   2.0000      -0.359577        -9.7846
  24   2.0000      -0.321357        -8.7446
  25   2.0000      -0.312512        -8.5039
  26   2.0000      -0.253205        -6.8900
  27   2.0000      -0.203071        -5.5258
  28   0.0000      -0.053312        -1.4507
  29   0.0000       0.003206         0.0872
  30   0.0000       0.031167         0.8481
  31   0.0000       0.081649         2.2218
  32   0.0000       0.084344         2.2951

MULLIKEN ATOMIC CHARGES
-----------------------
   0 C :   -0.001283
   1 C :    0.002540
   2 C :    0.142551
   3 C :   -0.187213
   4 S :    0.029306
   5 C :   -0.191648
   6 C :    0.141458
   7 H :    0.003640
   8 H :    0.000293
   9 H :    0.028362
  10 H :    0.031994
Sum of atomic charges:   -0.0000000

LOEWDIN ATOMIC CHARGES
----------------------
   0 C :    0.011721
   1 C :    0.013691
   2 C :   -0.056476
   3 C :   -0.173405
   4 S :    0.335854
   5 C :   -0.173682
   6 C :   -0.055927
   7 H :    0.023410
   8 H :    0.023039
   9 H :    0.025732
  10 H :    0.026043

  Mayer bond orders larger than 0.100000
B(  0-C ,  1-C ) :   1.6426 B(  0-C ,  3-C ) :   0.1103 B(  0-C ,  6-C ) :   0.8916
B(  0-C ,  7-H ) :   1.0290 B(  1-C ,  2-C ) :   0.8923 B(  1-C ,  5-C ) :   0.1096
B(  1-C ,  8-H ) :   1.0293 B(  2-C ,  3-C ) :   1.6661 B(  2-C ,  6-C ) :   1.1238
B(  3-C ,  4-S ) :   1.0637 B(  3-C ,  9-H ) :   0.9717 B(  4-S ,  5-C ) :   1.0637
B(  5-C ,  6-C ) :   1.6733 B(  5-C , 10-H ) :   0.9669

Dispersion correction           -0.020340683
FINAL SINGLE POINT ENERGY      -628.859589688834

DIPOLE MOMENT
-------------
                                X             Y             Z
Electronic contribution:      1.40144      -2.06144       2.26064
Nuclear contribution   :     -1.63819       2.40127      -2.64142
                        -----------------------------------------
Total Dipole Moment    :     -0.23675       0.33983      -0.38078
                        -----------------------------------------
Magnitude (a.u.)       :      0.56261
Magnitude (Debye)      :      1.43004

Rotational constants in cm-1:     0.214842     0.066119     0.050559
Rotational constants in MHz :  6440.787784  1982.204345  1515.728551

                             ****ORCA TERMINATED NORMALLY****
TOTAL RUN TIME: 0 days 0 hours 2 minutes 39 seconds 701 msec
