                         Program Version 4.2.0 -  RELEASE  -
|  1> # ORCA input file
|  2> # SCF done        -22.260251835627          0.000722198770
|  3> ! B3LYP/G D3BJ Opt RIJCOSX def2-SVP def2/J
|  4> * xyz 0 1
|  5>    C       -1.17890         0.02886         0.00173
|  6>    C       -0.45624         1.17271         0.00092
|  7>    F       -0.93702         2.41402         0.00189
|  8>    S        1.26145         0.92778        -0.00165
|  9>    C        0.96571        -0.78189        -0.00160
| 10>    F        1.99875        -1.62144        -0.00334
| 11>    C       -0.34505        -1.11734         0.00011
| 12>    H       -2.25215         0.00045         0.00328
| 13>    H       -0.70247        -2.12973         0.00029
| 14> *
| 15>
| 16>                          ****END OF INPUT****
 Total Charge           Charge          ....    0
 Multiplicity           Mult            ....    1
 Number of Electrons    NEL             ....   60
Dispersion correction           -0.015997902
FINAL SINGLE POINT ENERGY      -751.096242862999
Dispersion correction            ... done
Dispersion correction           -0.015987335
FINAL SINGLE POINT ENERGY      -751.097322298130
Dispersion correction            ... done
Dispersion correction           -0.015988170
FINAL SINGLE POINT ENERGY      -751.097413275862
Dispersion correction            ... done
Dispersion correction           -0.015989402
FINAL SINGLE POINT ENERGY      -751.097426547292
Dispersion correction            ... done
Dispersion correction           -0.015989653
FINAL SINGLE POINT ENERGY      -751.097426463954
Dispersion correction            ... done
                    ***********************HURRAY********************

CARTESIAN COORDINATES (ANGSTROEM)
---------------------------------
  C     -1.189705    0.032764    0.001380
  C     -0.464811    1.183081    0.001007
  F     -0.924558    2.426312    0.002688
  S      1.267437    0.931239   -0.002700
  C      0.974004   -0.795575   -0.001551
  F      2.021829   -1.609051   -0.002676
  C     -0.345225   -1.130992   -0.000111
  H     -2.279502    0.014966    0.003240
  H     -0.705389   -2.159322    0.000353

 Multiplicity           Mult            ....    1
 Number of Electrons    NEL             ....   60
 Basis Dimension        Dim             ....  112

ORBITAL ENERGIES
----------------

  NO   OCC          E(Eh)            E(eV)
   0   2.0000     -88.894504     -2418.9424
   1   2.0000     -24.724361      -672.7841
   2   2.0000     -24.724209      -672.7799
   3   2.0000     -10.301379      -280.3148
   4   2.0000     -10.300936      -280.3027
   5   2.0000     -10.209724      -277.8207
   6   2.0000     -10.209296      -277.8091
   7   2.0000      -7.990879      -217.4429
   8   2.0000      -5.958869      -162.1491
   9   2.0000      -5.955569      -162.0593
  10   2.0000      -5.951279      -161.9425
  11   2.0000      -1.236420       -33.6447
  12   2.0000      -1.235685       -33.6247
  13   2.0000      -0.894555       -24.3421
  14   2.0000      -0.760906       -20.7053
  15   2.0000      -0.727888       -19.8068
  16   2.0000      -0.610743       -16.6192
  17   2.0000      -0.603828       -16.4310
  18   2.0000      -0.549518       -14.9531
  19   2.0000      -0.524465       -14.2714
  20   2.0000      -0.498114       -13.5544
  21   2.0000      -0.488855       -13.3024
  22   2.0000      -0.486450       -13.2370
  23   2.0000      -0.461991       -12.5714
  24   2.0000      -0.419136       -11.4053
  25   2.0000      -0.379220       -10.3191
  26   2.0000      -0.372260       -10.1297
  27   2.0000      -0.370215       -10.0741
  28   2.0000      -0.277105        -7.5404
  29   2.0000      -0.236205        -6.4275
  30   0.0000      -0.019068        -0.5189
  31   0.0000       0.008337         0.2269
  32   0.0000       0.049478         1.3464
  33   0.0000       0.060716         1.6522
  34   0.0000       0.082713         2.2507

MULLIKEN ATOMIC CHARGES
-----------------------
   0 C :   -0.018597
   1 C :    0.133731
   2 F :   -0.162890
   3 S :    0.064385
   4 C :    0.131552
   5 F :   -0.164383
   6 C :   -0.004620
   7 H :    0.013322
   8 H :    0.007499
Sum of atomic charges:   -0.0000000

LOEWDIN ATOMIC CHARGES
----------------------
   0 C :   -0.099192
   1 C :   -0.085255
   2 F :   -0.048872
   3 S :    0.385345
   4 C :   -0.084634
   5 F :   -0.050020
   6 C :   -0.096269
   7 H :    0.039972
   8 H :    0.038926

  Mayer bond orders larger than 0.100000
B(  0-C ,  1-C ) :   1.5553 B(  0-C ,  6-C ) :   1.1523 B(  0-C ,  7-H ) :   0.9948
B(  1-C ,  2-F ) :   1.1073 B(  1-C ,  3-S ) :   1.1022 B(  3-S ,  4-C ) :   1.1027
B(  4-C ,  5-F ) :   1.1043 B(  4-C ,  6-C ) :   1.5540 B(  6-C ,  8-H ) :   0.9965

Dispersion correction           -0.015989541
FINAL SINGLE POINT ENERGY      -751.097425928527

DIPOLE MOMENT
-------------
                                X             Y             Z
Electronic contribution:      3.55621       2.57996      -0.00339
Nuclear contribution   :     -3.85153      -2.79433       0.00344
                        -----------------------------------------
Total Dipole Moment    :     -0.29532      -0.21437       0.00004
                        -----------------------------------------
Magnitude (a.u.)       :      0.36492
Magnitude (Debye)      :      0.92756

Rotational constants in cm-1:     0.168581     0.058303     0.043321
Rotational constants in MHz :  5053.944114  1747.879409  1298.723386

                             ****ORCA TERMINATED NORMALLY****
TOTAL RUN TIME: 0 days 0 hours 1 minutes 44 seconds 399 msec
