                         Program Version 4.2.0 -  RELEASE  -
|  1> # ORCA input file
|  2> # SCF done        -27.114380639498          0.000760400283
|  3> ! B3LYP/G D3BJ Opt RIJCOSX def2-SVP def2/J
|  4> * xyz 0 1
|  5>    C       -1.43945         1.25520         0.15223
|  6>    C       -0.17548         0.72499         0.05922
|  7>    C       -0.19019        -0.72170         0.06513
|  8>    N        0.96380        -1.42841        -0.01780
|  9>    C        2.05138        -0.72496        -0.10210
| 10>    C        2.07928         0.70764        -0.11139
| 11>    C        3.37736         1.44022        -0.21464
| 12>    N        0.98558         1.41480        -0.03154
| 13>    C       -1.46334        -1.22844         0.16152
| 14>    S       -2.61890         0.02414         0.24639
| 15>    H       -1.72443         2.28708         0.17012
| 16>    H        2.97665        -1.28297        -0.16828
| 17>    H        4.21317         0.74909        -0.27994
| 18>    H        3.50661         2.08264         0.65443
| 19>    H        3.36828         2.08099        -1.09442
| 20>    H       -1.76644        -2.25508         0.18674
| 21> *
| 22>
| 23>                          ****END OF INPUT****
 Total Charge           Charge          ....    0
 Multiplicity           Mult            ....    1
 Number of Electrons    NEL             ....   78
Dispersion correction           -0.033333842
FINAL SINGLE POINT ENERGY      -777.675483672632
Dispersion correction            ... done
Dispersion correction           -0.033255730
FINAL SINGLE POINT ENERGY      -777.677717222592
Dispersion correction            ... done
Dispersion correction           -0.033244526
FINAL SINGLE POINT ENERGY      -777.677804076632
Dispersion correction            ... done
FINAL SINGLE POINT ENERGY      -777.677815103530
Dispersion correction            ... done
Dispersion correction           -0.033238879
FINAL SINGLE POINT ENERGY      -777.677831108225
Dispersion correction            ... done
Dispersion correction           -0.033240620
FINAL SINGLE POINT ENERGY      -777.677835657370
Dispersion correction            ... done
                    ***********************HURRAY********************

CARTESIAN COORDINATES (ANGSTROEM)
---------------------------------
  C     -1.465700    1.264160    0.156582
  C     -0.188794    0.726450    0.050106
  C     -0.202726   -0.727214    0.057939
  N      0.957310   -1.441236   -0.031176
  C      2.050804   -0.733229   -0.111321
  C      2.080083    0.717979   -0.118807
  C      3.396458    1.443130   -0.210626
  N      0.978916    1.425343   -0.045055
  C     -1.486637   -1.246638    0.169735
  S     -2.639175    0.017789    0.266584
  H     -1.748844    2.314160    0.172996
  H      3.001253   -1.277103   -0.179244
  H      4.245332    0.745606   -0.253736
  H      3.528401    2.104705    0.660155
  H      3.420907    2.084015   -1.106299
  H     -1.783707   -2.292687    0.197836

 Multiplicity           Mult            ....    1
 Number of Electrons    NEL             ....   78
 Basis Dimension        Dim             ....  174

ORBITAL ENERGIES
----------------

  NO   OCC          E(Eh)            E(eV)
   0   2.0000     -88.897497     -2419.0239
   1   2.0000     -14.339902      -390.2086
   2   2.0000     -14.333604      -390.0372
   3   2.0000     -10.240978      -278.6712
   4   2.0000     -10.234282      -278.4890
   5   2.0000     -10.229318      -278.3539
   6   2.0000     -10.228937      -278.3435
   7   2.0000     -10.220228      -278.1065
   8   2.0000     -10.218508      -278.0597
   9   2.0000     -10.195263      -277.4272
  10   2.0000      -7.991907      -217.4708
  11   2.0000      -5.959470      -162.1654
  12   2.0000      -5.955452      -162.0561
  13   2.0000      -5.954480      -162.0296
  14   2.0000      -0.975286       -26.5389
  15   2.0000      -0.905771       -24.6473
  16   2.0000      -0.883262       -24.0348
  17   2.0000      -0.774277       -21.0692
  18   2.0000      -0.732404       -19.9297
  19   2.0000      -0.705788       -19.2055
  20   2.0000      -0.648046       -17.6342
  21   2.0000      -0.603472       -16.4213
  22   2.0000      -0.578092       -15.7307
  23   2.0000      -0.544744       -14.8232
  24   2.0000      -0.493318       -13.4239
  25   2.0000      -0.473718       -12.8905
  26   2.0000      -0.451121       -12.2756
  27   2.0000      -0.431011       -11.7284
  28   2.0000      -0.422448       -11.4954
  29   2.0000      -0.415542       -11.3075
  30   2.0000      -0.401337       -10.9209
  31   2.0000      -0.400208       -10.8902
  32   2.0000      -0.363639        -9.8951
  33   2.0000      -0.361671        -9.8416
  34   2.0000      -0.340224        -9.2580
  35   2.0000      -0.310254        -8.4424
  36   2.0000      -0.261383        -7.1126
  37   2.0000      -0.244868        -6.6632
  38   2.0000      -0.230677        -6.2770
  39   0.0000      -0.084533        -2.3003
  40   0.0000       0.002237         0.0609
  41   0.0000       0.004885         0.1329
  42   0.0000       0.044959         1.2234
  43   0.0000       0.069309         1.8860

MULLIKEN ATOMIC CHARGES
-----------------------
   0 C :   -0.147154
   1 C :    0.070938
   2 C :    0.050241
   3 N :   -0.036468
   4 C :    0.034633
   5 C :   -0.146247
   6 C :    0.106336
   7 N :   -0.053571
   8 C :   -0.140185
   9 S :    0.149422
  10 H :    0.019110
  11 H :   -0.007800
  12 H :    0.005299
  13 H :    0.037436
  14 H :    0.037343
  15 H :    0.020666
Sum of atomic charges:   -0.0000000

LOEWDIN ATOMIC CHARGES
----------------------
   0 C :   -0.209846
   1 C :   -0.049627
   2 C :   -0.055020
   3 N :   -0.048425
   4 C :   -0.000192
   5 C :   -0.010356
   6 C :   -0.051886
   7 N :   -0.064619
   8 C :   -0.204788
   9 S :    0.501314
  10 H :    0.029701
  11 H :    0.019753
  12 H :    0.027424
  13 H :    0.042957
  14 H :    0.043016
  15 H :    0.030593

  Mayer bond orders larger than 0.100000
B(  0-C ,  1-C ) :   1.3803 B(  0-C ,  8-C ) :   0.1284 B(  0-C ,  9-S ) :   1.2061
B(  0-C , 10-H ) :   0.9692 B(  1-C ,  2-C ) :   1.1845 B(  1-C ,  7-N ) :   1.3486
B(  2-C ,  3-N ) :   1.3479 B(  2-C ,  8-C ) :   1.3779 B(  3-N ,  4-C ) :   1.7303
B(  4-C ,  5-C ) :   1.1543 B(  4-C , 11-H ) :   0.9611 B(  5-C ,  6-C ) :   1.0593
B(  5-C ,  7-N ) :   1.6763 B(  6-C , 12-H ) :   0.9551 B(  6-C , 13-H ) :   0.9492
B(  6-C , 14-H ) :   0.9487 B(  8-C ,  9-S ) :   1.2146 B(  8-C , 15-H ) :   0.9711

Dispersion correction           -0.033240973
FINAL SINGLE POINT ENERGY      -777.677836645362

DIPOLE MOMENT
-------------
                                X             Y             Z
Electronic contribution:     -9.90933      -2.51460       0.74774
Nuclear contribution   :      9.96021       2.65093      -0.74239
                        -----------------------------------------
Total Dipole Moment    :      0.05088       0.13633       0.00535
                        -----------------------------------------
Magnitude (a.u.)       :      0.14561
Magnitude (Debye)      :      0.37011

Rotational constants in cm-1:     0.108903     0.027262     0.021894
Rotational constants in MHz :  3264.843231   817.304149   656.367829

                             ****ORCA TERMINATED NORMALLY****
TOTAL RUN TIME: 0 days 0 hours 5 minutes 7 seconds 913 msec
