                         Program Version 4.2.0 -  RELEASE  -
|  1> # ORCA input file
|  2> # SCF done        -23.404567556981          0.000393846038
|  3> ! B3LYP/G D3BJ Opt RIJCOSX def2-SVP def2/J
|  4> * xyz 0 1
|  5>    C       -1.53178         1.23276         0.15959
|  6>    C       -0.25835         0.72015         0.07198
|  7>    C       -0.25835        -0.72015         0.07198
|  8>    C        0.97310        -1.41615        -0.01299
|  9>    C        2.13140        -0.70894        -0.09304
| 10>    C        2.13140         0.70894        -0.09304
| 11>    C        0.97310         1.41615        -0.01299
| 12>    C       -1.53178        -1.23276         0.15959
| 13>    S       -2.71037         0.00000         0.24276
| 14>    H       -1.83265         2.26103         0.18003
| 15>    H        0.96840        -2.49611        -0.01293
| 16>    H        3.07813        -1.22471        -0.15906
| 17>    H        3.07813         1.22471        -0.15906
| 18>    H        0.96840         2.49611        -0.01293
| 19>    H       -1.83265        -2.26103         0.18003
| 20> *
| 21>
| 22>                          ****END OF INPUT****
 Total Charge           Charge          ....    0
 Multiplicity           Mult            ....    1
 Number of Electrons    NEL             ....   70
Dispersion correction           -0.032592182
FINAL SINGLE POINT ENERGY      -706.340650990547
Dispersion correction            ... done
Dispersion correction           -0.032480625
FINAL SINGLE POINT ENERGY      -706.343123928362
Dispersion correction            ... done
Dispersion correction           -0.032465852
FINAL SINGLE POINT ENERGY      -706.343187081228
Dispersion correction            ... done
Dispersion correction           -0.032462396
FINAL SINGLE POINT ENERGY      -706.343177753735
Dispersion correction            ... done
Dispersion correction           -0.032463780
FINAL SINGLE POINT ENERGY      -706.343190952284
Dispersion correction            ... done
                    ***********************HURRAY********************

CARTESIAN COORDINATES (ANGSTROEM)
---------------------------------
  C     -1.553374    1.247652    0.163455
  C     -0.266642    0.727607    0.066577
  C     -0.266643   -0.727605    0.066577
  C      0.978363   -1.427343   -0.019378
  C      2.148907   -0.717038   -0.090210
  C      2.148908    0.717038   -0.090211
  C      0.978365    1.427345   -0.019378
  C     -1.553372   -1.247653    0.163455
  S     -2.725451   -0.000003    0.254319
  H     -1.855428    2.292976    0.183720
  H      0.981183   -2.520146   -0.024687
  H      3.102774   -1.246249   -0.151677
  H      3.102776    1.246246   -0.151676
  H      0.981188    2.520148   -0.024687
  H     -1.855424   -2.292977    0.183722

 Multiplicity           Mult            ....    1
 Number of Electrons    NEL             ....   70
 Basis Dimension        Dim             ....  160

ORBITAL ENERGIES
----------------

  NO   OCC          E(Eh)            E(eV)
   0   2.0000     -88.885050     -2418.6852
   1   2.0000     -10.211286      -277.8632
   2   2.0000     -10.211219      -277.8614
   3   2.0000     -10.198746      -277.5220
   4   2.0000     -10.198598      -277.5180
   5   2.0000     -10.193772      -277.3866
   6   2.0000     -10.193698      -277.3846
   7   2.0000     -10.191214      -277.3170
   8   2.0000     -10.191003      -277.3113
   9   2.0000      -7.979656      -217.1375
  10   2.0000      -5.947332      -161.8351
  11   2.0000      -5.943200      -161.7227
  12   2.0000      -5.942121      -161.6933
  13   2.0000      -0.889261       -24.1980
  14   2.0000      -0.824683       -22.4408
  15   2.0000      -0.758218       -20.6322
  16   2.0000      -0.730087       -19.8667
  17   2.0000      -0.694594       -18.9009
  18   2.0000      -0.612438       -16.6653
  19   2.0000      -0.575054       -15.6480
  20   2.0000      -0.572905       -15.5895
  21   2.0000      -0.511797       -13.9267
  22   2.0000      -0.473086       -12.8733
  23   2.0000      -0.463419       -12.6103
  24   2.0000      -0.431620       -11.7450
  25   2.0000      -0.415525       -11.3070
  26   2.0000      -0.410666       -11.1748
  27   2.0000      -0.402920       -10.9640
  28   2.0000      -0.364409        -9.9161
  29   2.0000      -0.354219        -9.6388
  30   2.0000      -0.339804        -9.2465
  31   2.0000      -0.336948        -9.1688
  32   2.0000      -0.286235        -7.7888
  33   2.0000      -0.250260        -6.8099
  34   2.0000      -0.205666        -5.5965
  35   0.0000      -0.058389        -1.5889
  36   0.0000       0.021374         0.5816
  37   0.0000       0.024549         0.6680
  38   0.0000       0.051056         1.3893
  39   0.0000       0.064896         1.7659

MULLIKEN ATOMIC CHARGES
-----------------------
   0 C :   -0.145601
   1 C :    0.093410
   2 C :    0.093414
   3 C :   -0.002912
   4 C :    0.017480
   5 C :    0.017452
   6 C :   -0.002877
   7 C :   -0.145598
   8 S :    0.135422
   9 H :    0.016821
  10 H :   -0.027221
  11 H :   -0.019696
  12 H :   -0.019695
  13 H :   -0.027220
  14 H :    0.016821
Sum of atomic charges:   -0.0000000

LOEWDIN ATOMIC CHARGES
----------------------
   0 C :   -0.213520
   1 C :   -0.051192
   2 C :   -0.051193
   3 C :   -0.021181
   4 C :   -0.032453
   5 C :   -0.032455
   6 C :   -0.021175
   7 C :   -0.213530
   8 S :    0.481314
   9 H :    0.024028
  10 H :    0.027437
  11 H :    0.026227
  12 H :    0.026227
  13 H :    0.027437
  14 H :    0.024028

  Mayer bond orders larger than 0.100000
B(  0-C ,  1-C ) :   1.4032 B(  0-C ,  7-C ) :   0.1206 B(  0-C ,  8-S ) :   1.2059
B(  0-C ,  9-H ) :   0.9650 B(  1-C ,  2-C ) :   1.2020 B(  1-C ,  6-C ) :   1.1855
B(  2-C ,  3-C ) :   1.1855 B(  2-C ,  7-C ) :   1.4032 B(  3-C ,  4-C ) :   1.5543
B(  3-C , 10-H ) :   0.9927 B(  4-C ,  5-C ) :   1.1918 B(  4-C , 11-H ) :   0.9808
B(  5-C ,  6-C ) :   1.5543 B(  5-C , 12-H ) :   0.9808 B(  6-C , 13-H ) :   0.9927
B(  7-C ,  8-S ) :   1.2059 B(  7-C , 14-H ) :   0.9650

Dispersion correction           -0.032464599
FINAL SINGLE POINT ENERGY      -706.343191812162

DIPOLE MOMENT
-------------
                                X             Y             Z
Electronic contribution:     -6.43429       0.00003       0.45661
Nuclear contribution   :      6.40882       0.00000      -0.45517
                        -----------------------------------------
Total Dipole Moment    :     -0.02548       0.00003       0.00144
                        -----------------------------------------
Magnitude (a.u.)       :      0.02552
Magnitude (Debye)      :      0.06486

Rotational constants in cm-1:     0.122209     0.038096     0.029043
Rotational constants in MHz :  3663.720908  1142.078505   870.682956

                             ****ORCA TERMINATED NORMALLY****
TOTAL RUN TIME: 0 days 0 hours 3 minutes 44 seconds 422 msec
