                         Program Version 4.2.0 -  RELEASE  -
|  1> # ORCA input file
|  2> # SCF done        -50.878685600630          0.000437262849
|  3> ! B3LYP/G D3BJ Opt RIJCOSX def2-SVP def2/J
|  4> * xyz 0 1
|  5>    C        3.50184         0.10583         0.02867
|  6>    C        2.58955         1.15304         0.04661
|  7>    C        1.24279         0.86185         0.02230
|  8>    C        0.80568        -0.47084        -0.02010
|  9>    C        1.71810        -1.51266        -0.03739
| 10>    C        3.07023        -1.21082        -0.01258
| 11>    C       -0.64637        -0.47744        -0.03810
| 12>    C       -1.09956         0.85082        -0.00672
| 13>    C        0.06715         1.81075         0.03395
| 14>    C        0.07942         2.73464        -1.19785
| 15>    C        0.09671         1.96487        -2.51293
| 16>    C        0.04761         2.66309         1.31641
| 17>    C        0.01612         1.81954         2.58517
| 18>    C       -2.44368         1.13622        -0.01352
| 19>    C       -3.37283         0.08954        -0.05227
| 20>    C       -2.90512        -1.22754        -0.09142
| 21>    C       -1.55469        -1.52223        -0.08187
| 22>    C       -4.81132         0.31920        -0.05549
| 23>    C       -5.43257         1.47785         0.13165
| 24>    H        4.56065         0.32004         0.04698
| 25>    H        2.93774         2.17553         0.07854
| 26>    H        1.38443        -2.53934        -0.06929
| 27>    H        3.79763        -2.00969        -0.02547
| 28>    H        0.95977         3.37893        -1.14307
| 29>    H       -0.80511         3.37469        -1.16476
| 30>    H        0.97570         1.32669        -2.57193
| 31>    H        0.11554         2.65659        -3.35230
| 32>    H       -0.78801         1.33820        -2.60184
| 33>    H       -0.82985         3.31316         1.29189
| 34>    H        0.93474         3.30026         1.32640
| 35>    H       -0.87623         1.19806         2.61036
| 36>    H        0.01403         2.46201         3.46295
| 37>    H        0.88719         1.16994         2.63506
| 38>    H       -2.78325         2.16049         0.00347
| 39>    H       -3.62374        -2.03484        -0.12494
| 40>    H       -1.21776        -2.54805        -0.10949
| 41>    H       -5.40771        -0.57111        -0.21622
| 42>    H       -4.90741         2.39954         0.31368
| 43>    H       -6.50689         1.54554         0.11721
| 44> *
| 45>
| 46>                          ****END OF INPUT****
 Total Charge           Charge          ....    0
 Multiplicity           Mult            ....    1
 Number of Electrons    NEL             ....  134
Dispersion correction           -0.090884566
FINAL SINGLE POINT ENERGY      -735.634347774223
Dispersion correction            ... done
Dispersion correction           -0.089598405
FINAL SINGLE POINT ENERGY      -735.639940415475
Dispersion correction            ... done
Dispersion correction           -0.089489556
FINAL SINGLE POINT ENERGY      -735.640119716296
Dispersion correction            ... done
FINAL SINGLE POINT ENERGY      -735.640178697562
FINAL SINGLE POINT ENERGY      -735.640194385015
Dispersion correction            ... done
Dispersion correction           -0.089470906
FINAL SINGLE POINT ENERGY      -735.640203132920
Dispersion correction            ... done
Dispersion correction           -0.089478001
FINAL SINGLE POINT ENERGY      -735.640206941409
Dispersion correction            ... done
                    ***********************HURRAY********************

CARTESIAN COORDINATES (ANGSTROEM)
---------------------------------
  C      3.541851    0.088378    0.002139
  C      2.613917    1.137974    0.037704
  C      1.255818    0.840397    0.026018
  C      0.818498   -0.500921   -0.021679
  C      1.743404   -1.547983   -0.056634
  C      3.108381   -1.242973   -0.044432
  C     -0.648665   -0.509937   -0.025624
  C     -1.104512    0.826796    0.019545
  C      0.070447    1.799009    0.055342
  C      0.067807    2.735627   -1.177880
  C      0.073306    2.026342   -2.529649
  C      0.062446    2.653241    1.346443
  C      0.061501    1.857829    2.649133
  C     -2.458407    1.114004    0.022772
  C     -3.404006    0.065530   -0.019805
  C     -2.932433   -1.262300   -0.060506
  C     -1.567854   -1.559694   -0.064286
  C     -4.853280    0.309693   -0.026540
  C     -5.476887    1.497258   -0.023685
  H      4.611861    0.311643    0.010339
  H      2.958835    2.174794    0.075586
  H      1.408126   -2.587494   -0.095187
  H      3.843872   -2.050304   -0.072898
  H      0.945274    3.401460   -1.100541
  H     -0.817091    3.391842   -1.103691
  H      0.963759    1.389492   -2.647291
  H      0.071686    2.759552   -3.351276
  H     -0.811819    1.382713   -2.650684
  H     -0.821777    3.313601    1.311168
  H      0.940654    3.321935    1.316594
  H     -0.825400    1.209566    2.724514
  H      0.058280    2.535580    3.517012
  H      0.950509    1.212897    2.728143
  H     -2.796240    2.152021    0.060879
  H     -3.659829   -2.077610   -0.093268
  H     -1.230759   -2.598594   -0.099658
  H     -5.469484   -0.596881   -0.038801
  H     -4.933801    2.445840   -0.017155
  H     -6.567468    1.562026   -0.030409

 Multiplicity           Mult            ....    1
 Number of Electrons    NEL             ....  134
 Basis Dimension        Dim             ....  366

ORBITAL ENERGIES
----------------

  NO   OCC          E(Eh)            E(eV)
   0   2.0000     -10.201559      -277.5985
   1   2.0000     -10.198061      -277.5033
   2   2.0000     -10.194852      -277.4160
   3   2.0000     -10.193068      -277.3675
   4   2.0000     -10.192734      -277.3584
   5   2.0000     -10.192341      -277.3477
   6   2.0000     -10.191890      -277.3354
   7   2.0000     -10.191762      -277.3320
   8   2.0000     -10.191686      -277.3299
   9   2.0000     -10.191633      -277.3284
  10   2.0000     -10.191487      -277.3245
  11   2.0000     -10.190426      -277.2956
  12   2.0000     -10.189006      -277.2570
  13   2.0000     -10.188818      -277.2518
  14   2.0000     -10.188333      -277.2386
  15   2.0000     -10.188141      -277.2334
  16   2.0000     -10.186780      -277.1964
  17   2.0000     -10.173537      -276.8360
  18   2.0000     -10.173459      -276.8339
  19   2.0000      -0.886587       -24.1253
  20   2.0000      -0.843503       -22.9529
  21   2.0000      -0.816677       -22.2229
  22   2.0000      -0.787956       -21.4414
  23   2.0000      -0.753499       -20.5038
  24   2.0000      -0.745411       -20.2837
  25   2.0000      -0.737342       -20.0641
  26   2.0000      -0.736423       -20.0391
  27   2.0000      -0.701790       -19.0967
  28   2.0000      -0.672638       -18.3034
  29   2.0000      -0.642048       -17.4710
  30   2.0000      -0.616185       -16.7672
  31   2.0000      -0.591500       -16.0955
  32   2.0000      -0.583920       -15.8893
  33   2.0000      -0.582395       -15.8478
  34   2.0000      -0.560079       -15.2405
  35   2.0000      -0.543865       -14.7993
  36   2.0000      -0.508816       -13.8456
  37   2.0000      -0.492694       -13.4069
  38   2.0000      -0.480418       -13.0728
  39   2.0000      -0.459387       -12.5006
  40   2.0000      -0.457913       -12.4604
  41   2.0000      -0.448664       -12.2088
  42   2.0000      -0.446301       -12.1445
  43   2.0000      -0.438126       -11.9220
  44   2.0000      -0.435659       -11.8549
  45   2.0000      -0.429767       -11.6945
  46   2.0000      -0.414323       -11.2743
  47   2.0000      -0.404358       -11.0031
  48   2.0000      -0.398869       -10.8538
  49   2.0000      -0.397869       -10.8266
  50   2.0000      -0.384613       -10.4659
  51   2.0000      -0.378857       -10.3092
  52   2.0000      -0.370239       -10.0747
  53   2.0000      -0.363518        -9.8918
  54   2.0000      -0.355417        -9.6714
  55   2.0000      -0.354242        -9.6394
  56   2.0000      -0.347583        -9.4582
  57   2.0000      -0.345387        -9.3985
  58   2.0000      -0.334906        -9.1132
  59   2.0000      -0.330486        -8.9930
  60   2.0000      -0.317817        -8.6482
  61   2.0000      -0.314075        -8.5464
  62   2.0000      -0.310988        -8.4624
  63   2.0000      -0.264045        -7.1850
  64   2.0000      -0.254227        -6.9179
  65   2.0000      -0.250776        -6.8240
  66   2.0000      -0.211044        -5.7428
  67   0.0000      -0.055241        -1.5032
  68   0.0000      -0.018809        -0.5118
  69   0.0000      -0.000537        -0.0146
  70   0.0000       0.002153         0.0586
  71   0.0000       0.048833         1.3288

MULLIKEN ATOMIC CHARGES
-----------------------
   0 C :    0.014934
   1 C :   -0.034037
   2 C :    0.000421
   3 C :    0.108405
   4 C :   -0.055768
   5 C :    0.030200
   6 C :    0.104883
   7 C :    0.009647
   8 C :   -0.124722
   9 C :    0.053517
  10 C :    0.024160
  11 C :    0.053911
  12 C :    0.022062
  13 C :   -0.074431
  14 C :    0.099332
  15 C :   -0.022109
  16 C :   -0.049964
  17 C :    0.001655
  18 C :   -0.030300
  19 H :   -0.018545
  20 H :   -0.038384
  21 H :   -0.036796
  22 H :   -0.017649
  23 H :   -0.004566
  24 H :   -0.004858
  25 H :    0.020293
  26 H :    0.007877
  27 H :    0.021226
  28 H :   -0.004129
  29 H :   -0.004003
  30 H :    0.022164
  31 H :    0.006334
  32 H :    0.021259
  33 H :   -0.048477
  34 H :   -0.029056
  35 H :   -0.038358
  36 H :   -0.021066
  37 H :    0.010058
  38 H :    0.024880
Sum of atomic charges:    0.0000000

LOEWDIN ATOMIC CHARGES
----------------------
   0 C :   -0.026155
   1 C :   -0.028199
   2 C :    0.001290
   3 C :   -0.018039
   4 C :   -0.023424
   5 C :   -0.027005
   6 C :   -0.016185
   7 C :    0.003247
   8 C :   -0.031207
   9 C :   -0.012988
  10 C :   -0.057344
  11 C :   -0.013085
  12 C :   -0.057242
  13 C :   -0.016260
  14 C :   -0.027432
  15 C :   -0.019344
  16 C :   -0.023482
  17 C :   -0.020447
  18 C :   -0.052567
  19 H :    0.026071
  20 H :    0.023247
  21 H :    0.024343
  22 H :    0.026819
  23 H :    0.018443
  24 H :    0.018323
  25 H :    0.025139
  26 H :    0.023899
  27 H :    0.025414
  28 H :    0.018443
  29 H :    0.018525
  30 H :    0.025541
  31 H :    0.023514
  32 H :    0.025267
  33 H :    0.021613
  34 H :    0.024794
  35 H :    0.025016
  36 H :    0.026528
  37 H :    0.018523
  38 H :    0.026403

  Mayer bond orders larger than 0.100000
B(  0-C ,  1-C ) :   1.3402 B(  0-C ,  5-C ) :   1.3782 B(  0-C , 19-H ) :   0.9824
B(  1-C ,  2-C ) :   1.3980 B(  1-C , 20-H ) :   0.9947 B(  2-C ,  3-C ) :   1.3581
B(  2-C ,  8-C ) :   0.9252 B(  3-C ,  4-C ) :   1.3397 B(  3-C ,  6-C ) :   1.0052
B(  4-C ,  5-C ) :   1.3714 B(  4-C , 21-H ) :   0.9870 B(  5-C , 22-H ) :   0.9789
B(  6-C ,  7-C ) :   1.3420 B(  6-C , 16-C ) :   1.3350 B(  7-C ,  8-C ) :   0.9230
B(  7-C , 13-C ) :   1.4107 B(  8-C ,  9-C ) :   1.0270 B(  8-C , 11-C ) :   1.0259
B(  9-C , 10-C ) :   1.1081 B(  9-C , 23-H ) :   0.9357 B(  9-C , 24-H ) :   0.9354
B( 10-C , 25-H ) :   0.9625 B( 10-C , 26-H ) :   0.9608 B( 10-C , 27-H ) :   0.9626
B( 11-C , 12-C ) :   1.1058 B( 11-C , 28-H ) :   0.9358 B( 11-C , 29-H ) :   0.9360
B( 12-C , 30-H ) :   0.9632 B( 12-C , 31-H ) :   0.9612 B( 12-C , 32-H ) :   0.9631
B( 13-C , 14-C ) :   1.2860 B( 13-C , 33-H ) :   0.9926 B( 14-C , 15-C ) :   1.3405
B( 14-C , 17-C ) :   1.0828 B( 15-C , 16-C ) :   1.3612 B( 15-C , 34-H ) :   0.9845
B( 16-C , 35-H ) :   0.9881 B( 17-C , 18-C ) :   1.9171 B( 17-C , 36-H ) :   0.9604
B( 18-C , 37-H ) :   0.9439 B( 18-C , 38-H ) :   0.9475

Dispersion correction           -0.089477356
FINAL SINGLE POINT ENERGY      -735.640208533278

DIPOLE MOMENT
-------------
                                X             Y             Z
Electronic contribution:      1.56349     -10.03221      -0.28391
Nuclear contribution   :     -1.44557      10.15656       0.28386
                        -----------------------------------------
Total Dipole Moment    :      0.11792       0.12435      -0.00005
                        -----------------------------------------
Magnitude (a.u.)       :      0.17137
Magnitude (Debye)      :      0.43559

Rotational constants in cm-1:     0.022260     0.009375     0.008269
Rotational constants in MHz :   667.323887   281.056388   247.901532

                             ****ORCA TERMINATED NORMALLY****
TOTAL RUN TIME: 0 days 0 hours 36 minutes 21 seconds 122 msec
