                         Program Version 4.2.0 -  RELEASE  -
|  1> # ORCA input file
|  2> # SCF done        -30.917506583037          0.000514999431
|  3> ! B3LYP/G D3BJ Opt RIJCOSX def2-SVP def2/J
|  4> * xyz 0 1
|  5>    C        3.23586        -0.37173         0.00051
|  6>    C        2.21747        -1.25433         0.00122
|  7>    C        0.85563        -0.87253         0.00134
|  8>    C        0.47557         0.55793         0.00068
|  9>    C        1.35814         1.57889        -0.00009
| 10>    S        3.06119         1.35725        -0.00038
| 11>    C       -0.94361         0.55755         0.00102
| 12>    C       -1.40768        -0.76137         0.00181
| 13>    C       -2.81941        -0.82886         0.00219
| 14>    C       -3.37924         0.40865         0.00170
| 15>    S       -2.22823         1.70421         0.00078
| 16>    C       -0.28235        -1.63816         0.00199
| 17>    H        4.26960        -0.67315         0.00046
| 18>    H        2.44933        -2.31103         0.00174
| 19>    H        1.05301         2.61356        -0.00057
| 20>    H       -3.39036        -1.74013         0.00279
| 21>    H       -4.42241         0.65906         0.00182
| 22>    H       -0.32690        -2.71117         0.00255
| 23> *
| 24>
| 25>                          ****END OF INPUT****
 Total Charge           Charge          ....    0
 Multiplicity           Mult            ....    1
 Number of Electrons    NEL             ....   98
Dispersion correction           -0.046517055
FINAL SINGLE POINT ENERGY     -1180.567314098217
Dispersion correction            ... done
Dispersion correction           -0.046462375
FINAL SINGLE POINT ENERGY     -1180.570421585586
Dispersion correction            ... done
Dispersion correction           -0.046450195
FINAL SINGLE POINT ENERGY     -1180.570530780680
Dispersion correction            ... done
Dispersion correction           -0.046446402
FINAL SINGLE POINT ENERGY     -1180.570550539916
Dispersion correction            ... done
Dispersion correction           -0.046444996
FINAL SINGLE POINT ENERGY     -1180.570556279866
Dispersion correction            ... done
                    ***********************HURRAY********************

CARTESIAN COORDINATES (ANGSTROEM)
---------------------------------
  C      3.268478   -0.364760    0.000455
  C      2.239902   -1.257631    0.001178
  C      0.864775   -0.882186    0.001358
  C      0.477279    0.563549    0.000704
  C      1.379014    1.583564   -0.000002
  S      3.090209    1.366144   -0.000307
  C     -0.956384    0.568035    0.000982
  C     -1.420950   -0.759686    0.001826
  C     -2.848597   -0.830396    0.002173
  C     -3.419950    0.418926    0.001668
  S     -2.252098    1.716843    0.000459
  C     -0.283502   -1.651449    0.002036
  H      4.313212   -0.681611    0.000349
  H      2.489691   -2.322648    0.001655
  H      1.068962    2.632105   -0.000426
  H     -3.430484   -1.752641    0.002884
  H     -4.480317    0.669151    0.001898
  H     -0.323632   -2.740668    0.002667

 Multiplicity           Mult            ....    1
 Number of Electrons    NEL             ....   98
 Basis Dimension        Dim             ....  206

ORBITAL ENERGIES
----------------

  NO   OCC          E(Eh)            E(eV)
   0   2.0000     -88.888694     -2418.7843
   1   2.0000     -88.871535     -2418.3174
   2   2.0000     -10.238188      -278.5952
   3   2.0000     -10.224614      -278.2259
   4   2.0000     -10.213744      -277.9301
   5   2.0000     -10.211837      -277.8782
   6   2.0000     -10.209844      -277.8240
   7   2.0000     -10.199269      -277.5362
   8   2.0000     -10.195634      -277.4373
   9   2.0000     -10.193101      -277.3684
  10   2.0000     -10.189378      -277.2671
  11   2.0000     -10.181492      -277.0525
  12   2.0000      -7.983531      -217.2429
  13   2.0000      -7.965734      -216.7586
  14   2.0000      -5.951833      -161.9576
  15   2.0000      -5.947528      -161.8405
  16   2.0000      -5.944672      -161.7628
  17   2.0000      -5.934075      -161.4744
  18   2.0000      -5.930049      -161.3648
  19   2.0000      -5.926806      -161.2766
  20   2.0000      -0.895608       -24.3707
  21   2.0000      -0.863007       -23.4836
  22   2.0000      -0.815646       -22.1949
  23   2.0000      -0.776943       -21.1417
  24   2.0000      -0.741107       -20.1665
  25   2.0000      -0.707679       -19.2569
  26   2.0000      -0.679370       -18.4866
  27   2.0000      -0.624184       -16.9849
  28   2.0000      -0.595410       -16.2019
  29   2.0000      -0.557617       -15.1735
  30   2.0000      -0.538178       -14.6446
  31   2.0000      -0.502047       -13.6614
  32   2.0000      -0.490684       -13.3522
  33   2.0000      -0.470659       -12.8073
  34   2.0000      -0.459019       -12.4905
  35   2.0000      -0.427716       -11.6387
  36   2.0000      -0.413696       -11.2572
  37   2.0000      -0.412475       -11.2240
  38   2.0000      -0.388017       -10.5585
  39   2.0000      -0.375062       -10.2060
  40   2.0000      -0.372982       -10.1494
  41   2.0000      -0.356841        -9.7101
  42   2.0000      -0.345538        -9.4026
  43   2.0000      -0.339133        -9.2283
  44   2.0000      -0.320117        -8.7108
  45   2.0000      -0.304449        -8.2845
  46   2.0000      -0.263529        -7.1710
  47   2.0000      -0.218836        -5.9548
  48   2.0000      -0.191814        -5.2195
  49   0.0000      -0.066245        -1.8026
  50   0.0000      -0.029872        -0.8129
  51   0.0000       0.018988         0.5167
  52   0.0000       0.038847         1.0571
  53   0.0000       0.049437         1.3452

MULLIKEN ATOMIC CHARGES
-----------------------
   0 C :   -0.111410
   1 C :    0.057933
   2 C :    0.046835
   3 C :    0.084065
   4 C :   -0.148846
   5 S :    0.109571
   6 C :   -0.113482
   7 C :    0.074145
   8 C :    0.023973
   9 C :   -0.089825
  10 S :    0.110827
  11 C :   -0.074773
  12 H :    0.038750
  13 H :   -0.014251
  14 H :    0.032773
  15 H :   -0.017468
  16 H :    0.027582
  17 H :   -0.036398
Sum of atomic charges:    0.0000000

LOEWDIN ATOMIC CHARGES
----------------------
   0 C :   -0.200081
   1 C :   -0.029306
   2 C :   -0.034508
   3 C :   -0.045439
   4 C :   -0.156265
   5 S :    0.439363
   6 C :   -0.210909
   7 C :   -0.044402
   8 C :   -0.065059
   9 C :   -0.174791
  10 S :    0.405181
  11 C :   -0.060458
  12 H :    0.029598
  13 H :    0.038255
  14 H :    0.033565
  15 H :    0.030244
  16 H :    0.023978
  17 H :    0.021034

  Mayer bond orders larger than 0.100000
B(  0-C ,  1-C ) :   1.6256 B(  0-C ,  5-S ) :   1.0889 B(  0-C , 12-H ) :   0.9414
B(  1-C ,  2-C ) :   1.1918 B(  1-C , 13-H ) :   0.9706 B(  2-C ,  3-C ) :   1.0464
B(  2-C , 11-C ) :   1.4994 B(  3-C ,  4-C ) :   1.5779 B(  3-C ,  6-C ) :   1.2111
B(  4-C ,  5-S ) :   1.1383 B(  4-C , 14-H ) :   0.9385 B(  6-C ,  7-C ) :   1.4038
B(  6-C , 10-S ) :   1.0677 B(  7-C ,  8-C ) :   1.2002 B(  7-C , 11-C ) :   1.1301
B(  8-C ,  9-C ) :   1.5597 B(  8-C , 15-H ) :   0.9941 B(  9-C , 10-S ) :   1.1474
B(  9-C , 16-H ) :   0.9641 B( 11-C , 17-H ) :   1.0109

Dispersion correction           -0.046445400
FINAL SINGLE POINT ENERGY     -1180.570555420673

DIPOLE MOMENT
-------------
                                X             Y             Z
Electronic contribution:      1.20571       5.80569      -0.00367
Nuclear contribution   :     -0.89429      -5.87767       0.00370
                        -----------------------------------------
Total Dipole Moment    :      0.31142      -0.07198       0.00003
                        -----------------------------------------
Magnitude (a.u.)       :      0.31963
Magnitude (Debye)      :      0.81243

Rotational constants in cm-1:     0.061266     0.016484     0.012989
Rotational constants in MHz :  1836.704774   494.173521   389.402943

                             ****ORCA TERMINATED NORMALLY****
TOTAL RUN TIME: 0 days 0 hours 6 minutes 30 seconds 771 msec
