                         Program Version 4.2.0 -  RELEASE  -
|  1> # ORCA input file
|  2> # SCF done        -32.915186681551          0.000900226807
|  3> ! B3LYP/G D3BJ Opt RIJCOSX def2-SVP def2/J
|  4> * xyz 0 1
|  5>    C       -1.56476         1.23908        -0.06387
|  6>    S       -2.70535        -0.02295        -0.10703
|  7>    C       -1.48747        -1.25253        -0.02309
|  8>    C       -0.22042        -0.67555         0.00320
|  9>    C       -0.27319         0.76359        -0.00988
| 10>    C        0.92263         1.52289         0.02189
| 11>    C        2.12191         0.88373         0.03873
| 12>    C        2.15677        -0.52785         0.00393
| 13>    F        3.37375        -1.11658        -0.01833
| 14>    C        1.04347        -1.30929        -0.01681
| 15>    C       -1.92155        -2.62310         0.02521
| 16>    C       -1.25176        -3.65327         0.53671
| 17>    H       -1.89101         2.25965        -0.07663
| 18>    H        0.86125         2.60017         0.02519
| 19>    H        3.05631         1.42162         0.06118
| 20>    H        1.13297        -2.38039        -0.07542
| 21>    H       -2.91962        -2.78610        -0.36288
| 22>    H       -0.28789        -3.54796         0.99836
| 23>    H       -1.67273        -4.64330         0.52925
| 24> *
| 25>
| 26>                          ****END OF INPUT****
 Total Charge           Charge          ....    0
 Multiplicity           Mult            ....    1
 Number of Electrons    NEL             ....   92
Dispersion correction           -0.042976092
FINAL SINGLE POINT ENERGY      -882.854118012337
Dispersion correction            ... done
Dispersion correction           -0.042808422
FINAL SINGLE POINT ENERGY      -882.857041369517
Dispersion correction            ... done
Dispersion correction           -0.042767468
FINAL SINGLE POINT ENERGY      -882.857108351481
Dispersion correction            ... done
FINAL SINGLE POINT ENERGY      -882.857111224215
FINAL SINGLE POINT ENERGY      -882.857110918981
FINAL SINGLE POINT ENERGY      -882.857093055113
FINAL SINGLE POINT ENERGY      -882.857078241548
FINAL SINGLE POINT ENERGY      -882.857066099597
Dispersion correction            ... done
Dispersion correction           -0.042781985
FINAL SINGLE POINT ENERGY      -882.857054349550
Dispersion correction            ... done
Dispersion correction           -0.042784123
FINAL SINGLE POINT ENERGY      -882.857043158865
Dispersion correction            ... done
                    ***********************HURRAY********************

CARTESIAN COORDINATES (ANGSTROEM)
---------------------------------
  C     -1.589149    1.269477   -0.063872
  S     -2.722879   -0.007073   -0.112889
  C     -1.510203   -1.246564   -0.023498
  C     -0.233036   -0.663927    0.013851
  C     -0.283724    0.788120    0.000274
  C      0.933509    1.538194    0.028884
  C      2.138338    0.883066    0.031124
  C      2.165453   -0.542775   -0.002471
  F      3.365011   -1.143549   -0.051914
  C      1.036627   -1.313477    0.001054
  C     -1.928082   -2.636908    0.023476
  C     -1.240832   -3.670747    0.541343
  H     -1.916893    2.307074   -0.086792
  H      0.892528    2.630085    0.039745
  H      3.086336    1.423702    0.045925
  H      1.131018   -2.397083   -0.039640
  H     -2.920744   -2.839546   -0.395008
  H     -0.273760   -3.545554    1.030875
  H     -1.656209   -4.680656    0.509244

 Multiplicity           Mult            ....    1
 Number of Electrons    NEL             ....   92
 Basis Dimension        Dim             ....  207

ORBITAL ENERGIES
----------------

  NO   OCC          E(Eh)            E(eV)
   0   2.0000     -88.889822     -2418.8150
   1   2.0000     -24.696396      -672.0231
   2   2.0000     -10.274415      -279.5811
   3   2.0000     -10.222507      -278.1686
   4   2.0000     -10.221106      -278.1304
   5   2.0000     -10.209815      -277.8232
   6   2.0000     -10.209518      -277.8151
   7   2.0000     -10.208516      -277.7878
   8   2.0000     -10.208092      -277.7763
   9   2.0000     -10.204319      -277.6736
  10   2.0000     -10.197632      -277.4917
  11   2.0000     -10.191878      -277.3351
  12   2.0000      -7.984536      -217.2703
  13   2.0000      -5.952185      -161.9672
  14   2.0000      -5.948211      -161.8590
  15   2.0000      -5.946833      -161.8216
  16   2.0000      -1.206143       -32.8208
  17   2.0000      -0.900153       -24.4944
  18   2.0000      -0.838652       -22.8209
  19   2.0000      -0.792827       -21.5739
  20   2.0000      -0.757142       -20.6029
  21   2.0000      -0.738731       -20.1019
  22   2.0000      -0.699187       -19.0258
  23   2.0000      -0.633355       -17.2345
  24   2.0000      -0.614686       -16.7265
  25   2.0000      -0.586593       -15.9620
  26   2.0000      -0.565361       -15.3842
  27   2.0000      -0.518753       -14.1160
  28   2.0000      -0.510632       -13.8950
  29   2.0000      -0.493762       -13.4359
  30   2.0000      -0.468920       -12.7600
  31   2.0000      -0.467250       -12.7145
  32   2.0000      -0.455639       -12.3986
  33   2.0000      -0.441140       -12.0040
  34   2.0000      -0.422727       -11.5030
  35   2.0000      -0.411047       -11.1851
  36   2.0000      -0.397319       -10.8116
  37   2.0000      -0.394045       -10.7225
  38   2.0000      -0.376641       -10.2489
  39   2.0000      -0.356234        -9.6936
  40   2.0000      -0.346893        -9.4394
  41   2.0000      -0.339948        -9.2504
  42   2.0000      -0.312237        -8.4964
  43   2.0000      -0.274576        -7.4716
  44   2.0000      -0.253759        -6.9051
  45   2.0000      -0.202514        -5.5107
  46   0.0000      -0.072945        -1.9849
  47   0.0000      -0.018799        -0.5116
  48   0.0000       0.018033         0.4907
  49   0.0000       0.030605         0.8328
  50   0.0000       0.050778         1.3817

MULLIKEN ATOMIC CHARGES
-----------------------
   0 C :   -0.125585
   1 S :    0.146804
   2 C :   -0.176770
   3 C :    0.131491
   4 C :    0.085588
   5 C :   -0.002303
   6 C :   -0.041598
   7 C :    0.283287
   8 F :   -0.198760
   9 C :   -0.107734
  10 C :    0.024842
  11 C :   -0.042718
  12 H :    0.019713
  13 H :   -0.016718
  14 H :   -0.006700
  15 H :   -0.018907
  16 H :   -0.006946
  17 H :    0.027729
  18 H :    0.025284
Sum of atomic charges:   -0.0000000

LOEWDIN ATOMIC CHARGES
----------------------
   0 C :   -0.204023
   1 S :    0.485858
   2 C :   -0.196839
   3 C :   -0.037102
   4 C :   -0.055124
   5 C :   -0.006390
   6 C :   -0.050642
   7 C :    0.079132
   8 F :   -0.067999
   9 C :   -0.058228
  10 C :   -0.042764
  11 C :   -0.054919
  12 H :    0.026188
  13 H :    0.032167
  14 H :    0.036463
  15 H :    0.035608
  16 H :    0.028856
  17 H :    0.022878
  18 H :    0.026879

  Mayer bond orders larger than 0.100000
B(  0-C ,  1-S ) :   1.2042 B(  0-C ,  2-C ) :   0.1131 B(  0-C ,  4-C ) :   1.3904
B(  0-C , 12-H ) :   0.9663 B(  1-S ,  2-C ) :   1.1603 B(  2-C ,  3-C ) :   1.3676
B(  2-C , 10-C ) :   1.1145 B(  3-C ,  4-C ) :   1.1976 B(  3-C ,  9-C ) :   1.1615
B(  4-C ,  5-C ) :   1.1785 B(  5-C ,  6-C ) :   1.5119 B(  5-C , 13-H ) :   0.9933
B(  6-C ,  7-C ) :   1.1968 B(  6-C , 14-H ) :   0.9849 B(  7-C ,  8-F ) :   1.0638
B(  7-C ,  9-C ) :   1.5004 B(  9-C , 15-H ) :   0.9923 B( 10-C , 11-C ) :   1.9115
B( 10-C , 16-H ) :   0.9444 B( 11-C , 17-H ) :   0.9525 B( 11-C , 18-H ) :   0.9439

Dispersion correction           -0.042785078
FINAL SINGLE POINT ENERGY      -882.857040176034

DIPOLE MOMENT
-------------
                                X             Y             Z
Electronic contribution:      3.13980       3.00723      -0.99407
Nuclear contribution   :     -3.61254      -2.57037       0.98934
                        -----------------------------------------
Total Dipole Moment    :     -0.47274       0.43686      -0.00473
                        -----------------------------------------
Magnitude (a.u.)       :      0.64371
Magnitude (Debye)      :      1.63617

Rotational constants in cm-1:     0.042980     0.022710     0.014956
Rotational constants in MHz :  1288.520212   680.826389   448.363587

                             ****ORCA TERMINATED NORMALLY****
TOTAL RUN TIME: 0 days 0 hours 11 minutes 27 seconds 83 msec
