                         Program Version 4.2.0 -  RELEASE  -
|  1> # ORCA input file
|  2> # SCF done        -49.133994343520          0.000576039946
|  3> ! B3LYP/G D3BJ Opt RIJCOSX def2-SVP def2/J
|  4> * xyz 0 1
|  5>    C       -2.44853        -0.59318        -0.27749
|  6>    C       -2.66017         0.91071        -0.38781
|  7>    O       -3.59625         1.47837        -0.86177
|  8>    O       -1.60647         1.55119         0.15020
|  9>    C       -0.59156         0.63634         0.54463
| 10>    C       -1.33680        -0.69381         0.76363
| 11>    C       -0.45035        -1.93121         0.69867
| 12>    C        0.41856        -1.96146        -0.55130
| 13>    C        1.27252        -0.70905        -0.69695
| 14>    C        0.50473         0.61532        -0.54842
| 15>    O        1.50436         1.56867        -0.21023
| 16>    C        2.57719         0.98220         0.34810
| 17>    O        3.50409         1.59410         0.78173
| 18>    C        2.39967        -0.54178         0.32823
| 19>    C        3.66829        -1.24667        -0.02671
| 20>    C        4.31845        -2.05590         0.78745
| 21>    H       -2.14033        -0.96966        -1.25411
| 22>    H       -3.37221        -1.09170         0.00724
| 23>    H       -0.14808         1.02636         1.46596
| 24>    H       -1.79877        -0.65009         1.75651
| 25>    H       -1.08231        -2.82017         0.72588
| 26>    H        0.18254        -1.95481         1.58756
| 27>    H       -0.21128        -2.06285        -1.43704
| 28>    H        1.07765        -2.83063        -0.51774
| 29>    H        1.73024        -0.71590        -1.69345
| 30>    H        0.05313         0.94609        -1.48914
| 31>    H        2.07927        -0.84239         1.33080
| 32>    H        4.04709        -1.04251        -1.01898
| 33>    H        3.96583        -2.26752         1.78333
| 34>    H        5.23574        -2.53544         0.49449
| 35> *
| 36>
| 37>                          ****END OF INPUT****
 Total Charge           Charge          ....    0
 Multiplicity           Mult            ....    1
 Number of Electrons    NEL             ....  118
Dispersion correction           -0.062477665
FINAL SINGLE POINT ENERGY      -766.102168725604
Dispersion correction            ... done
Dispersion correction           -0.062027781
FINAL SINGLE POINT ENERGY      -766.104876029794
Dispersion correction            ... done
Dispersion correction           -0.062011380
FINAL SINGLE POINT ENERGY      -766.105287097570
Dispersion correction            ... done
FINAL SINGLE POINT ENERGY      -766.105490585009
FINAL SINGLE POINT ENERGY      -766.105558773834
FINAL SINGLE POINT ENERGY      -766.105673851455
FINAL SINGLE POINT ENERGY      -766.105761239024
FINAL SINGLE POINT ENERGY      -766.105772077296
FINAL SINGLE POINT ENERGY      -766.105689853168
Dispersion correction            ... done
Dispersion correction           -0.062550654
FINAL SINGLE POINT ENERGY      -766.105720431933
Dispersion correction            ... done
Dispersion correction           -0.062544284
FINAL SINGLE POINT ENERGY      -766.105744041305
Dispersion correction            ... done
                    ***********************HURRAY********************

CARTESIAN COORDINATES (ANGSTROEM)
---------------------------------
  C     -2.413756   -0.624013   -0.219370
  C     -2.713537    0.869585   -0.208041
  O     -3.718661    1.434597   -0.521114
  O     -1.607407    1.531088    0.245138
  C     -0.538177    0.618343    0.530958
  C     -1.242101   -0.741114    0.755563
  C     -0.338845   -1.968833    0.629006
  C      0.508550   -1.942624   -0.642248
  C      1.307378   -0.649001   -0.772702
  C      0.486900    0.644430   -0.622165
  O      1.475350    1.658629   -0.371701
  C      2.607210    1.110076    0.153401
  O      3.568036    1.758997    0.442157
  C      2.409517   -0.405257    0.276076
  C      3.660663   -1.209018    0.121466
  C      4.003519   -2.206329    0.939733
  H     -2.136117   -0.914554   -1.247702
  H     -3.307808   -1.197364    0.056928
  H     -0.043089    0.981989    1.442837
  H     -1.661647   -0.715231    1.774377
  H     -0.956946   -2.880273    0.662906
  H      0.319803   -2.021147    1.511841
  H     -0.136383   -2.057298   -1.529753
  H      1.205458   -2.795676   -0.659953
  H      1.788173   -0.621360   -1.765069
  H     -0.032228    0.927958   -1.548873
  H      2.000617   -0.583811    1.287526
  H      4.300342   -0.952513   -0.730865
  H      3.385966   -2.469400    1.805574
  H      4.915460   -2.788258    0.787340

 Multiplicity           Mult            ....    1
 Number of Electrons    NEL             ....  118
 Basis Dimension        Dim             ....  294

ORBITAL ENERGIES
----------------

  NO   OCC          E(Eh)            E(eV)
   0   2.0000     -19.186273      -522.0850
   1   2.0000     -19.184638      -522.0405
   2   2.0000     -19.130091      -520.5562
   3   2.0000     -19.127819      -520.4944
   4   2.0000     -10.321684      -280.8673
   5   2.0000     -10.321567      -280.8641
   6   2.0000     -10.271480      -279.5012
   7   2.0000     -10.271403      -279.4991
   8   2.0000     -10.228253      -278.3249
   9   2.0000     -10.227866      -278.3144
  10   2.0000     -10.227166      -278.2953
  11   2.0000     -10.220900      -278.1248
  12   2.0000     -10.218304      -278.0542
  13   2.0000     -10.216635      -278.0088
  14   2.0000     -10.213932      -277.9352
  15   2.0000     -10.205252      -277.6990
  16   2.0000      -1.109503       -30.1911
  17   2.0000      -1.101998       -29.9869
  18   2.0000      -1.029178       -28.0054
  19   2.0000      -1.023400       -27.8481
  20   2.0000      -0.869507       -23.6605
  21   2.0000      -0.831641       -22.6301
  22   2.0000      -0.791316       -21.5328
  23   2.0000      -0.769123       -20.9289
  24   2.0000      -0.749939       -20.4069
  25   2.0000      -0.718693       -19.5566
  26   2.0000      -0.661891       -18.0110
  27   2.0000      -0.637819       -17.3559
  28   2.0000      -0.603648       -16.4261
  29   2.0000      -0.589511       -16.0414
  30   2.0000      -0.572169       -15.5695
  31   2.0000      -0.556865       -15.1531
  32   2.0000      -0.541473       -14.7342
  33   2.0000      -0.533394       -14.5144
  34   2.0000      -0.502563       -13.6754
  35   2.0000      -0.491974       -13.3873
  36   2.0000      -0.480382       -13.0719
  37   2.0000      -0.473396       -12.8818
  38   2.0000      -0.468258       -12.7420
  39   2.0000      -0.458546       -12.4777
  40   2.0000      -0.456491       -12.4218
  41   2.0000      -0.445945       -12.1348
  42   2.0000      -0.437461       -11.9039
  43   2.0000      -0.425997       -11.5920
  44   2.0000      -0.412673       -11.2294
  45   2.0000      -0.399466       -10.8700
  46   2.0000      -0.397834       -10.8256
  47   2.0000      -0.393769       -10.7150
  48   2.0000      -0.380764       -10.3611
  49   2.0000      -0.375098       -10.2069
  50   2.0000      -0.371351       -10.1050
  51   2.0000      -0.367516       -10.0006
  52   2.0000      -0.344144        -9.3646
  53   2.0000      -0.341342        -9.2884
  54   2.0000      -0.325667        -8.8618
  55   2.0000      -0.298287        -8.1168
  56   2.0000      -0.294078        -8.0023
  57   2.0000      -0.280552        -7.6342
  58   2.0000      -0.273815        -7.4509
  59   0.0000      -0.015989        -0.4351
  60   0.0000      -0.006590        -0.1793
  61   0.0000      -0.003891        -0.1059
  62   0.0000       0.021494         0.5849
  63   0.0000       0.025059         0.6819

MULLIKEN ATOMIC CHARGES
-----------------------
   0 C :    0.035081
   1 C :    0.159695
   2 O :   -0.162972
   3 O :   -0.285208
   4 C :    0.171552
   5 C :   -0.127808
   6 C :    0.090662
   7 C :    0.113047
   8 C :   -0.078704
   9 C :    0.195917
  10 O :   -0.279888
  11 C :    0.206369
  12 O :   -0.154553
  13 C :   -0.101431
  14 C :    0.023833
  15 C :   -0.022909
  16 H :    0.038510
  17 H :    0.037209
  18 H :    0.010829
  19 H :    0.012429
  20 H :    0.007814
  21 H :    0.004336
  22 H :    0.003689
  23 H :    0.010432
  24 H :    0.004996
  25 H :    0.008514
  26 H :    0.024220
  27 H :    0.008592
  28 H :    0.015027
  29 H :    0.030720
Sum of atomic charges:   -0.0000000

LOEWDIN ATOMIC CHARGES
----------------------
   0 C :   -0.056642
   1 C :    0.082928
   2 O :   -0.142323
   3 O :   -0.090886
   4 C :    0.071821
   5 C :   -0.037503
   6 C :   -0.025994
   7 C :   -0.025526
   8 C :   -0.027690
   9 C :    0.075229
  10 O :   -0.085949
  11 C :    0.085407
  12 O :   -0.137777
  13 C :   -0.065571
  14 C :   -0.010167
  15 C :   -0.045314
  16 H :    0.040460
  17 H :    0.043489
  18 H :    0.026763
  19 H :    0.033375
  20 H :    0.031318
  21 H :    0.023027
  22 H :    0.023839
  23 H :    0.032769
  24 H :    0.031402
  25 H :    0.027460
  26 H :    0.039697
  27 H :    0.031730
  28 H :    0.021209
  29 H :    0.029417

  Mayer bond orders larger than 0.100000
B(  0-C ,  1-C ) :   0.9596 B(  0-C ,  5-C ) :   1.0280 B(  0-C , 16-H ) :   0.9206
B(  0-C , 17-H ) :   0.9283 B(  1-C ,  2-O ) :   2.2147 B(  1-C ,  3-O ) :   1.0932
B(  3-O ,  4-C ) :   0.9538 B(  4-C ,  5-C ) :   1.0162 B(  4-C ,  9-C ) :   0.9699
B(  4-C , 18-H ) :   0.9115 B(  5-C ,  6-C ) :   1.0598 B(  5-C , 19-H ) :   0.9092
B(  6-C ,  7-C ) :   1.0710 B(  6-C , 20-H ) :   0.9224 B(  6-C , 21-H ) :   0.9326
B(  7-C ,  8-C ) :   1.0626 B(  7-C , 22-H ) :   0.9316 B(  7-C , 23-H ) :   0.9158
B(  8-C ,  9-C ) :   1.0038 B(  8-C , 13-C ) :   0.9721 B(  8-C , 24-H ) :   0.9065
B(  9-C , 10-O ) :   0.9477 B(  9-C , 25-H ) :   0.9130 B( 10-O , 11-C ) :   1.1067
B( 11-C , 12-O ) :   2.2382 B( 11-C , 13-C ) :   0.8793 B( 13-C , 14-C ) :   1.0249
B( 13-C , 26-H ) :   0.8921 B( 14-C , 15-C ) :   1.9966 B( 14-C , 27-H ) :   0.9605
B( 15-C , 28-H ) :   0.9549 B( 15-C , 29-H ) :   0.9462

Dispersion correction           -0.062549592
FINAL SINGLE POINT ENERGY      -766.105733581610

DIPOLE MOMENT
-------------
                                X             Y             Z
Electronic contribution:     -3.07076      14.57318      -1.09067
Nuclear contribution   :      3.21576     -17.21738       1.14308
                        -----------------------------------------
Total Dipole Moment    :      0.14500      -2.64420       0.05241
                        -----------------------------------------
Magnitude (a.u.)       :      2.64869
Magnitude (Debye)      :      6.73243

Rotational constants in cm-1:     0.035765     0.012384     0.009977
Rotational constants in MHz :  1072.222055   371.267707   299.096019

                             ****ORCA TERMINATED NORMALLY****
TOTAL RUN TIME: 0 days 0 hours 29 minutes 37 seconds 261 msec
