                         Program Version 4.2.0 -  RELEASE  -
|  1> # ORCA input file
|  2> # SCF done        -37.805674033297          0.000424234576
|  3> ! B3LYP/G D3BJ Opt RIJCOSX def2-SVP def2/J
|  4> * xyz 0 1
|  5>    C       -1.49001         1.24027        -0.18539
|  6>    S       -2.73239         0.07361        -0.11296
|  7>    C       -1.60256        -1.23136         0.09296
|  8>    C       -0.31160        -0.74344         0.09725
|  9>    C       -0.25717         0.66317        -0.06055
| 10>    O        0.86504         1.43675        -0.08701
| 11>    C        2.12379         0.99094         0.01140
| 12>    O        3.02720         1.77716        -0.00400
| 13>    C        2.44360        -0.49623         0.13992
| 14>    O        3.58029        -0.87427         0.17918
| 15>    S        1.15156        -1.70508         0.25450
| 16>    C       -2.13143        -2.56305         0.22470
| 17>    C       -1.43864        -3.67726         0.44542
| 18>    H       -1.70376         2.28125        -0.31296
| 19>    H       -3.20888        -2.61051         0.13385
| 20>    H       -0.36877        -3.68743         0.55072
| 21>    H       -1.93958        -4.62542         0.52997
| 22> *
| 23>
| 24>                          ****END OF INPUT****
 Total Charge           Charge          ....    0
 Multiplicity           Mult            ....    1
 Number of Electrons    NEL             ....  108
Dispersion correction           -0.043608152
FINAL SINGLE POINT ENERGY     -1328.693287331151
Dispersion correction            ... done
Dispersion correction           -0.043352567
FINAL SINGLE POINT ENERGY     -1328.695535502165
Dispersion correction            ... done
Dispersion correction           -0.043300491
FINAL SINGLE POINT ENERGY     -1328.695703721930
Dispersion correction            ... done
FINAL SINGLE POINT ENERGY     -1328.695268180126
FINAL SINGLE POINT ENERGY     -1328.695771596506
FINAL SINGLE POINT ENERGY     -1328.695793881723
FINAL SINGLE POINT ENERGY     -1328.695806431956
FINAL SINGLE POINT ENERGY     -1328.695789441326
FINAL SINGLE POINT ENERGY     -1328.695714545482
FINAL SINGLE POINT ENERGY     -1328.695730408496
FINAL SINGLE POINT ENERGY     -1328.695733249458
Dispersion correction            ... done
Dispersion correction           -0.043323756
FINAL SINGLE POINT ENERGY     -1328.695724532214
Dispersion correction            ... done
Dispersion correction           -0.043323415
FINAL SINGLE POINT ENERGY     -1328.695716965467
Dispersion correction            ... done
                    ***********************HURRAY********************

CARTESIAN COORDINATES (ANGSTROEM)
---------------------------------
  C     -1.494381    1.262525   -0.189777
  S     -2.736894    0.082541   -0.054512
  C     -1.594499   -1.230310    0.109212
  C     -0.294502   -0.739068    0.053650
  C     -0.254612    0.676953   -0.120635
  O      0.877611    1.436282   -0.220544
  C      2.151953    1.020790   -0.018928
  O      3.049061    1.805160   -0.058778
  C      2.454955   -0.476899    0.238372
  O      3.588111   -0.818289    0.427049
  S      1.163285   -1.714705    0.202936
  C     -2.130627   -2.569861    0.286229
  C     -1.459612   -3.730735    0.377017
  H     -1.710108    2.319663   -0.326014
  H     -3.223939   -2.605396    0.353159
  H     -0.372172   -3.804714    0.317564
  H     -2.006940   -4.664837    0.520999

 Multiplicity           Mult            ....    1
 Number of Electrons    NEL             ....  108
 Basis Dimension        Dim             ....  210

ORBITAL ENERGIES
----------------

  NO   OCC          E(Eh)            E(eV)
   0   2.0000     -88.906292     -2419.2632
   1   2.0000     -88.903380     -2419.1840
   2   2.0000     -19.228686      -523.2391
   3   2.0000     -19.169615      -521.6317
   4   2.0000     -19.157841      -521.3113
   5   2.0000     -10.355945      -281.7996
   6   2.0000     -10.331753      -281.1413
   7   2.0000     -10.293749      -280.1072
   8   2.0000     -10.256547      -279.0948
   9   2.0000     -10.253836      -279.0211
  10   2.0000     -10.240880      -278.6685
  11   2.0000     -10.227973      -278.3173
  12   2.0000     -10.212322      -277.8914
  13   2.0000      -8.001162      -217.7227
  14   2.0000      -7.998708      -217.6559
  15   2.0000      -5.969213      -162.4305
  16   2.0000      -5.967209      -162.3760
  17   2.0000      -5.965368      -162.3259
  18   2.0000      -5.963091      -162.2639
  19   2.0000      -5.962336      -162.2434
  20   2.0000      -5.958821      -162.1478
  21   2.0000      -1.144357       -31.1395
  22   2.0000      -1.085264       -29.5315
  23   2.0000      -1.054538       -28.6954
  24   2.0000      -0.922029       -25.0897
  25   2.0000      -0.841171       -22.8894
  26   2.0000      -0.811206       -22.0740
  27   2.0000      -0.771380       -20.9903
  28   2.0000      -0.733346       -19.9554
  29   2.0000      -0.687535       -18.7088
  30   2.0000      -0.663719       -18.0607
  31   2.0000      -0.625193       -17.0124
  32   2.0000      -0.583782       -15.8855
  33   2.0000      -0.568491       -15.4694
  34   2.0000      -0.514518       -14.0008
  35   2.0000      -0.510206       -13.8834
  36   2.0000      -0.498802       -13.5731
  37   2.0000      -0.482931       -13.1412
  38   2.0000      -0.475132       -12.9290
  39   2.0000      -0.464217       -12.6320
  40   2.0000      -0.446060       -12.1379
  41   2.0000      -0.430560       -11.7161
  42   2.0000      -0.426944       -11.6177
  43   2.0000      -0.419698       -11.4206
  44   2.0000      -0.405157       -11.0249
  45   2.0000      -0.387147       -10.5348
  46   2.0000      -0.376699       -10.2505
  47   2.0000      -0.372097       -10.1253
  48   2.0000      -0.337142        -9.1741
  49   2.0000      -0.329438        -8.9645
  50   2.0000      -0.320055        -8.7091
  51   2.0000      -0.288144        -7.8408
  52   2.0000      -0.258393        -7.0312
  53   2.0000      -0.240719        -6.5503
  54   0.0000      -0.098830        -2.6893
  55   0.0000      -0.070863        -1.9283
  56   0.0000      -0.008844        -0.2407
  57   0.0000      -0.003198        -0.0870
  58   0.0000       0.006131         0.1668

MULLIKEN ATOMIC CHARGES
-----------------------
   0 C :   -0.115584
   1 S :    0.145894
   2 C :   -0.180245
   3 C :   -0.031472
   4 C :    0.197664
   5 O :   -0.215702
   6 C :    0.221740
   7 O :   -0.116567
   8 C :    0.005949
   9 O :   -0.129271
  10 S :    0.111451
  11 C :    0.039961
  12 C :   -0.046005
  13 H :    0.037825
  14 H :   -0.000148
  15 H :    0.040158
  16 H :    0.034352
Sum of atomic charges:   -0.0000000

LOEWDIN ATOMIC CHARGES
----------------------
   0 C :   -0.204059
   1 S :    0.470376
   2 C :   -0.188717
   3 C :   -0.227036
   4 C :   -0.002678
   5 O :   -0.031100
   6 C :    0.051479
   7 O :   -0.087154
   8 C :   -0.110904
   9 O :   -0.096548
  10 S :    0.396090
  11 C :   -0.048778
  12 C :   -0.041507
  13 H :    0.038914
  14 H :    0.032878
  15 H :    0.015657
  16 H :    0.033089

  Mayer bond orders larger than 0.100000
B(  0-C ,  1-S ) :   1.1437 B(  0-C ,  4-C ) :   1.5463 B(  0-C , 13-H ) :   0.9644
B(  1-S ,  2-C ) :   1.1578 B(  2-C ,  3-C ) :   1.5049 B(  2-C , 11-C ) :   1.1285
B(  3-C ,  4-C ) :   1.2333 B(  3-C , 10-S ) :   0.9840 B(  4-C ,  5-O ) :   1.0401
B(  5-O ,  6-C ) :   1.0733 B(  6-C ,  7-O ) :   2.2156 B(  6-C ,  8-C ) :   0.7896
B(  8-C ,  9-O ) :   2.1346 B(  8-C , 10-S ) :   1.0315 B(  9-O , 10-S ) :   0.1510
B( 11-C , 12-C ) :   1.9050 B( 11-C , 14-H ) :   0.9447 B( 12-C , 15-H ) :   0.9527
B( 12-C , 16-H ) :   0.9405

Dispersion correction           -0.043323353
FINAL SINGLE POINT ENERGY     -1328.695712748639

DIPOLE MOMENT
-------------
                                X             Y             Z
Electronic contribution:      5.33048       5.94026      -0.54902
Nuclear contribution   :     -7.24913      -6.51205       0.51367
                        -----------------------------------------
Total Dipole Moment    :     -1.91866      -0.57179      -0.03535
                        -----------------------------------------
Magnitude (a.u.)       :      2.00236
Magnitude (Debye)      :      5.08959

Rotational constants in cm-1:     0.036421     0.017059     0.011633
Rotational constants in MHz :  1091.868397   511.413233   348.754078

                             ****ORCA TERMINATED NORMALLY****
TOTAL RUN TIME: 0 days 0 hours 14 minutes 16 seconds 775 msec
