                         Program Version 4.2.0 -  RELEASE  -
|  1> # ORCA input file
|  2> # SCF done        -25.207874114150          0.000752462051
|  3> ! B3LYP/G D3BJ Opt RIJCOSX def2-SVP def2/J
|  4> * xyz 0 1
|  5>    C       -0.37130         1.34720        -0.13459
|  6>    O       -1.29024         0.37098        -0.15040
|  7>    C       -0.63245        -0.79480        -0.02045
|  8>    C        0.70388        -0.58326         0.08020
|  9>    C        0.89373         0.83093         0.00560
| 10>    C        2.15949         1.51469         0.06949
| 11>    C        2.32607         2.84352        -0.00676
| 12>    C        3.61110         3.48825         0.06253
| 13>    C        3.78080         4.80639        -0.01473
| 14>    H       -0.72672         2.35387        -0.22856
| 15>    H       -1.21974        -1.69182        -0.01336
| 16>    H        1.46992        -1.32311         0.19256
| 17>    H        3.02467         0.87476         0.18905
| 18>    H        1.46702         3.48931        -0.12641
| 19>    H        4.46826         2.83750         0.18341
| 20>    H        2.94351         5.47425        -0.13710
| 21>    H        4.75420         5.26250         0.03785
| 22> *
| 23>
| 24>                          ****END OF INPUT****
 Total Charge           Charge          ....    0
 Multiplicity           Mult            ....    1
 Number of Electrons    NEL             ....   64
Dispersion correction           -0.026436071
FINAL SINGLE POINT ENERGY      -384.575382370949
Dispersion correction            ... done
Dispersion correction           -0.026306452
FINAL SINGLE POINT ENERGY      -384.578077877785
Dispersion correction            ... done
Dispersion correction           -0.026277101
FINAL SINGLE POINT ENERGY      -384.578159685964
Dispersion correction            ... done
FINAL SINGLE POINT ENERGY      -384.578169796201
Dispersion correction            ... done
Dispersion correction           -0.026264571
FINAL SINGLE POINT ENERGY      -384.578170100139
Dispersion correction            ... done
Dispersion correction           -0.026267718
FINAL SINGLE POINT ENERGY      -384.578169747653
Dispersion correction            ... done
                    ***********************HURRAY********************

CARTESIAN COORDINATES (ANGSTROEM)
---------------------------------
  C     -0.419307    1.321933   -0.152596
  O     -1.319525    0.310229   -0.164623
  C     -0.633608   -0.853084   -0.014497
  C      0.700789   -0.600167    0.089697
  C      0.859985    0.833430    0.000690
  C      2.126497    1.545930    0.060143
  C      2.316006    2.883554    0.005548
  C      3.622989    3.509240    0.057792
  C      3.845964    4.833498   -0.007268
  H     -0.823859    2.323447   -0.269072
  H     -1.229561   -1.761238    0.002766
  H      1.495963   -1.330413    0.223396
  H      3.012861    0.909275    0.160579
  H      1.452461    3.553044   -0.088557
  H      4.478430    2.829796    0.157779
  H      3.020319    5.544587   -0.109394
  H      4.855798    5.248098    0.035946

 Multiplicity           Mult            ....    1
 Number of Electrons    NEL             ....   64
 Basis Dimension        Dim             ....  166

ORBITAL ENERGIES
----------------

  NO   OCC          E(Eh)            E(eV)
   0   2.0000     -19.206583      -522.6377
   1   2.0000     -10.240928      -278.6698
   2   2.0000     -10.240778      -278.6657
   3   2.0000     -10.199480      -277.5420
   4   2.0000     -10.197559      -277.4897
   5   2.0000     -10.194790      -277.4143
   6   2.0000     -10.193512      -277.3796
   7   2.0000     -10.191199      -277.3166
   8   2.0000     -10.186773      -277.1962
   9   2.0000      -1.108930       -30.1755
  10   2.0000      -0.822330       -22.3767
  11   2.0000      -0.788874       -21.4664
  12   2.0000      -0.750941       -20.4341
  13   2.0000      -0.720717       -19.6117
  14   2.0000      -0.628834       -17.1114
  15   2.0000      -0.590790       -16.0762
  16   2.0000      -0.568558       -15.4713
  17   2.0000      -0.547946       -14.9104
  18   2.0000      -0.523615       -14.2483
  19   2.0000      -0.466867       -12.7041
  20   2.0000      -0.460260       -12.5243
  21   2.0000      -0.456868       -12.4320
  22   2.0000      -0.439924       -11.9709
  23   2.0000      -0.413203       -11.2438
  24   2.0000      -0.396730       -10.7956
  25   2.0000      -0.391031       -10.6405
  26   2.0000      -0.364385        -9.9154
  27   2.0000      -0.350499        -9.5376
  28   2.0000      -0.344436        -9.3726
  29   2.0000      -0.296491        -8.0679
  30   2.0000      -0.251548        -6.8450
  31   2.0000      -0.210541        -5.7291
  32   0.0000      -0.049445        -1.3455
  33   0.0000       0.011015         0.2997
  34   0.0000       0.055018         1.4971
  35   0.0000       0.065686         1.7874
  36   0.0000       0.079326         2.1586

MULLIKEN ATOMIC CHARGES
-----------------------
   0 C :    0.073518
   1 O :   -0.203737
   2 C :    0.138608
   3 C :   -0.044148
   4 C :    0.048065
   5 C :    0.022490
   6 C :    0.012639
   7 C :   -0.000733
   8 C :   -0.027598
   9 H :    0.004511
  10 H :    0.009821
  11 H :   -0.011804
  12 H :   -0.024687
  13 H :   -0.019647
  14 H :   -0.010067
  15 H :    0.013206
  16 H :    0.019565
Sum of atomic charges:   -0.0000000

LOEWDIN ATOMIC CHARGES
----------------------
   0 C :    0.037379
   1 O :    0.008890
   2 C :    0.031733
   3 C :   -0.069954
   4 C :   -0.076682
   5 C :   -0.019902
   6 C :   -0.027515
   7 C :   -0.027567
   8 C :   -0.054743
   9 H :    0.021289
  10 H :    0.023007
  11 H :    0.030352
  12 H :    0.027048
  13 H :    0.023973
  14 H :    0.027415
  15 H :    0.021134
  16 H :    0.024141

  Mayer bond orders larger than 0.100000
B(  0-C ,  1-O ) :   1.1530 B(  0-C ,  4-C ) :   1.4860 B(  0-C ,  9-H ) :   1.0008
B(  1-O ,  2-C ) :   1.1298 B(  2-C ,  3-C ) :   1.5554 B(  2-C , 10-H ) :   0.9988
B(  3-C ,  4-C ) :   1.2074 B(  3-C , 11-H ) :   1.0020 B(  4-C ,  5-C ) :   1.0796
B(  5-C ,  6-C ) :   1.7196 B(  5-C ,  8-C ) :   0.1174 B(  5-C , 12-H ) :   0.9687
B(  6-C ,  7-C ) :   1.1258 B(  6-C , 13-H ) :   0.9668 B(  7-C ,  8-C ) :   1.8772
B(  7-C , 14-H ) :   0.9687 B(  8-C , 15-H ) :   0.9526 B(  8-C , 16-H ) :   0.9484

Dispersion correction           -0.026269126
FINAL SINGLE POINT ENERGY      -384.578172120026

DIPOLE MOMENT
-------------
                                X             Y             Z
Electronic contribution:     -6.11651      -4.89993      -0.21095
Nuclear contribution   :      6.19644       4.71794       0.23199
                        -----------------------------------------
Total Dipole Moment    :      0.07993      -0.18199       0.02104
                        -----------------------------------------
Magnitude (a.u.)       :      0.19988
Magnitude (Debye)      :      0.50806

Rotational constants in cm-1:     0.232966     0.022880     0.020834
Rotational constants in MHz :  6984.140240   685.919687   624.594386

                             ****ORCA TERMINATED NORMALLY****
TOTAL RUN TIME: 0 days 0 hours 4 minutes 4 seconds 471 msec
