                         Program Version 4.2.0 -  RELEASE  -
|  1> # ORCA input file
|  2> # SCF done        -51.127190497588          0.000882067152
|  3> ! B3LYP/G D3BJ Opt RIJCOSX def2-SVP def2/J
|  4> * xyz 0 1
|  5>    C        1.58632        -1.38263        -0.04345
|  6>    S        2.79373        -0.24243        -0.45005
|  7>    C        1.63396         1.05554        -0.47006
|  8>    C        0.37364         0.58294        -0.19247
|  9>    C        0.35135        -0.81427         0.05445
| 10>    C       -0.90910        -1.58273         0.34460
| 11>    C       -1.19248        -2.53147        -0.82145
| 12>    F       -1.24236        -1.92067        -2.01332
| 13>    F       -0.25347        -3.48480        -0.92904
| 14>    F       -2.36083        -3.17667        -0.67863
| 15>    C       -2.09892        -0.65077         0.60587
| 16>    C       -2.12260         0.52681        -0.36479
| 17>    C       -0.88282         1.40875        -0.15604
| 18>    C       -0.96664         2.05737         1.13641
| 19>    N       -1.03673         2.54201         2.16940
| 20>    C        2.11281         2.37995        -0.78840
| 21>    C        1.55288         3.53690        -0.44689
| 22>    H        1.85100        -2.41188         0.09480
| 23>    H       -0.75695        -2.23825         1.21044
| 24>    H       -2.01866        -0.26828         1.62596
| 25>    H       -3.02885        -1.21710         0.53266
| 26>    H       -3.02268         1.12025        -0.19294
| 27>    H       -2.13893         0.17627        -1.39717
| 28>    H       -0.83642         2.18825        -0.92635
| 29>    H        3.04402         2.38663        -1.34132
| 30>    H        0.66878         3.60922         0.16055
| 31>    H        2.00152         4.46894        -0.74417
| 32> *
| 33>
| 34>                          ****END OF INPUT****
 Total Charge           Charge          ....    0
 Multiplicity           Mult            ....    1
 Number of Electrons    NEL             ....  132
Dispersion correction           -0.064245786
FINAL SINGLE POINT ENERGY     -1215.089658775579
Dispersion correction            ... done
Dispersion correction           -0.063531969
FINAL SINGLE POINT ENERGY     -1215.093869914797
Dispersion correction            ... done
Dispersion correction           -0.063386615
FINAL SINGLE POINT ENERGY     -1215.094072678034
Dispersion correction            ... done
FINAL SINGLE POINT ENERGY     -1215.094042339422
FINAL SINGLE POINT ENERGY     -1215.094058533498
FINAL SINGLE POINT ENERGY     -1215.094069584434
Dispersion correction            ... done
Dispersion correction           -0.063314982
FINAL SINGLE POINT ENERGY     -1215.094061752400
Dispersion correction            ... done
Dispersion correction           -0.063305450
FINAL SINGLE POINT ENERGY     -1215.094047047355
Dispersion correction            ... done
                    ***********************HURRAY********************

CARTESIAN COORDINATES (ANGSTROEM)
---------------------------------
  C      1.607053   -1.401517   -0.070482
  S      2.811998   -0.242503   -0.468889
  C      1.655669    1.065614   -0.469306
  C      0.387329    0.584052   -0.174883
  C      0.358827   -0.832558    0.048997
  C     -0.919423   -1.601708    0.319865
  C     -1.202270   -2.607367   -0.794291
  F     -1.347158   -2.011262   -1.993108
  F     -0.215333   -3.515216   -0.907703
  F     -2.333206   -3.295468   -0.554767
  C     -2.128931   -0.670792    0.546632
  C     -2.123718    0.552600   -0.367454
  C     -0.873288    1.422420   -0.115927
  C     -0.981460    2.101270    1.186906
  N     -1.073704    2.614679    2.221622
  C      2.130275    2.405221   -0.796020
  C      1.585958    3.581359   -0.439652
  H      1.870870   -2.451169    0.036325
  H     -0.783954   -2.228239    1.216240
  H     -2.117766   -0.331920    1.594641
  H     -3.056121   -1.244995    0.411491
  H     -3.027745    1.155089   -0.193391
  H     -2.123155    0.242676   -1.422641
  H     -0.809559    2.216986   -0.879012
  H      3.049398    2.428097   -1.392820
  H      0.715346    3.668517    0.211153
  H      2.045637    4.514013   -0.774926

 Multiplicity           Mult            ....    1
 Number of Electrons    NEL             ....  132
 Basis Dimension        Dim             ....  292

ORBITAL ENERGIES
----------------

  NO   OCC          E(Eh)            E(eV)
   0   2.0000     -88.888723     -2418.7851
   1   2.0000     -24.727576      -672.8715
   2   2.0000     -24.727490      -672.8692
   3   2.0000     -24.727098      -672.8585
   4   2.0000     -14.330987      -389.9660
   5   2.0000     -10.438288      -284.0403
   6   2.0000     -10.252894      -278.9954
   7   2.0000     -10.236127      -278.5392
   8   2.0000     -10.234273      -278.4887
   9   2.0000     -10.230939      -278.3980
  10   2.0000     -10.226449      -278.2758
  11   2.0000     -10.220956      -278.1264
  12   2.0000     -10.219301      -278.0813
  13   2.0000     -10.217173      -278.0234
  14   2.0000     -10.216874      -278.0153
  15   2.0000     -10.214435      -277.9489
  16   2.0000     -10.202331      -277.6195
  17   2.0000      -7.984024      -217.2563
  18   2.0000      -5.951950      -161.9608
  19   2.0000      -5.948023      -161.8539
  20   2.0000      -5.945498      -161.7852
  21   2.0000      -1.305857       -35.5342
  22   2.0000      -1.214059       -33.0362
  23   2.0000      -1.213126       -33.0108
  24   2.0000      -0.913799       -24.8657
  25   2.0000      -0.898816       -24.4580
  26   2.0000      -0.852329       -23.1930
  27   2.0000      -0.819183       -22.2911
  28   2.0000      -0.787961       -21.4415
  29   2.0000      -0.755246       -20.5513
  30   2.0000      -0.718974       -19.5643
  31   2.0000      -0.709274       -19.3003
  32   2.0000      -0.665456       -18.1080
  33   2.0000      -0.632983       -17.2243
  34   2.0000      -0.609175       -16.5765
  35   2.0000      -0.603586       -16.4244
  36   2.0000      -0.601738       -16.3741
  37   2.0000      -0.589678       -16.0460
  38   2.0000      -0.557433       -15.1685
  39   2.0000      -0.543239       -14.7823
  40   2.0000      -0.509267       -13.8579
  41   2.0000      -0.499005       -13.5786
  42   2.0000      -0.482047       -13.1172
  43   2.0000      -0.478444       -13.0191
  44   2.0000      -0.474423       -12.9097
  45   2.0000      -0.467301       -12.7159
  46   2.0000      -0.457656       -12.4535
  47   2.0000      -0.453245       -12.3334
  48   2.0000      -0.436858       -11.8875
  49   2.0000      -0.433069       -11.7844
  50   2.0000      -0.427186       -11.6243
  51   2.0000      -0.421099       -11.4587
  52   2.0000      -0.417345       -11.3565
  53   2.0000      -0.408552       -11.1173
  54   2.0000      -0.392721       -10.6865
  55   2.0000      -0.386843       -10.5265
  56   2.0000      -0.370522       -10.0824
  57   2.0000      -0.365797        -9.9538
  58   2.0000      -0.362495        -9.8640
  59   2.0000      -0.359275        -9.7764
  60   2.0000      -0.353322        -9.6144
  61   2.0000      -0.333623        -9.0783
  62   2.0000      -0.332379        -9.0445
  63   2.0000      -0.311197        -8.4681
  64   2.0000      -0.267661        -7.2834
  65   2.0000      -0.235736        -6.4147
  66   0.0000      -0.059922        -1.6306
  67   0.0000      -0.003227        -0.0878
  68   0.0000       0.018356         0.4995
  69   0.0000       0.022407         0.6097
  70   0.0000       0.028640         0.7793

MULLIKEN ATOMIC CHARGES
-----------------------
   0 C :   -0.114810
   1 S :    0.131265
   2 C :   -0.164737
   3 C :    0.032266
   4 C :   -0.015312
   5 C :   -0.056953
   6 C :    0.514275
   7 F :   -0.174589
   8 F :   -0.170326
   9 F :   -0.171674
  10 C :    0.046630
  11 C :    0.085433
  12 C :   -0.011747
  13 C :   -0.225577
  14 N :    0.058706
  15 C :    0.014476
  16 C :   -0.037038
  17 H :    0.027385
  18 H :    0.030899
  19 H :    0.025017
  20 H :    0.022334
  21 H :    0.019766
  22 H :    0.021450
  23 H :    0.040088
  24 H :    0.002686
  25 H :    0.041266
  26 H :    0.028822
Sum of atomic charges:   -0.0000000

LOEWDIN ATOMIC CHARGES
----------------------
   0 C :   -0.184804
   1 S :    0.456782
   2 C :   -0.173437
   3 C :   -0.049827
   4 C :   -0.066332
   5 C :   -0.055954
   6 C :    0.173689
   7 F :   -0.063955
   8 F :   -0.061795
   9 F :   -0.063298
  10 C :   -0.020160
  11 C :   -0.008762
  12 C :   -0.040677
  13 C :   -0.031014
  14 N :   -0.077620
  15 C :   -0.045706
  16 C :   -0.038616
  17 H :    0.026343
  18 H :    0.049280
  19 H :    0.034989
  20 H :    0.031266
  21 H :    0.033770
  22 H :    0.028178
  23 H :    0.057770
  24 H :    0.031530
  25 H :    0.028240
  26 H :    0.030122

  Mayer bond orders larger than 0.100000
B(  0-C ,  1-S ) :   1.1709 B(  0-C ,  4-C ) :   1.5404 B(  0-C , 17-H ) :   0.9600
B(  1-S ,  2-C ) :   1.1436 B(  2-C ,  3-C ) :   1.5086 B(  2-C , 15-C ) :   1.0916
B(  3-C ,  4-C ) :   1.3141 B(  3-C , 12-C ) :   1.0211 B(  4-C ,  5-C ) :   0.9573
B(  5-C ,  6-C ) :   0.9829 B(  5-C , 10-C ) :   1.0525 B(  5-C , 18-H ) :   0.8817
B(  6-C ,  7-F ) :   1.1236 B(  6-C ,  8-F ) :   1.1247 B(  6-C ,  9-F ) :   1.1259
B( 10-C , 11-C ) :   1.0694 B( 10-C , 19-H ) :   0.9292 B( 10-C , 20-H ) :   0.9286
B( 11-C , 12-C ) :   1.0708 B( 11-C , 21-H ) :   0.9292 B( 11-C , 22-H ) :   0.9323
B( 12-C , 13-C ) :   1.0304 B( 12-C , 23-H ) :   0.8508 B( 13-C , 14-N ) :   3.0447
B( 15-C , 16-C ) :   1.9164 B( 15-C , 24-H ) :   0.9443 B( 16-C , 25-H ) :   0.9521
B( 16-C , 26-H ) :   0.9420

Dispersion correction           -0.063302463
FINAL SINGLE POINT ENERGY     -1215.094042924508

DIPOLE MOMENT
-------------
                                X             Y             Z
Electronic contribution:      0.38118     -17.82049      -4.43117
Nuclear contribution   :     -0.21712      17.60182       3.75217
                        -----------------------------------------
Total Dipole Moment    :      0.16406      -0.21868      -0.67900
                        -----------------------------------------
Magnitude (a.u.)       :      0.73197
Magnitude (Debye)      :      1.86051

Rotational constants in cm-1:     0.021706     0.011561     0.008586
Rotational constants in MHz :   650.732261   346.575681   257.392555

                             ****ORCA TERMINATED NORMALLY****
TOTAL RUN TIME: 0 days 0 hours 20 minutes 14 seconds 874 msec
