                         Program Version 4.2.0 -  RELEASE  -
|  1> # ORCA input file
|  2> # SCF done        -43.966417559181          0.000373577173
|  3> ! B3LYP/G D3BJ Opt RIJCOSX def2-SVP def2/J
|  4> * xyz 0 1
|  5>    C       -1.13793         1.48126        -0.17816
|  6>    C       -2.32592         0.80123        -0.18262
|  7>    C       -2.35885        -0.59691        -0.12928
|  8>    C       -1.20511        -1.35191        -0.06837
|  9>    C        0.03948        -0.65949        -0.05602
| 10>    C        0.06739         0.75818        -0.11439
| 11>    N        1.24523         1.41635        -0.10794
| 12>    C        2.35608         0.72768        -0.05057
| 13>    C        3.62544         1.52696         0.00033
| 14>    C        4.03177         1.78598         1.45304
| 15>    C        2.33028        -0.69628         0.00555
| 16>    C        3.57061        -1.54166         0.01463
| 17>    C        4.00426        -1.85245        -1.42000
| 18>    N        1.19573        -1.34868         0.00334
| 19>    C       -1.18109        -2.80550        -0.01623
| 20>    C       -2.22677        -3.61787        -0.12332
| 21>    H       -1.09159         2.55807        -0.22031
| 22>    H       -3.25883         1.34459        -0.22798
| 23>    H       -3.31920        -1.08942        -0.13251
| 24>    H        3.43899         2.48309        -0.49058
| 25>    H        4.42899         1.01135        -0.52579
| 26>    H        3.24284         2.33051         1.96608
| 27>    H        4.94347         2.37777         1.48811
| 28>    H        4.20380         0.85181         1.98413
| 29>    H        3.33746        -2.47770         0.52436
| 30>    H        4.37887        -1.04231         0.54830
| 31>    H        3.20691        -2.37549        -1.94251
| 32>    H        4.89104        -2.48192        -1.41708
| 33>    H        4.22908        -0.93836        -1.96613
| 34>    H       -0.18876        -3.21615         0.11042
| 35>    H       -3.23367        -3.26212        -0.26514
| 36>    H       -2.10908        -4.68691        -0.07646
| 37> *
| 38>
| 39>                          ****END OF INPUT****
 Total Charge           Charge          ....    0
 Multiplicity           Mult            ....    1
 Number of Electrons    NEL             ....  114
Dispersion correction           -0.065215309
FINAL SINGLE POINT ENERGY      -652.221047897924
Dispersion correction            ... done
Dispersion correction           -0.064575930
FINAL SINGLE POINT ENERGY      -652.224994270939
Dispersion correction            ... done
Dispersion correction           -0.064454913
FINAL SINGLE POINT ENERGY      -652.225100729800
Dispersion correction            ... done
FINAL SINGLE POINT ENERGY      -652.225103227488
FINAL SINGLE POINT ENERGY      -652.225085128537
Dispersion correction            ... done
Dispersion correction           -0.064372065
FINAL SINGLE POINT ENERGY      -652.225073991610
Dispersion correction            ... done
Dispersion correction           -0.064374539
FINAL SINGLE POINT ENERGY      -652.225071809399
Dispersion correction            ... done
                    ***********************HURRAY********************

CARTESIAN COORDINATES (ANGSTROEM)
---------------------------------
  C     -1.137914    1.490805   -0.155042
  C     -2.340664    0.814306   -0.173612
  C     -2.376843   -0.596580   -0.147398
  C     -1.218298   -1.364874   -0.103948
  C      0.040974   -0.672068   -0.086079
  C      0.072817    0.757019   -0.107979
  N      1.258982    1.417822   -0.081455
  C      2.375864    0.725074   -0.040708
  C      3.658401    1.520972    0.048315
  C      4.003961    1.881366    1.500663
  C      2.348130   -0.718367   -0.021764
  C      3.605860   -1.556666   -0.036440
  C      4.047374   -1.899266   -1.467816
  N      1.204562   -1.368402   -0.046879
  C     -1.219793   -2.833736   -0.074345
  C     -2.294152   -3.635538   -0.067256
  H     -1.073509    2.580346   -0.174881
  H     -3.280511    1.370002   -0.210443
  H     -3.348063   -1.094406   -0.164043
  H      3.502465    2.444199   -0.528568
  H      4.491243    0.976126   -0.420129
  H      3.169354    2.431347    1.962261
  H      4.903341    2.514596    1.553078
  H      4.188243    0.979882    2.106083
  H      3.380410   -2.484637    0.509397
  H      4.419162   -1.047130    0.501655
  H      3.236977   -2.420036   -2.000883
  H      4.933635   -2.552776   -1.467459
  H      4.297471   -0.991504   -2.039328
  H     -0.222088   -3.277436   -0.052942
  H     -3.319364   -3.254687   -0.082455
  H     -2.177103   -4.722054   -0.042697

 Multiplicity           Mult            ....    1
 Number of Electrons    NEL             ....  114
 Basis Dimension        Dim             ....  304

ORBITAL ENERGIES
----------------

  NO   OCC          E(Eh)            E(eV)
   0   2.0000     -14.332494      -390.0070
   1   2.0000     -14.330618      -389.9559
   2   2.0000     -10.235993      -278.5355
   3   2.0000     -10.234884      -278.5054
   4   2.0000     -10.227973      -278.3173
   5   2.0000     -10.226361      -278.2734
   6   2.0000     -10.202806      -277.6325
   7   2.0000     -10.200449      -277.5683
   8   2.0000     -10.198235      -277.5081
   9   2.0000     -10.194926      -277.4180
  10   2.0000     -10.194506      -277.4066
  11   2.0000     -10.194047      -277.3941
  12   2.0000     -10.188861      -277.2530
  13   2.0000     -10.188673      -277.2479
  14   2.0000     -10.188085      -277.2319
  15   2.0000     -10.186121      -277.1784
  16   2.0000      -0.973848       -26.4998
  17   2.0000      -0.902647       -24.5623
  18   2.0000      -0.853529       -23.2257
  19   2.0000      -0.797506       -21.7012
  20   2.0000      -0.784654       -21.3515
  21   2.0000      -0.762662       -20.7531
  22   2.0000      -0.730851       -19.8875
  23   2.0000      -0.719406       -19.5760
  24   2.0000      -0.665615       -18.1123
  25   2.0000      -0.655756       -17.8440
  26   2.0000      -0.620875       -16.8949
  27   2.0000      -0.604301       -16.4439
  28   2.0000      -0.599908       -16.3243
  29   2.0000      -0.562920       -15.3178
  30   2.0000      -0.538871       -14.6634
  31   2.0000      -0.510798       -13.8995
  32   2.0000      -0.500159       -13.6100
  33   2.0000      -0.474569       -12.9137
  34   2.0000      -0.459118       -12.4932
  35   2.0000      -0.451916       -12.2973
  36   2.0000      -0.443278       -12.0622
  37   2.0000      -0.438747       -11.9389
  38   2.0000      -0.435707       -11.8562
  39   2.0000      -0.428367       -11.6565
  40   2.0000      -0.417358       -11.3569
  41   2.0000      -0.397873       -10.8267
  42   2.0000      -0.394850       -10.7444
  43   2.0000      -0.384301       -10.4574
  44   2.0000      -0.376598       -10.2478
  45   2.0000      -0.366167        -9.9639
  46   2.0000      -0.357790        -9.7360
  47   2.0000      -0.354429        -9.6445
  48   2.0000      -0.350801        -9.5458
  49   2.0000      -0.347140        -9.4461
  50   2.0000      -0.345806        -9.4099
  51   2.0000      -0.336789        -9.1645
  52   2.0000      -0.296929        -8.0799
  53   2.0000      -0.291087        -7.9209
  54   2.0000      -0.254205        -6.9173
  55   2.0000      -0.242669        -6.6034
  56   2.0000      -0.224074        -6.0974
  57   0.0000      -0.075224        -2.0470
  58   0.0000      -0.028754        -0.7824
  59   0.0000      -0.023389        -0.6364
  60   0.0000       0.044314         1.2058
  61   0.0000       0.055557         1.5118

MULLIKEN ATOMIC CHARGES
-----------------------
   0 C :   -0.009504
   1 C :    0.049043
   2 C :   -0.043779
   3 C :    0.068472
   4 C :   -0.014827
   5 C :    0.008337
   6 N :   -0.035421
   7 C :   -0.133391
   8 C :    0.116878
   9 C :   -0.003803
  10 C :   -0.123849
  11 C :    0.110412
  12 C :   -0.005818
  13 N :   -0.038768
  14 C :   -0.002471
  15 C :   -0.021224
  16 H :   -0.028335
  17 H :   -0.015271
  18 H :   -0.031505
  19 H :    0.007388
  20 H :   -0.003803
  21 H :    0.023876
  22 H :    0.020402
  23 H :    0.010598
  24 H :    0.007492
  25 H :   -0.001074
  26 H :    0.024021
  27 H :    0.021880
  28 H :    0.011592
  29 H :   -0.003192
  30 H :    0.009615
  31 H :    0.026027
Sum of atomic charges:   -0.0000000

LOEWDIN ATOMIC CHARGES
----------------------
   0 C :   -0.020508
   1 C :   -0.018035
   2 C :   -0.010201
   3 C :   -0.024909
   4 C :   -0.003990
   5 C :   -0.010402
   6 N :   -0.056033
   7 C :    0.000959
   8 C :   -0.035327
   9 C :   -0.048013
  10 C :    0.002395
  11 C :   -0.035621
  12 C :   -0.048490
  13 N :   -0.053716
  14 C :   -0.017394
  15 C :   -0.044037
  16 H :    0.032018
  17 H :    0.029693
  18 H :    0.026408
  19 H :    0.034166
  20 H :    0.022307
  21 H :    0.028071
  22 H :    0.025741
  23 H :    0.020598
  24 H :    0.033390
  25 H :    0.023295
  26 H :    0.028036
  27 H :    0.026109
  28 H :    0.020885
  29 H :    0.028931
  30 H :    0.017031
  31 H :    0.026643

  Mayer bond orders larger than 0.100000
B(  0-C ,  1-C ) :   1.3972 B(  0-C ,  3-C ) :   0.1032 B(  0-C ,  5-C ) :   1.2593
B(  0-C , 16-H ) :   1.0001 B(  1-C ,  2-C ) :   1.2628 B(  1-C , 17-H ) :   0.9844
B(  2-C ,  3-C ) :   1.4312 B(  2-C , 18-H ) :   0.9900 B(  3-C ,  4-C ) :   1.1979
B(  3-C , 14-C ) :   1.1076 B(  4-C ,  5-C ) :   1.2263 B(  4-C , 13-N ) :   1.4405
B(  5-C ,  6-N ) :   1.3939 B(  6-N ,  7-C ) :   1.6571 B(  7-C ,  8-C ) :   1.0635
B(  7-C , 10-C ) :   1.1769 B(  8-C ,  9-C ) :   1.1099 B(  8-C , 19-H ) :   0.9084
B(  8-C , 20-H ) :   0.9145 B(  9-C , 21-H ) :   0.9637 B(  9-C , 22-H ) :   0.9664
B(  9-C , 23-H ) :   0.9684 B( 10-C , 11-C ) :   1.0652 B( 10-C , 13-N ) :   1.6483
B( 11-C , 12-C ) :   1.1099 B( 11-C , 24-H ) :   0.9096 B( 11-C , 25-H ) :   0.9143
B( 12-C , 26-H ) :   0.9633 B( 12-C , 27-H ) :   0.9662 B( 12-C , 28-H ) :   0.9683
B( 14-C , 15-C ) :   1.9022 B( 14-C , 29-H ) :   0.9539 B( 15-C , 30-H ) :   0.9430
B( 15-C , 31-H ) :   0.9475

Dispersion correction           -0.064374593
FINAL SINGLE POINT ENERGY      -652.225071585222

DIPOLE MOMENT
-------------
                                X             Y             Z
Electronic contribution:    -12.61757       2.30364      -0.43382
Nuclear contribution   :     12.93525      -2.28498       0.44184
                        -----------------------------------------
Total Dipole Moment    :      0.31768       0.01866       0.00801
                        -----------------------------------------
Magnitude (a.u.)       :      0.31833
Magnitude (Debye)      :      0.80913

Rotational constants in cm-1:     0.027976     0.012664     0.009322
Rotational constants in MHz :   838.709870   379.656025   279.455845

                             ****ORCA TERMINATED NORMALLY****
TOTAL RUN TIME: 0 days 0 hours 19 minutes 20 seconds 710 msec
