                         Program Version 4.2.0 -  RELEASE  -
|  1> # ORCA input file
|  2> # SCF done        -27.156513529923          0.000849962127
|  3> ! B3LYP/G D3BJ Opt RIJCOSX def2-SVP def2/J
|  4> * xyz 0 1
|  5>    C       -0.23005         1.04814         0.01250
|  6>    O       -1.04378        -0.02283         0.05668
|  7>    C       -0.27903        -1.12396        -0.09258
|  8>    C        1.04145        -0.76157        -0.23139
|  9>    C        1.07026         0.65287        -0.16503
| 10>    O        2.12202         1.50645        -0.25257
| 11>    C        3.38373         0.91005        -0.44189
| 12>    C       -0.87417        -2.43605        -0.09642
| 13>    C       -2.17831        -2.66927         0.01976
| 14>    H       -0.66863         2.01867         0.11597
| 15>    H        1.86648        -1.43118        -0.36279
| 16>    H        4.09660         1.73045        -0.50210
| 17>    H        3.41711         0.33167        -1.37055
| 18>    H        3.64799         0.25957         0.39794
| 19>    H       -0.16825        -3.24792        -0.20556
| 20>    H       -2.88089        -1.86061         0.12593
| 21>    H       -2.57716        -3.66808         0.01041
| 22> *
| 23>
| 24>                          ****END OF INPUT****
 Total Charge           Charge          ....    0
 Multiplicity           Mult            ....    1
 Number of Electrons    NEL             ....   66
Dispersion correction           -0.025099191
FINAL SINGLE POINT ENERGY      -421.661617905198
Dispersion correction            ... done
Dispersion correction           -0.025084050
FINAL SINGLE POINT ENERGY      -421.663664938374
Dispersion correction            ... done
Dispersion correction           -0.025086863
FINAL SINGLE POINT ENERGY      -421.663772733407
Dispersion correction            ... done
FINAL SINGLE POINT ENERGY      -421.663791415485
Dispersion correction            ... done
Dispersion correction           -0.025089906
FINAL SINGLE POINT ENERGY      -421.663790976935
Dispersion correction            ... done
Dispersion correction           -0.025089515
FINAL SINGLE POINT ENERGY      -421.663791852426
Dispersion correction            ... done
                    ***********************HURRAY********************

CARTESIAN COORDINATES (ANGSTROEM)
---------------------------------
  C     -0.228461    1.057729    0.001334
  O     -1.033590   -0.038836    0.040013
  C     -0.258570   -1.145286   -0.083954
  C      1.064594   -0.771487   -0.199121
  C      1.079527    0.660921   -0.143018
  O      2.129856    1.507189   -0.205013
  C      3.393524    0.933699   -0.456058
  C     -0.890630   -2.445530   -0.084605
  C     -2.210394   -2.672149    0.014113
  H     -0.700730    2.030199    0.089699
  H      1.906747   -1.446621   -0.319038
  H      4.118496    1.758099   -0.478497
  H      3.417457    0.405837   -1.427483
  H      3.684883    0.222417    0.337537
  H     -0.195916   -3.285222   -0.180678
  H     -2.920140   -1.846871    0.108629
  H     -2.611282   -3.687688    0.004448

 Multiplicity           Mult            ....    1
 Number of Electrons    NEL             ....   66
 Basis Dimension        Dim             ....  166

ORBITAL ENERGIES
----------------

  NO   OCC          E(Eh)            E(eV)
   0   2.0000     -19.197396      -522.3877
   1   2.0000     -19.165295      -521.5142
   2   2.0000     -10.248623      -278.8792
   3   2.0000     -10.243572      -278.7418
   4   2.0000     -10.242462      -278.7116
   5   2.0000     -10.228255      -278.3250
   6   2.0000     -10.199575      -277.5445
   7   2.0000     -10.189841      -277.2797
   8   2.0000     -10.186891      -277.1994
   9   2.0000      -1.103281       -30.0218
  10   2.0000      -1.060048       -28.8454
  11   2.0000      -0.797762       -21.7082
  12   2.0000      -0.790630       -21.5141
  13   2.0000      -0.728868       -19.8335
  14   2.0000      -0.694029       -18.8855
  15   2.0000      -0.611200       -16.6316
  16   2.0000      -0.591703       -16.1010
  17   2.0000      -0.560136       -15.2421
  18   2.0000      -0.520142       -14.1538
  19   2.0000      -0.487888       -13.2761
  20   2.0000      -0.478115       -13.0102
  21   2.0000      -0.460659       -12.5352
  22   2.0000      -0.451526       -12.2866
  23   2.0000      -0.451199       -12.2778
  24   2.0000      -0.426678       -11.6105
  25   2.0000      -0.413850       -11.2614
  26   2.0000      -0.371904       -10.1200
  27   2.0000      -0.366694        -9.9783
  28   2.0000      -0.350329        -9.5329
  29   2.0000      -0.336135        -9.1467
  30   2.0000      -0.306751        -8.3471
  31   2.0000      -0.252348        -6.8667
  32   2.0000      -0.202794        -5.5183
  33   0.0000      -0.034953        -0.9511
  34   0.0000       0.058520         1.5924
  35   0.0000       0.059752         1.6259
  36   0.0000       0.073585         2.0023
  37   0.0000       0.100139         2.7249

MULLIKEN ATOMIC CHARGES
-----------------------
   0 C :    0.059855
   1 O :   -0.213616
   2 C :    0.154828
   3 C :   -0.140243
   4 C :    0.215373
   5 O :   -0.312796
   6 C :    0.187627
   7 C :   -0.014800
   8 C :   -0.011790
   9 H :   -0.003776
  10 H :   -0.024454
  11 H :    0.035739
  12 H :    0.014151
  13 H :    0.017319
  14 H :   -0.010438
  15 H :    0.028667
  16 H :    0.018354
Sum of atomic charges:   -0.0000000

LOEWDIN ATOMIC CHARGES
----------------------
   0 C :   -0.001239
   1 O :    0.005472
   2 C :    0.025719
   3 C :   -0.105151
   4 C :   -0.001128
   5 O :   -0.105225
   6 C :    0.081672
   7 C :   -0.042658
   8 C :   -0.044993
   9 H :    0.022357
  10 H :    0.027851
  11 H :    0.027102
  12 H :    0.012245
  13 H :    0.011798
  14 H :    0.034245
  15 H :    0.026809
  16 H :    0.025127

  Mayer bond orders larger than 0.100000
B(  0-C ,  1-O ) :   1.1004 B(  0-C ,  2-C ) :   0.1009 B(  0-C ,  4-C ) :   1.4878
B(  0-C ,  9-H ) :   1.0105 B(  1-O ,  2-C ) :   1.1633 B(  2-C ,  3-C ) :   1.4216
B(  2-C ,  7-C ) :   1.1287 B(  3-C ,  4-C ) :   1.1845 B(  3-C , 10-H ) :   1.0099
B(  4-C ,  5-O ) :   1.1232 B(  5-O ,  6-C ) :   0.9700 B(  6-C , 11-H ) :   0.9793
B(  6-C , 12-H ) :   0.9656 B(  6-C , 13-H ) :   0.9652 B(  7-C ,  8-C ) :   1.8970
B(  7-C , 14-H ) :   0.9543 B(  8-C , 15-H ) :   0.9530 B(  8-C , 16-H ) :   0.9423

Dispersion correction           -0.025089363
FINAL SINGLE POINT ENERGY      -421.663793392391

DIPOLE MOMENT
-------------
                                X             Y             Z
Electronic contribution:     -2.70767       3.05002       0.65399
Nuclear contribution   :      3.40571      -3.33974      -0.78459
                        -----------------------------------------
Total Dipole Moment    :      0.69804      -0.28972      -0.13060
                        -----------------------------------------
Magnitude (a.u.)       :      0.76698
Magnitude (Debye)      :      1.94951

Rotational constants in cm-1:     0.171741     0.030593     0.026105
Rotational constants in MHz :  5148.665132   917.146525   782.604012

                             ****ORCA TERMINATED NORMALLY****
TOTAL RUN TIME: 0 days 0 hours 4 minutes 2 seconds 879 msec
