                         Program Version 4.2.0 -  RELEASE  -
|  1> # ORCA input file
|  2> # SCF done        -28.463635875710          0.000747122858
|  3> ! B3LYP/G D3BJ Opt RIJCOSX def2-SVP def2/J
|  4> * xyz 0 1
|  5>    C       -1.45598        -1.21225         0.14401
|  6>    S       -2.66373        -0.01313         0.22509
|  7>    C       -1.53772         1.26706         0.14760
|  8>    C       -0.25319         0.79118         0.05983
|  9>    C       -0.19941        -0.65594         0.05738
| 10>    N        0.97290        -1.32128        -0.02246
| 11>    C        2.04311        -0.59047        -0.09649
| 12>    N        2.12395         0.75390        -0.10306
| 13>    C        1.01257         1.44043        -0.02756
| 14>    C        1.06732         2.86119        -0.03311
| 15>    N        1.05605         4.00652        -0.03209
| 16>    H       -1.70976        -2.25203         0.16217
| 17>    H       -1.86696         2.28687         0.16939
| 18>    H        2.99136        -1.10686        -0.16035
| 19> *
| 20>
| 21>                          ****END OF INPUT****
 Total Charge           Charge          ....    0
 Multiplicity           Mult            ....    1
 Number of Electrons    NEL             ....   82
Dispersion correction           -0.033439493
FINAL SINGLE POINT ENERGY      -830.553018025091
Dispersion correction            ... done
Dispersion correction           -0.033349966
FINAL SINGLE POINT ENERGY      -830.555696892846
Dispersion correction            ... done
Dispersion correction           -0.033336154
FINAL SINGLE POINT ENERGY      -830.555816371869
Dispersion correction            ... done
Dispersion correction           -0.033327427
FINAL SINGLE POINT ENERGY      -830.555801016082
Dispersion correction            ... done
Dispersion correction           -0.033333295
FINAL SINGLE POINT ENERGY      -830.555847622641
Dispersion correction            ... done
                    ***********************HURRAY********************

CARTESIAN COORDINATES (ANGSTROEM)
---------------------------------
  C     -1.472205   -1.229977    0.143743
  S     -2.670765   -0.011233    0.234014
  C     -1.547718    1.279002    0.152056
  C     -0.255241    0.785010    0.058041
  C     -0.203094   -0.665413    0.052632
  N      0.977832   -1.338368   -0.028048
  C      2.058152   -0.603711   -0.095256
  N      2.136361    0.763804   -0.103548
  C      1.015340    1.440544   -0.030074
  C      1.071113    2.884893   -0.036178
  N      1.055970    4.044410   -0.035315
  H     -1.728828   -2.286764    0.157549
  H     -1.877069    2.316334    0.173342
  H      3.020663   -1.123340   -0.152608

 Multiplicity           Mult            ....    1
 Number of Electrons    NEL             ....   82
 Basis Dimension        Dim             ....  173

ORBITAL ENERGIES
----------------

  NO   OCC          E(Eh)            E(eV)
   0   2.0000     -88.924385     -2419.7555
   1   2.0000     -14.358588      -390.7170
   2   2.0000     -14.352651      -390.5555
   3   2.0000     -14.352481      -390.5509
   4   2.0000     -10.298275      -280.2303
   5   2.0000     -10.273988      -279.5694
   6   2.0000     -10.258066      -279.1362
   7   2.0000     -10.252242      -278.9777
   8   2.0000     -10.246666      -278.8260
   9   2.0000     -10.242801      -278.7208
  10   2.0000     -10.239679      -278.6358
  11   2.0000      -8.018744      -218.2011
  12   2.0000      -5.986236      -162.8938
  13   2.0000      -5.982056      -162.7800
  14   2.0000      -5.981568      -162.7667
  15   2.0000      -1.006405       -27.3857
  16   2.0000      -0.928685       -25.2708
  17   2.0000      -0.917614       -24.9695
  18   2.0000      -0.900676       -24.5086
  19   2.0000      -0.801391       -21.8070
  20   2.0000      -0.755833       -20.5672
  21   2.0000      -0.714462       -19.4415
  22   2.0000      -0.649451       -17.6725
  23   2.0000      -0.623430       -16.9644
  24   2.0000      -0.576496       -15.6872
  25   2.0000      -0.563132       -15.3236
  26   2.0000      -0.503532       -13.7018
  27   2.0000      -0.470588       -12.8054
  28   2.0000      -0.468312       -12.7434
  29   2.0000      -0.451587       -12.2883
  30   2.0000      -0.443634       -12.0719
  31   2.0000      -0.408992       -11.1292
  32   2.0000      -0.390391       -10.6231
  33   2.0000      -0.387379       -10.5411
  34   2.0000      -0.381451       -10.3798
  35   2.0000      -0.360588        -9.8121
  36   2.0000      -0.336839        -9.1659
  37   2.0000      -0.322395        -8.7728
  38   2.0000      -0.300327        -8.1723
  39   2.0000      -0.279311        -7.6004
  40   2.0000      -0.255941        -6.9645
  41   0.0000      -0.118175        -3.2157
  42   0.0000      -0.036591        -0.9957
  43   0.0000      -0.025134        -0.6839
  44   0.0000       0.009691         0.2637
  45   0.0000       0.023181         0.6308

MULLIKEN ATOMIC CHARGES
-----------------------
   0 C :   -0.120810
   1 S :    0.181780
   2 C :   -0.118610
   3 C :    0.104087
   4 C :    0.056288
   5 N :   -0.076920
   6 C :    0.101032
   7 N :   -0.084285
   8 C :   -0.127578
   9 C :   -0.125056
  10 N :    0.107461
  11 H :    0.031204
  12 H :    0.049007
  13 H :    0.022399
Sum of atomic charges:   -0.0000000

LOEWDIN ATOMIC CHARGES
----------------------
   0 C :   -0.196868
   1 S :    0.534312
   2 C :   -0.186559
   3 C :   -0.077465
   4 C :   -0.026943
   5 N :   -0.071350
   6 C :    0.048493
   7 N :   -0.073661
   8 C :    0.003077
   9 C :   -0.019972
  10 N :   -0.032454
  11 H :    0.037051
  12 H :    0.038342
  13 H :    0.023998

  Mayer bond orders larger than 0.100000
B(  0-C ,  1-S ) :   1.2184 B(  0-C ,  2-C ) :   0.1182 B(  0-C ,  4-C ) :   1.3889
B(  0-C , 11-H ) :   0.9696 B(  1-S ,  2-C ) :   1.2282 B(  2-C ,  3-C ) :   1.4035
B(  2-C , 12-H ) :   0.9525 B(  3-C ,  4-C ) :   1.1710 B(  3-C ,  8-C ) :   1.1828
B(  4-C ,  5-N ) :   1.3579 B(  5-N ,  6-C ) :   1.6587 B(  6-C ,  7-N ) :   1.2889
B(  6-C , 13-H ) :   0.9675 B(  7-N ,  8-C ) :   1.7479 B(  8-C ,  9-C ) :   1.0774
B(  9-C , 10-N ) :   3.0358

Dispersion correction           -0.033334023
FINAL SINGLE POINT ENERGY      -830.555849843074

DIPOLE MOMENT
-------------
                                X             Y             Z
Electronic contribution:     -1.14588       1.67617       0.07434
Nuclear contribution   :     -0.10456      -2.63856       0.01551
                        -----------------------------------------
Total Dipole Moment    :     -1.25044      -0.96239       0.08985
                        -----------------------------------------
Magnitude (a.u.)       :      1.58046
Magnitude (Debye)      :      4.01722

Rotational constants in cm-1:     0.052826     0.030608     0.019380
Rotational constants in MHz :  1583.694895   917.605857   580.983603

                             ****ORCA TERMINATED NORMALLY****
TOTAL RUN TIME: 0 days 0 hours 4 minutes 13 seconds 174 msec
