                         Program Version 4.2.0 -  RELEASE  -
|  1> # ORCA input file
|  2> # SCF done        -45.098599144322          0.000990044383
|  3> ! B3LYP/G D3BJ Opt RIJCOSX def2-SVP def2/J
|  4> * xyz 0 1
|  5>    C        1.30078        -1.35436         0.22299
|  6>    S        2.57544        -0.21315         0.15388
|  7>    C        1.44621         1.10322        -0.02794
|  8>    C        0.15000         0.64252        -0.01688
|  9>    C        0.07553        -0.76729         0.12719
| 10>    C       -1.21832        -1.51967         0.21681
| 11>    C       -2.40304        -0.67655        -0.28336
| 12>    C       -2.47926        -0.65319        -1.80496
| 13>    O       -2.38615         0.32381        -2.48754
| 14>    O       -2.70081        -1.85461        -2.36630
| 15>    C       -2.33565         0.74566         0.31496
| 16>    O       -2.43940         0.69377         1.71942
| 17>    C       -1.07627         1.48882        -0.13922
| 18>    C        1.99576         2.43049        -0.14686
| 19>    C        1.38565         3.51716        -0.61099
| 20>    H        1.52427        -2.39725         0.33197
| 21>    H       -1.40353        -1.79149         1.26226
| 22>    H       -1.13129        -2.45668        -0.34193
| 23>    H       -3.33315        -1.13848         0.07485
| 24>    H       -2.78849        -2.56442        -1.71633
| 25>    H       -3.21811         1.30306        -0.01728
| 26>    H       -1.57858         0.44360         2.07609
| 27>    H       -0.97146         2.39549         0.46250
| 28>    H       -1.21039         1.78282        -1.18254
| 29>    H        3.03029         2.50209         0.16650
| 30>    H        0.37873         3.51294        -0.98416
| 31>    H        1.90669         4.45811        -0.65212
| 32> *
| 33>
| 34>                          ****END OF INPUT****
 Total Charge           Charge          ....    0
 Multiplicity           Mult            ....    1
 Number of Electrons    NEL             ....  118
Dispersion correction           -0.061405525
FINAL SINGLE POINT ENERGY     -1049.712682794805
Dispersion correction            ... done
Dispersion correction           -0.061023242
FINAL SINGLE POINT ENERGY     -1049.715570449807
Dispersion correction            ... done
Dispersion correction           -0.060870565
FINAL SINGLE POINT ENERGY     -1049.715598202911
Dispersion correction            ... done
FINAL SINGLE POINT ENERGY     -1049.716012439471
FINAL SINGLE POINT ENERGY     -1049.716096086654
FINAL SINGLE POINT ENERGY     -1049.715969909885
FINAL SINGLE POINT ENERGY     -1049.715882184569
FINAL SINGLE POINT ENERGY     -1049.715690612670
FINAL SINGLE POINT ENERGY     -1049.715754607696
FINAL SINGLE POINT ENERGY     -1049.715832658545
FINAL SINGLE POINT ENERGY     -1049.715965395428
FINAL SINGLE POINT ENERGY     -1049.715885623564
FINAL SINGLE POINT ENERGY     -1049.715934442178
FINAL SINGLE POINT ENERGY     -1049.715902428651
FINAL SINGLE POINT ENERGY     -1049.715911579527
Dispersion correction            ... done
Dispersion correction           -0.060896332
FINAL SINGLE POINT ENERGY     -1049.715924893309
Dispersion correction            ... done
Dispersion correction           -0.060882133
FINAL SINGLE POINT ENERGY     -1049.715928709135
Dispersion correction            ... done
                    ***********************HURRAY********************

CARTESIAN COORDINATES (ANGSTROEM)
---------------------------------
  C      1.330720   -1.381355    0.245972
  S      2.597681   -0.216739    0.228984
  C      1.470551    1.102430    0.022588
  C      0.163958    0.630869   -0.015383
  C      0.090402   -0.798097    0.113156
  C     -1.222713   -1.538595    0.189316
  C     -2.416363   -0.684861   -0.293616
  C     -2.590722   -0.646574   -1.810954
  O     -2.629390    0.357901   -2.470300
  O     -2.750321   -1.848273   -2.409772
  C     -2.324886    0.732519    0.308798
  O     -2.376357    0.640602    1.723956
  C     -1.073518    1.474096   -0.168621
  C      2.008073    2.450457   -0.097795
  C      1.402198    3.531141   -0.620081
  H      1.560011   -2.438365    0.374274
  H     -1.422801   -1.810974    1.238332
  H     -1.154849   -2.492772   -0.358684
  H     -3.335539   -1.147503    0.107979
  H     -2.710369   -2.560802   -1.755639
  H     -3.212695    1.300537   -0.005236
  H     -1.470909    0.575603    2.055761
  H     -0.978625    2.412299    0.400571
  H     -1.217536    1.753400   -1.223624
  H      3.032215    2.570369    0.274186
  H      0.403382    3.498301   -1.055518
  H      1.923851    4.490807   -0.647639

 Multiplicity           Mult            ....    1
 Number of Electrons    NEL             ....  118
 Basis Dimension        Dim             ....  274

ORBITAL ENERGIES
----------------

  NO   OCC          E(Eh)            E(eV)
   0   2.0000     -88.878657     -2418.5112
   1   2.0000     -19.187723      -522.1245
   2   2.0000     -19.137037      -520.7452
   3   2.0000     -19.127111      -520.4752
   4   2.0000     -10.323202      -280.9086
   5   2.0000     -10.245894      -278.8049
   6   2.0000     -10.221306      -278.1359
   7   2.0000     -10.220618      -278.1172
   8   2.0000     -10.218435      -278.0578
   9   2.0000     -10.217760      -278.0394
  10   2.0000     -10.208086      -277.7761
  11   2.0000     -10.207802      -277.7684
  12   2.0000     -10.204188      -277.6701
  13   2.0000     -10.193922      -277.3907
  14   2.0000     -10.193270      -277.3730
  15   2.0000      -7.973814      -216.9785
  16   2.0000      -5.941800      -161.6846
  17   2.0000      -5.937829      -161.5765
  18   2.0000      -5.935297      -161.5076
  19   2.0000      -1.099272       -29.9127
  20   2.0000      -1.019924       -27.7535
  21   2.0000      -1.016027       -27.6475
  22   2.0000      -0.892942       -24.2982
  23   2.0000      -0.827293       -22.5118
  24   2.0000      -0.791199       -21.5296
  25   2.0000      -0.762518       -20.7492
  26   2.0000      -0.743761       -20.2388
  27   2.0000      -0.698151       -18.9977
  28   2.0000      -0.659119       -17.9356
  29   2.0000      -0.633660       -17.2428
  30   2.0000      -0.615530       -16.7494
  31   2.0000      -0.598013       -16.2727
  32   2.0000      -0.569088       -15.4857
  33   2.0000      -0.540872       -14.7179
  34   2.0000      -0.506915       -13.7938
  35   2.0000      -0.505656       -13.7596
  36   2.0000      -0.484063       -13.1720
  37   2.0000      -0.472937       -12.8693
  38   2.0000      -0.465396       -12.6641
  39   2.0000      -0.460808       -12.5392
  40   2.0000      -0.454650       -12.3716
  41   2.0000      -0.432665       -11.7734
  42   2.0000      -0.425115       -11.5680
  43   2.0000      -0.424083       -11.5399
  44   2.0000      -0.416268       -11.3272
  45   2.0000      -0.404136       -10.9971
  46   2.0000      -0.388175       -10.5628
  47   2.0000      -0.380858       -10.3637
  48   2.0000      -0.374135       -10.1807
  49   2.0000      -0.363493        -9.8912
  50   2.0000      -0.355902        -9.6846
  51   2.0000      -0.344466        -9.3734
  52   2.0000      -0.327760        -8.9188
  53   2.0000      -0.325855        -8.8670
  54   2.0000      -0.304861        -8.2957
  55   2.0000      -0.286006        -7.7826
  56   2.0000      -0.276888        -7.5345
  57   2.0000      -0.252834        -6.8800
  58   2.0000      -0.223066        -6.0699
  59   0.0000      -0.050657        -1.3785
  60   0.0000      -0.005782        -0.1573
  61   0.0000       0.010062         0.2738
  62   0.0000       0.023769         0.6468
  63   0.0000       0.029371         0.7992

MULLIKEN ATOMIC CHARGES
-----------------------
   0 C :   -0.127013
   1 S :    0.113404
   2 C :   -0.162640
   3 C :   -0.082240
   4 C :   -0.055489
   5 C :    0.141582
   6 C :   -0.117653
   7 C :    0.173787
   8 O :   -0.188936
   9 O :   -0.152693
  10 C :    0.144390
  11 O :   -0.299687
  12 C :    0.126892
  13 C :    0.028395
  14 C :   -0.034786
  15 H :    0.012692
  16 H :    0.023169
  17 H :   -0.018063
  18 H :    0.021142
  19 H :    0.173473
  20 H :   -0.000777
  21 H :    0.171150
  22 H :    0.016581
  23 H :    0.054767
  24 H :   -0.009651
  25 H :    0.023228
  26 H :    0.024976
Sum of atomic charges:   -0.0000000

LOEWDIN ATOMIC CHARGES
----------------------
   0 C :   -0.199846
   1 S :    0.438806
   2 C :   -0.182469
   3 C :   -0.065981
   4 C :   -0.075726
   5 C :   -0.018372
   6 C :   -0.084212
   7 C :    0.088334
   8 O :   -0.153551
   9 O :   -0.030074
  10 C :    0.080362
  11 O :   -0.128008
  12 C :   -0.039526
  13 C :   -0.042804
  14 C :   -0.048124
  15 H :    0.022817
  16 H :    0.035975
  17 H :    0.020775
  18 H :    0.040610
  19 H :    0.086895
  20 H :    0.024189
  21 H :    0.073786
  22 H :    0.033493
  23 H :    0.042452
  24 H :    0.028252
  25 H :    0.024386
  26 H :    0.027562

  Mayer bond orders larger than 0.100000
B(  0-C ,  1-S ) :   1.1611 B(  0-C ,  4-C ) :   1.5331 B(  0-C , 15-H ) :   0.9671
B(  1-S ,  2-C ) :   1.1334 B(  2-C ,  3-C ) :   1.5010 B(  2-C , 13-C ) :   1.1026
B(  3-C ,  4-C ) :   1.2954 B(  3-C , 12-C ) :   1.0466 B(  4-C ,  5-C ) :   1.0303
B(  5-C ,  6-C ) :   1.0316 B(  5-C , 16-H ) :   0.9074 B(  5-C , 17-H ) :   0.9092
B(  6-C ,  7-C ) :   0.9052 B(  6-C , 10-C ) :   0.9791 B(  6-C , 18-H ) :   0.8864
B(  7-C ,  8-O ) :   2.1215 B(  7-C ,  9-O ) :   1.2147 B(  9-O , 19-H ) :   0.9569
B( 10-C , 11-O ) :   1.0589 B( 10-C , 12-C ) :   1.0462 B( 10-C , 20-H ) :   0.9148
B( 11-O , 21-H ) :   0.9739 B( 12-C , 22-H ) :   0.9036 B( 12-C , 23-H ) :   0.8835
B( 13-C , 14-C ) :   1.9207 B( 13-C , 24-H ) :   0.9425 B( 14-C , 25-H ) :   0.9498
B( 14-C , 26-H ) :   0.9416

Dispersion correction           -0.060881739
FINAL SINGLE POINT ENERGY     -1049.715920179326

DIPOLE MOMENT
-------------
                                X             Y             Z
Electronic contribution:      4.27664      -4.47759      -1.96505
Nuclear contribution   :     -3.84763       3.54385       2.87156
                        -----------------------------------------
Total Dipole Moment    :      0.42901      -0.93374       0.90651
                        -----------------------------------------
Magnitude (a.u.)       :      1.37028
Magnitude (Debye)      :      3.48298

Rotational constants in cm-1:     0.026920     0.013176     0.011651
Rotational constants in MHz :   807.029698   395.004764   349.295806

                             ****ORCA TERMINATED NORMALLY****
TOTAL RUN TIME: 0 days 0 hours 54 minutes 29 seconds 624 msec
