                         Program Version 4.2.0 -  RELEASE  -
|  1> # ORCA input file
|  2> # SCF done        -32.445256988569          0.000566474625
|  3> ! B3LYP/G D3BJ Opt RIJCOSX def2-SVP def2/J
|  4> * xyz 0 1
|  5>    C       -1.53133        -1.23426         0.15103
|  6>    S       -2.70651        -0.00072         0.23338
|  7>    C       -1.53150         1.23299         0.15077
|  8>    C       -0.25931         0.71896         0.06124
|  9>    C       -0.25920        -0.72009         0.06139
| 10>    C        0.98259        -1.41603        -0.02600
| 11>    C        0.98789        -2.82696        -0.02443
| 12>    N        0.98546        -3.97372        -0.02585
| 13>    C        2.15628        -0.70281        -0.10929
| 14>    C        2.15618         0.70205        -0.10945
| 15>    C        0.98235         1.41509        -0.02647
| 16>    C        0.98700         2.82601        -0.02807
| 17>    N        0.98576         3.97274        -0.02474
| 18>    H       -1.82201        -2.26553         0.17143
| 19>    H       -1.82229         2.26422         0.17120
| 20>    H        3.09652        -1.22955        -0.17539
| 21>    H        3.09633         1.22891        -0.17586
| 22> *
| 23>
| 24>                          ****END OF INPUT****
 Total Charge           Charge          ....    0
 Multiplicity           Mult            ....    1
 Number of Electrons    NEL             ....   94
Dispersion correction           -0.043163264
FINAL SINGLE POINT ENERGY      -890.693143278992
Dispersion correction            ... done
Dispersion correction           -0.042923126
FINAL SINGLE POINT ENERGY      -890.696497852004
Dispersion correction            ... done
Dispersion correction           -0.042893985
FINAL SINGLE POINT ENERGY      -890.696577955901
Dispersion correction            ... done
FINAL SINGLE POINT ENERGY      -890.696560607084
FINAL SINGLE POINT ENERGY      -890.696595627498
FINAL SINGLE POINT ENERGY      -890.696602093263
Dispersion correction            ... done
Dispersion correction           -0.042914472
FINAL SINGLE POINT ENERGY      -890.696608262416
Dispersion correction            ... done
Dispersion correction           -0.042916027
FINAL SINGLE POINT ENERGY      -890.696609617923
Dispersion correction            ... done
                    ***********************HURRAY********************

CARTESIAN COORDINATES (ANGSTROEM)
---------------------------------
  C     -1.543205   -1.249265    0.157609
  S     -2.710154   -0.000667    0.248104
  C     -1.543397    1.248044    0.156655
  C     -0.260331    0.724812    0.060788
  C     -0.260215   -0.725904    0.061416
  C      0.991975   -1.427698   -0.026834
  C      0.992354   -2.858639   -0.040501
  N      0.959539   -4.019348   -0.052835
  C      2.172560   -0.710437   -0.097720
  C      2.172436    0.709595   -0.098501
  C      0.991742    1.426730   -0.028153
  C      0.991934    2.857661   -0.042903
  N      0.959341    4.018415   -0.050768
  H     -1.835999   -2.297412    0.176106
  H     -1.836349    2.296159    0.174426
  H      3.121102   -1.244990   -0.160270
  H      3.120877    1.244244   -0.161730

 Multiplicity           Mult            ....    1
 Number of Electrons    NEL             ....   94
 Basis Dimension        Dim             ....  206

ORBITAL ENERGIES
----------------

  NO   OCC          E(Eh)            E(eV)
   0   2.0000     -88.919407     -2419.6201
   1   2.0000     -14.346258      -390.3815
   2   2.0000     -14.346240      -390.3810
   3   2.0000     -10.263603      -279.2868
   4   2.0000     -10.263530      -279.2849
   5   2.0000     -10.245039      -278.7817
   6   2.0000     -10.244953      -278.7793
   7   2.0000     -10.244916      -278.7783
   8   2.0000     -10.244851      -278.7766
   9   2.0000     -10.242042      -278.7001
  10   2.0000     -10.241961      -278.6979
  11   2.0000     -10.241867      -278.6954
  12   2.0000     -10.241687      -278.6905
  13   2.0000      -8.013905      -218.0695
  14   2.0000      -5.981530      -162.7657
  15   2.0000      -5.977248      -162.6492
  16   2.0000      -5.976550      -162.6302
  17   2.0000      -0.935835       -25.4654
  18   2.0000      -0.915857       -24.9217
  19   2.0000      -0.911781       -24.8108
  20   2.0000      -0.873930       -23.7808
  21   2.0000      -0.824000       -22.4222
  22   2.0000      -0.775041       -21.0899
  23   2.0000      -0.742633       -20.2081
  24   2.0000      -0.701611       -19.0918
  25   2.0000      -0.627230       -17.0678
  26   2.0000      -0.626632       -17.0515
  27   2.0000      -0.575794       -15.6681
  28   2.0000      -0.570747       -15.5308
  29   2.0000      -0.522252       -14.2112
  30   2.0000      -0.498202       -13.5568
  31   2.0000      -0.467166       -12.7122
  32   2.0000      -0.453138       -12.3305
  33   2.0000      -0.446185       -12.1413
  34   2.0000      -0.421344       -11.4654
  35   2.0000      -0.417542       -11.3619
  36   2.0000      -0.399470       -10.8701
  37   2.0000      -0.395816       -10.7707
  38   2.0000      -0.385996       -10.5035
  39   2.0000      -0.377327       -10.2676
  40   2.0000      -0.373353       -10.1595
  41   2.0000      -0.354689        -9.6516
  42   2.0000      -0.354383        -9.6432
  43   2.0000      -0.347776        -9.4635
  44   2.0000      -0.308362        -8.3909
  45   2.0000      -0.290843        -7.9143
  46   2.0000      -0.244849        -6.6627
  47   0.0000      -0.116912        -3.1814
  48   0.0000      -0.041049        -1.1170
  49   0.0000      -0.025131        -0.6839
  50   0.0000       0.008807         0.2397
  51   0.0000       0.018935         0.5152

MULLIKEN ATOMIC CHARGES
-----------------------
   0 C :   -0.133069
   1 S :    0.180938
   2 C :   -0.133071
   3 C :    0.094052
   4 C :    0.094061
   5 C :   -0.047013
   6 C :   -0.159254
   7 N :    0.085574
   8 C :    0.022139
   9 C :    0.022142
  10 C :   -0.047005
  11 C :   -0.159222
  12 N :    0.085547
  13 H :    0.046199
  14 H :    0.046198
  15 H :    0.000891
  16 H :    0.000891
Sum of atomic charges:   -0.0000000

LOEWDIN ATOMIC CHARGES
----------------------
   0 C :   -0.193605
   1 S :    0.527819
   2 C :   -0.193606
   3 C :   -0.037897
   4 C :   -0.037894
   5 C :   -0.046641
   6 C :   -0.022793
   7 N :   -0.053115
   8 C :    0.008570
   9 C :    0.008573
  10 C :   -0.046643
  11 C :   -0.022792
  12 N :   -0.053117
  13 H :    0.037627
  14 H :    0.037627
  15 H :    0.043944
  16 H :    0.043944

  Mayer bond orders larger than 0.100000
B(  0-C ,  1-S ) :   1.2159 B(  0-C ,  2-C ) :   0.1110 B(  0-C ,  4-C ) :   1.4297
B(  0-C , 13-H ) :   0.9490 B(  1-S ,  2-C ) :   1.2159 B(  2-C ,  3-C ) :   1.4297
B(  2-C , 14-H ) :   0.9490 B(  3-C ,  4-C ) :   1.1859 B(  3-C , 10-C ) :   1.1968
B(  4-C ,  5-C ) :   1.1968 B(  5-C ,  6-C ) :   1.0897 B(  5-C ,  8-C ) :   1.5052
B(  6-C ,  7-N ) :   2.9970 B(  8-C ,  9-C ) :   1.1861 B(  8-C , 15-H ) :   0.9894
B(  9-C , 10-C ) :   1.5052 B(  9-C , 16-H ) :   0.9894 B( 10-C , 11-C ) :   1.0897
B( 11-C , 12-N ) :   2.9970

Dispersion correction           -0.042915565
FINAL SINGLE POINT ENERGY      -890.696610080791

DIPOLE MOMENT
-------------
                                X             Y             Z
Electronic contribution:     -2.87769      -0.00018       0.19005
Nuclear contribution   :      2.51799       0.00012      -0.13821
                        -----------------------------------------
Total Dipole Moment    :     -0.35970      -0.00006       0.05184
                        -----------------------------------------
Magnitude (a.u.)       :      0.36342
Magnitude (Debye)      :      0.92373

Rotational constants in cm-1:     0.033054     0.021790     0.013133
Rotational constants in MHz :   990.930783   653.262433   393.730091

                             ****ORCA TERMINATED NORMALLY****
TOTAL RUN TIME: 0 days 0 hours 11 minutes 35 seconds 573 msec
