                         Program Version 4.2.0 -  RELEASE  -
|  1> # ORCA input file
|  2> # SCF done        -34.039224860777          0.000391633605
|  3> ! B3LYP/G D3BJ Opt RIJCOSX def2-SVP def2/J
|  4> * xyz 0 1
|  5>    C        1.17508        -1.42070        -0.08930
|  6>    S        2.49741        -0.32448        -0.21988
|  7>    C       -0.01544        -0.76076        -0.01692
|  8>    C       -1.39534        -1.18746         0.09117
|  9>    C       -2.27103        -0.18907         0.13554
| 10>    S       -1.45065         1.43320         0.03996
| 11>    N       -1.66220         2.16151        -1.28134
| 12>    O       -1.64337         2.12485         1.29774
| 13>    C        0.14743         0.64822        -0.06731
| 14>    C        1.43456         1.07142        -0.17750
| 15>    C        1.90827         2.42590        -0.25046
| 16>    C        3.18753         2.77504        -0.34016
| 17>    H        1.36309        -2.47590        -0.07281
| 18>    H       -1.64806        -2.23639         0.12809
| 19>    H       -3.33824        -0.25578         0.21370
| 20>    H       -2.36355         2.88038        -1.26778
| 21>    H        1.11834         3.16487        -0.22605
| 22>    H        3.97173         2.03515        -0.36518
| 23>    H        3.48841         3.80598        -0.39194
| 24> *
| 25>
| 26>                          ****END OF INPUT****
 Total Charge           Charge          ....    0
 Multiplicity           Mult            ....    1
 Number of Electrons    NEL             ....  102
Dispersion correction           -0.047819891
FINAL SINGLE POINT ENERGY     -1234.747708733858
Dispersion correction            ... done
Dispersion correction           -0.047639807
FINAL SINGLE POINT ENERGY     -1234.752218415174
Dispersion correction            ... done
Dispersion correction           -0.047615167
FINAL SINGLE POINT ENERGY     -1234.753362237819
Dispersion correction            ... done
FINAL SINGLE POINT ENERGY     -1234.753858959085
FINAL SINGLE POINT ENERGY     -1234.753927348393
FINAL SINGLE POINT ENERGY     -1234.754050331044
Dispersion correction            ... done
Dispersion correction           -0.047718425
FINAL SINGLE POINT ENERGY     -1234.754061089985
Dispersion correction            ... done
Dispersion correction           -0.047717896
FINAL SINGLE POINT ENERGY     -1234.754053528087
Dispersion correction            ... done
                    ***********************HURRAY********************

CARTESIAN COORDINATES (ANGSTROEM)
---------------------------------
  C      1.185762   -1.458921   -0.066902
  S      2.513255   -0.344739   -0.203907
  C     -0.017572   -0.800527   -0.017485
  C     -1.425001   -1.201384    0.071560
  C     -2.278295   -0.162710    0.093580
  S     -1.420162    1.445934    0.060225
  N     -1.555092    2.273970   -1.235409
  O     -1.656654    2.033809    1.395145
  C      0.152539    0.616317   -0.091252
  C      1.447229    1.057023   -0.196075
  C      1.917045    2.426407   -0.304379
  C      3.200214    2.816816   -0.339097
  H      1.380638   -2.530025   -0.032408
  H     -1.738600   -2.246302    0.120078
  H     -3.365513   -0.178247    0.177448
  H     -2.438310    2.794787   -1.210313
  H      1.109669    3.161821   -0.371622
  H      4.025385    2.100720   -0.277786
  H      3.467432    3.871230   -0.431831

 Multiplicity           Mult            ....    1
 Number of Electrons    NEL             ....  102
 Basis Dimension        Dim             ....  211

ORBITAL ENERGIES
----------------

  NO   OCC          E(Eh)            E(eV)
   0   2.0000     -89.045715     -2423.0571
   1   2.0000     -88.895169     -2418.9605
   2   2.0000     -19.111344      -520.0461
   3   2.0000     -14.298030      -389.0692
   4   2.0000     -10.247881      -278.8590
   5   2.0000     -10.239206      -278.6229
   6   2.0000     -10.232463      -278.4395
   7   2.0000     -10.225859      -278.2598
   8   2.0000     -10.224487      -278.2224
   9   2.0000     -10.221779      -278.1487
  10   2.0000     -10.214841      -277.9599
  11   2.0000     -10.205239      -277.6987
  12   2.0000      -8.111950      -220.7374
  13   2.0000      -7.989870      -217.4154
  14   2.0000      -6.080410      -165.4564
  15   2.0000      -6.079368      -165.4280
  16   2.0000      -6.078203      -165.3963
  17   2.0000      -5.958098      -162.1281
  18   2.0000      -5.953996      -162.0165
  19   2.0000      -5.950972      -161.9342
  20   2.0000      -1.054919       -28.7058
  21   2.0000      -0.916793       -24.9472
  22   2.0000      -0.886409       -24.1204
  23   2.0000      -0.837909       -22.8007
  24   2.0000      -0.796545       -21.6751
  25   2.0000      -0.749406       -20.3924
  26   2.0000      -0.726902       -19.7800
  27   2.0000      -0.678511       -18.4632
  28   2.0000      -0.624426       -16.9915
  29   2.0000      -0.605546       -16.4777
  30   2.0000      -0.569952       -15.5092
  31   2.0000      -0.543462       -14.7884
  32   2.0000      -0.517193       -14.0735
  33   2.0000      -0.486677       -13.2432
  34   2.0000      -0.475070       -12.9273
  35   2.0000      -0.462276       -12.5792
  36   2.0000      -0.451469       -12.2851
  37   2.0000      -0.439869       -11.9695
  38   2.0000      -0.437738       -11.9115
  39   2.0000      -0.417582       -11.3630
  40   2.0000      -0.402011       -10.9393
  41   2.0000      -0.385172       -10.4811
  42   2.0000      -0.364835        -9.9277
  43   2.0000      -0.355208        -9.6657
  44   2.0000      -0.329359        -8.9623
  45   2.0000      -0.312751        -8.5104
  46   2.0000      -0.303018        -8.2455
  47   2.0000      -0.275970        -7.5095
  48   2.0000      -0.259305        -7.0561
  49   2.0000      -0.254899        -6.9362
  50   2.0000      -0.232907        -6.3377
  51   0.0000      -0.069711        -1.8969
  52   0.0000      -0.060842        -1.6556
  53   0.0000       0.006334         0.1724
  54   0.0000       0.038363         1.0439
  55   0.0000       0.047961         1.3051

MULLIKEN ATOMIC CHARGES
-----------------------
   0 C :   -0.131292
   1 S :    0.120712
   2 C :    0.104302
   3 C :    0.076749
   4 C :   -0.036875
   5 S :    0.611880
   6 N :   -0.395840
   7 O :   -0.475677
   8 C :    0.000641
   9 C :   -0.132593
  10 C :    0.014901
  11 C :   -0.024303
  12 H :    0.030229
  13 H :   -0.000076
  14 H :    0.043323
  15 H :    0.114421
  16 H :    0.017009
  17 H :    0.025853
  18 H :    0.036637
Sum of atomic charges:    0.0000000

LOEWDIN ATOMIC CHARGES
----------------------
   0 C :   -0.173348
   1 S :    0.444345
   2 C :   -0.075607
   3 C :   -0.013394
   4 C :   -0.157180
   5 S :    1.160117
   6 N :   -0.494228
   7 O :   -0.525841
   8 C :   -0.191684
   9 C :   -0.148309
  10 C :   -0.032742
  11 C :   -0.031294
  12 H :    0.030918
  13 H :    0.037826
  14 H :    0.032545
  15 H :    0.041545
  16 H :    0.042060
  17 H :    0.021299
  18 H :    0.032971

  Mayer bond orders larger than 0.100000
B(  0-C ,  1-S ) :   1.1475 B(  0-C ,  2-C ) :   1.5172 B(  0-C , 12-H ) :   0.9632
B(  1-S ,  9-C ) :   1.1147 B(  2-C ,  3-C ) :   1.0599 B(  2-C ,  8-C ) :   1.2363
B(  3-C ,  4-C ) :   1.7440 B(  3-C , 13-H ) :   0.9904 B(  4-C ,  5-S ) :   0.8111
B(  4-C , 14-H ) :   0.9579 B(  5-S ,  6-N ) :   1.5248 B(  5-S ,  7-O ) :   1.5973
B(  5-S ,  8-C ) :   0.7914 B(  6-N , 15-H ) :   0.9190 B(  8-C ,  9-C ) :   1.5844
B(  9-C , 10-C ) :   1.1500 B( 10-C , 11-C ) :   1.8904 B( 10-C , 16-H ) :   0.9480
B( 11-C , 17-H ) :   0.9542 B( 11-C , 18-H ) :   0.9478

Dispersion correction           -0.047716614
FINAL SINGLE POINT ENERGY     -1234.754050406585

DIPOLE MOMENT
-------------
                                X             Y             Z
Electronic contribution:     -0.67546      -2.86849       1.23184
Nuclear contribution   :      0.91941       1.71178      -1.49118
                        -----------------------------------------
Total Dipole Moment    :      0.24395      -1.15671      -0.25933
                        -----------------------------------------
Magnitude (a.u.)       :      1.21026
Magnitude (Debye)      :      3.07624

Rotational constants in cm-1:     0.038537     0.022647     0.015671
Rotational constants in MHz :  1155.301511   678.942669   469.790685

                             ****ORCA TERMINATED NORMALLY****
TOTAL RUN TIME: 0 days 0 hours 13 minutes 24 seconds 839 msec
