                         Program Version 4.2.0 -  RELEASE  -
|  1> # ORCA input file
|  2> # SCF done        -44.004729338044          0.000911946204
|  3> ! B3LYP/G D3BJ Opt RIJCOSX def2-SVP def2/J
|  4> * xyz 0 1
|  5>    C       -0.82511        -1.28805        -1.44900
|  6>    S       -2.06863        -2.39485        -1.01275
|  7>    C       -1.44652        -2.58784         0.58963
|  8>    C       -0.31252        -1.82360         0.74269
|  9>    C        0.04293        -1.07256        -0.42125
| 10>    O        1.13449        -0.28410        -0.37386
| 11>    C        1.43817         0.47837        -1.52858
| 12>    C        2.67574         1.30514        -1.22404
| 13>    O        0.42893        -1.75222         1.89232
| 14>    N        0.49418        -0.46628         2.50709
| 15>    O        1.24612        -0.43449         3.41250
| 16>    O       -0.20559         0.36906         2.05277
| 17>    C       -2.10616        -3.46950         1.51802
| 18>    C       -1.61169        -3.85453         2.69108
| 19>    H       -0.81820        -0.87489        -2.43609
| 20>    H        0.58695         1.12818        -1.77163
| 21>    H        1.61891        -0.19622        -2.37671
| 22>    H        2.48143         1.96706        -0.38457
| 23>    H        2.94526         1.89909        -2.09238
| 24>    H        3.50492         0.65158        -0.96627
| 25>    H       -3.07225        -3.82600         1.18566
| 26>    H       -0.64457        -3.53495         3.03652
| 27>    H       -2.16804        -4.50865         3.33910
| 28> *
| 29>
| 30>                          ****END OF INPUT****
 Total Charge           Charge          ....    0
 Multiplicity           Mult            ....    1
 Number of Electrons    NEL             ....  112
Dispersion correction           -0.044151010
FINAL SINGLE POINT ENERGY     -1063.363610827530
Dispersion correction            ... done
Dispersion correction           -0.043620571
FINAL SINGLE POINT ENERGY     -1063.367527147272
Dispersion correction            ... done
Dispersion correction           -0.043681931
FINAL SINGLE POINT ENERGY     -1063.366992924851
Dispersion correction            ... done
FINAL SINGLE POINT ENERGY     -1063.365480749331
FINAL SINGLE POINT ENERGY     -1063.368391092443
FINAL SINGLE POINT ENERGY     -1063.368491975538
FINAL SINGLE POINT ENERGY     -1063.368645218099
FINAL SINGLE POINT ENERGY     -1063.368687759919
FINAL SINGLE POINT ENERGY     -1063.368670685863
FINAL SINGLE POINT ENERGY     -1063.368682310720
Dispersion correction            ... done
Dispersion correction           -0.043762841
FINAL SINGLE POINT ENERGY     -1063.368689940865
Dispersion correction            ... done
Dispersion correction           -0.043761265
FINAL SINGLE POINT ENERGY     -1063.368694004837
Dispersion correction            ... done
                    ***********************HURRAY********************

CARTESIAN COORDINATES (ANGSTROEM)
---------------------------------
  C     -0.843090   -1.201456   -1.459557
  S     -2.091684   -2.312259   -0.986126
  C     -1.408196   -2.545280    0.596262
  C     -0.249714   -1.792195    0.719529
  C      0.072360   -1.018116   -0.448095
  O      1.167260   -0.241956   -0.431555
  C      1.486471    0.478307   -1.617355
  C      2.721545    1.308504   -1.339832
  O      0.527848   -1.785517    1.832957
  N      0.295806   -0.573755    2.717500
  O      0.961082   -0.627096    3.699787
  O     -0.487292    0.229295    2.316242
  C     -2.053363   -3.442809    1.541314
  C     -1.558875   -3.851058    2.723106
  H     -0.859809   -0.758940   -2.451072
  H      0.631703    1.118298   -1.904636
  H      1.656549   -0.238764   -2.442159
  H      2.521893    2.044892   -0.547380
  H      3.034544    1.848150   -2.246975
  H      3.549894    0.662569   -1.011934
  H     -3.035379   -3.812998    1.228292
  H     -0.579803   -3.534406    3.084731
  H     -2.141000   -4.523660    3.357206

 Multiplicity           Mult            ....    1
 Number of Electrons    NEL             ....  112
 Basis Dimension        Dim             ....  245

ORBITAL ENERGIES
----------------

  NO   OCC          E(Eh)            E(eV)
   0   2.0000     -88.885389     -2418.6944
   1   2.0000     -19.208517      -522.6903
   2   2.0000     -19.208112      -522.6793
   3   2.0000     -19.204703      -522.5865
   4   2.0000     -19.178369      -521.8700
   5   2.0000     -14.614476      -397.6801
   6   2.0000     -10.262845      -279.2662
   7   2.0000     -10.256993      -279.1070
   8   2.0000     -10.251926      -278.9691
   9   2.0000     -10.233615      -278.4708
  10   2.0000     -10.216104      -277.9943
  11   2.0000     -10.212276      -277.8902
  12   2.0000     -10.196477      -277.4602
  13   2.0000     -10.195828      -277.4426
  14   2.0000      -7.980202      -217.1523
  15   2.0000      -5.948345      -161.8627
  16   2.0000      -5.944555      -161.7596
  17   2.0000      -5.941176      -161.6676
  18   2.0000      -1.281690       -34.8765
  19   2.0000      -1.114234       -30.3199
  20   2.0000      -1.079526       -29.3754
  21   2.0000      -1.058530       -28.8041
  22   2.0000      -0.889213       -24.1967
  23   2.0000      -0.796520       -21.6744
  24   2.0000      -0.779043       -21.1988
  25   2.0000      -0.741254       -20.1705
  26   2.0000      -0.713867       -19.4253
  27   2.0000      -0.672053       -18.2875
  28   2.0000      -0.646138       -17.5823
  29   2.0000      -0.611397       -16.6370
  30   2.0000      -0.590545       -16.0695
  31   2.0000      -0.588068       -16.0021
  32   2.0000      -0.569882       -15.5073
  33   2.0000      -0.546972       -14.8839
  34   2.0000      -0.541217       -14.7273
  35   2.0000      -0.517825       -14.0907
  36   2.0000      -0.498792       -13.5728
  37   2.0000      -0.472128       -12.8473
  38   2.0000      -0.467034       -12.7086
  39   2.0000      -0.459597       -12.5063
  40   2.0000      -0.425600       -11.5812
  41   2.0000      -0.412687       -11.2298
  42   2.0000      -0.405075       -11.0227
  43   2.0000      -0.401121       -10.9150
  44   2.0000      -0.387750       -10.5512
  45   2.0000      -0.383738       -10.4420
  46   2.0000      -0.373216       -10.1557
  47   2.0000      -0.359659        -9.7868
  48   2.0000      -0.354053        -9.6343
  49   2.0000      -0.350227        -9.5301
  50   2.0000      -0.341977        -9.3057
  51   2.0000      -0.332129        -9.0377
  52   2.0000      -0.323396        -8.8001
  53   2.0000      -0.303350        -8.2546
  54   2.0000      -0.242902        -6.6097
  55   2.0000      -0.223982        -6.0949
  56   0.0000      -0.069698        -1.8966
  57   0.0000      -0.063295        -1.7223
  58   0.0000       0.004293         0.1168
  59   0.0000       0.024304         0.6613
  60   0.0000       0.031544         0.8583

MULLIKEN ATOMIC CHARGES
-----------------------
   0 C :   -0.211583
   1 S :    0.123620
   2 C :   -0.137359
   3 C :    0.160898
   4 C :    0.225453
   5 O :   -0.304205
   6 C :    0.156773
   7 C :    0.013692
   8 O :   -0.252527
   9 N :    0.374378
  10 O :   -0.164076
  11 O :   -0.160456
  12 C :    0.020472
  13 C :   -0.024071
  14 H :    0.023153
  15 H :    0.012903
  16 H :    0.012425
  17 H :    0.032082
  18 H :    0.015427
  19 H :    0.029744
  20 H :   -0.012841
  21 H :    0.036535
  22 H :    0.029564
Sum of atomic charges:    0.0000000

LOEWDIN ATOMIC CHARGES
----------------------
   0 C :   -0.253631
   1 S :    0.443877
   2 C :   -0.174202
   3 C :   -0.055911
   4 C :    0.004987
   5 O :   -0.092778
   6 C :    0.090466
   7 C :   -0.058619
   8 O :   -0.105339
   9 N :    0.324178
  10 O :   -0.136462
  11 O :   -0.138150
  12 C :   -0.045453
  13 C :   -0.032163
  14 H :    0.024056
  15 H :    0.012733
  16 H :    0.012718
  17 H :    0.031842
  18 H :    0.031944
  19 H :    0.032033
  20 H :    0.029516
  21 H :    0.025703
  22 H :    0.028653

  Mayer bond orders larger than 0.100000
B(  0-C ,  1-S ) :   1.0887 B(  0-C ,  4-C ) :   1.4722 B(  0-C , 14-H ) :   0.9692
B(  1-S ,  2-C ) :   1.1621 B(  2-C ,  3-C ) :   1.4499 B(  2-C , 12-C ) :   1.1268
B(  3-C ,  4-C ) :   1.2122 B(  3-C ,  8-O ) :   1.1138 B(  4-C ,  5-O ) :   1.1966
B(  5-O ,  6-C ) :   0.9325 B(  6-C ,  7-C ) :   1.1099 B(  6-C , 15-H ) :   0.9439
B(  6-C , 16-H ) :   0.9467 B(  7-C , 17-H ) :   0.9686 B(  7-C , 18-H ) :   0.9567
B(  7-C , 19-H ) :   0.9665 B(  8-O ,  9-N ) :   0.7614 B(  8-O , 11-O ) :   0.1090
B(  9-N , 10-O ) :   1.6829 B(  9-N , 11-O ) :   1.6376 B( 10-O , 11-O ) :   0.2633
B( 12-C , 13-C ) :   1.9150 B( 12-C , 20-H ) :   0.9461 B( 13-C , 21-H ) :   0.9458
B( 13-C , 22-H ) :   0.9425

Dispersion correction           -0.043760436
FINAL SINGLE POINT ENERGY     -1063.368692895087

DIPOLE MOMENT
-------------
                                X             Y             Z
Electronic contribution:     -6.50017      -3.90113       6.57319
Nuclear contribution   :      6.36661       4.03833      -7.75079
                        -----------------------------------------
Total Dipole Moment    :     -0.13356       0.13720      -1.17761
                        -----------------------------------------
Magnitude (a.u.)       :      1.19307
Magnitude (Debye)      :      3.03254

Rotational constants in cm-1:     0.024773     0.017835     0.011303
Rotational constants in MHz :   742.679847   534.677619   338.841405

                             ****ORCA TERMINATED NORMALLY****
TOTAL RUN TIME: 0 days 0 hours 27 minutes 0 seconds 796 msec
