                         Program Version 4.2.0 -  RELEASE  -
|  1> # ORCA input file
|  2> # SCF done        -33.349989463845          0.000283568704
|  3> ! B3LYP/G D3BJ Opt RIJCOSX def2-SVP def2/J
|  4> * xyz 0 1
|  5>    C        3.26757         1.26929         0.69501
|  6>    C        2.68780         0.07380         0.61778
|  7>    C        3.10196        -1.08082         1.36319
|  8>    O        4.15376        -1.03226         2.21806
|  9>    C        4.30909        -2.25860         2.77709
| 10>    C        3.34335        -3.10992         2.27569
| 11>    C        2.56645        -2.35493         1.36590
| 12>    O        1.50920        -2.79601         0.64338
| 13>    O        3.10965        -4.42717         2.54514
| 14>    C        5.35585        -2.50732         3.72872
| 15>    C        6.24183        -1.59738         4.12852
| 16>    H        2.91821         2.10400         0.11426
| 17>    H        4.10891         1.43958         1.34423
| 18>    H        1.84240        -0.10743        -0.03018
| 19>    H        1.37533        -3.72761         0.85963
| 20>    H        3.75297        -4.74027         3.18914
| 21>    H        5.39087        -3.51617         4.12210
| 22>    H        6.21489        -0.59381         3.74280
| 23>    H        7.00879        -1.83207         4.84436
| 24> *
| 25>
| 26>                          ****END OF INPUT****
 Total Charge           Charge          ....    0
 Multiplicity           Mult            ....    1
 Number of Electrons    NEL             ....   80
Dispersion correction           -0.031095520
FINAL SINGLE POINT ENERGY      -534.906305730386
Dispersion correction            ... done
Dispersion correction           -0.030997359
FINAL SINGLE POINT ENERGY      -534.908433204807
Dispersion correction            ... done
Dispersion correction           -0.030968812
FINAL SINGLE POINT ENERGY      -534.908598193827
Dispersion correction            ... done
FINAL SINGLE POINT ENERGY      -534.908632686710
FINAL SINGLE POINT ENERGY      -534.908630130729
FINAL SINGLE POINT ENERGY      -534.908624534994
FINAL SINGLE POINT ENERGY      -534.908618670545
FINAL SINGLE POINT ENERGY      -534.908608914338
FINAL SINGLE POINT ENERGY      -534.908599898122
Dispersion correction            ... done
Dispersion correction           -0.030951700
FINAL SINGLE POINT ENERGY      -534.908588734167
Dispersion correction            ... done
Dispersion correction           -0.030952101
FINAL SINGLE POINT ENERGY      -534.908586228206
Dispersion correction            ... done
                    ***********************HURRAY********************

CARTESIAN COORDINATES (ANGSTROEM)
---------------------------------
  C      3.241331    1.299026    0.695888
  C      2.690973    0.075677    0.595222
  C      3.091054   -1.090901    1.335634
  O      4.149393   -1.036553    2.202953
  C      4.304782   -2.259564    2.792673
  C      3.331873   -3.112373    2.300154
  C      2.558603   -2.366195    1.364212
  O      1.505423   -2.814207    0.647487
  O      3.060764   -4.414547    2.568509
  C      5.352367   -2.482391    3.752855
  C      6.298250   -1.605480    4.136829
  H      2.868219    2.131812    0.096887
  H      4.070549    1.494506    1.380307
  H      1.854724   -0.100734   -0.087936
  H      1.388660   -3.755709    0.838352
  H      3.752622   -4.793871    3.125347
  H      5.349104   -3.481999    4.203534
  H      6.344686   -0.599797    3.712580
  H      7.045502   -1.881799    4.883334

 Multiplicity           Mult            ....    1
 Number of Electrons    NEL             ....   80
 Basis Dimension        Dim             ....  194

ORBITAL ENERGIES
----------------

  NO   OCC          E(Eh)            E(eV)
   0   2.0000     -19.193909      -522.2928
   1   2.0000     -19.188440      -522.1440
   2   2.0000     -19.173375      -521.7341
   3   2.0000     -10.253319      -279.0070
   4   2.0000     -10.247493      -278.8485
   5   2.0000     -10.243530      -278.7406
   6   2.0000     -10.237679      -278.5814
   7   2.0000     -10.207612      -277.7632
   8   2.0000     -10.194608      -277.4094
   9   2.0000     -10.188982      -277.2563
  10   2.0000     -10.180563      -277.0272
  11   2.0000      -1.102463       -29.9995
  12   2.0000      -1.071497       -29.1569
  13   2.0000      -1.053425       -28.6652
  14   2.0000      -0.807412       -21.9708
  15   2.0000      -0.793358       -21.5884
  16   2.0000      -0.768731       -20.9182
  17   2.0000      -0.706358       -19.2210
  18   2.0000      -0.646524       -17.5928
  19   2.0000      -0.618079       -16.8188
  20   2.0000      -0.599347       -16.3091
  21   2.0000      -0.576285       -15.6815
  22   2.0000      -0.537053       -14.6139
  23   2.0000      -0.503310       -13.6958
  24   2.0000      -0.490311       -13.3420
  25   2.0000      -0.475101       -12.9282
  26   2.0000      -0.457623       -12.4526
  27   2.0000      -0.437824       -11.9138
  28   2.0000      -0.432429       -11.7670
  29   2.0000      -0.414285       -11.2733
  30   2.0000      -0.404956       -11.0194
  31   2.0000      -0.399247       -10.8641
  32   2.0000      -0.388285       -10.5658
  33   2.0000      -0.374537       -10.1917
  34   2.0000      -0.360286        -9.8039
  35   2.0000      -0.348430        -9.4813
  36   2.0000      -0.317756        -8.6466
  37   2.0000      -0.284133        -7.7317
  38   2.0000      -0.233719        -6.3598
  39   2.0000      -0.192546        -5.2394
  40   0.0000      -0.048723        -1.3258
  41   0.0000       0.012403         0.3375
  42   0.0000       0.016821         0.4577
  43   0.0000       0.057148         1.5551
  44   0.0000       0.078032         2.1234

MULLIKEN ATOMIC CHARGES
-----------------------
   0 C :   -0.012979
   1 C :   -0.027783
   2 C :    0.059893
   3 O :   -0.243439
   4 C :    0.085830
   5 C :    0.073685
   6 C :    0.095287
   7 O :   -0.184194
   8 O :   -0.206126
   9 C :   -0.048553
  10 C :   -0.016892
  11 H :    0.017314
  12 H :    0.021900
  13 H :   -0.001308
  14 H :    0.187209
  15 H :    0.189713
  16 H :   -0.035803
  17 H :    0.027179
  18 H :    0.019067
Sum of atomic charges:   -0.0000000

LOEWDIN ATOMIC CHARGES
----------------------
   0 C :   -0.053430
   1 C :   -0.040458
   2 C :    0.001599
   3 O :   -0.009600
   4 C :   -0.017535
   5 C :   -0.022433
   6 C :   -0.009065
   7 O :   -0.048150
   8 O :   -0.059160
   9 C :   -0.052934
  10 C :   -0.053330
  11 H :    0.024450
  12 H :    0.024142
  13 H :    0.039105
  14 H :    0.100051
  15 H :    0.099213
  16 H :    0.024052
  17 H :    0.027998
  18 H :    0.025485

  Mayer bond orders larger than 0.100000
B(  0-C ,  1-C ) :   1.8698 B(  0-C , 11-H ) :   0.9402 B(  0-C , 12-H ) :   0.9542
B(  1-C ,  2-C ) :   1.1684 B(  1-C , 13-H ) :   0.9528 B(  2-C ,  3-O ) :   1.1007
B(  2-C ,  4-C ) :   0.1064 B(  2-C ,  6-C ) :   1.4052 B(  3-O ,  4-C ) :   1.1030
B(  4-C ,  5-C ) :   1.3316 B(  4-C ,  9-C ) :   1.1497 B(  5-C ,  6-C ) :   1.2124
B(  5-C ,  8-O ) :   1.2144 B(  6-C ,  7-O ) :   1.2533 B(  7-O , 14-H ) :   0.9546
B(  8-O , 15-H ) :   0.9557 B(  9-C , 10-C ) :   1.8908 B(  9-C , 16-H ) :   0.9436
B( 10-C , 17-H ) :   0.9540 B( 10-C , 18-H ) :   0.9379

Dispersion correction           -0.030951930
FINAL SINGLE POINT ENERGY      -534.908585602173

DIPOLE MOMENT
-------------
                                X             Y             Z
Electronic contribution:     -3.66316      -4.56854      -1.40244
Nuclear contribution   :      3.83149       3.55987       1.78419
                        -----------------------------------------
Total Dipole Moment    :      0.16834      -1.00867       0.38175
                        -----------------------------------------
Magnitude (a.u.)       :      1.09155
Magnitude (Debye)      :      2.77449

Rotational constants in cm-1:     0.045548     0.034069     0.019497
Rotational constants in MHz :  1365.505292  1021.365396   584.494236

                             ****ORCA TERMINATED NORMALLY****
TOTAL RUN TIME: 0 days 0 hours 10 minutes 28 seconds 775 msec
