                         Program Version 4.2.0 -  RELEASE  -
|  1> # ORCA input file
|  2> # SCF done        -45.440927625736          0.000450084376
|  3> ! B3LYP/G D3BJ Opt RIJCOSX def2-SVP def2/J
|  4> * xyz 0 1
|  5>    C       -1.56364        -1.23385         0.22572
|  6>    S       -2.76492        -0.03461         0.15186
|  7>    C       -1.61389         1.22060        -0.00324
|  8>    C       -0.32799         0.73973         0.00024
|  9>    C       -0.29372        -0.69627         0.13488
| 10>    C        0.93812        -1.37657         0.15938
| 11>    C        2.10516        -0.65251         0.04888
| 12>    C        3.43079        -1.25843         0.05635
| 13>    O        4.47324        -0.66828        -0.08761
| 14>    C        3.49156        -2.80076         0.27560
| 15>    F        2.91764        -3.17335         1.43458
| 16>    F        2.86307        -3.48215        -0.70040
| 17>    F        4.74806        -3.23650         0.30608
| 18>    C        2.06444         0.77261        -0.08758
| 19>    C        0.89388         1.45372        -0.10936
| 20>    H       -1.83314        -2.26552         0.33121
| 21>    H       -1.93988         2.23756        -0.08870
| 22>    H        0.92446        -2.44971         0.25911
| 23>    H        3.01149         1.28260        -0.16989
| 24>    H        0.86968         2.52776        -0.20890
| 25> *
| 26>
| 27>                          ****END OF INPUT****
 Total Charge           Charge          ....    0
 Multiplicity           Mult            ....    1
 Number of Electrons    NEL             ....  116
Dispersion correction           -0.045254789
FINAL SINGLE POINT ENERGY     -1156.376024216237
Dispersion correction            ... done
Dispersion correction           -0.045059312
FINAL SINGLE POINT ENERGY     -1156.378741122633
Dispersion correction            ... done
Dispersion correction           -0.044915224
FINAL SINGLE POINT ENERGY     -1156.378365228059
Dispersion correction            ... done
FINAL SINGLE POINT ENERGY     -1156.378778071547
FINAL SINGLE POINT ENERGY     -1156.378844499099
Dispersion correction            ... done
Dispersion correction           -0.044958734
FINAL SINGLE POINT ENERGY     -1156.378805395939
Dispersion correction            ... done
Dispersion correction           -0.044953744
FINAL SINGLE POINT ENERGY     -1156.378826943116
Dispersion correction            ... done
                    ***********************HURRAY********************

CARTESIAN COORDINATES (ANGSTROEM)
---------------------------------
  C     -1.606901   -1.238831    0.158657
  S     -2.798596   -0.014137    0.133789
  C     -1.643111    1.252978    0.032138
  C     -0.347822    0.755046    0.013587
  C     -0.324935   -0.696600    0.094077
  C      0.919500   -1.386569    0.101629
  C      2.097113   -0.667639    0.018360
  C      3.432796   -1.305703    0.004766
  O      4.462217   -0.702325   -0.197371
  C      3.544123   -2.824689    0.330640
  F      3.109975   -3.061726    1.581089
  F      2.803985   -3.581222   -0.505999
  F      4.803291   -3.229132    0.241253
  C      2.069389    0.771357   -0.078782
  C      0.893291    1.465053   -0.074275
  H     -1.886679   -2.288616    0.223036
  H     -1.965089    2.291303   -0.017634
  H      0.918045   -2.473810    0.166437
  H      3.027997    1.285975   -0.154092
  H      0.885822    2.555353   -0.143096

 Multiplicity           Mult            ....    1
 Number of Electrons    NEL             ....  116
 Basis Dimension        Dim             ....  239

ORBITAL ENERGIES
----------------

  NO   OCC          E(Eh)            E(eV)
   0   2.0000     -88.906414     -2419.2665
   1   2.0000     -24.730058      -672.9391
   2   2.0000     -24.728443      -672.8951
   3   2.0000     -24.725924      -672.8266
   4   2.0000     -19.152019      -521.1529
   5   2.0000     -10.437304      -284.0135
   6   2.0000     -10.300171      -280.2819
   7   2.0000     -10.235580      -278.5243
   8   2.0000     -10.230262      -278.3796
   9   2.0000     -10.226287      -278.2714
  10   2.0000     -10.220930      -278.1256
  11   2.0000     -10.219755      -278.0937
  12   2.0000     -10.219634      -278.0904
  13   2.0000     -10.211586      -277.8714
  14   2.0000     -10.207302      -277.7548
  15   2.0000      -8.001012      -217.7186
  16   2.0000      -5.968619      -162.4144
  17   2.0000      -5.964445      -162.3008
  18   2.0000      -5.963611      -162.2781
  19   2.0000      -1.308547       -35.6074
  20   2.0000      -1.217001       -33.1163
  21   2.0000      -1.215206       -33.0674
  22   2.0000      -1.060023       -28.8447
  23   2.0000      -0.911958       -24.8156
  24   2.0000      -0.852936       -23.2096
  25   2.0000      -0.787127       -21.4188
  26   2.0000      -0.765119       -20.8200
  27   2.0000      -0.737279       -20.0624
  28   2.0000      -0.713804       -19.4236
  29   2.0000      -0.656570       -17.8662
  30   2.0000      -0.638430       -17.3726
  31   2.0000      -0.605117       -16.4661
  32   2.0000      -0.602585       -16.3972
  33   2.0000      -0.594855       -16.1868
  34   2.0000      -0.590042       -16.0559
  35   2.0000      -0.539462       -14.6795
  36   2.0000      -0.526332       -14.3222
  37   2.0000      -0.493163       -13.4196
  38   2.0000      -0.481031       -13.0895
  39   2.0000      -0.478269       -13.0144
  40   2.0000      -0.469830       -12.7847
  41   2.0000      -0.458038       -12.4639
  42   2.0000      -0.450690       -12.2639
  43   2.0000      -0.445425       -12.1206
  44   2.0000      -0.434790       -11.8313
  45   2.0000      -0.430269       -11.7082
  46   2.0000      -0.427577       -11.6350
  47   2.0000      -0.418697       -11.3933
  48   2.0000      -0.415005       -11.2929
  49   2.0000      -0.411456       -11.1963
  50   2.0000      -0.397365       -10.8128
  51   2.0000      -0.373488       -10.1631
  52   2.0000      -0.361789        -9.8448
  53   2.0000      -0.352763        -9.5992
  54   2.0000      -0.308584        -8.3970
  55   2.0000      -0.283249        -7.7076
  56   2.0000      -0.271709        -7.3936
  57   2.0000      -0.228920        -6.2292
  58   0.0000      -0.096206        -2.6179
  59   0.0000      -0.054712        -1.4888
  60   0.0000       0.003766         0.1025
  61   0.0000       0.027926         0.7599
  62   0.0000       0.032136         0.8745

MULLIKEN ATOMIC CHARGES
-----------------------
   0 C :   -0.125920
   1 S :    0.159077
   2 C :   -0.140818
   3 C :    0.106590
   4 C :    0.092070
   5 C :   -0.000069
   6 C :   -0.024560
   7 C :    0.024276
   8 O :   -0.162331
   9 C :    0.516897
  10 F :   -0.173731
  11 F :   -0.180054
  12 F :   -0.136358
  13 C :    0.007601
  14 C :    0.006142
  15 H :    0.030061
  16 H :    0.024918
  17 H :   -0.006059
  18 H :    0.000038
  19 H :   -0.017771
Sum of atomic charges:   -0.0000000

LOEWDIN ATOMIC CHARGES
----------------------
   0 C :   -0.192936
   1 S :    0.503521
   2 C :   -0.205304
   3 C :   -0.044278
   4 C :   -0.054874
   5 C :    0.022524
   6 C :   -0.078305
   7 C :    0.035391
   8 O :   -0.110456
   9 C :    0.144087
  10 F :   -0.062496
  11 F :   -0.065752
  12 F :   -0.030782
  13 C :   -0.003656
  14 C :   -0.013238
  15 H :    0.030291
  16 H :    0.028344
  17 H :    0.029488
  18 H :    0.035627
  19 H :    0.032805

  Mayer bond orders larger than 0.100000
B(  0-C ,  1-S ) :   1.2308 B(  0-C ,  2-C ) :   0.1095 B(  0-C ,  4-C ) :   1.3820
B(  0-C , 15-H ) :   0.9636 B(  1-S ,  2-C ) :   1.1968 B(  2-C ,  3-C ) :   1.4182
B(  2-C , 16-H ) :   0.9647 B(  3-C ,  4-C ) :   1.1963 B(  3-C , 14-C ) :   1.1593
B(  4-C ,  5-C ) :   1.1841 B(  5-C ,  6-C ) :   1.4769 B(  5-C , 17-H ) :   0.9765
B(  6-C ,  7-C ) :   0.9658 B(  6-C , 13-C ) :   1.1847 B(  7-C ,  8-O ) :   2.1475
B(  7-C ,  9-C ) :   0.8678 B(  9-C , 10-F ) :   1.1305 B(  9-C , 11-F ) :   1.0832
B(  9-C , 12-F ) :   1.1848 B( 13-C , 14-C ) :   1.5513 B( 13-C , 18-H ) :   0.9857
B( 14-C , 19-H ) :   0.9965

Dispersion correction           -0.044956090
FINAL SINGLE POINT ENERGY     -1156.378828370539

DIPOLE MOMENT
-------------
                                X             Y             Z
Electronic contribution:      9.61248     -11.96172       1.44166
Nuclear contribution   :    -11.29255      12.43652      -1.43190
                        -----------------------------------------
Total Dipole Moment    :     -1.68007       0.47479       0.00976
                        -----------------------------------------
Magnitude (a.u.)       :      1.74589
Magnitude (Debye)      :      4.43771

Rotational constants in cm-1:     0.043986     0.009364     0.008061
Rotational constants in MHz :  1318.662178   280.728055   241.654839

                             ****ORCA TERMINATED NORMALLY****
TOTAL RUN TIME: 0 days 0 hours 11 minutes 22 seconds 646 msec
