                         Program Version 4.2.0 -  RELEASE  -
|  1> # ORCA input file
|  2> # SCF done        -31.914451402658          0.000755858749
|  3> ! B3LYP/G D3BJ Opt RIJCOSX def2-SVP def2/J
|  4> * xyz 0 1
|  5>    C        0.00042        -1.49088         0.00051
|  6>    C       -1.15969        -0.73810        -0.00105
|  7>    N       -2.48347        -1.10105        -0.00220
|  8>    C       -3.20526         0.06008        -0.00409
|  9>    N       -2.47726         1.12553        -0.00392
| 10>    C       -1.17183         0.68886        -0.00228
| 11>    C        0.00014         1.42771        -0.00189
| 12>    C        1.17224         0.68909        -0.00034
| 13>    C        1.16039        -0.73787         0.00088
| 14>    N        2.48423        -1.10058         0.00187
| 15>    C        3.20580         0.06069         0.00117
| 16>    N        2.47760         1.12601         0.00014
| 17>    H        0.00053        -2.57036         0.00146
| 18>    H       -2.84637        -2.03875        -0.00205
| 19>    H       -4.27879         0.06146        -0.00544
| 20>    H        0.00004         2.50330        -0.00262
| 21>    H        2.84730        -2.03821         0.00273
| 22>    H        4.27933         0.06229         0.00158
| 23> *
| 24>
| 25>                          ****END OF INPUT****
 Total Charge           Charge          ....    0
 Multiplicity           Mult            ....    1
 Number of Electrons    NEL             ....   82
Dispersion correction           -0.036278486
FINAL SINGLE POINT ENERGY      -527.139426246384
Dispersion correction            ... done
Dispersion correction           -0.036456170
FINAL SINGLE POINT ENERGY      -527.142533718006
Dispersion correction            ... done
Dispersion correction           -0.036456710
FINAL SINGLE POINT ENERGY      -527.142615627876
Dispersion correction            ... done
Dispersion correction           -0.036451957
FINAL SINGLE POINT ENERGY      -527.142631368214
Dispersion correction            ... done
Dispersion correction           -0.036449473
FINAL SINGLE POINT ENERGY      -527.142636634518
Dispersion correction            ... done
                    ***********************HURRAY********************

CARTESIAN COORDINATES (ANGSTROEM)
---------------------------------
  C      0.000419   -1.504456    0.000121
  C     -1.170962   -0.743907   -0.001399
  N     -2.507609   -1.100042   -0.002193
  C     -3.240189    0.070259   -0.003729
  N     -2.503678    1.144070   -0.004045
  C     -1.188981    0.690842   -0.002541
  C      0.000141    1.424921   -0.002111
  C      1.189401    0.691068   -0.000599
  C      1.171657   -0.743685    0.000498
  N      2.508372   -1.099563    0.001862
  C      3.240729    0.070882    0.001563
  N      2.504009    1.144549    0.000079
  H      0.000523   -2.596597    0.000988
  H     -2.879497   -2.040292   -0.001850
  H     -4.331907    0.052404   -0.004667
  H      0.000037    2.515265   -0.002987
  H      2.880437   -2.039742    0.002942
  H      4.332449    0.053245    0.002528

 Multiplicity           Mult            ....    1
 Number of Electrons    NEL             ....   82
 Basis Dimension        Dim             ....  198

ORBITAL ENERGIES
----------------

  NO   OCC          E(Eh)            E(eV)
   0   2.0000     -14.382586      -391.3701
   1   2.0000     -14.382560      -391.3693
   2   2.0000     -14.304168      -389.2362
   3   2.0000     -14.304139      -389.2354
   4   2.0000     -10.250254      -278.9236
   5   2.0000     -10.250247      -278.9234
   6   2.0000     -10.227508      -278.3046
   7   2.0000     -10.227470      -278.3036
   8   2.0000     -10.203977      -277.6643
   9   2.0000     -10.203946      -277.6635
  10   2.0000     -10.200569      -277.5716
  11   2.0000     -10.184212      -277.1265
  12   2.0000      -1.008734       -27.4491
  13   2.0000      -1.005114       -27.3505
  14   2.0000      -0.871661       -23.7191
  15   2.0000      -0.867185       -23.5973
  16   2.0000      -0.829178       -22.5631
  17   2.0000      -0.733192       -19.9512
  18   2.0000      -0.728439       -19.8218
  19   2.0000      -0.649881       -17.6842
  20   2.0000      -0.618967       -16.8429
  21   2.0000      -0.616541       -16.7769
  22   2.0000      -0.592479       -16.1222
  23   2.0000      -0.545068       -14.8321
  24   2.0000      -0.541916       -14.7463
  25   2.0000      -0.520752       -14.1704
  26   2.0000      -0.451077       -12.2744
  27   2.0000      -0.450854       -12.2684
  28   2.0000      -0.447890       -12.1877
  29   2.0000      -0.446159       -12.1406
  30   2.0000      -0.432487       -11.7686
  31   2.0000      -0.432425       -11.7669
  32   2.0000      -0.398852       -10.8533
  33   2.0000      -0.375384       -10.2147
  34   2.0000      -0.324187        -8.8216
  35   2.0000      -0.318819        -8.6755
  36   2.0000      -0.291786        -7.9399
  37   2.0000      -0.271258        -7.3813
  38   2.0000      -0.267194        -7.2707
  39   2.0000      -0.220268        -5.9938
  40   2.0000      -0.211166        -5.7461
  41   0.0000      -0.030720        -0.8359
  42   0.0000       0.019619         0.5339
  43   0.0000       0.044553         1.2124
  44   0.0000       0.046009         1.2520
  45   0.0000       0.052041         1.4161

MULLIKEN ATOMIC CHARGES
-----------------------
   0 C :   -0.149995
   1 C :    0.108604
   2 N :   -0.081180
   3 C :    0.107739
   4 N :   -0.125676
   5 C :    0.032993
   6 C :   -0.109364
   7 C :    0.032999
   8 C :    0.108597
   9 N :   -0.081181
  10 C :    0.107743
  11 N :   -0.125675
  12 H :   -0.058431
  13 H :    0.117056
  14 H :    0.015686
  15 H :   -0.032660
  16 H :    0.117056
  17 H :    0.015688
Sum of atomic charges:   -0.0000000

LOEWDIN ATOMIC CHARGES
----------------------
   0 C :   -0.095941
   1 C :    0.000566
   2 N :    0.041889
   3 C :    0.037317
   4 N :   -0.125907
   5 C :   -0.033607
   6 C :   -0.017147
   7 C :   -0.033607
   8 C :    0.000566
   9 N :    0.041889
  10 C :    0.037318
  11 N :   -0.125906
  12 H :    0.022233
  13 H :    0.086701
  14 H :    0.018962
  15 H :    0.039011
  16 H :    0.086701
  17 H :    0.018962

  Mayer bond orders larger than 0.100000
B(  0-C ,  1-C ) :   1.2952 B(  0-C ,  6-C ) :   0.1638 B(  0-C ,  8-C ) :   1.2952
B(  0-C , 12-H ) :   1.0225 B(  1-C ,  2-N ) :   1.1542 B(  1-C ,  5-C ) :   1.2480
B(  2-N ,  3-C ) :   1.1542 B(  2-N , 13-H ) :   0.9308 B(  3-C ,  4-N ) :   1.7091
B(  3-C , 14-H ) :   0.9730 B(  4-N ,  5-C ) :   1.3097 B(  5-C ,  6-C ) :   1.2830
B(  6-C ,  7-C ) :   1.2830 B(  6-C , 15-H ) :   1.0508 B(  7-C ,  8-C ) :   1.2480
B(  7-C , 11-N ) :   1.3097 B(  8-C ,  9-N ) :   1.1542 B(  9-N , 10-C ) :   1.1542
B(  9-N , 16-H ) :   0.9308 B( 10-C , 11-N ) :   1.7090 B( 10-C , 17-H ) :   0.9730

Dispersion correction           -0.036449197
FINAL SINGLE POINT ENERGY      -527.142638271288

DIPOLE MOMENT
-------------
                                X             Y             Z
Electronic contribution:     -0.00010       1.11939      -0.00083
Nuclear contribution   :      0.00035      -3.68406       0.00289
                        -----------------------------------------
Total Dipole Moment    :      0.00025      -2.56466       0.00206
                        -----------------------------------------
Magnitude (a.u.)       :      2.56466
Magnitude (Debye)      :      6.51886

Rotational constants in cm-1:     0.100036     0.023234     0.018855
Rotational constants in MHz :  2999.011229   696.531576   565.250121

                             ****ORCA TERMINATED NORMALLY****
TOTAL RUN TIME: 0 days 0 hours 5 minutes 38 seconds 392 msec
