                         Program Version 4.2.0 -  RELEASE  -
|  1> # ORCA input file
|  2> # SCF done        -20.313422679665          0.000363876199
|  3> ! B3LYP/G D3BJ Opt RIJCOSX def2-SVP def2/J
|  4> * xyz 0 1
|  5>    S        0.95591        -0.00979         0.04161
|  6>    C        2.71190         0.08936         0.04978
|  7>    C        3.44229         1.23520         0.05538
|  8>    S        5.13539         0.92551         0.06257
|  9>    C        4.85886        -0.77334         0.05802
| 10>    C        3.53436        -1.07679         0.05131
| 11>    S        2.85155        -2.69761         0.04485
| 12>    H        0.75993         1.30758         0.04445
| 13>    H        3.08640         2.24585         0.05571
| 14>    H        5.69145        -1.44778         0.06057
| 15>    H        4.02669        -3.32441         0.04879
| 16> *
| 17>
| 18>                          ****END OF INPUT****
 Total Charge           Charge          ....    0
 Multiplicity           Mult            ....    1
 Number of Electrons    NEL             ....   76
Dispersion correction           -0.027987918
FINAL SINGLE POINT ENERGY     -1348.968493031865
Dispersion correction            ... done
Dispersion correction           -0.027908024
FINAL SINGLE POINT ENERGY     -1348.970388732235
Dispersion correction            ... done
Dispersion correction           -0.027888669
FINAL SINGLE POINT ENERGY     -1348.970521096475
Dispersion correction            ... done
FINAL SINGLE POINT ENERGY     -1348.970535298915
FINAL SINGLE POINT ENERGY     -1348.970536922670
Dispersion correction            ... done
Dispersion correction           -0.027895326
FINAL SINGLE POINT ENERGY     -1348.970539578434
Dispersion correction            ... done
Dispersion correction           -0.027896980
FINAL SINGLE POINT ENERGY     -1348.970542663821
Dispersion correction            ... done
                    ***********************HURRAY********************

CARTESIAN COORDINATES (ANGSTROEM)
---------------------------------
  S      0.947662   -0.034171    0.021484
  C      2.716025    0.101832    0.045241
  C      3.456709    1.259263    0.051458
  S      5.157867    0.941283    0.063253
  C      4.886044   -0.767689    0.061913
  C      3.547158   -1.078931    0.053878
  S      2.823726   -2.699349    0.060269
  H      0.706845    1.294656    0.069096
  H      3.088102    2.283401    0.044659
  H      5.729939   -1.455053    0.071069
  H      3.994653   -3.371463    0.030720

 Multiplicity           Mult            ....    1
 Number of Electrons    NEL             ....   76
 Basis Dimension        Dim             ....  130

ORBITAL ENERGIES
----------------

  NO   OCC          E(Eh)            E(eV)
   0   2.0000     -88.878956     -2418.5193
   1   2.0000     -88.859208     -2417.9820
   2   2.0000     -88.858602     -2417.9655
   3   2.0000     -10.229992      -278.3722
   4   2.0000     -10.229551      -278.3602
   5   2.0000     -10.217556      -278.0338
   6   2.0000     -10.217204      -278.0243
   7   2.0000      -7.973996      -216.9835
   8   2.0000      -7.953548      -216.4271
   9   2.0000      -7.953109      -216.4151
  10   2.0000      -5.942232      -161.6963
  11   2.0000      -5.938232      -161.5875
  12   2.0000      -5.935007      -161.4998
  13   2.0000      -5.922934      -161.1712
  14   2.0000      -5.922352      -161.1554
  15   2.0000      -5.919027      -161.0649
  16   2.0000      -5.918624      -161.0539
  17   2.0000      -5.912260      -160.8808
  18   2.0000      -5.911883      -160.8705
  19   2.0000      -0.893437       -24.3116
  20   2.0000      -0.796132       -21.6639
  21   2.0000      -0.780388       -21.2354
  22   2.0000      -0.695929       -18.9372
  23   2.0000      -0.689784       -18.7700
  24   2.0000      -0.584499       -15.9050
  25   2.0000      -0.530782       -14.4433
  26   2.0000      -0.507062       -13.7979
  27   2.0000      -0.432140       -11.7591
  28   2.0000      -0.414995       -11.2926
  29   2.0000      -0.407846       -11.0981
  30   2.0000      -0.404349       -11.0029
  31   2.0000      -0.392911       -10.6916
  32   2.0000      -0.344610        -9.3773
  33   2.0000      -0.341102        -9.2819
  34   2.0000      -0.307545        -8.3687
  35   2.0000      -0.297427        -8.0934
  36   2.0000      -0.222585        -6.0569
  37   2.0000      -0.215973        -5.8769
  38   0.0000      -0.022841        -0.6215
  39   0.0000      -0.006939        -0.1888
  40   0.0000       0.031010         0.8438
  41   0.0000       0.043179         1.1750
  42   0.0000       0.047738         1.2990

MULLIKEN ATOMIC CHARGES
-----------------------
   0 S :    0.036598
   1 C :   -0.032058
   2 C :   -0.134192
   3 S :    0.104875
   4 C :   -0.142056
   5 C :   -0.025983
   6 S :    0.033427
   7 H :    0.058163
   8 H :    0.019119
   9 H :    0.021949
  10 H :    0.060157
Sum of atomic charges:    0.0000000

LOEWDIN ATOMIC CHARGES
----------------------
   0 S :    0.219356
   1 C :   -0.209494
   2 C :   -0.227544
   3 S :    0.428736
   4 C :   -0.228338
   5 C :   -0.209128
   6 S :    0.218247
   7 H :   -0.019013
   8 H :    0.022628
   9 H :    0.022990
  10 H :   -0.018440

  Mayer bond orders larger than 0.100000
B(  0-S ,  1-C ) :   1.0483 B(  0-S ,  7-H ) :   0.9517 B(  1-C ,  2-C ) :   1.5747
B(  1-C ,  5-C ) :   1.2657 B(  2-C ,  3-S ) :   1.1566 B(  2-C ,  8-H ) :   0.9679
B(  3-S ,  4-C ) :   1.1582 B(  4-C ,  5-C ) :   1.5774 B(  4-C ,  9-H ) :   0.9653
B(  5-C ,  6-S ) :   1.0474 B(  6-S , 10-H ) :   0.9518

Dispersion correction           -0.027895038
FINAL SINGLE POINT ENERGY     -1348.970542759592

DIPOLE MOMENT
-------------
                                X             Y             Z
Electronic contribution:     -0.29085      -0.20885      -0.00869
Nuclear contribution   :      0.67192       0.47669       0.01459
                        -----------------------------------------
Total Dipole Moment    :      0.38106       0.26783       0.00590
                        -----------------------------------------
Magnitude (a.u.)       :      0.46581
Magnitude (Debye)      :      1.18399

Rotational constants in cm-1:     0.068317     0.043155     0.026449
Rotational constants in MHz :  2048.088542  1293.747592   792.906848

                             ****ORCA TERMINATED NORMALLY****
TOTAL RUN TIME: 0 days 0 hours 2 minutes 52 seconds 580 msec
