                         Program Version 4.2.0 -  RELEASE  -
|  1> # ORCA input file
|  2> # SCF done        -38.948777564275          0.000824037863
|  3> ! B3LYP/G D3BJ Opt RIJCOSX def2-SVP def2/J
|  4> * xyz 0 1
|  5>    C        1.61078        -1.33199         0.06973
|  6>    S        2.81171        -0.11910         0.15625
|  7>    C        1.60977         1.14647         0.13781
|  8>    C        0.33801         0.61698         0.08522
|  9>    C        0.36360        -0.79663         0.04199
| 10>    S       -1.10248        -1.81329        -0.02374
| 11>    O       -1.34707        -2.33927         1.29191
| 12>    O       -0.96396        -2.75298        -1.10248
| 13>    C       -2.38830        -0.58884        -0.40690
| 14>    C       -2.14392         0.57326         0.53306
| 15>    C       -0.93532         1.40460         0.10349
| 16>    C        2.08563         2.50772         0.19099
| 17>    C        1.42206         3.61049        -0.14628
| 18>    H        1.87159        -2.36993         0.03935
| 19>    H       -3.34448        -1.07404        -0.23156
| 20>    H       -2.28539        -0.32632        -1.45599
| 21>    H       -1.97740         0.16455         1.53274
| 22>    H       -3.02300         1.22109         0.57259
| 23>    H       -0.81656         2.24890         0.78716
| 24>    H       -1.12157         1.81224        -0.89622
| 25>    H        3.11259         2.59538         0.52280
| 26>    H        0.41930         3.60203        -0.53231
| 27>    H        1.89051         4.57543        -0.06240
| 28> *
| 29>
| 30>                          ****END OF INPUT****
 Total Charge           Charge          ....    0
 Multiplicity           Mult            ....    1
 Number of Electrons    NEL             ....  112
Dispersion correction           -0.056457547
FINAL SINGLE POINT ENERGY     -1295.167984963585
Dispersion correction            ... done
Dispersion correction           -0.056107761
FINAL SINGLE POINT ENERGY     -1295.174075438184
Dispersion correction            ... done
Dispersion correction           -0.055961002
FINAL SINGLE POINT ENERGY     -1295.175153500843
Dispersion correction            ... done
FINAL SINGLE POINT ENERGY     -1295.175335432767
FINAL SINGLE POINT ENERGY     -1295.175351431616
FINAL SINGLE POINT ENERGY     -1295.175392679082
FINAL SINGLE POINT ENERGY     -1295.175401285230
FINAL SINGLE POINT ENERGY     -1295.175410513838
FINAL SINGLE POINT ENERGY     -1295.175421253813
FINAL SINGLE POINT ENERGY     -1295.175446414774
Dispersion correction            ... done
Dispersion correction           -0.055876707
FINAL SINGLE POINT ENERGY     -1295.175467867422
Dispersion correction            ... done
Dispersion correction           -0.055878450
FINAL SINGLE POINT ENERGY     -1295.175498249022
Dispersion correction            ... done
                    ***********************HURRAY********************

CARTESIAN COORDINATES (ANGSTROEM)
---------------------------------
  C      1.628884   -1.365015   -0.022166
  S      2.822217   -0.135459    0.042913
  C      1.621939    1.139560    0.092513
  C      0.334771    0.610467    0.077133
  C      0.368477   -0.820579    0.005469
  S     -1.089669   -1.852992    0.060097
  O     -1.330351   -2.236725    1.459184
  O     -0.990747   -2.886119   -0.976967
  C     -2.358824   -0.644192   -0.390565
  C     -2.199641    0.617216    0.449550
  C     -0.937056    1.417956    0.100193
  C      2.111640    2.509885    0.154946
  C      1.432224    3.657287   -0.019607
  H      1.894493   -2.418931   -0.081315
  H     -3.298407   -1.177901   -0.182126
  H     -2.266724   -0.466618   -1.472774
  H     -2.186088    0.319395    1.510572
  H     -3.083366    1.257694    0.303341
  H     -0.823223    2.248180    0.814590
  H     -1.072211    1.891644   -0.889974
  H      3.182655    2.591710    0.373748
  H      0.373420    3.696355   -0.274509
  H      1.951686    4.613933    0.072965

 Multiplicity           Mult            ....    1
 Number of Electrons    NEL             ....  112
 Basis Dimension        Dim             ....  240

ORBITAL ENERGIES
----------------

  NO   OCC          E(Eh)            E(eV)
   0   2.0000     -89.054887     -2423.3067
   1   2.0000     -88.895484     -2418.9691
   2   2.0000     -19.114319      -520.1271
   3   2.0000     -19.111848      -520.0598
   4   2.0000     -10.237973      -278.5894
   5   2.0000     -10.237232      -278.5692
   6   2.0000     -10.230038      -278.3735
   7   2.0000     -10.226173      -278.2683
   8   2.0000     -10.224613      -278.2259
   9   2.0000     -10.221153      -278.1317
  10   2.0000     -10.219733      -278.0931
  11   2.0000     -10.218563      -278.0612
  12   2.0000     -10.206016      -277.7198
  13   2.0000      -8.119834      -220.9519
  14   2.0000      -7.990527      -217.4333
  15   2.0000      -6.087700      -165.6548
  16   2.0000      -6.087478      -165.6487
  17   2.0000      -6.086888      -165.6326
  18   2.0000      -5.958434      -162.1372
  19   2.0000      -5.954525      -162.0309
  20   2.0000      -5.952076      -161.9642
  21   2.0000      -1.089085       -29.6355
  22   2.0000      -0.977659       -26.6035
  23   2.0000      -0.908982       -24.7347
  24   2.0000      -0.837725       -22.7957
  25   2.0000      -0.804719       -21.8975
  26   2.0000      -0.767660       -20.8891
  27   2.0000      -0.753888       -20.5143
  28   2.0000      -0.714582       -19.4448
  29   2.0000      -0.646642       -17.5960
  30   2.0000      -0.638083       -17.3631
  31   2.0000      -0.608707       -16.5637
  32   2.0000      -0.559433       -15.2230
  33   2.0000      -0.538802       -14.6615
  34   2.0000      -0.518978       -14.1221
  35   2.0000      -0.491060       -13.3624
  36   2.0000      -0.479811       -13.0563
  37   2.0000      -0.475470       -12.9382
  38   2.0000      -0.462703       -12.5908
  39   2.0000      -0.452281       -12.3072
  40   2.0000      -0.446924       -12.1614
  41   2.0000      -0.436438       -11.8761
  42   2.0000      -0.418076       -11.3764
  43   2.0000      -0.403003       -10.9663
  44   2.0000      -0.397145       -10.8069
  45   2.0000      -0.390918       -10.6374
  46   2.0000      -0.374879       -10.2010
  47   2.0000      -0.364273        -9.9124
  48   2.0000      -0.361097        -9.8259
  49   2.0000      -0.330816        -9.0020
  50   2.0000      -0.321024        -8.7355
  51   2.0000      -0.309749        -8.4287
  52   2.0000      -0.296224        -8.0607
  53   2.0000      -0.284726        -7.7478
  54   2.0000      -0.266807        -7.2602
  55   2.0000      -0.237658        -6.4670
  56   0.0000      -0.064547        -1.7564
  57   0.0000      -0.012111        -0.3296
  58   0.0000       0.009566         0.2603
  59   0.0000       0.035932         0.9778
  60   0.0000       0.048638         1.3235

MULLIKEN ATOMIC CHARGES
-----------------------
   0 C :   -0.073597
   1 S :    0.138103
   2 C :   -0.177323
   3 C :    0.005378
   4 C :   -0.076794
   5 S :    0.754051
   6 O :   -0.475060
   7 O :   -0.472727
   8 C :   -0.023371
   9 C :    0.003500
  10 C :    0.074602
  11 C :    0.035699
  12 C :   -0.035860
  13 H :    0.045669
  14 H :    0.057451
  15 H :    0.050489
  16 H :    0.043178
  17 H :    0.020631
  18 H :    0.032931
  19 H :    0.030291
  20 H :   -0.001929
  21 H :    0.016344
  22 H :    0.028343
Sum of atomic charges:   -0.0000000

LOEWDIN ATOMIC CHARGES
----------------------
   0 C :   -0.173613
   1 S :    0.466302
   2 C :   -0.177779
   3 C :   -0.059655
   4 C :   -0.226348
   5 S :    1.177551
   6 O :   -0.522397
   7 O :   -0.519868
   8 C :   -0.141086
   9 C :   -0.042471
  10 C :   -0.027169
  11 C :   -0.041599
  12 C :   -0.047806
  13 H :    0.038122
  14 H :    0.040156
  15 H :    0.031992
  16 H :    0.033615
  17 H :    0.034999
  18 H :    0.039816
  19 H :    0.034992
  20 H :    0.031496
  21 H :    0.020893
  22 H :    0.029857

  Mayer bond orders larger than 0.100000
B(  0-C ,  1-S ) :   1.1969 B(  0-C ,  4-C ) :   1.5389 B(  0-C , 13-H ) :   0.9635
B(  1-S ,  2-C ) :   1.1338 B(  2-C ,  3-C ) :   1.5150 B(  2-C , 11-C ) :   1.1139
B(  3-C ,  4-C ) :   1.2771 B(  3-C , 10-C ) :   1.0726 B(  4-C ,  5-S ) :   0.7978
B(  5-S ,  6-O ) :   1.6517 B(  5-S ,  7-O ) :   1.6793 B(  5-S ,  8-C ) :   0.8729
B(  8-C ,  9-C ) :   1.0277 B(  8-C , 14-H ) :   0.9267 B(  8-C , 15-H ) :   0.9329
B(  9-C , 10-C ) :   1.0811 B(  9-C , 16-H ) :   0.9374 B(  9-C , 17-H ) :   0.9261
B( 10-C , 18-H ) :   0.9053 B( 10-C , 19-H ) :   0.9130 B( 11-C , 12-C ) :   1.9134
B( 11-C , 20-H ) :   0.9415 B( 12-C , 21-H ) :   0.9529 B( 12-C , 22-H ) :   0.9407

Dispersion correction           -0.055880111
FINAL SINGLE POINT ENERGY     -1295.175503074525

DIPOLE MOMENT
-------------
                                X             Y             Z
Electronic contribution:      6.83007     -11.90382       0.22092
Nuclear contribution   :     -6.70178      13.83449      -0.55526
                        -----------------------------------------
Total Dipole Moment    :      0.12829       1.93067      -0.33434
                        -----------------------------------------
Magnitude (a.u.)       :      1.96360
Magnitude (Debye)      :      4.99108

Rotational constants in cm-1:     0.036254     0.016717     0.012432
Rotational constants in MHz :  1086.864500   501.168076   372.711688

                             ****ORCA TERMINATED NORMALLY****
TOTAL RUN TIME: 0 days 0 hours 26 minutes 9 seconds 228 msec
