                         Program Version 4.2.0 -  RELEASE  -
|  1> # ORCA input file
|  2> # SCF done        -34.886475209026          0.000786224460
|  3> ! B3LYP/G D3BJ Opt RIJCOSX def2-SVP def2/J
|  4> * xyz 0 1
|  5>    C       -1.65268        -1.30427         0.59558
|  6>    S       -2.86772        -0.10545         0.75214
|  7>    C       -1.81898         1.11444         0.09416
|  8>    C       -0.58785         0.58447        -0.21751
|  9>    C       -0.49819        -0.81517         0.05651
| 10>    O        0.53395        -1.67309        -0.16082
| 11>    C        1.84373        -1.15682        -0.31258
| 12>    C        2.19580        -0.11872         0.75615
| 13>    C        2.06885         1.31346         0.25013
| 14>    S        0.69974         1.55530        -0.94202
| 15>    C       -2.34593         2.45021        -0.03271
| 16>    C       -1.93502         3.38724        -0.88124
| 17>    H       -1.84916        -2.31958         0.87135
| 18>    H        1.97334        -0.73526        -1.31755
| 19>    H        2.47959        -2.04083        -0.22288
| 20>    H        3.21796        -0.27307         1.10579
| 21>    H        1.52847        -0.27254         1.60819
| 22>    H        2.95382         1.61165        -0.31219
| 23>    H        1.92104         2.01193         1.07415
| 24>    H       -3.18120         2.65315         0.62518
| 25>    H       -1.14278         3.21815        -1.58807
| 26>    H       -2.39397         4.36097        -0.89003
| 27> *
| 28>
| 29>                          ****END OF INPUT****
 Total Charge           Charge          ....    0
 Multiplicity           Mult            ....    1
 Number of Electrons    NEL             ....  104
Dispersion correction           -0.052103975
FINAL SINGLE POINT ENERGY     -1220.050689601328
Dispersion correction            ... done
Dispersion correction           -0.051489269
FINAL SINGLE POINT ENERGY     -1220.054286577525
Dispersion correction            ... done
Dispersion correction           -0.051410606
FINAL SINGLE POINT ENERGY     -1220.054797131350
Dispersion correction            ... done
FINAL SINGLE POINT ENERGY     -1220.055219126355
FINAL SINGLE POINT ENERGY     -1220.055472141565
FINAL SINGLE POINT ENERGY     -1220.055683636523
FINAL SINGLE POINT ENERGY     -1220.055948467781
FINAL SINGLE POINT ENERGY     -1220.056094080228
FINAL SINGLE POINT ENERGY     -1220.056162166840
FINAL SINGLE POINT ENERGY     -1220.056255753354
FINAL SINGLE POINT ENERGY     -1220.057803535901
FINAL SINGLE POINT ENERGY     -1220.057876014902
FINAL SINGLE POINT ENERGY     -1220.057934882600
FINAL SINGLE POINT ENERGY     -1220.057999135218
FINAL SINGLE POINT ENERGY     -1220.057637902261
FINAL SINGLE POINT ENERGY     -1220.058055762509
FINAL SINGLE POINT ENERGY     -1220.058000567230
Dispersion correction            ... done
Dispersion correction           -0.051236795
FINAL SINGLE POINT ENERGY     -1220.058049475588
Dispersion correction            ... done
Dispersion correction           -0.051243599
FINAL SINGLE POINT ENERGY     -1220.058078114522
Dispersion correction            ... done
                    ***********************HURRAY********************

CARTESIAN COORDINATES (ANGSTROEM)
---------------------------------
  C     -1.518205   -1.394513    0.125083
  S     -2.832319   -0.326102    0.443111
  C     -1.876690    1.089958    0.035819
  C     -0.592794    0.715266   -0.347501
  C     -0.404221   -0.713105   -0.298700
  O      0.753476   -1.320375   -0.676288
  C      1.824494   -1.288372    0.263032
  C      2.163353    0.116599    0.759951
  C      2.238549    1.139640   -0.368283
  S      0.624309    1.855658   -0.918063
  C     -2.526827    2.385651    0.139580
  C     -2.120080    3.564027   -0.366048
  H     -1.617545   -2.472426    0.233543
  H      2.681208   -1.715118   -0.280884
  H      1.597683   -1.949847    1.119255
  H      3.142422    0.066163    1.266970
  H      1.440646    0.451780    1.520862
  H      2.740485    0.711183   -1.249366
  H      2.815900    2.019329   -0.047340
  H     -3.469627    2.369799    0.698122
  H     -1.212223    3.675139   -0.959093
  H     -2.709186    4.465839   -0.182032

 Multiplicity           Mult            ....    1
 Number of Electrons    NEL             ....  104
 Basis Dimension        Dim             ....  226

ORBITAL ENERGIES
----------------

  NO   OCC          E(Eh)            E(eV)
   0   2.0000     -88.872377     -2418.3403
   1   2.0000     -88.846983     -2417.6493
   2   2.0000     -19.156776      -521.2824
   3   2.0000     -10.250624      -278.9337
   4   2.0000     -10.247665      -278.8531
   5   2.0000     -10.224737      -278.2292
   6   2.0000     -10.219238      -278.0796
   7   2.0000     -10.216625      -278.0085
   8   2.0000     -10.209663      -277.8191
   9   2.0000     -10.207196      -277.7519
  10   2.0000     -10.199645      -277.5465
  11   2.0000     -10.183763      -277.1143
  12   2.0000      -7.967502      -216.8068
  13   2.0000      -7.941332      -216.0946
  14   2.0000      -5.935644      -161.5171
  15   2.0000      -5.931816      -161.4129
  16   2.0000      -5.928469      -161.3218
  17   2.0000      -5.910824      -160.8417
  18   2.0000      -5.906501      -160.7241
  19   2.0000      -5.900065      -160.5489
  20   2.0000      -1.055119       -28.7112
  21   2.0000      -0.882525       -24.0147
  22   2.0000      -0.819051       -22.2875
  23   2.0000      -0.778423       -21.1820
  24   2.0000      -0.774119       -21.0649
  25   2.0000      -0.713416       -19.4130
  26   2.0000      -0.699672       -19.0391
  27   2.0000      -0.663902       -18.0657
  28   2.0000      -0.604843       -16.4586
  29   2.0000      -0.597568       -16.2606
  30   2.0000      -0.555944       -15.1280
  31   2.0000      -0.525890       -14.3102
  32   2.0000      -0.505279       -13.7493
  33   2.0000      -0.486493       -13.2382
  34   2.0000      -0.479348       -13.0437
  35   2.0000      -0.455760       -12.4019
  36   2.0000      -0.446406       -12.1473
  37   2.0000      -0.431710       -11.7474
  38   2.0000      -0.420438       -11.4407
  39   2.0000      -0.407927       -11.1003
  40   2.0000      -0.395324       -10.7573
  41   2.0000      -0.390127       -10.6159
  42   2.0000      -0.370455       -10.0806
  43   2.0000      -0.367884       -10.0106
  44   2.0000      -0.347763        -9.4631
  45   2.0000      -0.341596        -9.2953
  46   2.0000      -0.317438        -8.6379
  47   2.0000      -0.299100        -8.1389
  48   2.0000      -0.286376        -7.7927
  49   2.0000      -0.273427        -7.4403
  50   2.0000      -0.223346        -6.0776
  51   2.0000      -0.205763        -5.5991
  52   0.0000      -0.042424        -1.1544
  53   0.0000       0.018066         0.4916
  54   0.0000       0.028065         0.7637
  55   0.0000       0.042016         1.1433
  56   0.0000       0.054686         1.4881

MULLIKEN ATOMIC CHARGES
-----------------------
   0 C :   -0.125361
   1 S :    0.103151
   2 C :   -0.168050
   3 C :   -0.030058
   4 C :    0.173600
   5 O :   -0.333694
   6 C :    0.261895
   7 C :   -0.051317
   8 C :   -0.046483
   9 S :   -0.005382
  10 C :    0.029284
  11 C :   -0.040158
  12 H :    0.017096
  13 H :    0.012878
  14 H :    0.002075
  15 H :    0.018368
  16 H :    0.040736
  17 H :    0.052277
  18 H :    0.049841
  19 H :   -0.013508
  20 H :    0.032208
  21 H :    0.020601
Sum of atomic charges:   -0.0000000

LOEWDIN ATOMIC CHARGES
----------------------
   0 C :   -0.217059
   1 S :    0.426112
   2 C :   -0.194207
   3 C :   -0.217378
   4 C :   -0.015482
   5 O :   -0.126577
   6 C :    0.092397
   7 C :   -0.064658
   8 C :   -0.125929
   9 S :    0.300874
  10 C :   -0.050658
  11 C :   -0.053477
  12 H :    0.028236
  13 H :    0.021373
  14 H :    0.011959
  15 H :    0.036431
  16 H :    0.031304
  17 H :    0.024005
  18 H :    0.027541
  19 H :    0.026803
  20 H :    0.013046
  21 H :    0.025343

  Mayer bond orders larger than 0.100000
B(  0-C ,  1-S ) :   1.1242 B(  0-C ,  4-C ) :   1.5650 B(  0-C , 12-H ) :   0.9647
B(  1-S ,  2-C ) :   1.1285 B(  2-C ,  3-C ) :   1.5036 B(  2-C , 10-C ) :   1.1263
B(  3-C ,  4-C ) :   1.1979 B(  3-C ,  9-S ) :   1.0452 B(  4-C ,  5-O ) :   1.1077
B(  5-O ,  6-C ) :   0.9686 B(  6-C ,  7-C ) :   1.0824 B(  6-C , 13-H ) :   0.9478
B(  6-C , 14-H ) :   0.9444 B(  7-C ,  8-C ) :   1.0647 B(  7-C , 15-H ) :   0.9259
B(  7-C , 16-H ) :   0.9349 B(  8-C ,  9-S ) :   0.9706 B(  8-C , 17-H ) :   0.9446
B(  8-C , 18-H ) :   0.9486 B( 10-C , 11-C ) :   1.9121 B( 10-C , 19-H ) :   0.9422
B( 11-C , 20-H ) :   0.9460 B( 11-C , 21-H ) :   0.9410

Dispersion correction           -0.051235048
FINAL SINGLE POINT ENERGY     -1220.058076826557

DIPOLE MOMENT
-------------
                                X             Y             Z
Electronic contribution:     -8.45407      -2.47979      -2.47173
Nuclear contribution   :      9.25042       2.23429       3.15101
                        -----------------------------------------
Total Dipole Moment    :      0.79635      -0.24550       0.67928
                        -----------------------------------------
Magnitude (a.u.)       :      1.07512
Magnitude (Debye)      :      2.73273

Rotational constants in cm-1:     0.034983     0.022813     0.014887
Rotational constants in MHz :  1048.754468   683.916007   446.300805

                             ****ORCA TERMINATED NORMALLY****
TOTAL RUN TIME: 0 days 1 hours 1 minutes 36 seconds 104 msec
