                         Program Version 4.2.0 -  RELEASE  -
|  1> # ORCA input file
|  2> # SCF done        -34.183216817090          0.000977307609
|  3> ! B3LYP/G D3BJ Opt RIJCOSX def2-SVP def2/J
|  4> * xyz 0 1
|  5>    C        0.21963         1.00797        -0.00286
|  6>    S        1.83804         0.45629         0.00188
|  7>    C        1.33082        -1.17914        -0.00751
|  8>    C       -0.02508        -1.29299        -0.01433
|  9>    C       -0.67962        -0.02376        -0.01157
| 10>    C       -2.07903         0.14879        -0.01688
| 11>    N       -3.21438         0.29709        -0.02100
| 12>    C       -0.76482        -2.59175        -0.02389
| 13>    F        0.06909        -3.64255        -0.02629
| 14>    F       -1.55838        -2.73420         1.04861
| 15>    F       -1.55033        -2.72284        -1.10373
| 16>    H       -0.00057         2.05708         0.00083
| 17>    H        2.04888        -1.97526        -0.00774
| 18> *
| 19>
| 20>                          ****END OF INPUT****
 Total Charge           Charge          ....    0
 Multiplicity           Mult            ....    1
 Number of Electrons    NEL             ....   88
Dispersion correction           -0.026972900
FINAL SINGLE POINT ENERGY      -981.765962743642
Dispersion correction            ... done
Dispersion correction           -0.026888884
FINAL SINGLE POINT ENERGY      -981.768049638949
Dispersion correction            ... done
Dispersion correction           -0.026872006
FINAL SINGLE POINT ENERGY      -981.768110403262
Dispersion correction            ... done
Dispersion correction           -0.026868605
FINAL SINGLE POINT ENERGY      -981.768116676306
Dispersion correction            ... done
Dispersion correction           -0.026868763
FINAL SINGLE POINT ENERGY      -981.768115531499
Dispersion correction            ... done
                    ***********************HURRAY********************

CARTESIAN COORDINATES (ANGSTROEM)
---------------------------------
  C      0.219649    1.019924   -0.003064
  S      1.847009    0.459507   -0.001045
  C      1.340340   -1.191738   -0.009828
  C     -0.023618   -1.306022   -0.015332
  C     -0.682345   -0.024086   -0.011036
  C     -2.098007    0.165207   -0.012190
  N     -3.247181    0.325624   -0.012834
  C     -0.762374   -2.615093   -0.025366
  F      0.081582   -3.658271   -0.013824
  F     -1.562875   -2.725914    1.045662
  F     -1.534267   -2.728667   -1.117336
  H     -0.012947    2.083688    0.001799
  H      2.069282   -1.999430   -0.010086

 Multiplicity           Mult            ....    1
 Number of Electrons    NEL             ....   88
 Basis Dimension        Dim             ....  168

ORBITAL ENERGIES
----------------

  NO   OCC          E(Eh)            E(eV)
   0   2.0000     -88.922080     -2419.6928
   1   2.0000     -24.734230      -673.0526
   2   2.0000     -24.727594      -672.8720
   3   2.0000     -24.727397      -672.8667
   4   2.0000     -14.341031      -390.2393
   5   2.0000     -10.452117      -284.4166
   6   2.0000     -10.263864      -279.2939
   7   2.0000     -10.263011      -279.2707
   8   2.0000     -10.259861      -279.1850
   9   2.0000     -10.248502      -278.8759
  10   2.0000     -10.242038      -278.7000
  11   2.0000      -8.017346      -218.1631
  12   2.0000      -5.985353      -162.8697
  13   2.0000      -5.981094      -162.7538
  14   2.0000      -5.978905      -162.6943
  15   2.0000      -1.310919       -35.6719
  16   2.0000      -1.220003       -33.1980
  17   2.0000      -1.215381       -33.0722
  18   2.0000      -0.935507       -25.4564
  19   2.0000      -0.905696       -24.6452
  20   2.0000      -0.809809       -22.0360
  21   2.0000      -0.786900       -21.4126
  22   2.0000      -0.707820       -19.2608
  23   2.0000      -0.644006       -17.5243
  24   2.0000      -0.632327       -17.2065
  25   2.0000      -0.612235       -16.6598
  26   2.0000      -0.603254       -16.4154
  27   2.0000      -0.595034       -16.1917
  28   2.0000      -0.517461       -14.0808
  29   2.0000      -0.482326       -13.1248
  30   2.0000      -0.481367       -13.0987
  31   2.0000      -0.472267       -12.8510
  32   2.0000      -0.453491       -12.3401
  33   2.0000      -0.451777       -12.2935
  34   2.0000      -0.436825       -11.8866
  35   2.0000      -0.429282       -11.6814
  36   2.0000      -0.424614       -11.5543
  37   2.0000      -0.419751       -11.4220
  38   2.0000      -0.389608       -10.6018
  39   2.0000      -0.372146       -10.1266
  40   2.0000      -0.370542       -10.0830
  41   2.0000      -0.349139        -9.5006
  42   2.0000      -0.298428        -8.1206
  43   2.0000      -0.283718        -7.7203
  44   0.0000      -0.071980        -1.9587
  45   0.0000      -0.035437        -0.9643
  46   0.0000      -0.008203        -0.2232
  47   0.0000       0.033069         0.8999
  48   0.0000       0.056888         1.5480

MULLIKEN ATOMIC CHARGES
-----------------------
   0 C :   -0.063057
   1 S :    0.155392
   2 C :   -0.123329
   3 C :   -0.024818
   4 C :   -0.099263
   5 C :   -0.136162
   6 N :    0.102448
   7 C :    0.569616
   8 F :   -0.163910
   9 F :   -0.160989
  10 F :   -0.161174
  11 H :    0.051037
  12 H :    0.054208
Sum of atomic charges:   -0.0000000

LOEWDIN ATOMIC CHARGES
----------------------
   0 C :   -0.145854
   1 S :    0.485488
   2 C :   -0.159958
   3 C :   -0.099842
   4 C :   -0.090954
   5 C :   -0.033867
   6 N :   -0.044576
   7 C :    0.173127
   8 F :   -0.056630
   9 F :   -0.053909
  10 F :   -0.054529
  11 H :    0.041875
  12 H :    0.039629

  Mayer bond orders larger than 0.100000
B(  0-C ,  1-S ) :   1.1865 B(  0-C ,  4-C ) :   1.5399 B(  0-C , 11-H ) :   0.9697
B(  1-S ,  2-C ) :   1.1841 B(  2-C ,  3-C ) :   1.5624 B(  2-C , 12-H ) :   0.9625
B(  3-C ,  4-C ) :   1.2545 B(  3-C ,  7-C ) :   0.9457 B(  4-C ,  5-C ) :   1.1307
B(  5-C ,  6-N ) :   3.0025 B(  7-C ,  8-F ) :   1.1564 B(  7-C ,  9-F ) :   1.1579
B(  7-C , 10-F ) :   1.1593

Dispersion correction           -0.026869323
FINAL SINGLE POINT ENERGY      -981.768115247593

DIPOLE MOMENT
-------------
                                X             Y             Z
Electronic contribution:     -2.33900      -6.91368      -0.04832
Nuclear contribution   :      4.30879       7.45829       0.05692
                        -----------------------------------------
Total Dipole Moment    :      1.96978       0.54461       0.00859
                        -----------------------------------------
Magnitude (a.u.)       :      2.04370
Magnitude (Debye)      :      5.19468

Rotational constants in cm-1:     0.043616     0.029274     0.019300
Rotational constants in MHz :  1307.573040   877.608649   578.592702

                             ****ORCA TERMINATED NORMALLY****
TOTAL RUN TIME: 0 days 0 hours 5 minutes 0 seconds 500 msec
