                         Program Version 4.2.0 -  RELEASE  -
|  1> # ORCA input file
|  2> # SCF done        -25.375197860042          0.000490431428
|  3> ! B3LYP/G D3BJ Opt RIJCOSX def2-SVP def2/J
|  4> * xyz 0 1
|  5>    C        1.23046        -1.31028         0.03633
|  6>    S        2.51800        -0.16443         0.00727
|  7>    C        1.41010         1.16661        -0.01903
|  8>    C        0.13449         0.72972        -0.01437
|  9>    C        0.01813        -0.69251         0.02287
| 10>    C       -1.35573        -1.13509         0.00138
| 11>    C       -2.23170        -0.13323        -0.03556
| 12>    S       -1.49269         1.54109         0.02524
| 13>    O       -1.72525         2.17126        -1.27556
| 14>    H        1.45439        -2.35761         0.06845
| 15>    H        1.78652         2.16873        -0.04898
| 16>    H       -1.61390        -2.18208        -0.01098
| 17>    H       -3.30210        -0.21324        -0.07503
| 18> *
| 19>
| 20>                          ****END OF INPUT****
 Total Charge           Charge          ....    0
 Multiplicity           Mult            ....    1
 Number of Electrons    NEL             ....   80
Dispersion correction           -0.031744236
FINAL SINGLE POINT ENERGY     -1102.129461652435
Dispersion correction            ... done
Dispersion correction           -0.031632754
FINAL SINGLE POINT ENERGY     -1102.133416296520
Dispersion correction            ... done
Dispersion correction           -0.031595947
FINAL SINGLE POINT ENERGY     -1102.133939992153
Dispersion correction            ... done
FINAL SINGLE POINT ENERGY     -1102.133975787069
FINAL SINGLE POINT ENERGY     -1102.134096372952
FINAL SINGLE POINT ENERGY     -1102.134109717269
Dispersion correction            ... done
Dispersion correction           -0.031591802
FINAL SINGLE POINT ENERGY     -1102.134115387938
Dispersion correction            ... done
Dispersion correction           -0.031590671
FINAL SINGLE POINT ENERGY     -1102.134115840447
Dispersion correction            ... done
                    ***********************HURRAY********************

CARTESIAN COORDINATES (ANGSTROEM)
---------------------------------
  C      1.259744   -1.330657    0.046821
  S      2.537544   -0.155031   -0.002680
  C      1.415388    1.175464   -0.028206
  C      0.135136    0.709733   -0.008351
  C      0.029430   -0.720167    0.027912
  C     -1.363010   -1.160720    0.003533
  C     -2.240548   -0.141927   -0.057750
  S     -1.490599    1.530459    0.018661
  O     -1.740710    2.289341   -1.258582
  H      1.500661   -2.391910    0.089113
  H      1.775059    2.202202   -0.070192
  H     -1.658552   -2.212654    0.022868
  H     -3.328824   -0.205195   -0.101116

 Multiplicity           Mult            ....    1
 Number of Electrons    NEL             ....   80
 Basis Dimension        Dim             ....  154

ORBITAL ENERGIES
----------------

  NO   OCC          E(Eh)            E(eV)
   0   2.0000     -88.959782     -2420.7187
   1   2.0000     -88.895967     -2418.9822
   2   2.0000     -19.085733      -519.3492
   3   2.0000     -10.239139      -278.6211
   4   2.0000     -10.235985      -278.5353
   5   2.0000     -10.230737      -278.3925
   6   2.0000     -10.222250      -278.1616
   7   2.0000     -10.221350      -278.1371
   8   2.0000     -10.217952      -278.0446
   9   2.0000      -8.041611      -218.8234
  10   2.0000      -7.990715      -217.4384
  11   2.0000      -6.009736      -163.5332
  12   2.0000      -6.009034      -163.5141
  13   2.0000      -6.002303      -163.3310
  14   2.0000      -5.958939      -162.1510
  15   2.0000      -5.954634      -162.0338
  16   2.0000      -5.952084      -161.9644
  17   2.0000      -0.999627       -27.2012
  18   2.0000      -0.907726       -24.7005
  19   2.0000      -0.837163       -22.7804
  20   2.0000      -0.756593       -20.5879
  21   2.0000      -0.730537       -19.8789
  22   2.0000      -0.688927       -18.7467
  23   2.0000      -0.603547       -16.4233
  24   2.0000      -0.581739       -15.8299
  25   2.0000      -0.549573       -14.9546
  26   2.0000      -0.514410       -13.9978
  27   2.0000      -0.454992       -12.3810
  28   2.0000      -0.451799       -12.2941
  29   2.0000      -0.429113       -11.6767
  30   2.0000      -0.421967       -11.4823
  31   2.0000      -0.411524       -11.1982
  32   2.0000      -0.404977       -11.0200
  33   2.0000      -0.381102       -10.3703
  34   2.0000      -0.365799        -9.9539
  35   2.0000      -0.330051        -8.9811
  36   2.0000      -0.280768        -7.6401
  37   2.0000      -0.262877        -7.1533
  38   2.0000      -0.247095        -6.7238
  39   2.0000      -0.228199        -6.2096
  40   0.0000      -0.062902        -1.7117
  41   0.0000      -0.039699        -1.0803
  42   0.0000       0.014139         0.3847
  43   0.0000       0.025017         0.6807
  44   0.0000       0.064689         1.7603

MULLIKEN ATOMIC CHARGES
-----------------------
   0 C :   -0.131810
   1 S :    0.114306
   2 C :   -0.127627
   3 C :   -0.045223
   4 C :    0.089873
   5 C :    0.094247
   6 C :   -0.098574
   7 S :    0.546922
   8 O :   -0.552715
   9 H :    0.029538
  10 H :    0.037773
  11 H :   -0.000945
  12 H :    0.044235
Sum of atomic charges:   -0.0000000

LOEWDIN ATOMIC CHARGES
----------------------
   0 C :   -0.183767
   1 S :    0.446663
   2 C :   -0.172381
   3 C :   -0.210660
   4 C :   -0.081460
   5 C :   -0.009751
   6 C :   -0.165306
   7 S :    0.830775
   8 O :   -0.585208
   9 H :    0.029763
  10 H :    0.035020
  11 H :    0.036757
  12 H :    0.029555

  Mayer bond orders larger than 0.100000
B(  0-C ,  1-S ) :   1.1582 B(  0-C ,  4-C ) :   1.5100 B(  0-C ,  9-H ) :   0.9636
B(  1-S ,  2-C ) :   1.1693 B(  2-C ,  3-C ) :   1.6259 B(  2-C , 10-H ) :   0.9691
B(  3-C ,  4-C ) :   1.2411 B(  3-C ,  7-S ) :   0.8077 B(  4-C ,  5-C ) :   1.0726
B(  5-C ,  6-C ) :   1.7425 B(  5-C , 11-H ) :   0.9869 B(  6-C ,  7-S ) :   0.8734
B(  6-C , 12-H ) :   0.9580 B(  7-S ,  8-O ) :   1.5576

Dispersion correction           -0.031588446
FINAL SINGLE POINT ENERGY     -1102.134115731168

DIPOLE MOMENT
-------------
                                X             Y             Z
Electronic contribution:      2.07564       2.62416       0.45882
Nuclear contribution   :     -1.53877      -3.88801       0.39725
                        -----------------------------------------
Total Dipole Moment    :      0.53687      -1.26385       0.85607
                        -----------------------------------------
Magnitude (a.u.)       :      1.61815
Magnitude (Debye)      :      4.11301

Rotational constants in cm-1:     0.088908     0.031326     0.024158
Rotational constants in MHz :  2665.395590   939.130731   724.225313

                             ****ORCA TERMINATED NORMALLY****
TOTAL RUN TIME: 0 days 0 hours 6 minutes 23 seconds 468 msec
