                         Program Version 4.2.0 -  RELEASE  -
|  1> # ORCA input file
|  2> # SCF done        -35.699398092085          0.000287191522
|  3> ! B3LYP/G D3BJ Opt RIJCOSX def2-SVP def2/J
|  4> * xyz 0 1
|  5>    C        0.34018         1.36100        -0.09423
|  6>    S       -0.85774         0.12677        -0.04593
|  7>    C        0.36971        -1.10092        -0.09401
|  8>    O        0.05004        -2.39997        -0.07007
|  9>    C       -1.31744        -2.72924         0.02008
| 10>    C        1.64236        -0.57060        -0.13816
| 11>    C        2.88288        -1.35913        -0.16161
| 12>    O        3.97439        -0.86054         0.02013
| 13>    C        2.74099        -2.83667        -0.42823
| 14>    C        1.60918         0.87385        -0.13186
| 15>    C        2.78874         1.72034        -0.20485
| 16>    C        2.83130         2.98927         0.18164
| 17>    H        0.01855         2.38203        -0.11554
| 18>    H       -1.36625        -3.81627         0.02380
| 19>    H       -1.87343        -2.33485        -0.83635
| 20>    H       -1.75777        -2.33348         0.94078
| 21>    H        2.14657        -3.01212        -1.32094
| 22>    H        2.23628        -3.31231         0.40947
| 23>    H        3.73077        -3.27057        -0.54700
| 24>    H        3.67852         1.23815        -0.58048
| 25>    H        1.98056         3.49451         0.60823
| 26>    H        3.73482         3.56732         0.09658
| 27> *
| 28>
| 29>                          ****END OF INPUT****
 Total Charge           Charge          ....    0
 Multiplicity           Mult            ....    1
 Number of Electrons    NEL             ....   96
Dispersion correction           -0.044168784
FINAL SINGLE POINT ENERGY      -897.135388910315
Dispersion correction            ... done
Dispersion correction           -0.043727249
FINAL SINGLE POINT ENERGY      -897.138535839229
Dispersion correction            ... done
Dispersion correction           -0.043704922
FINAL SINGLE POINT ENERGY      -897.138667362446
Dispersion correction            ... done
FINAL SINGLE POINT ENERGY      -897.138744642580
FINAL SINGLE POINT ENERGY      -897.138759445580
FINAL SINGLE POINT ENERGY      -897.138754635148
FINAL SINGLE POINT ENERGY      -897.138746732680
FINAL SINGLE POINT ENERGY      -897.138740151963
Dispersion correction            ... done
Dispersion correction           -0.043712290
FINAL SINGLE POINT ENERGY      -897.138731954081
Dispersion correction            ... done
Dispersion correction           -0.043712091
FINAL SINGLE POINT ENERGY      -897.138727812286
Dispersion correction            ... done
                    ***********************HURRAY********************

CARTESIAN COORDINATES (ANGSTROEM)
---------------------------------
  C      0.333472    1.387170   -0.033763
  S     -0.876365    0.149223    0.038222
  C      0.349887   -1.091875   -0.060314
  O      0.030392   -2.392392   -0.046235
  C     -1.339657   -2.753071   -0.025474
  C      1.635545   -0.568190   -0.128891
  C      2.875482   -1.383888   -0.184269
  O      3.976511   -0.870799   -0.067323
  C      2.760904   -2.880302   -0.398649
  C      1.611468    0.890381   -0.108648
  C      2.799921    1.752924   -0.208252
  C      2.849670    3.038777    0.168591
  H      0.020424    2.428407   -0.068117
  H     -1.379169   -3.849491   -0.025618
  H     -1.863416   -2.362023   -0.915318
  H     -1.835263   -2.365230    0.881877
  H      2.119179   -3.118082   -1.259952
  H      2.293517   -3.361994    0.474002
  H      3.771308   -3.280997   -0.547724
  H      3.691308    1.274677   -0.612866
  H      1.998984    3.545948    0.633729
  H      3.759109    3.627397    0.026444

 Multiplicity           Mult            ....    1
 Number of Electrons    NEL             ....   96
 Basis Dimension        Dim             ....  222

ORBITAL ENERGIES
----------------

  NO   OCC          E(Eh)            E(eV)
   0   2.0000     -88.888950     -2418.7913
   1   2.0000     -19.202165      -522.5175
   2   2.0000     -19.109260      -519.9894
   3   2.0000     -10.290083      -280.0074
   4   2.0000     -10.272383      -279.5258
   5   2.0000     -10.268484      -279.4196
   6   2.0000     -10.211924      -277.8806
   7   2.0000     -10.206435      -277.7312
   8   2.0000     -10.196896      -277.4717
   9   2.0000     -10.184945      -277.1464
  10   2.0000     -10.180846      -277.0349
  11   2.0000     -10.179734      -277.0046
  12   2.0000      -7.984290      -217.2636
  13   2.0000      -5.952510      -161.9760
  14   2.0000      -5.948362      -161.8632
  15   2.0000      -5.945432      -161.7834
  16   2.0000      -1.098934       -29.9035
  17   2.0000      -1.017315       -27.6825
  18   2.0000      -0.885430       -24.0938
  19   2.0000      -0.782060       -21.2809
  20   2.0000      -0.776916       -21.1410
  21   2.0000      -0.734689       -19.9919
  22   2.0000      -0.713598       -19.4180
  23   2.0000      -0.687993       -18.7212
  24   2.0000      -0.603582       -16.4243
  25   2.0000      -0.593327       -16.1453
  26   2.0000      -0.573617       -15.6089
  27   2.0000      -0.530995       -14.4491
  28   2.0000      -0.502929       -13.6854
  29   2.0000      -0.495175       -13.4744
  30   2.0000      -0.478995       -13.0341
  31   2.0000      -0.468308       -12.7433
  32   2.0000      -0.440707       -11.9922
  33   2.0000      -0.437507       -11.9052
  34   2.0000      -0.432048       -11.7566
  35   2.0000      -0.421207       -11.4616
  36   2.0000      -0.403116       -10.9693
  37   2.0000      -0.395910       -10.7732
  38   2.0000      -0.387445       -10.5429
  39   2.0000      -0.376599       -10.2478
  40   2.0000      -0.362866        -9.8741
  41   2.0000      -0.352514        -9.5924
  42   2.0000      -0.345406        -9.3990
  43   2.0000      -0.339048        -9.2260
  44   2.0000      -0.297395        -8.0925
  45   2.0000      -0.246391        -6.7046
  46   2.0000      -0.242236        -6.5916
  47   2.0000      -0.217688        -5.9236
  48   0.0000      -0.039748        -1.0816
  49   0.0000      -0.032746        -0.8911
  50   0.0000       0.013761         0.3744
  51   0.0000       0.045825         1.2469
  52   0.0000       0.052811         1.4371

MULLIKEN ATOMIC CHARGES
-----------------------
   0 C :   -0.137803
   1 S :    0.063551
   2 C :   -0.020019
   3 O :   -0.291400
   4 C :    0.174218
   5 C :    0.065617
   6 C :   -0.017252
   7 O :   -0.213981
   8 C :    0.079351
   9 C :    0.054447
  10 C :    0.012910
  11 C :   -0.027858
  12 H :    0.022583
  13 H :    0.052333
  14 H :    0.035170
  15 H :    0.035140
  16 H :    0.020991
  17 H :    0.028897
  18 H :    0.019150
  19 H :    0.013829
  20 H :    0.008281
  21 H :    0.021846
Sum of atomic charges:    0.0000000

LOEWDIN ATOMIC CHARGES
----------------------
   0 C :   -0.201759
   1 S :    0.408100
   2 C :   -0.083330
   3 O :   -0.080446
   4 C :    0.075715
   5 C :   -0.138936
   6 C :    0.082526
   7 O :   -0.163743
   8 C :   -0.074954
   9 C :   -0.031140
  10 C :   -0.014964
  11 C :   -0.050069
  12 H :    0.024239
  13 H :    0.034080
  14 H :    0.017416
  15 H :    0.016831
  16 H :    0.033496
  17 H :    0.039462
  18 H :    0.032224
  19 H :    0.033349
  20 H :    0.016412
  21 H :    0.025491

  Mayer bond orders larger than 0.100000
B(  0-C ,  1-S ) :   1.0784 B(  0-C ,  9-C ) :   1.5754 B(  0-C , 12-H ) :   0.9577
B(  1-S ,  2-C ) :   1.1466 B(  2-C ,  3-O ) :   1.1523 B(  2-C ,  5-C ) :   1.4097
B(  3-O ,  4-C ) :   0.9337 B(  4-C , 13-H ) :   0.9794 B(  4-C , 14-H ) :   0.9640
B(  4-C , 15-H ) :   0.9630 B(  5-C ,  6-C ) :   0.9579 B(  5-C ,  9-C ) :   1.1941
B(  6-C ,  7-O ) :   2.0891 B(  6-C ,  8-C ) :   1.0836 B(  8-C , 16-H ) :   0.9455
B(  8-C , 17-H ) :   0.9341 B(  8-C , 18-H ) :   0.9427 B(  9-C , 10-C ) :   1.0972
B( 10-C , 11-C ) :   1.9354 B( 10-C , 19-H ) :   0.9406 B( 11-C , 20-H ) :   0.9477
B( 11-C , 21-H ) :   0.9443

Dispersion correction           -0.043712021
FINAL SINGLE POINT ENERGY      -897.138726714562

DIPOLE MOMENT
-------------
                                X             Y             Z
Electronic contribution:     -2.61180       2.59611       0.51965
Nuclear contribution   :      0.79541      -3.22947      -0.61932
                        -----------------------------------------
Total Dipole Moment    :     -1.81638      -0.63336      -0.09968
                        -----------------------------------------
Magnitude (a.u.)       :      1.92622
Magnitude (Debye)      :      4.89606

Rotational constants in cm-1:     0.036319     0.024608     0.014807
Rotational constants in MHz :  1088.822828   737.736964   443.895725

                             ****ORCA TERMINATED NORMALLY****
TOTAL RUN TIME: 0 days 0 hours 15 minutes 43 seconds 408 msec
