                         Program Version 4.2.0 -  RELEASE  -
|  1> # ORCA input file
|  2> # SCF done        -21.430001049875          0.000563164303
|  3> ! B3LYP/G D3BJ Opt RIJCOSX def2-SVP def2/J
|  4> * xyz 0 1
|  5>    C        0.62767         1.27228        -0.06851
|  6>    C       -0.73962         1.04187        -0.11962
|  7>    N       -1.27847        -0.15752        -0.04454
|  8>    C       -0.48286        -1.21982         0.09199
|  9>    C        0.90732        -1.08733         0.15297
| 10>    C        1.46426         0.17514         0.07027
| 11>    C       -1.18295        -2.49835         0.16387
| 12>    C       -0.63435        -3.68987         0.36313
| 13>    H        1.02348         2.27330        -0.13650
| 14>    H       -1.44044         1.86043        -0.22645
| 15>    H        1.53800        -1.95546         0.25922
| 16>    H        2.53687         0.30383         0.11278
| 17>    H       -2.25352        -2.40313         0.04089
| 18>    H        0.42457        -3.83134         0.50058
| 19>    H       -1.23593        -4.58207         0.40150
| 20> *
| 21>
| 22>                          ****END OF INPUT****
 Total Charge           Charge          ....    0
 Multiplicity           Mult            ....    1
 Number of Electrons    NEL             ....   56
Dispersion correction           -0.025671876
FINAL SINGLE POINT ENERGY      -325.475578163241
Dispersion correction            ... done
Dispersion correction           -0.025499582
FINAL SINGLE POINT ENERGY      -325.477731743487
Dispersion correction            ... done
Dispersion correction           -0.025485029
FINAL SINGLE POINT ENERGY      -325.477773394865
Dispersion correction            ... done
FINAL SINGLE POINT ENERGY      -325.477790777566
Dispersion correction            ... done
Dispersion correction           -0.025484123
FINAL SINGLE POINT ENERGY      -325.477797469879
Dispersion correction            ... done
Dispersion correction           -0.025485437
FINAL SINGLE POINT ENERGY      -325.477800896425
Dispersion correction            ... done
                    ***********************HURRAY********************

CARTESIAN COORDINATES (ANGSTROEM)
---------------------------------
  C      0.631604    1.291277   -0.074308
  C     -0.745343    1.062023   -0.134267
  N     -1.294786   -0.148169   -0.047854
  C     -0.491936   -1.217203    0.101355
  C      0.908669   -1.082672    0.166146
  C      1.473000    0.186430    0.078856
  C     -1.186008   -2.514760    0.185928
  C     -0.633470   -3.724863    0.346422
  H      1.032191    2.304332   -0.150881
  H     -1.437018    1.902822   -0.263062
  H      1.542453   -1.962515    0.286609
  H      2.557052    0.317201    0.131875
  H     -2.272364   -2.414761    0.096971
  H      0.445775   -3.875725    0.444921
  H     -1.255787   -4.621456    0.392869

 Multiplicity           Mult            ....    1
 Number of Electrons    NEL             ....   56
 Basis Dimension        Dim             ....  147

ORBITAL ENERGIES
----------------

  NO   OCC          E(Eh)            E(eV)
   0   2.0000     -14.320620      -389.6839
   1   2.0000     -10.231323      -278.4085
   2   2.0000     -10.224560      -278.2244
   3   2.0000     -10.212220      -277.8886
   4   2.0000     -10.202469      -277.6233
   5   2.0000     -10.201573      -277.5989
   6   2.0000     -10.194749      -277.4132
   7   2.0000     -10.194043      -277.3940
   8   2.0000      -0.938419       -25.5357
   9   2.0000      -0.799495       -21.7554
  10   2.0000      -0.792448       -21.5636
  11   2.0000      -0.732301       -19.9269
  12   2.0000      -0.643054       -17.4984
  13   2.0000      -0.624457       -16.9923
  14   2.0000      -0.567880       -15.4528
  15   2.0000      -0.516751       -14.0615
  16   2.0000      -0.497768       -13.5450
  17   2.0000      -0.465555       -12.6684
  18   2.0000      -0.448590       -12.2068
  19   2.0000      -0.427647       -11.6369
  20   2.0000      -0.410172       -11.1613
  21   2.0000      -0.409573       -11.1451
  22   2.0000      -0.375676       -10.2227
  23   2.0000      -0.357775        -9.7356
  24   2.0000      -0.313683        -8.5358
  25   2.0000      -0.291310        -7.9269
  26   2.0000      -0.257099        -6.9960
  27   2.0000      -0.242411        -6.5963
  28   0.0000      -0.051724        -1.4075
  29   0.0000      -0.028177        -0.7667
  30   0.0000       0.043243         1.1767
  31   0.0000       0.060303         1.6409
  32   0.0000       0.082736         2.2514

MULLIKEN ATOMIC CHARGES
-----------------------
   0 C :    0.000272
   1 C :    0.039804
   2 N :   -0.100282
   3 C :   -0.010177
   4 C :   -0.008648
   5 C :    0.052222
   6 C :    0.041687
   7 C :   -0.023028
   8 H :   -0.009871
   9 H :    0.001864
  10 H :   -0.020409
  11 H :   -0.002771
  12 H :   -0.003972
  13 H :    0.015103
  14 H :    0.028207
Sum of atomic charges:   -0.0000000

LOEWDIN ATOMIC CHARGES
----------------------
   0 C :   -0.046723
   1 C :    0.020300
   2 N :   -0.082965
   3 C :    0.008616
   4 C :   -0.030021
   5 C :    0.000648
   6 C :   -0.024085
   7 C :   -0.039497
   8 H :    0.029572
   9 H :    0.020923
  10 H :    0.028037
  11 H :    0.031977
  12 H :    0.034217
  13 H :    0.019979
  14 H :    0.029023

  Mayer bond orders larger than 0.100000
B(  0-C ,  1-C ) :   1.3781 B(  0-C ,  5-C ) :   1.3900 B(  0-C ,  8-H ) :   0.9731
B(  1-C ,  2-N ) :   1.5354 B(  1-C ,  9-H ) :   0.9713 B(  2-N ,  3-C ) :   1.4915
B(  3-C ,  4-C ) :   1.3512 B(  3-C ,  6-C ) :   1.0762 B(  4-C ,  5-C ) :   1.4299
B(  4-C , 10-H ) :   0.9668 B(  5-C , 11-H ) :   0.9765 B(  6-C ,  7-C ) :   1.9175
B(  6-C , 12-H ) :   0.9532 B(  7-C , 13-H ) :   0.9441 B(  7-C , 14-H ) :   0.9480

Dispersion correction           -0.025485638
FINAL SINGLE POINT ENERGY      -325.477802494982

DIPOLE MOMENT
-------------
                                X             Y             Z
Electronic contribution:     -0.92601       2.71568      -0.32061
Nuclear contribution   :      1.69514      -2.67379       0.36051
                        -----------------------------------------
Total Dipole Moment    :      0.76913       0.04189       0.03990
                        -----------------------------------------
Magnitude (a.u.)       :      0.77130
Magnitude (Debye)      :      1.96050

Rotational constants in cm-1:     0.176679     0.052967     0.040751
Rotational constants in MHz :  5296.692343  1587.907998  1221.676189

                             ****ORCA TERMINATED NORMALLY****
TOTAL RUN TIME: 0 days 0 hours 3 minutes 27 seconds 198 msec
