                         Program Version 4.2.0 -  RELEASE  -
|  1> # ORCA input file
|  2> # SCF done        -22.303488850220          0.000483912927
|  3> ! B3LYP/G D3BJ Opt RIJCOSX def2-SVP def2/J
|  4> * xyz 0 1
|  5>    C       -0.83416         1.24224        -0.00862
|  6>    S       -2.03921        -0.00012        -0.01380
|  7>    C       -0.83388        -1.24216        -0.00269
|  8>    C        0.40912        -0.71020         0.00504
|  9>    C        0.40896         0.71059         0.00138
| 10>    C        1.79793         1.25545         0.01099
| 11>    C        2.70373         0.00043         0.00258
| 12>    C        1.79820        -1.25469         0.01831
| 13>    H       -1.14184         2.26869        -0.01307
| 14>    H       -1.14133        -2.26868        -0.00255
| 15>    H        1.97044         1.86802         0.89816
| 16>    H        1.97779         1.88528        -0.86242
| 17>    H        3.36245         0.00301         0.87054
| 18>    H        3.33575        -0.00207        -0.88511
| 19>    H        1.97039        -1.86156         0.90942
| 20>    H        1.97860        -1.88997        -0.85096
| 21> *
| 22>
| 23>                          ****END OF INPUT****
 Total Charge           Charge          ....    0
 Multiplicity           Mult            ....    1
 Number of Electrons    NEL             ....   66
Dispersion correction           -0.030121926
FINAL SINGLE POINT ENERGY      -669.460915679299
Dispersion correction            ... done
Dispersion correction           -0.030005708
FINAL SINGLE POINT ENERGY      -669.463247134699
Dispersion correction            ... done
Dispersion correction           -0.029985966
FINAL SINGLE POINT ENERGY      -669.463323125782
Dispersion correction            ... done
FINAL SINGLE POINT ENERGY      -669.463336895704
FINAL SINGLE POINT ENERGY      -669.463346174513
FINAL SINGLE POINT ENERGY      -669.463366494538
FINAL SINGLE POINT ENERGY      -669.463392119914
FINAL SINGLE POINT ENERGY      -669.463323466286
FINAL SINGLE POINT ENERGY      -669.463340045461
FINAL SINGLE POINT ENERGY      -669.463333265372
FINAL SINGLE POINT ENERGY      -669.463463484405
FINAL SINGLE POINT ENERGY      -669.463466714471
FINAL SINGLE POINT ENERGY      -669.463469698767
FINAL SINGLE POINT ENERGY      -669.463472415510
FINAL SINGLE POINT ENERGY      -669.463474811818
FINAL SINGLE POINT ENERGY      -669.463476885137
FINAL SINGLE POINT ENERGY      -669.463478798181
Dispersion correction            ... done
Dispersion correction           -0.029979303
FINAL SINGLE POINT ENERGY      -669.463480526045
Dispersion correction            ... done
Dispersion correction           -0.029979803
FINAL SINGLE POINT ENERGY      -669.463482084702
Dispersion correction            ... done
                    ***********************HURRAY********************

CARTESIAN COORDINATES (ANGSTROEM)
---------------------------------
  C     -0.859945    1.252601   -0.027974
  S     -2.062653   -0.000238   -0.053963
  C     -0.859613   -1.252647   -0.023144
  C      0.400628   -0.714597    0.008633
  C      0.400451    0.715013    0.005588
  C      1.801434    1.265934    0.043971
  C      2.714289    0.000337   -0.034248
  C      1.801702   -1.264926    0.051553
  H     -1.163570    2.298116   -0.037331
  H     -1.163026   -2.298259   -0.026960
  H      1.986064    1.845700    0.964232
  H      1.994955    1.957981   -0.792043
  H      3.460409    0.002842    0.774824
  H      3.290079   -0.002442   -0.972041
  H      1.985669   -1.838645    0.975747
  H      1.996067   -1.962510   -0.779644

 Multiplicity           Mult            ....    1
 Number of Electrons    NEL             ....   66
 Basis Dimension        Dim             ....  156

ORBITAL ENERGIES
----------------

  NO   OCC          E(Eh)            E(eV)
   0   2.0000     -88.864357     -2418.1221
   1   2.0000     -10.201934      -277.6087
   2   2.0000     -10.201886      -277.6074
   3   2.0000     -10.192023      -277.3391
   4   2.0000     -10.192007      -277.3386
   5   2.0000     -10.189589      -277.2728
   6   2.0000     -10.183762      -277.1142
   7   2.0000     -10.183523      -277.1077
   8   2.0000      -7.959152      -216.5795
   9   2.0000      -5.927362      -161.2917
  10   2.0000      -5.923096      -161.1756
  11   2.0000      -5.920625      -161.1084
  12   2.0000      -0.876298       -23.8453
  13   2.0000      -0.805238       -21.9117
  14   2.0000      -0.731302       -19.8997
  15   2.0000      -0.698055       -18.9950
  16   2.0000      -0.667252       -18.1568
  17   2.0000      -0.584459       -15.9039
  18   2.0000      -0.561871       -15.2893
  19   2.0000      -0.511605       -13.9215
  20   2.0000      -0.491552       -13.3758
  21   2.0000      -0.471065       -12.8183
  22   2.0000      -0.404233       -10.9997
  23   2.0000      -0.403547       -10.9811
  24   2.0000      -0.388303       -10.5663
  25   2.0000      -0.379833       -10.3358
  26   2.0000      -0.376202       -10.2370
  27   2.0000      -0.356502        -9.7009
  28   2.0000      -0.352311        -9.5869
  29   2.0000      -0.329659        -8.9705
  30   2.0000      -0.319755        -8.7010
  31   2.0000      -0.233931        -6.3656
  32   2.0000      -0.228923        -6.2293
  33   0.0000      -0.015024        -0.4088
  34   0.0000       0.049862         1.3568
  35   0.0000       0.057104         1.5539
  36   0.0000       0.063581         1.7301
  37   0.0000       0.085374         2.3231

MULLIKEN ATOMIC CHARGES
-----------------------
   0 C :   -0.148043
   1 S :    0.079492
   2 C :   -0.148051
   3 C :   -0.048329
   4 C :   -0.048389
   5 C :    0.132417
   6 C :   -0.029191
   7 C :    0.132508
   8 H :    0.007527
   9 H :    0.007530
  10 H :    0.012829
  11 H :    0.011751
  12 H :    0.006110
  13 H :    0.007330
  14 H :    0.012793
  15 H :    0.011715
Sum of atomic charges:   -0.0000000

LOEWDIN ATOMIC CHARGES
----------------------
   0 C :   -0.205077
   1 S :    0.416047
   2 C :   -0.205082
   3 C :   -0.068923
   4 C :   -0.068920
   5 C :   -0.024636
   6 C :   -0.023762
   7 C :   -0.024621
   8 H :    0.020950
   9 H :    0.020951
  10 H :    0.029353
  11 H :    0.029486
  12 H :    0.022675
  13 H :    0.022741
  14 H :    0.029354
  15 H :    0.029464

  Mayer bond orders larger than 0.100000
B(  0-C ,  1-S ) :   1.1526 B(  0-C ,  4-C ) :   1.5488 B(  0-C ,  8-H ) :   0.9720
B(  1-S ,  2-C ) :   1.1526 B(  2-C ,  3-C ) :   1.5488 B(  2-C ,  9-H ) :   0.9720
B(  3-C ,  4-C ) :   1.3359 B(  3-C ,  7-C ) :   1.0275 B(  4-C ,  5-C ) :   1.0275
B(  5-C ,  6-C ) :   1.0990 B(  5-C , 10-H ) :   0.9208 B(  5-C , 11-H ) :   0.9246
B(  6-C ,  7-C ) :   1.0990 B(  6-C , 12-H ) :   0.9445 B(  6-C , 13-H ) :   0.9450
B(  7-C , 14-H ) :   0.9208 B(  7-C , 15-H ) :   0.9246

Dispersion correction           -0.029980304
FINAL SINGLE POINT ENERGY      -669.463483494694

DIPOLE MOMENT
-------------
                                X             Y             Z
Electronic contribution:    -10.57087      -0.00157      -0.16874
Nuclear contribution   :     11.00614       0.00167       0.18178
                        -----------------------------------------
Total Dipole Moment    :      0.43527       0.00010       0.01304
                        -----------------------------------------
Magnitude (a.u.)       :      0.43547
Magnitude (Debye)      :      1.10688

Rotational constants in cm-1:     0.142317     0.045560     0.035201
Rotational constants in MHz :  4266.547515  1365.846624  1055.294065

                             ****ORCA TERMINATED NORMALLY****
TOTAL RUN TIME: 0 days 0 hours 17 minutes 23 seconds 34 msec
