                         Program Version 4.2.0 -  RELEASE  -
|  1> # ORCA input file
|  2> # SCF done        -18.414102706625          0.000752526703
|  3> ! B3LYP/G D3BJ Opt RIJCOSX def2-SVP def2/J
|  4> * xyz 0 2
|  5>    C       -1.53319         0.58353        -0.28117
|  6>    C       -1.80658        -0.76054        -0.14865
|  7>    C       -0.55050        -1.60199        -0.07632
|  8>    C        0.48247        -0.53582        -0.18523
|  9>    C       -0.15021         0.72793        -0.30665
| 10>    C        1.20746         1.41309        -0.38106
| 11>    C        1.74448        -0.01333        -0.24294
| 12>    H       -2.27554         1.35937        -0.35345
| 13>    H       -2.78745        -1.19658        -0.10013
| 14>    H       -0.50444        -2.32615        -0.89359
| 15>    H       -0.49337        -2.16107         0.86081
| 16>    H        1.43445         2.08550         0.44573
| 17>    H        1.42500         1.90841        -1.32699
| 18>    H        2.74178        -0.40626        -0.20708
| 19> *
| 20>
| 21>                          ****END OF INPUT****
 Total Charge           Charge          ....    0
 Multiplicity           Mult            ....    2
 Number of Electrons    NEL             ....   49
Dispersion correction           -0.021020454
FINAL SINGLE POINT ENERGY      -270.647552638380
Dispersion correction            ... done
Dispersion correction           -0.021037485
FINAL SINGLE POINT ENERGY      -270.650165737569
Dispersion correction            ... done
Dispersion correction           -0.021042621
FINAL SINGLE POINT ENERGY      -270.650285469243
Dispersion correction            ... done
FINAL SINGLE POINT ENERGY      -270.650307867581
Dispersion correction            ... done
Dispersion correction           -0.021035264
FINAL SINGLE POINT ENERGY      -270.650311376453
Dispersion correction            ... done
Dispersion correction           -0.021033444
FINAL SINGLE POINT ENERGY      -270.650310385662
Dispersion correction            ... done
                    ***********************HURRAY********************

CARTESIAN COORDINATES (ANGSTROEM)
---------------------------------
  C     -1.549650    0.585556   -0.278452
  C     -1.834011   -0.770578   -0.147025
  C     -0.557584   -1.611667   -0.076547
  C      0.485237   -0.533205   -0.182135
  C     -0.144038    0.727376   -0.303908
  C      1.220701    1.432283   -0.384006
  C      1.765784   -0.015129   -0.236986
  H     -2.303638    1.371291   -0.350248
  H     -2.833821   -1.205386   -0.100597
  H     -0.499627   -2.349931   -0.897533
  H     -0.491237   -2.191393    0.861841
  H      1.455224    2.125951    0.441307
  H      1.444442    1.935903   -1.340479
  H      2.776578   -0.424981   -0.201952

 Multiplicity           Mult            ....    2
 Number of Electrons    NEL             ....   49
 Basis Dimension        Dim             ....  133

ORBITAL ENERGIES
----------------
                 SPIN UP ORBITALS
  NO   OCC          E(Eh)            E(eV)
   0   1.0000     -10.201686      -277.6020
   1   1.0000     -10.201653      -277.6011
   2   1.0000     -10.195532      -277.4345
   3   1.0000     -10.192124      -277.3418
   4   1.0000     -10.191714      -277.3306
   5   1.0000     -10.183878      -277.1174
   6   1.0000     -10.180087      -277.0142
   7   1.0000      -0.883285       -24.0354
   8   1.0000      -0.794983       -21.6326
   9   1.0000      -0.704972       -19.1833
  10   1.0000      -0.636806       -17.3284
  11   1.0000      -0.615702       -16.7541
  12   1.0000      -0.550036       -14.9672
  13   1.0000      -0.501275       -13.6404
  14   1.0000      -0.475584       -12.9413
  15   1.0000      -0.452415       -12.3108
  16   1.0000      -0.420601       -11.4451
  17   1.0000      -0.418621       -11.3913
  18   1.0000      -0.382428       -10.4064
  19   1.0000      -0.365994        -9.9592
  20   1.0000      -0.353067        -9.6074
  21   1.0000      -0.307755        -8.3744
  22   1.0000      -0.305610        -8.3161
  23   1.0000      -0.263426        -7.1682
  24   1.0000      -0.165065        -4.4916
  25   0.0000      -0.004129        -0.1124
  26   0.0000       0.066881         1.8199
  27   0.0000       0.080205         2.1825
  28   0.0000       0.087450         2.3796
  29   0.0000       0.097119         2.6427

                 SPIN DOWN ORBITALS
  NO   OCC          E(Eh)            E(eV)
   0   1.0000     -10.202473      -277.6234
   1   1.0000     -10.201967      -277.6096
   2   1.0000     -10.194980      -277.4195
   3   1.0000     -10.188573      -277.2452
   4   1.0000     -10.184508      -277.1346
   5   1.0000     -10.182922      -277.0914
   6   1.0000     -10.176307      -276.9114
   7   1.0000      -0.876679       -23.8556
   8   1.0000      -0.787867       -21.4389
   9   1.0000      -0.704267       -19.1641
  10   1.0000      -0.632269       -17.2049
  11   1.0000      -0.601762       -16.3748
  12   1.0000      -0.543869       -14.7994
  13   1.0000      -0.499356       -13.5882
  14   1.0000      -0.471611       -12.8332
  15   1.0000      -0.444127       -12.0853
  16   1.0000      -0.415338       -11.3019
  17   1.0000      -0.414808       -11.2875
  18   1.0000      -0.381212       -10.3733
  19   1.0000      -0.361923        -9.8484
  20   1.0000      -0.349022        -9.4974
  21   1.0000      -0.302994        -8.2449
  22   1.0000      -0.294771        -8.0211
  23   1.0000      -0.242349        -6.5947
  24   0.0000      -0.062313        -1.6956
  25   0.0000       0.013248         0.3605
  26   0.0000       0.080911         2.2017
  27   0.0000       0.081824         2.2265
  28   0.0000       0.088773         2.4156

MULLIKEN ATOMIC CHARGES AND SPIN POPULATIONS
--------------------------------------------
   0 C :   -0.016884   -0.247720
   1 C :   -0.129030    0.543092
   2 C :    0.188533   -0.025735
   3 C :    0.035537   -0.235986
   4 C :   -0.092149    0.533624
   5 C :    0.176725   -0.076802
   6 C :   -0.236679    0.523200
   7 H :   -0.015246    0.008386
   8 H :   -0.004745   -0.025368
   9 H :    0.036104    0.007453
  10 H :    0.031696    0.007297
  11 H :    0.023520    0.005360
  12 H :    0.021277    0.005420
  13 H :   -0.018660   -0.022221
Sum of atomic charges         :   -0.0000000

LOEWDIN ATOMIC CHARGES AND SPIN POPULATIONS
-------------------------------------------
   0 C :   -0.041578   -0.146145
   1 C :   -0.029243    0.441295
   2 C :   -0.030061   -0.005059
   3 C :   -0.032678   -0.129513
   4 C :   -0.024204    0.422444
   5 C :   -0.005725   -0.021184
   6 C :   -0.030051    0.417242
   7 H :    0.025009    0.000082
   8 H :    0.016245   -0.000052
   9 H :    0.047411    0.006594
  10 H :    0.046324    0.006461
  11 H :    0.025040    0.003998
  12 H :    0.024934    0.004078
  13 H :    0.008577   -0.000242

  Mayer bond orders larger than 0.100000
B(  0-C ,  1-C ) :   1.5074 B(  0-C ,  4-C ) :   1.2607 B(  0-C ,  7-H ) :   1.0076
B(  1-C ,  2-C ) :   1.0216 B(  1-C ,  4-C ) :   0.1062 B(  1-C ,  8-H ) :   0.9813
B(  2-C ,  3-C ) :   1.0366 B(  2-C ,  9-H ) :   0.9002 B(  2-C , 10-H ) :   0.8989
B(  3-C ,  4-C ) :   1.2751 B(  3-C ,  6-C ) :   1.4510 B(  4-C ,  5-C ) :   1.0134
B(  5-C ,  6-C ) :   0.9839 B(  5-C , 11-H ) :   0.9069 B(  5-C , 12-H ) :   0.9076
B(  6-C , 13-H ) :   1.0250

Dispersion correction           -0.021032995
FINAL SINGLE POINT ENERGY      -270.650310634937

DIPOLE MOMENT
-------------
                                X             Y             Z
Electronic contribution:     -0.17322       0.33738      -0.01105
Nuclear contribution   :      0.13977      -0.47880       0.01852
                        -----------------------------------------
Total Dipole Moment    :     -0.03345      -0.14142       0.00747
                        -----------------------------------------
Magnitude (a.u.)       :      0.14552
Magnitude (Debye)      :      0.36988

Rotational constants in cm-1:     0.205279     0.093162     0.065674
Rotational constants in MHz :  6154.095335  2792.938592  1968.865504

                             ****ORCA TERMINATED NORMALLY****
TOTAL RUN TIME: 0 days 0 hours 4 minutes 5 seconds 70 msec
