                         Program Version 4.2.0 -  RELEASE  -
|  1> # ORCA input file
|  2> # SCF done        -30.180073675959          0.000720399422
|  3> ! B3LYP/G D3BJ Opt RIJCOSX def2-SVP def2/J
|  4> * xyz 0 1
|  5>    C       -0.93357        -1.31865         0.17555
|  6>    S       -1.84288         0.01868         0.99893
|  7>    C       -1.28846         1.17240        -0.35651
|  8>    N        0.01615         0.78221        -0.71093
|  9>    C        0.09871        -0.67929        -0.79518
| 10>    N        1.44322        -1.04560        -0.42458
| 11>    C        1.80611        -0.06950         0.59054
| 12>    C        1.10790         1.24332         0.14611
| 13>    C        2.05640         2.13688        -0.60073
| 14>    C        2.00098         2.38447        -1.89541
| 15>    H       -1.64353        -1.94871        -0.35932
| 16>    H       -0.42566        -1.91340         0.93134
| 17>    H       -1.34255         2.19649         0.00208
| 18>    H       -1.97417         1.02464        -1.19335
| 19>    H       -0.12542        -1.00615        -1.81619
| 20>    H        2.05784        -0.95075        -1.22681
| 21>    H        2.88676         0.02752         0.67403
| 22>    H        1.40251        -0.40290         1.54997
| 23>    H        0.72143         1.78053         1.02053
| 24>    H        2.83458         2.56638         0.01687
| 25>    H        1.22374         1.96186        -2.50968
| 26>    H        2.71723         3.02208        -2.38432
| 27> *
| 28>
| 29>                          ****END OF INPUT****
 Total Charge           Charge          ....    0
 Multiplicity           Mult            ....    1
 Number of Electrons    NEL             ....   84
Dispersion correction           -0.045238783
FINAL SINGLE POINT ENERGY      -781.269920397089
Dispersion correction            ... done
Dispersion correction           -0.044663129
FINAL SINGLE POINT ENERGY      -781.272683203451
Dispersion correction            ... done
Dispersion correction           -0.044635958
FINAL SINGLE POINT ENERGY      -781.272898438037
Dispersion correction            ... done
FINAL SINGLE POINT ENERGY      -781.272977995505
FINAL SINGLE POINT ENERGY      -781.272983157547
FINAL SINGLE POINT ENERGY      -781.272967035004
FINAL SINGLE POINT ENERGY      -781.272949990317
FINAL SINGLE POINT ENERGY      -781.272940056425
Dispersion correction            ... done
Dispersion correction           -0.044826357
FINAL SINGLE POINT ENERGY      -781.272940067369
Dispersion correction            ... done
Dispersion correction           -0.044814804
FINAL SINGLE POINT ENERGY      -781.272943267651
Dispersion correction            ... done
                    ***********************HURRAY********************

CARTESIAN COORDINATES (ANGSTROEM)
---------------------------------
  C     -0.964670   -1.364381    0.094781
  S     -1.794497   -0.072315    1.089502
  C     -1.320510    1.153825   -0.241483
  N     -0.007452    0.797091   -0.678992
  C      0.124851   -0.677986   -0.797611
  N      1.474216   -1.009869   -0.380536
  C      1.778795   -0.019105    0.651156
  C      1.118076    1.289314    0.134943
  C      2.084465    2.136537   -0.658431
  C      2.033586    2.331690   -1.977939
  H     -1.699718   -1.893180   -0.531530
  H     -0.484416   -2.093638    0.759620
  H     -1.365639    2.172463    0.164611
  H     -2.050622    1.063095   -1.061558
  H     -0.027568   -1.000581   -1.839634
  H      2.103137   -0.868452   -1.170915
  H      2.861404    0.064291    0.821926
  H      1.299733   -0.320608    1.595153
  H      0.739825    1.874285    0.990987
  H      2.895097    2.585542   -0.070277
  H      1.218500    1.897129   -2.563045
  H      2.780727    2.937365   -2.497789

 Multiplicity           Mult            ....    1
 Number of Electrons    NEL             ....   84
 Basis Dimension        Dim             ....  204

ORBITAL ENERGIES
----------------

  NO   OCC          E(Eh)            E(eV)
   0   2.0000     -88.821342     -2416.9516
   1   2.0000     -14.326920      -389.8553
   2   2.0000     -14.319707      -389.6590
   3   2.0000     -10.248488      -278.8755
   4   2.0000     -10.238241      -278.5967
   5   2.0000     -10.222272      -278.1622
   6   2.0000     -10.214462      -277.9496
   7   2.0000     -10.207117      -277.7498
   8   2.0000     -10.190437      -277.2959
   9   2.0000     -10.181784      -277.0604
  10   2.0000      -7.916828      -215.4278
  11   2.0000      -5.885982      -160.1657
  12   2.0000      -5.882672      -160.0756
  13   2.0000      -5.875135      -159.8706
  14   2.0000      -0.972723       -26.4692
  15   2.0000      -0.877259       -23.8714
  16   2.0000      -0.802260       -21.8306
  17   2.0000      -0.753615       -20.5069
  18   2.0000      -0.722987       -19.6735
  19   2.0000      -0.699486       -19.0340
  20   2.0000      -0.619106       -16.8467
  21   2.0000      -0.601548       -16.3690
  22   2.0000      -0.577372       -15.7111
  23   2.0000      -0.548381       -14.9222
  24   2.0000      -0.521442       -14.1892
  25   2.0000      -0.496408       -13.5080
  26   2.0000      -0.465803       -12.6751
  27   2.0000      -0.456078       -12.4105
  28   2.0000      -0.436790       -11.8857
  29   2.0000      -0.429589       -11.6897
  30   2.0000      -0.416536       -11.3345
  31   2.0000      -0.395434       -10.7603
  32   2.0000      -0.389560       -10.6005
  33   2.0000      -0.377420       -10.2701
  34   2.0000      -0.364566        -9.9204
  35   2.0000      -0.360263        -9.8032
  36   2.0000      -0.341728        -9.2989
  37   2.0000      -0.320761        -8.7283
  38   2.0000      -0.269912        -7.3447
  39   2.0000      -0.245361        -6.6766
  40   2.0000      -0.230762        -6.2794
  41   2.0000      -0.215902        -5.8750
  42   0.0000       0.008207         0.2233
  43   0.0000       0.033115         0.9011
  44   0.0000       0.047907         1.3036
  45   0.0000       0.064495         1.7550
  46   0.0000       0.077258         2.1023

MULLIKEN ATOMIC CHARGES
-----------------------
   0 C :   -0.000437
   1 S :   -0.135697
   2 C :    0.071997
   3 N :   -0.336833
   4 C :    0.117194
   5 N :   -0.222372
   6 C :    0.165030
   7 C :    0.092453
   8 C :   -0.052219
   9 C :   -0.019040
  10 H :    0.039164
  11 H :    0.045273
  12 H :    0.044243
  13 H :    0.047698
  14 H :    0.001332
  15 H :    0.104962
  16 H :    0.006025
  17 H :    0.001698
  18 H :    0.000423
  19 H :   -0.006854
  20 H :    0.018351
  21 H :    0.017608
Sum of atomic charges:    0.0000000

LOEWDIN ATOMIC CHARGES
----------------------
   0 C :   -0.144445
   1 S :    0.144031
   2 C :   -0.057945
   3 N :   -0.127869
   4 C :    0.061930
   5 N :   -0.096256
   6 C :    0.030860
   7 C :    0.016780
   8 C :   -0.040439
   9 C :   -0.063822
  10 H :    0.017695
  11 H :    0.027500
  12 H :    0.020562
  13 H :    0.013148
  14 H :    0.015228
  15 H :    0.059698
  16 H :    0.019704
  17 H :    0.017249
  18 H :    0.022009
  19 H :    0.022448
  20 H :    0.019512
  21 H :    0.022425

  Mayer bond orders larger than 0.100000
B(  0-C ,  1-S ) :   1.0253 B(  0-C ,  4-C ) :   0.9770 B(  0-C , 10-H ) :   0.9466
B(  0-C , 11-H ) :   0.9403 B(  1-S ,  2-C ) :   0.9562 B(  2-C ,  3-N ) :   1.0545
B(  2-C , 12-H ) :   0.9569 B(  2-C , 13-H ) :   0.9506 B(  3-N ,  4-C ) :   0.9869
B(  3-N ,  7-C ) :   0.9982 B(  4-C ,  5-N ) :   1.1157 B(  4-C , 14-H ) :   0.9307
B(  5-N ,  6-C ) :   1.0553 B(  5-N , 15-H ) :   0.9423 B(  6-C ,  7-C ) :   1.0404
B(  6-C , 16-H ) :   0.9512 B(  6-C , 17-H ) :   0.9174 B(  7-C ,  8-C ) :   1.0035
B(  7-C , 18-H ) :   0.8961 B(  8-C ,  9-C ) :   2.0247 B(  8-C , 19-H ) :   0.9562
B(  9-C , 20-H ) :   0.9291 B(  9-C , 21-H ) :   0.9476

Dispersion correction           -0.044811252
FINAL SINGLE POINT ENERGY      -781.272945063471

DIPOLE MOMENT
-------------
                                X             Y             Z
Electronic contribution:     -5.25696      -1.54385       3.35631
Nuclear contribution   :      5.68558       1.74711      -3.74455
                        -----------------------------------------
Total Dipole Moment    :      0.42863       0.20327      -0.38824
                        -----------------------------------------
Magnitude (a.u.)       :      0.61300
Magnitude (Debye)      :      1.55811

Rotational constants in cm-1:     0.071562     0.030391     0.026390
Rotational constants in MHz :  2145.368641   911.103007   791.140850

                             ****ORCA TERMINATED NORMALLY****
TOTAL RUN TIME: 0 days 0 hours 12 minutes 17 seconds 627 msec
