                         Program Version 4.2.0 -  RELEASE  -
|  1> # ORCA input file
|  2> # SCF done        -32.459068136514          0.000163476919
|  3> ! B3LYP/G D3BJ Opt RIJCOSX def2-SVP def2/J
|  4> * xyz 0 1
|  5>    C       -3.11955         0.04401        -0.00578
|  6>    N       -2.39402        -1.11875        -0.00944
|  7>    C       -1.08609        -0.74433        -0.00723
|  8>    N       -0.00021        -1.50634        -0.00914
|  9>    C        1.08523        -0.74368        -0.00575
| 10>    N        2.39338        -1.11733        -0.00619
| 11>    C        3.11821         0.04586        -0.00158
| 12>    N        2.39939         1.11929         0.00160
| 13>    C        1.09854         0.69243        -0.00076
| 14>    N       -0.00108         1.42799         0.00104
| 15>    C       -1.10026         0.69178        -0.00225
| 16>    N       -2.40137         1.11787        -0.00173
| 17>    H       -4.19248         0.04211        -0.00646
| 18>    H       -2.74309        -2.06260        -0.01275
| 19>    H        2.74302        -2.06097        -0.00899
| 20>    H        4.19114         0.04459        -0.00084
| 21> *
| 22>
| 23>                          ****END OF INPUT****
 Total Charge           Charge          ....    0
 Multiplicity           Mult            ....    1
 Number of Electrons    NEL             ....   82
Dispersion correction           -0.031505071
FINAL SINGLE POINT ENERGY      -559.188474875680
Dispersion correction            ... done
Dispersion correction           -0.031714061
FINAL SINGLE POINT ENERGY      -559.190783552165
Dispersion correction            ... done
Dispersion correction           -0.031724918
FINAL SINGLE POINT ENERGY      -559.190876929722
Dispersion correction            ... done
Dispersion correction           -0.031719782
FINAL SINGLE POINT ENERGY      -559.190894959966
Dispersion correction            ... done
Dispersion correction           -0.031715815
FINAL SINGLE POINT ENERGY      -559.190898990257
Dispersion correction            ... done
                    ***********************HURRAY********************

CARTESIAN COORDINATES (ANGSTROEM)
---------------------------------
  C     -3.146147    0.051528   -0.005816
  N     -2.410014   -1.119236   -0.009411
  C     -1.087085   -0.747355   -0.007251
  N     -0.000204   -1.509269   -0.009125
  C      1.086224   -0.746711   -0.005787
  N      2.409373   -1.117811   -0.006185
  C      3.144807    0.053392   -0.001579
  N      2.418943    1.137088    0.001731
  C      1.108820    0.693609   -0.000766
  N     -0.001078    1.427585    0.001044
  C     -1.110539    0.692952   -0.002263
  N     -2.420931    1.135654   -0.001530
  H     -4.237545    0.026097   -0.006699
  H     -2.764378   -2.067924   -0.012729
  H      2.764294   -2.066292   -0.008970
  H      4.236221    0.028624   -0.000913

 Multiplicity           Mult            ....    1
 Number of Electrons    NEL             ....   82
 Basis Dimension        Dim             ....  188

ORBITAL ENERGIES
----------------

  NO   OCC          E(Eh)            E(eV)
   0   2.0000     -14.399096      -391.8193
   1   2.0000     -14.399067      -391.8185
   2   2.0000     -14.353609      -390.5816
   3   2.0000     -14.334846      -390.0710
   4   2.0000     -14.319047      -389.6411
   5   2.0000     -14.319017      -389.6403
   6   2.0000     -10.269306      -279.4420
   7   2.0000     -10.269256      -279.4407
   8   2.0000     -10.268967      -279.4328
   9   2.0000     -10.268964      -279.4327
  10   2.0000     -10.246645      -278.8254
  11   2.0000     -10.246606      -278.8243
  12   2.0000      -1.043997       -28.4086
  13   2.0000      -1.027036       -27.9471
  14   2.0000      -0.955957       -26.0129
  15   2.0000      -0.936466       -25.4825
  16   2.0000      -0.889211       -24.1967
  17   2.0000      -0.859192       -23.3798
  18   2.0000      -0.754293       -20.5254
  19   2.0000      -0.693169       -18.8621
  20   2.0000      -0.651057       -17.7162
  21   2.0000      -0.639194       -17.3934
  22   2.0000      -0.624196       -16.9852
  23   2.0000      -0.580807       -15.8046
  24   2.0000      -0.561640       -15.2830
  25   2.0000      -0.538000       -14.6397
  26   2.0000      -0.488245       -13.2858
  27   2.0000      -0.487154       -13.2561
  28   2.0000      -0.478601       -13.0234
  29   2.0000      -0.468038       -12.7360
  30   2.0000      -0.452309       -12.3079
  31   2.0000      -0.431540       -11.7428
  32   2.0000      -0.374580       -10.1928
  33   2.0000      -0.365916        -9.9571
  34   2.0000      -0.340630        -9.2690
  35   2.0000      -0.310996        -8.4626
  36   2.0000      -0.306094        -8.3292
  37   2.0000      -0.287302        -7.8179
  38   2.0000      -0.257193        -6.9986
  39   2.0000      -0.247596        -6.7374
  40   2.0000      -0.239094        -6.5061
  41   0.0000      -0.066617        -1.8127
  42   0.0000       0.002229         0.0606
  43   0.0000       0.029642         0.8066
  44   0.0000       0.041356         1.1253
  45   0.0000       0.043812         1.1922

MULLIKEN ATOMIC CHARGES
-----------------------
   0 C :    0.118047
   1 N :   -0.083408
   2 C :   -0.006678
   3 N :   -0.013225
   4 C :   -0.006686
   5 N :   -0.083403
   6 C :    0.118049
   7 N :   -0.096785
   8 C :   -0.093826
   9 N :    0.025535
  10 C :   -0.093843
  11 N :   -0.096778
  12 H :    0.025573
  13 H :    0.130923
  14 H :    0.130926
  15 H :    0.025578
Sum of atomic charges:   -0.0000000

LOEWDIN ATOMIC CHARGES
----------------------
   0 C :    0.054139
   1 N :    0.048191
   2 C :   -0.006563
   3 N :   -0.097137
   4 C :   -0.006564
   5 N :    0.048191
   6 C :    0.054141
   7 N :   -0.114182
   8 C :   -0.034744
   9 N :   -0.031487
  10 C :   -0.034745
  11 N :   -0.114182
  12 H :    0.023773
  13 H :    0.093697
  14 H :    0.093698
  15 H :    0.023774

  Mayer bond orders larger than 0.100000
B(  0-C ,  1-N ) :   1.1542 B(  0-C , 11-N ) :   1.6916 B(  0-C , 12-H ) :   0.9755
B(  1-N ,  2-C ) :   1.1847 B(  1-N , 13-H ) :   0.9275 B(  2-C ,  3-N ) :   1.5188
B(  2-C , 10-C ) :   1.1463 B(  3-N ,  4-C ) :   1.5189 B(  4-C ,  5-N ) :   1.1847
B(  4-C ,  8-C ) :   1.1463 B(  5-N ,  6-C ) :   1.1542 B(  5-N , 14-H ) :   0.9275
B(  6-C ,  7-N ) :   1.6916 B(  6-C , 15-H ) :   0.9755 B(  7-N ,  8-C ) :   1.3418
B(  8-C ,  9-N ) :   1.5084 B(  9-N , 10-C ) :   1.5084 B( 10-C , 11-N ) :   1.3418

Dispersion correction           -0.031714947
FINAL SINGLE POINT ENERGY      -559.190899944902

DIPOLE MOMENT
-------------
                                X             Y             Z
Electronic contribution:     -0.00028       1.01768       0.00327
Nuclear contribution   :      0.00110      -3.71437      -0.01249
                        -----------------------------------------
Total Dipole Moment    :      0.00082      -2.69668      -0.00922
                        -----------------------------------------
Magnitude (a.u.)       :      2.69670
Magnitude (Debye)      :      6.85447

Rotational constants in cm-1:     0.102063     0.025014     0.020090
Rotational constants in MHz :  3059.776791   749.893536   602.284881

                             ****ORCA TERMINATED NORMALLY****
TOTAL RUN TIME: 0 days 0 hours 4 minutes 58 seconds 507 msec
