                         Program Version 4.2.0 -  RELEASE  -
|  1> # ORCA input file
|  2> # SCF done        -38.050567886930          0.000335442877
|  3> ! B3LYP/G D3BJ Opt RIJCOSX def2-SVP def2/J
|  4> * xyz 0 1
|  5>    C        0.03407         1.44687        -0.01881
|  6>    C        1.19520         0.69580        -0.05062
|  7>    F        2.37832         1.31884        -0.10717
|  8>    C        1.14391        -0.69052        -0.02561
|  9>    F        2.29164        -1.38358        -0.05802
| 10>    C       -0.06952        -1.38725         0.04299
| 11>    C       -1.23232        -0.60992         0.06574
| 12>    C       -1.17503         0.77821         0.03458
| 13>    F       -2.31169         1.48515         0.05624
| 14>    F       -2.43909        -1.19124         0.09676
| 15>    C       -0.04212        -2.84649         0.06927
| 16>    C       -1.02019        -3.64974         0.47110
| 17>    H        0.07035         2.52315        -0.03873
| 18>    H        0.89978        -3.27174        -0.25058
| 19>    H       -1.96887        -3.29402         0.83072
| 20>    H       -0.88673        -4.71766         0.45809
| 21> *
| 22>
| 23>                          ****END OF INPUT****
 Total Charge           Charge          ....    0
 Multiplicity           Mult            ....    1
 Number of Electrons    NEL             ....   88
Dispersion correction           -0.029302221
FINAL SINGLE POINT ENERGY      -706.074992931653
Dispersion correction            ... done
Dispersion correction           -0.029206939
FINAL SINGLE POINT ENERGY      -706.076286966402
Dispersion correction            ... done
Dispersion correction           -0.029149968
FINAL SINGLE POINT ENERGY      -706.076462692271
Dispersion correction            ... done
FINAL SINGLE POINT ENERGY      -706.076451527132
FINAL SINGLE POINT ENERGY      -706.076259577774
FINAL SINGLE POINT ENERGY      -706.076487517700
FINAL SINGLE POINT ENERGY      -706.076491213461
Dispersion correction            ... done
Dispersion correction           -0.029155733
FINAL SINGLE POINT ENERGY      -706.076490437017
Dispersion correction            ... done
Dispersion correction           -0.029153204
FINAL SINGLE POINT ENERGY      -706.076487564333
Dispersion correction            ... done
                    ***********************HURRAY********************

CARTESIAN COORDINATES (ANGSTROEM)
---------------------------------
  C      0.034190    1.458463   -0.080885
  C      1.199429    0.703712   -0.158103
  F      2.375212    1.304664   -0.350682
  C      1.153105   -0.685451   -0.041757
  F      2.298489   -1.370175   -0.127491
  C     -0.059829   -1.376785    0.148499
  C     -1.225004   -0.590238    0.228475
  C     -1.175623    0.799803    0.115716
  F     -2.308605    1.499360    0.206843
  F     -2.418533   -1.158426    0.430646
  C     -0.025489   -2.840331    0.261559
  C     -1.060928   -3.693589    0.260289
  H      0.067129    2.543781   -0.178765
  H      0.983175   -3.251896    0.346564
  H     -2.097104   -3.370315    0.165662
  H     -0.871904   -4.766719    0.349383

 Multiplicity           Mult            ....    1
 Number of Electrons    NEL             ....   88
 Basis Dimension        Dim             ....  188

ORBITAL ENERGIES
----------------

  NO   OCC          E(Eh)            E(eV)
   0   2.0000     -24.724743      -672.7945
   1   2.0000     -24.723477      -672.7600
   2   2.0000     -24.720799      -672.6871
   3   2.0000     -24.720581      -672.6812
   4   2.0000     -10.300442      -280.2893
   5   2.0000     -10.300253      -280.2841
   6   2.0000     -10.299629      -280.2672
   7   2.0000     -10.298790      -280.2443
   8   2.0000     -10.237567      -278.5784
   9   2.0000     -10.227523      -278.3051
  10   2.0000     -10.215285      -277.9720
  11   2.0000     -10.204131      -277.6685
  12   2.0000      -1.241313       -33.7778
  13   2.0000      -1.240319       -33.7508
  14   2.0000      -1.225761       -33.3546
  15   2.0000      -1.225363       -33.3438
  16   2.0000      -0.894256       -24.3340
  17   2.0000      -0.814708       -22.1693
  18   2.0000      -0.767115       -20.8743
  19   2.0000      -0.753503       -20.5039
  20   2.0000      -0.674614       -18.3572
  21   2.0000      -0.650218       -17.6933
  22   2.0000      -0.607593       -16.5335
  23   2.0000      -0.586587       -15.9618
  24   2.0000      -0.578122       -15.7315
  25   2.0000      -0.559674       -15.2295
  26   2.0000      -0.545173       -14.8349
  27   2.0000      -0.517739       -14.0884
  28   2.0000      -0.514056       -13.9882
  29   2.0000      -0.499514       -13.5925
  30   2.0000      -0.482343       -13.1252
  31   2.0000      -0.480048       -13.0628
  32   2.0000      -0.475679       -12.9439
  33   2.0000      -0.470409       -12.8005
  34   2.0000      -0.446931       -12.1616
  35   2.0000      -0.438796       -11.9402
  36   2.0000      -0.420159       -11.4331
  37   2.0000      -0.409258       -11.1365
  38   2.0000      -0.391456       -10.6521
  39   2.0000      -0.372995       -10.1497
  40   2.0000      -0.362955        -9.8765
  41   2.0000      -0.323567        -8.8047
  42   2.0000      -0.257789        -7.0148
  43   2.0000      -0.254649        -6.9294
  44   0.0000      -0.065543        -1.7835
  45   0.0000      -0.018775        -0.5109
  46   0.0000       0.027150         0.7388
  47   0.0000       0.035771         0.9734
  48   0.0000       0.077107         2.0982

MULLIKEN ATOMIC CHARGES
-----------------------
   0 C :   -0.167690
   1 C :    0.259040
   2 F :   -0.176323
   3 C :    0.176711
   4 F :   -0.175924
   5 C :   -0.065077
   6 C :    0.181283
   7 C :    0.254199
   8 F :   -0.176995
   9 F :   -0.174885
  10 C :   -0.016011
  11 C :   -0.009035
  12 H :    0.016133
  13 H :    0.004219
  14 H :    0.036734
  15 H :    0.033621
Sum of atomic charges:   -0.0000000

LOEWDIN ATOMIC CHARGES
----------------------
   0 C :   -0.066856
   1 C :    0.053037
   2 F :   -0.046983
   3 C :    0.055224
   4 F :   -0.045322
   5 C :   -0.066889
   6 C :    0.057871
   7 C :    0.054085
   8 F :   -0.047308
   9 F :   -0.039955
  10 C :   -0.026945
  11 C :   -0.022055
  12 H :    0.052947
  13 H :    0.033960
  14 H :    0.024372
  15 H :    0.030818

  Mayer bond orders larger than 0.100000
B(  0-C ,  1-C ) :   1.3062 B(  0-C ,  5-C ) :   0.1166 B(  0-C ,  7-C ) :   1.3091
B(  0-C , 12-H ) :   1.0115 B(  1-C ,  2-F ) :   1.1138 B(  1-C ,  3-C ) :   1.2915
B(  3-C ,  4-F ) :   1.1348 B(  3-C ,  5-C ) :   1.2886 B(  5-C ,  6-C ) :   1.2707
B(  5-C , 10-C ) :   1.1095 B(  6-C ,  7-C ) :   1.3041 B(  6-C ,  9-F ) :   1.1222
B(  7-C ,  8-F ) :   1.1095 B( 10-C , 11-C ) :   1.9209 B( 10-C , 13-H ) :   0.9597
B( 11-C , 14-H ) :   0.9452 B( 11-C , 15-H ) :   0.9431

Dispersion correction           -0.029152859
FINAL SINGLE POINT ENERGY      -706.076488277319

DIPOLE MOMENT
-------------
                                X             Y             Z
Electronic contribution:      1.69541       8.38337      -0.49212
Nuclear contribution   :     -1.74611      -8.53276       0.48970
                        -----------------------------------------
Total Dipole Moment    :     -0.05070      -0.14939      -0.00242
                        -----------------------------------------
Magnitude (a.u.)       :      0.15777
Magnitude (Debye)      :      0.40103

Rotational constants in cm-1:     0.036649     0.031147     0.016852
Rotational constants in MHz :  1098.708863   933.753070   505.222415

                             ****ORCA TERMINATED NORMALLY****
TOTAL RUN TIME: 0 days 0 hours 7 minutes 50 seconds 57 msec
