                         Program Version 4.2.0 -  RELEASE  -
|  1> # ORCA input file
|  2> # SCF done        -26.912782461352          0.000530934485
|  3> ! B3LYP/G D3BJ Opt RIJCOSX def2-SVP def2/J
|  4> * xyz 0 1
|  5>    C        0.97951         1.58794         0.09683
|  6>    S        2.39720         0.61199         0.22171
|  7>    C       -0.12632         0.80810         0.00437
|  8>    S       -1.84061         1.05068        -0.14194
|  9>    C       -2.00619        -0.70856        -0.15196
| 10>    N       -0.94280        -1.39971        -0.05939
| 11>    C        0.15729        -0.60058         0.03218
| 12>    C        1.50109        -0.88047         0.14864
| 13>    C        2.11219        -2.17544         0.20626
| 14>    C        3.41849        -2.39549         0.33295
| 15>    H        1.06351         2.65510         0.10111
| 16>    H       -2.98622        -1.13677        -0.23250
| 17>    H        1.40751        -2.99405         0.13810
| 18>    H        4.12105        -1.58079         0.40250
| 19>    H        3.82137        -3.39154         0.37122
| 20> *
| 21>
| 22>                          ****END OF INPUT****
 Total Charge           Charge          ....    0
 Multiplicity           Mult            ....    1
 Number of Electrons    NEL             ....   86
Dispersion correction           -0.036133764
FINAL SINGLE POINT ENERGY     -1120.428830828632
Dispersion correction            ... done
Dispersion correction           -0.035956562
FINAL SINGLE POINT ENERGY     -1120.431693281953
Dispersion correction            ... done
Dispersion correction           -0.035913905
FINAL SINGLE POINT ENERGY     -1120.431867224137
Dispersion correction            ... done
FINAL SINGLE POINT ENERGY     -1120.431869211460
Dispersion correction            ... done
Dispersion correction           -0.035895015
FINAL SINGLE POINT ENERGY     -1120.431897045412
Dispersion correction            ... done
Dispersion correction           -0.035897807
FINAL SINGLE POINT ENERGY     -1120.431899892213
Dispersion correction            ... done
                    ***********************HURRAY********************

CARTESIAN COORDINATES (ANGSTROEM)
---------------------------------
  C      0.966924    1.637789    0.097608
  S      2.398742    0.662273    0.227731
  C     -0.142538    0.838663    0.002349
  S     -1.874114    1.040832   -0.157948
  C     -2.010782   -0.738509   -0.156074
  N     -0.921875   -1.416546   -0.053212
  C      0.162523   -0.569267    0.037878
  C      1.519300   -0.843050    0.159234
  C      2.126381   -2.156243    0.218446
  C      3.434431   -2.440875    0.325868
  H      1.046071    2.722777    0.105836
  H     -3.003809   -1.187516   -0.245432
  H      1.394459   -2.968621    0.161662
  H      4.195531   -1.657143    0.385645
  H      3.785827   -3.474153    0.360490

 Multiplicity           Mult            ....    1
 Number of Electrons    NEL             ....   86
 Basis Dimension        Dim             ....  173

ORBITAL ENERGIES
----------------

  NO   OCC          E(Eh)            E(eV)
   0   2.0000     -88.886673     -2418.7293
   1   2.0000     -88.882115     -2418.6053
   2   2.0000     -14.341167      -390.2430
   3   2.0000     -10.261795      -279.2376
   4   2.0000     -10.229722      -278.3649
   5   2.0000     -10.228622      -278.3350
   6   2.0000     -10.228140      -278.3218
   7   2.0000     -10.226824      -278.2860
   8   2.0000     -10.205335      -277.7013
   9   2.0000     -10.192603      -277.3548
  10   2.0000      -7.981233      -217.1804
  11   2.0000      -7.977342      -217.0745
  12   2.0000      -5.949401      -161.8914
  13   2.0000      -5.945722      -161.7913
  14   2.0000      -5.945331      -161.7807
  15   2.0000      -5.942482      -161.7031
  16   2.0000      -5.942022      -161.6906
  17   2.0000      -5.937601      -161.5703
  18   2.0000      -0.971280       -26.4299
  19   2.0000      -0.882658       -24.0184
  20   2.0000      -0.811319       -22.0771
  21   2.0000      -0.775160       -21.0932
  22   2.0000      -0.736876       -20.0514
  23   2.0000      -0.703179       -19.1345
  24   2.0000      -0.624588       -16.9959
  25   2.0000      -0.605258       -16.4699
  26   2.0000      -0.562240       -15.2993
  27   2.0000      -0.528354       -14.3773
  28   2.0000      -0.488532       -13.2936
  29   2.0000      -0.470974       -12.8158
  30   2.0000      -0.451166       -12.2768
  31   2.0000      -0.438658       -11.9365
  32   2.0000      -0.435975       -11.8635
  33   2.0000      -0.425796       -11.5865
  34   2.0000      -0.373665       -10.1679
  35   2.0000      -0.368372       -10.0239
  36   2.0000      -0.364352        -9.9145
  37   2.0000      -0.347796        -9.4640
  38   2.0000      -0.327039        -8.8992
  39   2.0000      -0.287650        -7.8274
  40   2.0000      -0.285881        -7.7792
  41   2.0000      -0.253956        -6.9105
  42   2.0000      -0.213606        -5.8125
  43   0.0000      -0.067347        -1.8326
  44   0.0000      -0.010814        -0.2943
  45   0.0000       0.015490         0.4215
  46   0.0000       0.022433         0.6104
  47   0.0000       0.030327         0.8252

MULLIKEN ATOMIC CHARGES
-----------------------
   0 C :   -0.197490
   1 S :    0.118552
   2 C :    0.046547
   3 S :    0.072714
   4 C :    0.015359
   5 N :   -0.081877
   6 C :    0.059219
   7 C :   -0.146883
   8 C :    0.009271
   9 C :   -0.033335
  10 H :    0.035374
  11 H :    0.047191
  12 H :    0.009124
  13 H :    0.019564
  14 H :    0.026672
Sum of atomic charges:   -0.0000000

LOEWDIN ATOMIC CHARGES
----------------------
   0 C :   -0.211850
   1 S :    0.450717
   2 C :   -0.207396
   3 S :    0.348891
   4 C :   -0.095665
   5 N :   -0.094068
   6 C :   -0.062527
   7 C :   -0.184330
   8 C :   -0.032548
   9 C :   -0.052404
  10 H :    0.029406
  11 H :    0.022585
  12 H :    0.041840
  13 H :    0.019149
  14 H :    0.028200

  Mayer bond orders larger than 0.100000
B(  0-C ,  1-S ) :   1.1587 B(  0-C ,  2-C ) :   1.5148 B(  0-C ,  7-C ) :   0.1027
B(  0-C , 10-H ) :   0.9760 B(  1-S ,  7-C ) :   1.1253 B(  2-C ,  3-S ) :   1.0340
B(  2-C ,  6-C ) :   1.2164 B(  3-S ,  4-C ) :   1.0713 B(  3-S ,  5-N ) :   0.1231
B(  4-C ,  5-N ) :   1.7625 B(  4-C , 11-H ) :   0.9559 B(  5-N ,  6-C ) :   1.2876
B(  6-C ,  7-C ) :   1.4272 B(  7-C ,  8-C ) :   1.1648 B(  8-C ,  9-C ) :   1.8773
B(  8-C , 12-H ) :   0.9553 B(  9-C , 13-H ) :   0.9532 B(  9-C , 14-H ) :   0.9482

Dispersion correction           -0.035897315
FINAL SINGLE POINT ENERGY     -1120.431898730071

DIPOLE MOMENT
-------------
                                X             Y             Z
Electronic contribution:     -4.71730       5.97640      -0.44119
Nuclear contribution   :      4.60599      -5.57351       0.42725
                        -----------------------------------------
Total Dipole Moment    :     -0.11132       0.40289      -0.01394
                        -----------------------------------------
Magnitude (a.u.)       :      0.41822
Magnitude (Debye)      :      1.06302

Rotational constants in cm-1:     0.069933     0.025844     0.018871
Rotational constants in MHz :  2096.532348   774.797138   565.729460

                             ****ORCA TERMINATED NORMALLY****
TOTAL RUN TIME: 0 days 0 hours 4 minutes 56 seconds 89 msec
