                         Program Version 4.2.0 -  RELEASE  -
|  1> # ORCA input file
|  2> # SCF done        -18.786304448619          0.000564150484
|  3> ! B3LYP/G D3BJ Opt RIJCOSX def2-SVP def2/J
|  4> * xyz 0 1
|  5>    C        0.23699         0.98831        -0.01634
|  6>    O        1.02397        -0.19575        -0.15127
|  7>    C       -0.13010        -1.03592        -0.11520
|  8>    C       -1.06419         0.17098         0.09461
|  9>    C       -2.08386         0.40782        -0.96169
| 10>    C       -3.36329         0.62980        -0.72251
| 11>    H        0.30632         1.62474        -0.90375
| 12>    H        0.51401         1.56470         0.87027
| 13>    H       -0.08799        -1.75363         0.70810
| 14>    H       -0.27289        -1.56974        -1.05988
| 15>    H       -1.51719         0.20485         1.08557
| 16>    H       -1.70940         0.38726        -1.97708
| 17>    H       -3.75670         0.65103         0.28039
| 18>    H       -4.07124         0.79702        -1.51576
| 19> *
| 20>
| 21>                          ****END OF INPUT****
 Total Charge           Charge          ....    0
 Multiplicity           Mult            ....    1
 Number of Electrons    NEL             ....   46
Dispersion correction           -0.017911938
FINAL SINGLE POINT ENERGY      -270.318267197171
Dispersion correction            ... done
Dispersion correction           -0.017771633
FINAL SINGLE POINT ENERGY      -270.319899041504
Dispersion correction            ... done
Dispersion correction           -0.017746987
FINAL SINGLE POINT ENERGY      -270.319961735752
Dispersion correction            ... done
FINAL SINGLE POINT ENERGY      -270.319981141135
FINAL SINGLE POINT ENERGY      -270.319981187088
FINAL SINGLE POINT ENERGY      -270.319979757558
FINAL SINGLE POINT ENERGY      -270.319978995621
FINAL SINGLE POINT ENERGY      -270.319973390430
FINAL SINGLE POINT ENERGY      -270.319908490781
FINAL SINGLE POINT ENERGY      -270.319848334320
FINAL SINGLE POINT ENERGY      -270.319932463648
Dispersion correction            ... done
Dispersion correction           -0.017703465
FINAL SINGLE POINT ENERGY      -270.319955147657
Dispersion correction            ... done
Dispersion correction           -0.017702360
FINAL SINGLE POINT ENERGY      -270.319963057186
Dispersion correction            ... done
                    ***********************HURRAY********************

CARTESIAN COORDINATES (ANGSTROEM)
---------------------------------
  C      0.278800    0.978225   -0.016659
  O      1.052492   -0.227724    0.044404
  C     -0.121045   -1.034253   -0.107524
  C     -1.053177    0.191734    0.068116
  C     -2.104107    0.435748   -0.960085
  C     -3.403021    0.607386   -0.702488
  H      0.417528    1.521628   -0.971922
  H      0.499138    1.668063    0.815790
  H     -0.198064   -1.827158    0.656086
  H     -0.183400   -1.501187   -1.109698
  H     -1.489386    0.233278    1.077486
  H     -1.753162    0.463417   -2.000746
  H     -3.787342    0.586265    0.322825
  H     -4.130814    0.776050   -1.500122

 Multiplicity           Mult            ....    1
 Number of Electrons    NEL             ....   46
 Basis Dimension        Dim             ....  124

ORBITAL ENERGIES
----------------

  NO   OCC          E(Eh)            E(eV)
   0   2.0000     -19.123681      -520.3818
   1   2.0000     -10.237158      -278.5672
   2   2.0000     -10.236848      -278.5588
   3   2.0000     -10.201963      -277.6095
   4   2.0000     -10.198724      -277.5214
   5   2.0000     -10.191955      -277.3372
   6   2.0000      -1.035865       -28.1873
   7   2.0000      -0.795683       -21.6516
   8   2.0000      -0.714768       -19.4498
   9   2.0000      -0.686883       -18.6910
  10   2.0000      -0.582468       -15.8498
  11   2.0000      -0.555098       -15.1050
  12   2.0000      -0.506687       -13.7877
  13   2.0000      -0.485428       -13.2092
  14   2.0000      -0.453983       -12.3535
  15   2.0000      -0.434031       -11.8106
  16   2.0000      -0.407040       -11.0761
  17   2.0000      -0.404554       -11.0085
  18   2.0000      -0.354369        -9.6429
  19   2.0000      -0.352154        -9.5826
  20   2.0000      -0.310651        -8.4532
  21   2.0000      -0.266921        -7.2633
  22   2.0000      -0.251089        -6.8325
  23   0.0000      -0.002610        -0.0710
  24   0.0000       0.061903         1.6845
  25   0.0000       0.068903         1.8749
  26   0.0000       0.078127         2.1260
  27   0.0000       0.096174         2.6170

MULLIKEN ATOMIC CHARGES
-----------------------
   0 C :    0.280732
   1 O :   -0.399851
   2 C :    0.273662
   3 C :   -0.176790
   4 C :    0.002257
   5 C :   -0.022589
   6 H :   -0.006626
   7 H :    0.010383
   8 H :    0.012292
   9 H :   -0.007535
  10 H :    0.000042
  11 H :   -0.005344
  12 H :    0.014906
  13 H :    0.024462
Sum of atomic charges:   -0.0000000

LOEWDIN ATOMIC CHARGES
----------------------
   0 C :    0.106276
   1 O :   -0.209105
   2 C :    0.105411
   3 C :   -0.051169
   4 C :   -0.028858
   5 C :   -0.052956
   6 H :    0.005204
   7 H :    0.010931
   8 H :    0.010938
   9 H :    0.005088
  10 H :    0.027899
  11 H :    0.023021
  12 H :    0.021636
  13 H :    0.025683

  Mayer bond orders larger than 0.100000
B(  0-C ,  1-O ) :   1.0193 B(  0-C ,  3-C ) :   1.0570 B(  0-C ,  6-H ) :   0.9369
B(  0-C ,  7-H ) :   0.9432 B(  1-O ,  2-C ) :   1.0236 B(  2-C ,  3-C ) :   1.0588
B(  2-C ,  8-H ) :   0.9433 B(  2-C ,  9-H ) :   0.9363 B(  3-C ,  4-C ) :   1.0238
B(  3-C , 10-H ) :   0.9204 B(  4-C ,  5-C ) :   1.9972 B(  4-C , 11-H ) :   0.9549
B(  5-C , 12-H ) :   0.9576 B(  5-C , 13-H ) :   0.9448

Dispersion correction           -0.017702237
FINAL SINGLE POINT ENERGY      -270.319962818045

DIPOLE MOMENT
-------------
                                X             Y             Z
Electronic contribution:      2.96031      -0.54925       0.49700
Nuclear contribution   :     -3.62590       0.68510      -0.51589
                        -----------------------------------------
Total Dipole Moment    :     -0.66559       0.13585      -0.01889
                        -----------------------------------------
Magnitude (a.u.)       :      0.67958
Magnitude (Debye)      :      1.72735

Rotational constants in cm-1:     0.338990     0.073205     0.066448
Rotational constants in MHz : 10162.677465  2194.634116  1992.050127

                             ****ORCA TERMINATED NORMALLY****
TOTAL RUN TIME: 0 days 0 hours 5 minutes 1 seconds 677 msec
