                         Program Version 4.2.0 -  RELEASE  -
|  1> # ORCA input file
|  2> # SCF done        -30.378823462364          0.000321781652
|  3> ! B3LYP/G D3BJ Opt RIJCOSX def2-SVP def2/J
|  4> * xyz 0 1
|  5>    C        1.03225         0.55645        -0.03949
|  6>    C       -0.24720         1.01334         0.06980
|  7>    O       -1.12021         0.00821         0.09217
|  8>    C       -0.40682        -1.13268        -0.00370
|  9>    N       -1.13014        -2.34337         0.00008
| 10>    O       -0.49305        -3.37841        -0.08646
| 11>    O       -2.33803        -2.27364         0.08875
| 12>    C        0.95474        -0.86207        -0.09003
| 13>    C        2.03059        -1.81929        -0.20469
| 14>    C        3.31531        -1.48536        -0.28201
| 15>    H        1.91981         1.15187        -0.07925
| 16>    H       -0.64299         2.00813         0.13732
| 17>    H        1.72619        -2.85549        -0.22456
| 18>    H        3.65035        -0.46206        -0.26369
| 19>    H        4.07985        -2.23749        -0.36545
| 20> *
| 21>
| 22>                          ****END OF INPUT****
 Total Charge           Charge          ....    0
 Multiplicity           Mult            ....    1
 Number of Electrons    NEL             ....   72
Dispersion correction           -0.025076449
FINAL SINGLE POINT ENERGY      -511.566270261780
Dispersion correction            ... done
Dispersion correction           -0.025002181
FINAL SINGLE POINT ENERGY      -511.568338340108
Dispersion correction            ... done
Dispersion correction           -0.024988618
FINAL SINGLE POINT ENERGY      -511.568259610982
Dispersion correction            ... done
FINAL SINGLE POINT ENERGY      -511.568513563705
FINAL SINGLE POINT ENERGY      -511.568534491178
Dispersion correction            ... done
Dispersion correction           -0.024992439
FINAL SINGLE POINT ENERGY      -511.568539524914
Dispersion correction            ... done
Dispersion correction           -0.024992680
FINAL SINGLE POINT ENERGY      -511.568539293167
Dispersion correction            ... done
                    ***********************HURRAY********************

CARTESIAN COORDINATES (ANGSTROEM)
---------------------------------
  C      1.032009    0.566058   -0.030983
  C     -0.247516    1.031727    0.072025
  O     -1.130108    0.008503    0.096355
  C     -0.409168   -1.127938    0.004454
  N     -1.155020   -2.351477   -0.007699
  O     -0.506039   -3.389079   -0.108983
  O     -2.369100   -2.279234    0.078835
  C      0.950086   -0.869944   -0.078686
  C      2.042793   -1.828345   -0.187995
  C      3.335974   -1.488118   -0.291028
  H      1.936621    1.166722   -0.071293
  H     -0.674764    2.029028    0.135878
  H      1.744216   -2.877194   -0.184529
  H      3.671517   -0.447716   -0.305461
  H      4.109148   -2.254854   -0.372100

 Multiplicity           Mult            ....    1
 Number of Electrons    NEL             ....   72
 Basis Dimension        Dim             ....  165

ORBITAL ENERGIES
----------------

  NO   OCC          E(Eh)            E(eV)
   0   2.0000     -19.240878      -523.5709
   1   2.0000     -19.163595      -521.4679
   2   2.0000     -19.162193      -521.4298
   3   2.0000     -14.569167      -396.4472
   4   2.0000     -10.301733      -280.3244
   5   2.0000     -10.280156      -279.7373
   6   2.0000     -10.240863      -278.6681
   7   2.0000     -10.223452      -278.1943
   8   2.0000     -10.215861      -277.9877
   9   2.0000     -10.212184      -277.8877
  10   2.0000      -1.228315       -33.4241
  11   2.0000      -1.150147       -31.2971
  12   2.0000      -1.051063       -28.6009
  13   2.0000      -0.854789       -23.2600
  14   2.0000      -0.825692       -22.4682
  15   2.0000      -0.775869       -21.1125
  16   2.0000      -0.708189       -19.2708
  17   2.0000      -0.655734       -17.8434
  18   2.0000      -0.602005       -16.3814
  19   2.0000      -0.573619       -15.6090
  20   2.0000      -0.554283       -15.0828
  21   2.0000      -0.548963       -14.9380
  22   2.0000      -0.517327       -14.0772
  23   2.0000      -0.506401       -13.7799
  24   2.0000      -0.486932       -13.2501
  25   2.0000      -0.480275       -13.0689
  26   2.0000      -0.456243       -12.4150
  27   2.0000      -0.438359       -11.9283
  28   2.0000      -0.409384       -11.1399
  29   2.0000      -0.381045       -10.3688
  30   2.0000      -0.357806        -9.7364
  31   2.0000      -0.314398        -8.5552
  32   2.0000      -0.312974        -8.5165
  33   2.0000      -0.297911        -8.1066
  34   2.0000      -0.288419        -7.8483
  35   2.0000      -0.260423        -7.0865
  36   0.0000      -0.100637        -2.7385
  37   0.0000      -0.025228        -0.6865
  38   0.0000      -0.001696        -0.0461
  39   0.0000       0.056330         1.5328
  40   0.0000       0.074850         2.0368

MULLIKEN ATOMIC CHARGES
-----------------------
   0 C :   -0.035177
   1 C :    0.165504
   2 O :   -0.164140
   3 C :    0.179932
   4 N :    0.256063
   5 O :   -0.257506
   6 O :   -0.238132
   7 C :   -0.001081
   8 C :   -0.015760
   9 C :   -0.002318
  10 H :    0.004979
  11 H :    0.026563
  12 H :    0.025395
  13 H :    0.016205
  14 H :    0.039474
Sum of atomic charges:   -0.0000000

LOEWDIN ATOMIC CHARGES
----------------------
   0 C :   -0.055045
   1 C :    0.072604
   2 O :    0.032237
   3 C :    0.007060
   4 N :    0.266064
   5 O :   -0.217834
   6 O :   -0.198215
   7 C :   -0.029332
   8 C :   -0.023883
   9 C :   -0.017211
  10 H :    0.036972
  11 H :    0.033565
  12 H :    0.037734
  13 H :    0.021953
  14 H :    0.033330

  Mayer bond orders larger than 0.100000
B(  0-C ,  1-C ) :   1.5204 B(  0-C ,  7-C ) :   1.2218 B(  0-C , 10-H ) :   1.0007
B(  1-C ,  2-O ) :   1.1421 B(  1-C , 11-H ) :   1.0039 B(  2-O ,  3-C ) :   1.1621
B(  3-C ,  4-N ) :   0.9364 B(  3-C ,  7-C ) :   1.4423 B(  4-N ,  5-O ) :   1.4838
B(  4-N ,  6-O ) :   1.4924 B(  5-O ,  6-O ) :   0.2770 B(  7-C ,  8-C ) :   1.1123
B(  8-C ,  9-C ) :   1.8958 B(  8-C , 12-H ) :   0.9569 B(  9-C , 13-H ) :   0.9495
B(  9-C , 14-H ) :   0.9475

Dispersion correction           -0.024992804
FINAL SINGLE POINT ENERGY      -511.568539567736

DIPOLE MOMENT
-------------
                                X             Y             Z
Electronic contribution:     -8.35400      -1.97081       0.51760
Nuclear contribution   :      9.67467       3.47828      -0.54263
                        -----------------------------------------
Total Dipole Moment    :      1.32067       1.50748      -0.02503
                        -----------------------------------------
Magnitude (a.u.)       :      2.00432
Magnitude (Debye)      :      5.09457

Rotational constants in cm-1:     0.068013     0.042500     0.026157
Rotational constants in MHz :  2038.976611  1274.127951   784.169095

                             ****ORCA TERMINATED NORMALLY****
TOTAL RUN TIME: 0 days 0 hours 6 minutes 23 seconds 746 msec
