                         Program Version 4.2.0 -  RELEASE  -
|  1> # ORCA input file
|  2> # SCF done        -45.768132341366          0.000646971539
|  3> ! B3LYP/G D3BJ Opt RIJCOSX def2-SVP def2/J
|  4> * xyz 0 1
|  5>    C        0.15910         1.01450        -0.80900
|  6>    C       -0.73393         0.04968        -1.04877
|  7>    C       -0.77519        -1.00612        -0.08449
|  8>    S        0.40899        -0.71763         1.18704
|  9>    C        0.97532         0.84206         0.42244
| 10>    C       -1.58978        -2.10025        -0.09235
| 11>    C       -1.64832        -3.14875         0.86145
| 12>    C       -2.56900        -4.10531         0.58399
| 13>    C       -3.30069        -3.88428        -0.60920
| 14>    S       -2.76768        -2.38849        -1.37378
| 15>    C       -4.28214        -4.67006        -1.14819
| 16>    S       -4.81962        -6.16208        -0.37760
| 17>    C       -6.03468        -6.50160        -1.69529
| 18>    C       -5.92506        -5.37910        -2.68093
| 19>    C       -4.99849        -4.44707        -2.35074
| 20>    C       -6.74345        -5.33329        -3.85949
| 21>    C       -7.66091        -6.24001        -4.20013
| 22>    H        0.32006         1.87870        -1.42946
| 23>    H       -1.40028         0.02272        -1.89446
| 24>    H        2.04328         0.75783         0.20809
| 25>    H        0.83087         1.65402         1.13817
| 26>    H       -0.99732        -3.14210         1.71828
| 27>    H       -2.76178        -4.97555         1.18702
| 28>    H       -7.02670        -6.55833        -1.24280
| 29>    H       -5.79615        -7.46818        -2.14291
| 30>    H       -4.78693        -3.57284        -2.94441
| 31>    H       -6.57147        -4.47820        -4.50021
| 32>    H       -7.86686        -7.10681        -3.59576
| 33>    H       -8.23654        -6.14009        -5.10337
| 34> *
| 35>
| 36>                          ****END OF INPUT****
 Total Charge           Charge          ....    0
 Multiplicity           Mult            ....    1
 Number of Electrons    NEL             ....  144
Dispersion correction           -0.073285858
FINAL SINGLE POINT ENERGY     -1734.574861931630
Dispersion correction            ... done
Dispersion correction           -0.072793859
FINAL SINGLE POINT ENERGY     -1734.579527089067
Dispersion correction            ... done
Dispersion correction           -0.072707538
FINAL SINGLE POINT ENERGY     -1734.579607570024
Dispersion correction            ... done
FINAL SINGLE POINT ENERGY     -1734.579434919393
FINAL SINGLE POINT ENERGY     -1734.579373622550
Dispersion correction            ... done
Dispersion correction           -0.072704417
FINAL SINGLE POINT ENERGY     -1734.579397244819
Dispersion correction            ... done
Dispersion correction           -0.072703881
FINAL SINGLE POINT ENERGY     -1734.579406526286
Dispersion correction            ... done
                    ***********************HURRAY********************

CARTESIAN COORDINATES (ANGSTROEM)
---------------------------------
  C      0.217927    1.063682   -0.767794
  C     -0.580789    0.027688   -1.093898
  C     -0.676934   -1.025751   -0.103612
  S      0.368487   -0.647302    1.287718
  C      0.865107    0.981787    0.581845
  C     -1.456292   -2.151154   -0.170353
  C     -1.577664   -3.191872    0.815842
  C     -2.495515   -4.154686    0.513373
  C     -3.182395   -3.957251   -0.735006
  S     -2.551842   -2.498299   -1.534036
  C     -4.198175   -4.726042   -1.249341
  S     -4.795411   -6.178815   -0.408061
  C     -6.102125   -6.470852   -1.661568
  C     -5.946055   -5.403549   -2.715175
  C     -4.942844   -4.514348   -2.460690
  C     -6.820509   -5.369520   -3.870250
  C     -7.814390   -6.246398   -4.116078
  H      0.394279    1.924857   -1.416249
  H     -1.128154   -0.041412   -2.036447
  H      1.966335    1.042464    0.534333
  H      0.519927    1.787301    1.254486
  H     -0.985686   -3.178610    1.732239
  H     -2.725381   -5.003297    1.159578
  H     -7.093116   -6.420123   -1.179018
  H     -5.989287   -7.482857   -2.085262
  H     -4.712077   -3.677799   -3.124817
  H     -6.635993   -4.558998   -4.583678
  H     -8.041545   -7.070923   -3.434313
  H     -8.435232   -6.164551   -5.010628

 Multiplicity           Mult            ....    1
 Number of Electrons    NEL             ....  144
 Basis Dimension        Dim             ....  310

ORBITAL ENERGIES
----------------

  NO   OCC          E(Eh)            E(eV)
   0   2.0000     -88.858261     -2417.9562
   1   2.0000     -88.851634     -2417.7759
   2   2.0000     -88.846579     -2417.6383
   3   2.0000     -10.232170      -278.4315
   4   2.0000     -10.225211      -278.2421
   5   2.0000     -10.224200      -278.2146
   6   2.0000     -10.221683      -278.1461
   7   2.0000     -10.220448      -278.1125
   8   2.0000     -10.220191      -278.1055
   9   2.0000     -10.209050      -277.8024
  10   2.0000     -10.209039      -277.8021
  11   2.0000     -10.207450      -277.7588
  12   2.0000     -10.204781      -277.6862
  13   2.0000     -10.202717      -277.6301
  14   2.0000     -10.201018      -277.5838
  15   2.0000     -10.200346      -277.5655
  16   2.0000     -10.194605      -277.4093
  17   2.0000      -7.953091      -216.4146
  18   2.0000      -7.946677      -216.2401
  19   2.0000      -7.941875      -216.1094
  20   2.0000      -5.921820      -161.1409
  21   2.0000      -5.918264      -161.0441
  22   2.0000      -5.915833      -160.9780
  23   2.0000      -5.912611      -160.8903
  24   2.0000      -5.912086      -160.8760
  25   2.0000      -5.911056      -160.8480
  26   2.0000      -5.907304      -160.7459
  27   2.0000      -5.905472      -160.6961
  28   2.0000      -5.900554      -160.5622
  29   2.0000      -0.884502       -24.0685
  30   2.0000      -0.869091       -23.6492
  31   2.0000      -0.852376       -23.1943
  32   2.0000      -0.793503       -21.5923
  33   2.0000      -0.766006       -20.8441
  34   2.0000      -0.746971       -20.3261
  35   2.0000      -0.735504       -20.0141
  36   2.0000      -0.723519       -19.6880
  37   2.0000      -0.719696       -19.5839
  38   2.0000      -0.676030       -18.3957
  39   2.0000      -0.621162       -16.9027
  40   2.0000      -0.614762       -16.7285
  41   2.0000      -0.591962       -16.1081
  42   2.0000      -0.558831       -15.2066
  43   2.0000      -0.538951       -14.6656
  44   2.0000      -0.524591       -14.2748
  45   2.0000      -0.520489       -14.1632
  46   2.0000      -0.504499       -13.7281
  47   2.0000      -0.487380       -13.2623
  48   2.0000      -0.471236       -12.8230
  49   2.0000      -0.455475       -12.3941
  50   2.0000      -0.454708       -12.3732
  51   2.0000      -0.443297       -12.0627
  52   2.0000      -0.419476       -11.4145
  53   2.0000      -0.413991       -11.2653
  54   2.0000      -0.405237       -11.0271
  55   2.0000      -0.396945       -10.8014
  56   2.0000      -0.396376       -10.7860
  57   2.0000      -0.393006       -10.6942
  58   2.0000      -0.384889       -10.4734
  59   2.0000      -0.367703       -10.0057
  60   2.0000      -0.361830        -9.8459
  61   2.0000      -0.355587        -9.6760
  62   2.0000      -0.342948        -9.3321
  63   2.0000      -0.328179        -8.9302
  64   2.0000      -0.326211        -8.8767
  65   2.0000      -0.323289        -8.7971
  66   2.0000      -0.304692        -8.2911
  67   2.0000      -0.265838        -7.2338
  68   2.0000      -0.258696        -7.0395
  69   2.0000      -0.239228        -6.5097
  70   2.0000      -0.231828        -6.3084
  71   2.0000      -0.162894        -4.4326
  72   0.0000      -0.083538        -2.2732
  73   0.0000      -0.032851        -0.8939
  74   0.0000       0.013521         0.3679
  75   0.0000       0.020556         0.5594
  76   0.0000       0.021210         0.5772

MULLIKEN ATOMIC CHARGES
-----------------------
   0 C :   -0.067924
   1 C :    0.048831
   2 C :   -0.090905
   3 S :   -0.016318
   4 C :    0.013440
   5 C :   -0.042389
   6 C :    0.014380
   7 C :    0.015519
   8 C :   -0.050933
   9 S :    0.047591
  10 C :   -0.064503
  11 S :   -0.026257
  12 C :    0.038756
  13 C :   -0.066524
  14 C :    0.005374
  15 C :    0.008746
  16 C :   -0.039622
  17 H :    0.007722
  18 H :    0.001076
  19 H :    0.065484
  20 H :    0.064966
  21 H :   -0.004840
  22 H :   -0.003548
  23 H :    0.061757
  24 H :    0.059470
  25 H :   -0.009513
  26 H :   -0.013189
  27 H :    0.017428
  28 H :    0.025926
Sum of atomic charges:   -0.0000000

LOEWDIN ATOMIC CHARGES
----------------------
   0 C :   -0.040762
   1 C :   -0.038664
   2 C :   -0.177056
   3 S :    0.278661
   4 C :   -0.114493
   5 C :   -0.182839
   6 C :   -0.037834
   7 C :   -0.037737
   8 C :   -0.182141
   9 S :    0.336202
  10 C :   -0.175939
  11 S :    0.278172
  12 C :   -0.109356
  13 C :   -0.043051
  14 C :   -0.034717
  15 C :   -0.027433
  16 C :   -0.054952
  17 H :    0.030750
  18 H :    0.031942
  19 H :    0.033447
  20 H :    0.034121
  21 H :    0.030819
  22 H :    0.030523
  23 H :    0.032259
  24 H :    0.031422
  25 H :    0.029813
  26 H :    0.031196
  27 H :    0.020815
  28 H :    0.026831

  Mayer bond orders larger than 0.100000
B(  0-C ,  1-C ) :   1.7701 B(  0-C ,  4-C ) :   1.0296 B(  0-C , 17-H ) :   0.9690
B(  1-C ,  2-C ) :   1.1091 B(  1-C , 18-H ) :   0.9770 B(  2-C ,  3-S ) :   1.0401
B(  2-C ,  5-C ) :   1.6034 B(  3-S ,  4-C ) :   0.9964 B(  4-C , 19-H ) :   0.9313
B(  4-C , 20-H ) :   0.9262 B(  5-C ,  6-C ) :   1.1557 B(  5-C ,  9-S ) :   1.0265
B(  6-C ,  7-C ) :   1.5900 B(  6-C , 21-H ) :   0.9817 B(  7-C ,  8-C ) :   1.1570
B(  7-C , 22-H ) :   0.9818 B(  8-C ,  9-S ) :   1.0330 B(  8-C , 10-C ) :   1.5689
B( 10-C , 11-S ) :   1.0380 B( 10-C , 14-C ) :   1.1317 B( 11-S , 12-C ) :   0.9893
B( 12-C , 13-C ) :   1.0432 B( 12-C , 23-H ) :   0.9153 B( 12-C , 24-H ) :   0.9180
B( 13-C , 14-C ) :   1.6160 B( 13-C , 15-C ) :   1.1560 B( 14-C , 25-H ) :   0.9821
B( 15-C , 16-C ) :   1.8600 B( 15-C , 26-H ) :   0.9627 B( 16-C , 27-H ) :   0.9442
B( 16-C , 28-H ) :   0.9469

Dispersion correction           -0.072700914
FINAL SINGLE POINT ENERGY     -1734.579415762773

DIPOLE MOMENT
-------------
                                X             Y             Z
Electronic contribution:      7.50788       1.18213       6.84185
Nuclear contribution   :     -7.52330      -0.59926      -7.18985
                        -----------------------------------------
Total Dipole Moment    :     -0.01543       0.58287      -0.34800
                        -----------------------------------------
Magnitude (a.u.)       :      0.67903
Magnitude (Debye)      :      1.72596

Rotational constants in cm-1:     0.037905     0.004486     0.004027
Rotational constants in MHz :  1136.366839   134.486743   120.726487

                             ****ORCA TERMINATED NORMALLY****
TOTAL RUN TIME: 0 days 0 hours 21 minutes 2 seconds 658 msec
