                         Program Version 4.2.0 -  RELEASE  -
|  1> # ORCA input file
|  2> # SCF done        -37.285760665734          0.000404513525
|  3> ! B3LYP/G D3BJ Opt RIJCOSX def2-SVP def2/J
|  4> * xyz 0 1
|  5>    C       -1.09390        -1.43274         0.16188
|  6>    S       -2.36849        -0.27538         0.13089
|  7>    C       -1.30313         1.09084         0.02086
|  8>    C        0.01369         0.64453         0.00825
|  9>    C        0.10767        -0.79319         0.08972
| 10>    N        1.42651        -1.13594         0.06997
| 11>    C        2.15637         0.02659        -0.02043
| 12>    N        3.55775        -0.03738        -0.05833
| 13>    O        4.05522        -1.15348        -0.00529
| 14>    O        4.17997         1.00407        -0.14232
| 15>    C        1.33860         1.13394        -0.06126
| 16>    C       -1.86679         2.40594        -0.03719
| 17>    C       -1.17617         3.54418        -0.10571
| 18>    H       -1.31619        -2.47715         0.22990
| 19>    H        1.84479        -2.05076         0.11375
| 20>    H        1.68120         2.14527        -0.13273
| 21>    H       -2.94868         2.43345        -0.01936
| 22>    H       -0.10202         3.56282        -0.12218
| 23>    H       -1.67707         4.49490        -0.14436
| 24> *
| 25>
| 26>                          ****END OF INPUT****
 Total Charge           Charge          ....    0
 Multiplicity           Mult            ....    1
 Number of Electrons    NEL             ....  100
Dispersion correction           -0.040942142
FINAL SINGLE POINT ENERGY      -965.979416727422
Dispersion correction            ... done
Dispersion correction           -0.040797726
FINAL SINGLE POINT ENERGY      -965.982231138163
Dispersion correction            ... done
Dispersion correction           -0.040759483
FINAL SINGLE POINT ENERGY      -965.982332076689
Dispersion correction            ... done
FINAL SINGLE POINT ENERGY      -965.982046030771
Dispersion correction            ... done
Dispersion correction           -0.040740218
FINAL SINGLE POINT ENERGY      -965.982384851057
Dispersion correction            ... done
Dispersion correction           -0.040739351
FINAL SINGLE POINT ENERGY      -965.982384990866
Dispersion correction            ... done
                    ***********************HURRAY********************

CARTESIAN COORDINATES (ANGSTROEM)
---------------------------------
  C     -1.114827   -1.458043    0.157767
  S     -2.383987   -0.284703    0.125314
  C     -1.315908    1.085106    0.016695
  C      0.009363    0.633706    0.005933
  C      0.099305   -0.808764    0.090959
  N      1.433941   -1.150155    0.075844
  C      2.158459    0.020169   -0.023668
  N      3.589800   -0.041637   -0.062574
  O      4.090170   -1.158321    0.052215
  O      4.204387    1.004373   -0.205895
  C      1.350291    1.134551   -0.068617
  C     -1.878118    2.417699   -0.040482
  C     -1.188855    3.571664   -0.090636
  H     -1.340620   -2.519114    0.228127
  H      1.864710   -2.064199    0.125274
  H      1.713192    2.153107   -0.148227
  H     -2.972828    2.463053   -0.038390
  H     -0.097184    3.603029   -0.091401
  H     -1.711964    4.528989   -0.132180

 Multiplicity           Mult            ....    1
 Number of Electrons    NEL             ....  100
 Basis Dimension        Dim             ....  216

ORBITAL ENERGIES
----------------

  NO   OCC          E(Eh)            E(eV)
   0   2.0000     -88.896321     -2418.9919
   1   2.0000     -19.166919      -521.5584
   2   2.0000     -19.166157      -521.5376
   3   2.0000     -14.568633      -396.4327
   4   2.0000     -14.399103      -391.8195
   5   2.0000     -10.283216      -279.8205
   6   2.0000     -10.252537      -278.9857
   7   2.0000     -10.237433      -278.5747
   8   2.0000     -10.228719      -278.3376
   9   2.0000     -10.221561      -278.1428
  10   2.0000     -10.216676      -278.0099
  11   2.0000     -10.216019      -277.9920
  12   2.0000     -10.200742      -277.5763
  13   2.0000      -7.990656      -217.4368
  14   2.0000      -5.958613      -162.1421
  15   2.0000      -5.954584      -162.0325
  16   2.0000      -5.952395      -161.9729
  17   2.0000      -1.227499       -33.4019
  18   2.0000      -1.054293       -28.6888
  19   2.0000      -1.006943       -27.4003
  20   2.0000      -0.894001       -24.3270
  21   2.0000      -0.821615       -22.3573
  22   2.0000      -0.791684       -21.5428
  23   2.0000      -0.790338       -21.5062
  24   2.0000      -0.719707       -19.5842
  25   2.0000      -0.692488       -18.8435
  26   2.0000      -0.625188       -17.0122
  27   2.0000      -0.619109       -16.8468
  28   2.0000      -0.588903       -16.0249
  29   2.0000      -0.562995       -15.3199
  30   2.0000      -0.550524       -14.9805
  31   2.0000      -0.532196       -14.4818
  32   2.0000      -0.523900       -14.2560
  33   2.0000      -0.511538       -13.9197
  34   2.0000      -0.473411       -12.8822
  35   2.0000      -0.468977       -12.7615
  36   2.0000      -0.462594       -12.5878
  37   2.0000      -0.454228       -12.3602
  38   2.0000      -0.415416       -11.3041
  39   2.0000      -0.405756       -11.0412
  40   2.0000      -0.383576       -10.4376
  41   2.0000      -0.373662       -10.1678
  42   2.0000      -0.365217        -9.9381
  43   2.0000      -0.325754        -8.8642
  44   2.0000      -0.317891        -8.6502
  45   2.0000      -0.317159        -8.6303
  46   2.0000      -0.302673        -8.2361
  47   2.0000      -0.287132        -7.8132
  48   2.0000      -0.259113        -7.0508
  49   2.0000      -0.212521        -5.7830
  50   0.0000      -0.104378        -2.8403
  51   0.0000      -0.049679        -1.3518
  52   0.0000       0.014003         0.3810
  53   0.0000       0.023448         0.6381
  54   0.0000       0.046974         1.2782

MULLIKEN ATOMIC CHARGES
-----------------------
   0 C :   -0.192974
   1 S :    0.134951
   2 C :   -0.153703
   3 C :    0.086469
   4 C :    0.163495
   5 N :   -0.062172
   6 C :    0.150473
   7 N :    0.269868
   8 O :   -0.277458
   9 O :   -0.246738
  10 C :   -0.072085
  11 C :    0.047329
  12 C :   -0.037442
  13 H :    0.018425
  14 H :    0.136061
  15 H :   -0.003450
  16 H :   -0.009386
  17 H :    0.020497
  18 H :    0.027841
Sum of atomic charges:   -0.0000000

LOEWDIN ATOMIC CHARGES
----------------------
   0 C :   -0.241219
   1 S :    0.476158
   2 C :   -0.181135
   3 C :   -0.063776
   4 C :   -0.004099
   5 N :    0.054460
   6 C :    0.005166
   7 N :    0.270229
   8 O :   -0.230346
   9 O :   -0.205767
  10 C :   -0.034292
  11 C :   -0.043335
  12 C :   -0.045531
  13 H :    0.027995
  14 H :    0.093114
  15 H :    0.039355
  16 H :    0.030292
  17 H :    0.023623
  18 H :    0.029106

  Mayer bond orders larger than 0.100000
B(  0-C ,  1-S ) :   1.1328 B(  0-C ,  2-C ) :   0.1152 B(  0-C ,  4-C ) :   1.4241
B(  0-C , 13-H ) :   0.9854 B(  1-S ,  2-C ) :   1.1716 B(  2-C ,  3-C ) :   1.3440
B(  2-C , 11-C ) :   1.1428 B(  3-C ,  4-C ) :   1.2131 B(  3-C , 10-C ) :   1.1510
B(  4-C ,  5-N ) :   1.1322 B(  5-N ,  6-C ) :   1.1725 B(  5-N , 14-H ) :   0.9161
B(  6-C ,  7-N ) :   0.9144 B(  6-C , 10-C ) :   1.4947 B(  7-N ,  8-O ) :   1.4472
B(  7-N ,  9-O ) :   1.5147 B(  8-O ,  9-O ) :   0.2771 B( 10-C , 15-H ) :   1.0150
B( 11-C , 12-C ) :   1.8878 B( 11-C , 16-H ) :   0.9479 B( 12-C , 17-H ) :   0.9551
B( 12-C , 18-H ) :   0.9436

Dispersion correction           -0.040736911
FINAL SINGLE POINT ENERGY      -965.982384425844

DIPOLE MOMENT
-------------
                                X             Y             Z
Electronic contribution:      3.64264      -6.33224       0.19417
Nuclear contribution   :     -5.11583       5.94086      -0.12485
                        -----------------------------------------
Total Dipole Moment    :     -1.47319      -0.39138       0.06931
                        -----------------------------------------
Magnitude (a.u.)       :      1.52587
Magnitude (Debye)      :      3.87845

Rotational constants in cm-1:     0.046605     0.015189     0.011458
Rotational constants in MHz :  1397.169568   455.364410   343.507219

                             ****ORCA TERMINATED NORMALLY****
TOTAL RUN TIME: 0 days 0 hours 11 minutes 8 seconds 336 msec
