                         Program Version 4.2.0 -  RELEASE  -
|  1> # ORCA input file
|  2> # SCF done        -21.132494467375          0.000485932292
|  3> ! B3LYP/G D3BJ Opt RIJCOSX def2-SVP def2/J
|  4> * xyz 0 1
|  5>    C       -1.13775         0.09915         0.00079
|  6>    C       -0.42630         1.25529         0.00004
|  7>    S       -1.01168         2.91281         0.00191
|  8>    S        1.28760         0.96080        -0.00326
|  9>    C        1.00489        -0.76361        -0.00359
| 10>    O        2.02025        -1.64859        -0.00589
| 11>    C       -0.32031        -1.05704        -0.00130
| 12>    H       -2.21239         0.06494         0.00274
| 13>    H       -2.29935         2.57373         0.00375
| 14>    H        2.87082        -1.19586        -0.00726
| 15>    H       -0.69953        -2.06109        -0.00112
| 16> *
| 17>
| 18>                          ****END OF INPUT****
 Total Charge           Charge          ....    0
 Multiplicity           Mult            ....    1
 Number of Electrons    NEL             ....   68
Dispersion correction           -0.023338533
FINAL SINGLE POINT ENERGY     -1026.038675968841
Dispersion correction            ... done
Dispersion correction           -0.023245904
FINAL SINGLE POINT ENERGY     -1026.040220297192
Dispersion correction            ... done
Dispersion correction           -0.023223797
FINAL SINGLE POINT ENERGY     -1026.040311887928
Dispersion correction            ... done
FINAL SINGLE POINT ENERGY     -1026.040330819646
FINAL SINGLE POINT ENERGY     -1026.040387201817
FINAL SINGLE POINT ENERGY     -1026.040291350830
FINAL SINGLE POINT ENERGY     -1026.036579030996
FINAL SINGLE POINT ENERGY     -1026.040928365985
FINAL SINGLE POINT ENERGY     -1026.041502952829
FINAL SINGLE POINT ENERGY     -1026.042424846293
FINAL SINGLE POINT ENERGY     -1026.043264032873
FINAL SINGLE POINT ENERGY     -1026.043406400589
FINAL SINGLE POINT ENERGY     -1026.043057502255
FINAL SINGLE POINT ENERGY     -1026.044849606211
FINAL SINGLE POINT ENERGY     -1026.045228607346
FINAL SINGLE POINT ENERGY     -1026.045671087687
FINAL SINGLE POINT ENERGY     -1026.045756010825
Dispersion correction            ... done
Dispersion correction           -0.023186518
FINAL SINGLE POINT ENERGY     -1026.045782231042
Dispersion correction            ... done
Dispersion correction           -0.023185529
FINAL SINGLE POINT ENERGY     -1026.045786666378
Dispersion correction            ... done
                    ***********************HURRAY********************

CARTESIAN COORDINATES (ANGSTROEM)
---------------------------------
  C     -1.230348   -0.063116   -0.206452
  C     -0.630584    1.172855   -0.186493
  S     -1.376195    2.748548   -0.424436
  S      1.118164    1.005562   -0.039214
  C      0.981957   -0.736395    0.019088
  O      2.050238   -1.547198    0.142053
  C     -0.322656   -1.155000   -0.086295
  H     -2.310233   -0.179110   -0.310664
  H     -1.454279    3.134993    0.875447
  H      2.857517   -1.033716    0.275765
  H     -0.607333   -2.206892   -0.071988

 Multiplicity           Mult            ....    1
 Number of Electrons    NEL             ....   68
 Basis Dimension        Dim             ....  126

ORBITAL ENERGIES
----------------

  NO   OCC          E(Eh)            E(eV)
   0   2.0000     -88.877398     -2418.4770
   1   2.0000     -88.852442     -2417.7979
   2   2.0000     -19.188004      -522.1321
   3   2.0000     -10.277185      -279.6564
   4   2.0000     -10.228613      -278.3347
   5   2.0000     -10.200902      -277.5806
   6   2.0000     -10.187472      -277.2152
   7   2.0000      -7.973269      -216.9637
   8   2.0000      -7.946264      -216.2288
   9   2.0000      -5.941427      -161.6744
  10   2.0000      -5.937758      -161.5746
  11   2.0000      -5.933903      -161.4697
  12   2.0000      -5.915546      -160.9702
  13   2.0000      -5.911885      -160.8706
  14   2.0000      -5.905074      -160.6852
  15   2.0000      -1.075221       -29.2583
  16   2.0000      -0.878044       -23.8928
  17   2.0000      -0.773383       -21.0448
  18   2.0000      -0.737937       -20.0803
  19   2.0000      -0.689702       -18.7677
  20   2.0000      -0.597792       -16.2667
  21   2.0000      -0.550797       -14.9880
  22   2.0000      -0.526330       -14.3222
  23   2.0000      -0.469383       -12.7726
  24   2.0000      -0.435589       -11.8530
  25   2.0000      -0.434139       -11.8135
  26   2.0000      -0.415353       -11.3023
  27   2.0000      -0.388636       -10.5753
  28   2.0000      -0.364419        -9.9163
  29   2.0000      -0.352049        -9.5798
  30   2.0000      -0.334483        -9.1017
  31   2.0000      -0.261640        -7.1196
  32   2.0000      -0.251957        -6.8561
  33   2.0000      -0.217994        -5.9319
  34   0.0000      -0.022311        -0.6071
  35   0.0000      -0.001817        -0.0494
  36   0.0000       0.041674         1.1340
  37   0.0000       0.059953         1.6314
  38   0.0000       0.064403         1.7525

MULLIKEN ATOMIC CHARGES
-----------------------
   0 C :    0.080814
   1 C :   -0.240785
   2 S :    0.010014
   3 S :    0.076262
   4 C :    0.020371
   5 O :   -0.171103
   6 C :   -0.003424
   7 H :   -0.007592
   8 H :    0.059105
   9 H :    0.188194
  10 H :   -0.011856
Sum of atomic charges:   -0.0000000

LOEWDIN ATOMIC CHARGES
----------------------
   0 C :   -0.051720
   1 C :   -0.371799
   2 S :    0.190665
   3 S :    0.357387
   4 C :   -0.098902
   5 O :   -0.045081
   6 C :   -0.117199
   7 H :    0.032598
   8 H :   -0.025032
   9 H :    0.096456
  10 H :    0.032626

  Mayer bond orders larger than 0.100000
B(  0-C ,  1-C ) :   1.5739 B(  0-C ,  6-C ) :   1.2367 B(  0-C ,  7-H ) :   0.9913
B(  1-C ,  2-S ) :   1.0609 B(  1-C ,  3-S ) :   1.0569 B(  2-S ,  8-H ) :   0.9392
B(  3-S ,  4-C ) :   1.1269 B(  4-C ,  5-O ) :   1.1868 B(  4-C ,  6-C ) :   1.5047
B(  5-O ,  9-H ) :   0.9545 B(  6-C , 10-H ) :   0.9974

Dispersion correction           -0.023185751
FINAL SINGLE POINT ENERGY     -1026.045786572468

DIPOLE MOMENT
-------------
                                X             Y             Z
Electronic contribution:      2.10069       2.73390      -0.78929
Nuclear contribution   :     -1.62340      -2.80995       1.22327
                        -----------------------------------------
Total Dipole Moment    :      0.47729      -0.07604       0.43398
                        -----------------------------------------
Magnitude (a.u.)       :      0.64956
Magnitude (Debye)      :      1.65104

Rotational constants in cm-1:     0.165881     0.038536     0.031474
Rotational constants in MHz :  4972.989896  1155.274158   943.565406

                             ****ORCA TERMINATED NORMALLY****
TOTAL RUN TIME: 0 days 0 hours 8 minutes 43 seconds 882 msec
