                         Program Version 4.2.0 -  RELEASE  -
|  1> # ORCA input file
|  2> # SCF done        -28.533018864531          0.000305777568
|  3> ! B3LYP/G D3BJ Opt RIJCOSX def2-SVP def2/J
|  4> * xyz 0 1
|  5>    C        1.74879        -0.49136        -0.82800
|  6>    S        1.18111         0.47329        -2.02518
|  7>    C        2.46905        -0.00978         0.27928
|  8>    C        2.94293        -0.80794         1.27450
|  9>    S        3.84570        -0.22281         2.66513
| 10>    C        3.95595        -1.85859         3.24211
| 11>    C        3.34241        -2.72130         2.40655
| 12>    O        2.77783        -2.13947         1.31132
| 13>    C        3.23285        -4.15401         2.55980
| 14>    C        2.60977        -4.94153         1.68907
| 15>    H        1.56440        -1.55960        -0.88330
| 16>    H        2.65883         1.05002         0.34671
| 17>    H        4.46400        -2.08168         4.15616
| 18>    H        3.70191        -4.54824         3.44910
| 19>    H        2.14393        -4.54181         0.80473
| 20>    H        2.54835        -6.00451         1.83806
| 21> *
| 22>
| 23>                          ****END OF INPUT****
 Total Charge           Charge          ....    0
 Multiplicity           Mult            ....    1
 Number of Electrons    NEL             ....   88
Dispersion correction           -0.032401543
FINAL SINGLE POINT ENERGY     -1141.452276278028
Dispersion correction            ... done
Dispersion correction           -0.032258207
FINAL SINGLE POINT ENERGY     -1141.454806855565
Dispersion correction            ... done
Dispersion correction           -0.032250096
FINAL SINGLE POINT ENERGY     -1141.455055744110
Dispersion correction            ... done
FINAL SINGLE POINT ENERGY     -1141.455105252773
FINAL SINGLE POINT ENERGY     -1141.455092561995
Dispersion correction            ... done
Dispersion correction           -0.032326169
FINAL SINGLE POINT ENERGY     -1141.455078604824
Dispersion correction            ... done
Dispersion correction           -0.032330027
FINAL SINGLE POINT ENERGY     -1141.455076552897
Dispersion correction            ... done
                    ***********************HURRAY********************

CARTESIAN COORDINATES (ANGSTROEM)
---------------------------------
  C      1.751106   -0.534424   -0.821967
  S      1.156199    0.319701   -2.095522
  C      2.462358    0.011533    0.288497
  C      2.950814   -0.758332    1.304727
  S      3.859790   -0.192188    2.708630
  C      3.986164   -1.848338    3.273068
  C      3.366371   -2.709816    2.436106
  O      2.788308   -2.104243    1.344488
  C      3.229232   -4.148249    2.534703
  C      2.578719   -4.906380    1.638565
  H      1.610446   -1.626084   -0.789421
  H      2.638752    1.088513    0.324787
  H      4.499559   -2.100300    4.197361
  H      3.698251   -4.597961    3.414017
  H      2.109567   -4.465145    0.756181
  H      2.502173   -5.987606    1.771820

 Multiplicity           Mult            ....    1
 Number of Electrons    NEL             ....   88
 Basis Dimension        Dim             ....  178

ORBITAL ENERGIES
----------------

  NO   OCC          E(Eh)            E(eV)
   0   2.0000     -88.906059     -2419.2569
   1   2.0000     -88.792423     -2416.1647
   2   2.0000     -19.231753      -523.3226
   3   2.0000     -10.308870      -280.5186
   4   2.0000     -10.290692      -280.0240
   5   2.0000     -10.248798      -278.8840
   6   2.0000     -10.228701      -278.3371
   7   2.0000     -10.228659      -278.3360
   8   2.0000     -10.217339      -278.0279
   9   2.0000     -10.200215      -277.5620
  10   2.0000      -8.001629      -217.7354
  11   2.0000      -7.888302      -214.6516
  12   2.0000      -5.970251      -162.4588
  13   2.0000      -5.966281      -162.3508
  14   2.0000      -5.961505      -162.2208
  15   2.0000      -5.856033      -159.3508
  16   2.0000      -5.855669      -159.3409
  17   2.0000      -5.846723      -159.0974
  18   2.0000      -1.137844       -30.9623
  19   2.0000      -0.858240       -23.3539
  20   2.0000      -0.850267       -23.1369
  21   2.0000      -0.801364       -21.8062
  22   2.0000      -0.757846       -20.6220
  23   2.0000      -0.703296       -19.1377
  24   2.0000      -0.657843       -17.9008
  25   2.0000      -0.622272       -16.9329
  26   2.0000      -0.590981       -16.0814
  27   2.0000      -0.557405       -15.1678
  28   2.0000      -0.522671       -14.2226
  29   2.0000      -0.497881       -13.5480
  30   2.0000      -0.486827       -13.2472
  31   2.0000      -0.472971       -12.8702
  32   2.0000      -0.461866       -12.5680
  33   2.0000      -0.423411       -11.5216
  34   2.0000      -0.410049       -11.1580
  35   2.0000      -0.394508       -10.7351
  36   2.0000      -0.380801       -10.3621
  37   2.0000      -0.363659        -9.8957
  38   2.0000      -0.352995        -9.6055
  39   2.0000      -0.349011        -9.4971
  40   2.0000      -0.316802        -8.6206
  41   2.0000      -0.269508        -7.3337
  42   2.0000      -0.209398        -5.6980
  43   2.0000      -0.196652        -5.3512
  44   0.0000      -0.075731        -2.0607
  45   0.0000      -0.064720        -1.7611
  46   0.0000      -0.008175        -0.2225
  47   0.0000       0.040959         1.1146
  48   0.0000       0.041401         1.1266

MULLIKEN ATOMIC CHARGES
-----------------------
   0 C :   -0.060630
   1 S :   -0.171913
   2 C :    0.000726
   3 C :    0.099661
   4 S :    0.118409
   5 C :   -0.113051
   6 C :    0.214046
   7 O :   -0.225860
   8 C :   -0.029625
   9 C :    0.001748
  10 H :    0.038560
  11 H :    0.001405
  12 H :    0.040609
  13 H :    0.002003
  14 H :    0.044410
  15 H :    0.039502
Sum of atomic charges:   -0.0000000

LOEWDIN ATOMIC CHARGES
----------------------
   0 C :   -0.145937
   1 S :   -0.008769
   2 C :   -0.138909
   3 C :   -0.052399
   4 S :    0.399834
   5 C :   -0.196002
   6 C :    0.031756
   7 O :   -0.025505
   8 C :   -0.044445
   9 C :   -0.015586
  10 H :    0.013260
  11 H :    0.036266
  12 H :    0.039784
  13 H :    0.039514
  14 H :    0.033043
  15 H :    0.034095

  Mayer bond orders larger than 0.100000
B(  0-C ,  1-S ) :   1.6946 B(  0-C ,  2-C ) :   1.2342 B(  0-C , 10-H ) :   0.9495
B(  1-S ,  3-C ) :   0.1207 B(  2-C ,  3-C ) :   1.5696 B(  2-C , 11-H ) :   0.9421
B(  3-C ,  4-S ) :   1.0630 B(  3-C ,  7-O ) :   1.1058 B(  4-S ,  5-C ) :   1.0436
B(  5-C ,  6-C ) :   1.6426 B(  5-C ,  9-C ) :   0.1103 B(  5-C , 12-H ) :   0.9576
B(  6-C ,  7-O ) :   1.0527 B(  6-C ,  8-C ) :   1.1338 B(  8-C ,  9-C ) :   1.8989
B(  8-C , 13-H ) :   0.9553 B(  9-C , 14-H ) :   0.9516 B(  9-C , 15-H ) :   0.9427

Dispersion correction           -0.032327001
FINAL SINGLE POINT ENERGY     -1141.455079597152

DIPOLE MOMENT
-------------
                                X             Y             Z
Electronic contribution:      0.44335       7.99954      -1.13851
Nuclear contribution   :      0.58578      -9.20461       3.20943
                        -----------------------------------------
Total Dipole Moment    :      1.02913      -1.20507       2.07093
                        -----------------------------------------
Magnitude (a.u.)       :      2.60769
Magnitude (Debye)      :      6.62821

Rotational constants in cm-1:     0.051652     0.018215     0.013467
Rotational constants in MHz :  1548.498702   546.069479   403.724011

                             ****ORCA TERMINATED NORMALLY****
TOTAL RUN TIME: 0 days 0 hours 6 minutes 20 seconds 825 msec
