                         Program Version 4.2.0 -  RELEASE  -
|  1> # ORCA input file
|  2> # SCF done        -21.873684127887          0.000558817020
|  3> ! B3LYP/G D3BJ Opt RIJCOSX def2-SVP def2/J
|  4> * xyz 0 1
|  5>    C       -0.19623         1.08709         0.08132
|  6>    O       -1.06310         0.05687         0.15656
|  7>    C       -0.35806        -1.06770        -0.00635
|  8>    C        0.96412        -0.79596        -0.18671
|  9>    C        1.07283         0.62151        -0.12896
| 10>    O        2.17060         1.41138        -0.24763
| 11>    C        3.38628         0.74212        -0.48948
| 12>    H       -0.57911         2.08002         0.18963
| 13>    H       -0.89216        -1.99671         0.02386
| 14>    H        1.74728        -1.50941        -0.33897
| 15>    H        4.14608         1.51846        -0.56120
| 16>    H        3.35241         0.17900        -1.42813
| 17>    H        3.63879         0.06186         0.33068
| 18> *
| 19>
| 20>                          ****END OF INPUT****
 Total Charge           Charge          ....    0
 Multiplicity           Mult            ....    1
 Number of Electrons    NEL             ....   52
Dispersion correction           -0.017399975
FINAL SINGLE POINT ENERGY      -344.302437483007
Dispersion correction            ... done
Dispersion correction           -0.017429619
FINAL SINGLE POINT ENERGY      -344.303888116980
Dispersion correction            ... done
Dispersion correction           -0.017437745
FINAL SINGLE POINT ENERGY      -344.303961039579
Dispersion correction            ... done
FINAL SINGLE POINT ENERGY      -344.303985629371
Dispersion correction            ... done
Dispersion correction           -0.017441502
FINAL SINGLE POINT ENERGY      -344.303987621972
Dispersion correction            ... done
Dispersion correction           -0.017440989
FINAL SINGLE POINT ENERGY      -344.303987670292
Dispersion correction            ... done
                    ***********************HURRAY********************

CARTESIAN COORDINATES (ANGSTROEM)
---------------------------------
  C     -0.200523    1.104505    0.077982
  O     -1.067767    0.055089    0.158409
  C     -0.359706   -1.081816    0.000250
  C      0.967455   -0.804956   -0.180894
  C      1.070721    0.630187   -0.129989
  O      2.168915    1.408588   -0.251100
  C      3.391853    0.749664   -0.492299
  H     -0.610465    2.102681    0.188695
  H     -0.922519   -2.010829    0.035973
  H      1.761430   -1.528513   -0.340669
  H      4.167259    1.525592   -0.542692
  H      3.378176    0.194392   -1.448701
  H      3.644901    0.043946    0.319655

 Multiplicity           Mult            ....    1
 Number of Electrons    NEL             ....   52
 Basis Dimension        Dim             ....  128

ORBITAL ENERGIES
----------------

  NO   OCC          E(Eh)            E(eV)
   0   2.0000     -19.197746      -522.3972
   1   2.0000     -19.162852      -521.4477
   2   2.0000     -10.247030      -278.8359
   3   2.0000     -10.240472      -278.6574
   4   2.0000     -10.237650      -278.5806
   5   2.0000     -10.222565      -278.1701
   6   2.0000     -10.187668      -277.2205
   7   2.0000      -1.101461       -29.9723
   8   2.0000      -1.057255       -28.7694
   9   2.0000      -0.790470       -21.5098
  10   2.0000      -0.745406       -20.2835
  11   2.0000      -0.697612       -18.9830
  12   2.0000      -0.587840       -15.9959
  13   2.0000      -0.571196       -15.5430
  14   2.0000      -0.549415       -14.9503
  15   2.0000      -0.475154       -12.9296
  16   2.0000      -0.474893       -12.9225
  17   2.0000      -0.459687       -12.5087
  18   2.0000      -0.446439       -12.1482
  19   2.0000      -0.436491       -11.8775
  20   2.0000      -0.412103       -11.2139
  21   2.0000      -0.370438       -10.0801
  22   2.0000      -0.346439        -9.4271
  23   2.0000      -0.334349        -9.0981
  24   2.0000      -0.260610        -7.0916
  25   2.0000      -0.211971        -5.7680
  26   0.0000       0.009746         0.2652
  27   0.0000       0.062581         1.7029
  28   0.0000       0.082523         2.2456
  29   0.0000       0.085278         2.3205
  30   0.0000       0.109773         2.9871

MULLIKEN ATOMIC CHARGES
-----------------------
   0 C :    0.046861
   1 O :   -0.208848
   2 C :    0.142511
   3 C :   -0.113420
   4 C :    0.202990
   5 O :   -0.314452
   6 C :    0.186708
   7 H :   -0.003455
   8 H :    0.009134
   9 H :   -0.012192
  10 H :    0.033791
  11 H :    0.014031
  12 H :    0.016341
Sum of atomic charges:   -0.0000000

LOEWDIN ATOMIC CHARGES
----------------------
   0 C :   -0.015013
   1 O :    0.005728
   2 C :    0.032432
   3 C :   -0.116480
   4 C :   -0.002361
   5 O :   -0.106879
   6 C :    0.081346
   7 H :    0.021437
   8 H :    0.021497
   9 H :    0.028855
  10 H :    0.026551
  11 H :    0.011495
  12 H :    0.011394

  Mayer bond orders larger than 0.100000
B(  0-C ,  1-O ) :   1.1046 B(  0-C ,  2-C ) :   0.1133 B(  0-C ,  4-C ) :   1.5104
B(  0-C ,  7-H ) :   1.0117 B(  1-O ,  2-C ) :   1.1676 B(  2-C ,  3-C ) :   1.5051
B(  2-C ,  8-H ) :   0.9977 B(  3-C ,  4-C ) :   1.1928 B(  3-C ,  9-H ) :   1.0075
B(  4-C ,  5-O ) :   1.1192 B(  5-O ,  6-C ) :   0.9719 B(  6-C , 10-H ) :   0.9795
B(  6-C , 11-H ) :   0.9656 B(  6-C , 12-H ) :   0.9651

Dispersion correction           -0.017441109
FINAL SINGLE POINT ENERGY      -344.303988140211

DIPOLE MOMENT
-------------
                                X             Y             Z
Electronic contribution:     -5.06985       1.01213       0.86079
Nuclear contribution   :      5.67512      -1.45512      -0.98684
                        -----------------------------------------
Total Dipole Moment    :      0.60528      -0.44299      -0.12605
                        -----------------------------------------
Magnitude (a.u.)       :      0.76059
Magnitude (Debye)      :      1.93326

Rotational constants in cm-1:     0.255991     0.066753     0.053494
Rotational constants in MHz :  7674.428328  2001.191007  1603.698880

                             ****ORCA TERMINATED NORMALLY****
TOTAL RUN TIME: 0 days 0 hours 2 minutes 37 seconds 355 msec
