                         Program Version 4.2.0 -  RELEASE  -
|  1> # ORCA input file
|  2> # SCF done        -41.354524011761          0.000934521786
|  3> ! B3LYP/G D3BJ Opt RIJCOSX def2-SVP def2/J
|  4> * xyz 0 1
|  5>    C       -1.54717         1.23071         0.08880
|  6>    S       -2.70835        -0.01876         0.11922
|  7>    C       -1.49708        -1.25827         0.10507
|  8>    C       -0.22631        -0.68962         0.07670
|  9>    C       -0.25897         0.74393         0.06751
| 10>    C        0.94678         1.48667         0.03975
| 11>    C        2.15252         0.84811         0.02255
| 12>    C        3.48277         1.58307        -0.00914
| 13>    C        3.31231         3.10457        -0.02380
| 14>    C        4.29503         1.20575         1.23808
| 15>    C        4.24992         1.17684        -1.27571
| 16>    C        2.16908        -0.57619         0.03425
| 17>    C        1.03459        -1.32591         0.05936
| 18>    C       -1.83614        -2.64901         0.12514
| 19>    C       -3.07416        -3.13936         0.16013
| 20>    H       -1.86918         2.25319         0.08793
| 21>    H        0.86519         2.56119         0.03333
| 22>    H        2.79928         3.44903         0.87112
| 23>    H        2.75562         3.42712        -0.90058
| 24>    H        4.29114         3.57905        -0.05390
| 25>    H        3.74246         1.46575         2.13880
| 26>    H        5.24051         1.74426         1.24547
| 27>    H        4.51115         0.14135         1.26698
| 28>    H        3.66597         1.41810        -2.16173
| 29>    H        4.46361         0.11164        -1.28893
| 30>    H        5.19524         1.71306        -1.32849
| 31>    H        3.12078        -1.08528         0.02335
| 32>    H        1.09252        -2.40420         0.06670
| 33>    H       -0.98984        -3.32379         0.11336
| 34>    H       -3.93544        -2.49181         0.17413
| 35>    H       -3.26312        -4.19790         0.17637
| 36> *
| 37>
| 38>                          ****END OF INPUT****
 Total Charge           Charge          ....    0
 Multiplicity           Mult            ....    1
 Number of Electrons    NEL             ....  116
Dispersion correction           -0.068248102
FINAL SINGLE POINT ENERGY      -940.861934596380
Dispersion correction            ... done
Dispersion correction           -0.067648595
FINAL SINGLE POINT ENERGY      -940.866275989666
Dispersion correction            ... done
Dispersion correction           -0.067551193
FINAL SINGLE POINT ENERGY      -940.866419196328
Dispersion correction            ... done
FINAL SINGLE POINT ENERGY      -940.866443974352
Dispersion correction            ... done
Dispersion correction           -0.067523067
FINAL SINGLE POINT ENERGY      -940.866444553222
Dispersion correction            ... done
Dispersion correction           -0.067535288
FINAL SINGLE POINT ENERGY      -940.866453918866
Dispersion correction            ... done
                    ***********************HURRAY********************

CARTESIAN COORDINATES (ANGSTROEM)
---------------------------------
  C     -1.564753    1.256231    0.159921
  S     -2.730278   -0.000546    0.197184
  C     -1.534349   -1.257752    0.138614
  C     -0.248301   -0.693314    0.099518
  C     -0.269498    0.754797    0.107624
  C      0.956517    1.489688    0.062852
  C      2.167782    0.841141    0.020317
  C      3.506559    1.589163   -0.018788
  C      3.312698    3.111570   -0.070614
  C      4.313819    1.249604    1.252991
  C      4.301221    1.169316   -1.274197
  C      2.170955   -0.601912    0.021246
  C      1.019919   -1.346227    0.054808
  C     -1.888811   -2.661963    0.122170
  C     -3.126466   -3.189394    0.112928
  H     -1.876939    2.298767    0.179674
  H      0.897458    2.577869    0.063994
  H      2.778925    3.486849    0.815761
  H      2.749849    3.420098   -0.965200
  H      4.292458    3.611652   -0.104851
  H      3.757025    1.549465    2.154837
  H      5.276874    1.783927    1.252592
  H      4.528873    0.173409    1.332287
  H      3.732304    1.402008   -2.188239
  H      4.530857    0.093350   -1.283883
  H      5.258009    1.712698   -1.319101
  H      3.128557   -1.125619   -0.007906
  H      1.074296   -2.437590    0.049914
  H     -1.030732   -3.342561    0.110937
  H     -4.022282   -2.561479    0.115833
  H     -3.281834   -4.269957    0.098596

 Multiplicity           Mult            ....    1
 Number of Electrons    NEL             ....  116
 Basis Dimension        Dim             ....  294

ORBITAL ENERGIES
----------------

  NO   OCC          E(Eh)            E(eV)
   0   2.0000     -88.880473     -2418.5606
   1   2.0000     -10.216165      -277.9960
   2   2.0000     -10.212302      -277.8909
   3   2.0000     -10.203725      -277.6575
   4   2.0000     -10.202949      -277.6364
   5   2.0000     -10.197673      -277.4928
   6   2.0000     -10.197189      -277.4796
   7   2.0000     -10.194417      -277.4042
   8   2.0000     -10.193921      -277.3907
   9   2.0000     -10.190347      -277.2934
  10   2.0000     -10.188274      -277.2370
  11   2.0000     -10.187056      -277.2039
  12   2.0000     -10.179958      -277.0108
  13   2.0000     -10.179846      -277.0077
  14   2.0000     -10.179267      -276.9919
  15   2.0000      -7.975093      -217.0133
  16   2.0000      -5.942809      -161.7120
  17   2.0000      -5.938832      -161.6038
  18   2.0000      -5.937275      -161.5615
  19   2.0000      -0.890825       -24.2406
  20   2.0000      -0.841625       -22.9018
  21   2.0000      -0.800603       -21.7855
  22   2.0000      -0.785024       -21.3616
  23   2.0000      -0.744021       -20.2458
  24   2.0000      -0.725717       -19.7478
  25   2.0000      -0.689731       -18.7685
  26   2.0000      -0.679219       -18.4825
  27   2.0000      -0.678180       -18.4542
  28   2.0000      -0.615180       -16.7399
  29   2.0000      -0.607239       -16.5238
  30   2.0000      -0.586543       -15.9607
  31   2.0000      -0.541518       -14.7355
  32   2.0000      -0.531003       -14.4493
  33   2.0000      -0.504861       -13.7380
  34   2.0000      -0.479595       -13.0505
  35   2.0000      -0.472991       -12.8707
  36   2.0000      -0.450008       -12.2453
  37   2.0000      -0.442169       -12.0320
  38   2.0000      -0.433528       -11.7969
  39   2.0000      -0.428024       -11.6471
  40   2.0000      -0.422651       -11.5009
  41   2.0000      -0.416159       -11.3243
  42   2.0000      -0.407648       -11.0927
  43   2.0000      -0.392572       -10.6824
  44   2.0000      -0.387717       -10.5503
  45   2.0000      -0.376056       -10.2330
  46   2.0000      -0.370850       -10.0914
  47   2.0000      -0.366643        -9.9769
  48   2.0000      -0.355544        -9.6748
  49   2.0000      -0.344402        -9.3717
  50   2.0000      -0.342526        -9.3206
  51   2.0000      -0.327546        -8.9130
  52   2.0000      -0.325769        -8.8646
  53   2.0000      -0.321212        -8.7406
  54   2.0000      -0.309108        -8.4113
  55   2.0000      -0.264200        -7.1893
  56   2.0000      -0.245267        -6.6740
  57   2.0000      -0.194029        -5.2798
  58   0.0000      -0.067776        -1.8443
  59   0.0000      -0.005684        -0.1547
  60   0.0000       0.018977         0.5164
  61   0.0000       0.041811         1.1377
  62   0.0000       0.050031         1.3614

MULLIKEN ATOMIC CHARGES
-----------------------
   0 C :   -0.132242
   1 S :    0.133271
   2 C :   -0.150042
   3 C :    0.134008
   4 C :    0.106678
   5 C :   -0.081170
   6 C :    0.103147
   7 C :   -0.268632
   8 C :    0.096299
   9 C :    0.090647
  10 C :    0.086448
  11 C :   -0.017605
  12 C :   -0.040776
  13 C :    0.008579
  14 C :   -0.044887
  15 H :    0.014603
  16 H :   -0.042638
  17 H :    0.008767
  18 H :    0.008214
  19 H :   -0.001091
  20 H :    0.007623
  21 H :   -0.001691
  22 H :    0.001090
  23 H :    0.009156
  24 H :    0.000996
  25 H :   -0.001781
  26 H :   -0.029255
  27 H :   -0.028582
  28 H :   -0.008881
  29 H :    0.015758
  30 H :    0.023987
Sum of atomic charges:   -0.0000000

LOEWDIN ATOMIC CHARGES
----------------------
   0 C :   -0.202116
   1 S :    0.473598
   2 C :   -0.193014
   3 C :   -0.044589
   4 C :   -0.048773
   5 C :   -0.030267
   6 C :   -0.011261
   7 C :   -0.047010
   8 C :   -0.039540
   9 C :   -0.033299
  10 C :   -0.033841
  11 C :   -0.023752
  12 C :   -0.021912
  13 C :   -0.039599
  14 C :   -0.064023
  15 H :    0.024026
  16 H :    0.024899
  17 H :    0.020389
  18 H :    0.021036
  19 H :    0.021766
  20 H :    0.023319
  21 H :    0.019309
  22 H :    0.018619
  23 H :    0.023608
  24 H :    0.018090
  25 H :    0.019586
  26 H :    0.022250
  27 H :    0.026020
  28 H :    0.033096
  29 H :    0.017050
  30 H :    0.026336

  Mayer bond orders larger than 0.100000
B(  0-C ,  1-S ) :   1.1867 B(  0-C ,  2-C ) :   0.1090 B(  0-C ,  4-C ) :   1.4040
B(  0-C , 15-H ) :   0.9627 B(  1-S ,  2-C ) :   1.1477 B(  2-C ,  3-C ) :   1.3356
B(  2-C , 13-C ) :   1.1620 B(  3-C ,  4-C ) :   1.2022 B(  3-C , 12-C ) :   1.1869
B(  4-C ,  5-C ) :   1.1269 B(  5-C ,  6-C ) :   1.5798 B(  5-C , 16-H ) :   0.9888
B(  6-C ,  7-C ) :   0.9293 B(  6-C , 11-C ) :   1.1792 B(  7-C ,  8-C ) :   1.0889
B(  7-C ,  9-C ) :   1.0373 B(  7-C , 10-C ) :   1.0395 B(  8-C , 17-H ) :   0.9478
B(  8-C , 18-H ) :   0.9500 B(  8-C , 19-H ) :   0.9562 B(  9-C , 20-H ) :   0.9634
B(  9-C , 21-H ) :   0.9606 B(  9-C , 22-H ) :   0.9604 B( 10-C , 23-H ) :   0.9648
B( 10-C , 24-H ) :   0.9591 B( 10-C , 25-H ) :   0.9604 B( 11-C , 12-C ) :   1.5589
B( 11-C , 26-H ) :   0.9816 B( 12-C , 27-H ) :   0.9838 B( 13-C , 14-C ) :   1.8877
B( 13-C , 28-H ) :   0.9484 B( 14-C , 29-H ) :   0.9540 B( 14-C , 30-H ) :   0.9460

Dispersion correction           -0.067540558
FINAL SINGLE POINT ENERGY      -940.866447933820

DIPOLE MOMENT
-------------
                                X             Y             Z
Electronic contribution:    -22.51825      -5.65810       0.82389
Nuclear contribution   :     22.83890       5.84888      -0.83502
                        -----------------------------------------
Total Dipole Moment    :      0.32065       0.19078      -0.01113
                        -----------------------------------------
Magnitude (a.u.)       :      0.37328
Magnitude (Debye)      :      0.94880

Rotational constants in cm-1:     0.045231     0.009277     0.008116
Rotational constants in MHz :  1355.990825   278.130408   243.317294

                             ****ORCA TERMINATED NORMALLY****
TOTAL RUN TIME: 0 days 0 hours 17 minutes 48 seconds 271 msec
