                         Program Version 4.2.0 -  RELEASE  -
|  1> # ORCA input file
|  2> # SCF done        -34.716398611836          0.000745235778
|  3> ! B3LYP/G D3BJ Opt RIJCOSX def2-SVP def2/J
|  4> * xyz 0 1
|  5>    C        0.21218         1.21557        -0.15446
|  6>    S       -0.99782         0.02058         0.00736
|  7>    C        0.17404        -1.21493         0.16535
|  8>    C        1.44629        -0.72705         0.09373
|  9>    C        1.46893         0.68556        -0.09003
| 10>    N        2.65084         1.51116        -0.07148
| 11>    O        2.59207         2.55254        -0.68004
| 12>    O        3.57604         1.11859         0.59461
| 13>    N        2.60056        -1.59459         0.06969
| 14>    O        2.54562        -2.58522         0.75716
| 15>    O        3.49251        -1.28448        -0.67950
| 16>    H       -0.03598         2.25289        -0.26821
| 17>    H       -0.11021        -2.24254         0.28205
| 18> *
| 19>
| 20>                          ****END OF INPUT****
 Total Charge           Charge          ....    0
 Multiplicity           Mult            ....    1
 Number of Electrons    NEL             ....   88
Dispersion correction           -0.027734417
FINAL SINGLE POINT ENERGY      -961.481412464840
Dispersion correction            ... done
Dispersion correction           -0.027590806
FINAL SINGLE POINT ENERGY      -961.483455192460
Dispersion correction            ... done
Dispersion correction           -0.027535047
FINAL SINGLE POINT ENERGY      -961.481635206701
Dispersion correction            ... done
FINAL SINGLE POINT ENERGY      -961.483493741402
FINAL SINGLE POINT ENERGY      -961.483321855577
FINAL SINGLE POINT ENERGY      -961.483519786196
FINAL SINGLE POINT ENERGY      -961.483268951195
FINAL SINGLE POINT ENERGY      -961.483595370349
FINAL SINGLE POINT ENERGY      -961.483585396918
Dispersion correction            ... done
Dispersion correction           -0.027565303
FINAL SINGLE POINT ENERGY      -961.483560824160
Dispersion correction            ... done
Dispersion correction           -0.027560723
FINAL SINGLE POINT ENERGY      -961.483544835213
Dispersion correction            ... done
                    ***********************HURRAY********************

CARTESIAN COORDINATES (ANGSTROEM)
---------------------------------
  C      0.214626    1.230624   -0.148348
  S     -1.000240    0.021152    0.014210
  C      0.174169   -1.230087    0.166688
  C      1.448302   -0.731572    0.097983
  C      1.471881    0.689024   -0.088660
  N      2.651225    1.554384   -0.083621
  O      2.549614    2.609344   -0.688206
  O      3.613627    1.179699    0.556859
  N      2.596630   -1.637630    0.077476
  O      2.481984   -2.671451    0.715058
  O      3.544127   -1.314490   -0.611043
  H     -0.027667    2.284436   -0.267257
  H     -0.103208   -2.275352    0.285094

 Multiplicity           Mult            ....    1
 Number of Electrons    NEL             ....   88
 Basis Dimension        Dim             ....  168

ORBITAL ENERGIES
----------------

  NO   OCC          E(Eh)            E(eV)
   0   2.0000     -88.939059     -2420.1548
   1   2.0000     -19.183528      -522.0103
   2   2.0000     -19.183358      -522.0057
   3   2.0000     -19.181027      -521.9423
   4   2.0000     -19.180723      -521.9340
   5   2.0000     -14.584018      -396.8513
   6   2.0000     -14.583967      -396.8499
   7   2.0000     -10.289045      -279.9791
   8   2.0000     -10.288759      -279.9714
   9   2.0000     -10.275318      -279.6056
  10   2.0000     -10.275210      -279.6027
  11   2.0000      -8.033951      -218.6149
  12   2.0000      -6.001905      -163.3201
  13   2.0000      -5.997787      -163.2081
  14   2.0000      -5.995544      -163.1470
  15   2.0000      -1.247150       -33.9367
  16   2.0000      -1.243301       -33.8319
  17   2.0000      -1.074104       -29.2279
  18   2.0000      -1.070607       -29.1327
  19   2.0000      -0.954379       -25.9700
  20   2.0000      -0.840316       -22.8662
  21   2.0000      -0.826991       -22.5036
  22   2.0000      -0.723191       -19.6790
  23   2.0000      -0.702616       -19.1192
  24   2.0000      -0.632500       -17.2112
  25   2.0000      -0.581144       -15.8137
  26   2.0000      -0.579648       -15.7730
  27   2.0000      -0.559254       -15.2181
  28   2.0000      -0.556601       -15.1459
  29   2.0000      -0.538141       -14.6436
  30   2.0000      -0.530231       -14.4283
  31   2.0000      -0.517315       -14.0769
  32   2.0000      -0.485174       -13.2023
  33   2.0000      -0.465236       -12.6597
  34   2.0000      -0.442559       -12.0426
  35   2.0000      -0.421007       -11.4562
  36   2.0000      -0.340205        -9.2575
  37   2.0000      -0.334193        -9.0939
  38   2.0000      -0.330104        -8.9826
  39   2.0000      -0.328484        -8.9385
  40   2.0000      -0.323379        -8.7996
  41   2.0000      -0.321438        -8.7468
  42   2.0000      -0.300478        -8.1764
  43   2.0000      -0.298842        -8.1319
  44   0.0000      -0.108428        -2.9505
  45   0.0000      -0.099992        -2.7209
  46   0.0000      -0.051724        -1.4075
  47   0.0000      -0.004506        -0.1226
  48   0.0000       0.020650         0.5619

MULLIKEN ATOMIC CHARGES
-----------------------
   0 C :   -0.103689
   1 S :    0.183605
   2 C :   -0.102208
   3 C :    0.152748
   4 C :    0.156102
   5 N :    0.248483
   6 O :   -0.237775
   7 O :   -0.213070
   8 N :    0.249029
   9 O :   -0.237083
  10 O :   -0.212509
  11 H :    0.058615
  12 H :    0.057752
Sum of atomic charges:   -0.0000000

LOEWDIN ATOMIC CHARGES
----------------------
   0 C :   -0.149836
   1 S :    0.509952
   2 C :   -0.150343
   3 C :   -0.052942
   4 C :   -0.053709
   5 N :    0.276649
   6 O :   -0.198486
   7 O :   -0.177368
   8 N :    0.276627
   9 O :   -0.197766
  10 O :   -0.176624
  11 H :    0.047036
  12 H :    0.046811

  Mayer bond orders larger than 0.100000
B(  0-C ,  1-S ) :   1.1903 B(  0-C ,  4-C ) :   1.5409 B(  0-C , 11-H ) :   0.9530
B(  1-S ,  2-C ) :   1.1886 B(  2-C ,  3-C ) :   1.5432 B(  2-C , 12-H ) :   0.9541
B(  3-C ,  4-C ) :   1.2422 B(  3-C ,  8-N ) :   0.8772 B(  4-C ,  5-N ) :   0.8789
B(  5-N ,  6-O ) :   1.5175 B(  5-N ,  7-O ) :   1.5467 B(  6-O ,  7-O ) :   0.2963
B(  8-N ,  9-O ) :   1.5172 B(  8-N , 10-O ) :   1.5467 B(  9-O , 10-O ) :   0.2970

Dispersion correction           -0.027558490
FINAL SINGLE POINT ENERGY      -961.483542331389

DIPOLE MOMENT
-------------
                                X             Y             Z
Electronic contribution:      0.55782      -0.01297      -0.00050
Nuclear contribution   :     -2.92481       0.05006       0.01277
                        -----------------------------------------
Total Dipole Moment    :     -2.36699       0.03709       0.01227
                        -----------------------------------------
Magnitude (a.u.)       :      2.36731
Magnitude (Debye)      :      6.01723

Rotational constants in cm-1:     0.039104     0.035568     0.019579
Rotational constants in MHz :  1172.319866  1066.306388   586.954446

                             ****ORCA TERMINATED NORMALLY****
TOTAL RUN TIME: 0 days 0 hours 8 minutes 35 seconds 51 msec
