                         Program Version 4.2.0 -  RELEASE  -
|  1> # ORCA input file
|  2> # SCF done        -29.621310714348          0.000965402176
|  3> ! B3LYP/G D3BJ Opt RIJCOSX def2-SVP def2/J
|  4> * xyz 0 1
|  5>    C        2.07833         0.69265        -0.12598
|  6>    O        0.89986         1.37280        -0.10425
|  7>    C       -0.25644         0.65469        -0.05447
|  8>    C       -1.48086         1.25119        -0.04106
|  9>    F       -1.71983         2.56178        -0.07300
| 10>    S       -2.79700         0.12742         0.02443
| 11>    C        2.27101        -0.61911        -0.09532
| 12>    S        1.00588        -1.84637        -0.01439
| 13>    C       -0.38429        -0.76589        -0.01051
| 14>    C       -1.67379        -1.18233         0.03321
| 15>    H        2.90476         1.38608        -0.17610
| 16>    H        3.25832        -1.04099        -0.11902
| 17>    H       -2.03006        -2.19096         0.07117
| 18> *
| 19>
| 20>                          ****END OF INPUT****
 Total Charge           Charge          ....    0
 Multiplicity           Mult            ....    1
 Number of Electrons    NEL             ....   88
Dispersion correction           -0.031438218
FINAL SINGLE POINT ENERGY     -1201.329198220372
Dispersion correction            ... done
Dispersion correction           -0.031389342
FINAL SINGLE POINT ENERGY     -1201.330611643542
Dispersion correction            ... done
Dispersion correction           -0.031380695
FINAL SINGLE POINT ENERGY     -1201.330727002746
Dispersion correction            ... done
FINAL SINGLE POINT ENERGY     -1201.330744733205
Dispersion correction            ... done
Dispersion correction           -0.031384525
FINAL SINGLE POINT ENERGY     -1201.330757175472
Dispersion correction            ... done
Dispersion correction           -0.031385961
FINAL SINGLE POINT ENERGY     -1201.330760124102
Dispersion correction            ... done
                    ***********************HURRAY********************

CARTESIAN COORDINATES (ANGSTROEM)
---------------------------------
  C      2.092459    0.700251   -0.132049
  O      0.900543    1.369376   -0.122883
  C     -0.261266    0.656064   -0.061378
  C     -1.485555    1.265393   -0.034676
  F     -1.719509    2.569726   -0.054807
  S     -2.813982    0.138289    0.029259
  C      2.275090   -0.624283   -0.086254
  S      1.012248   -1.859612   -0.006785
  C     -0.387503   -0.778246   -0.018578
  C     -1.690711   -1.193199    0.026980
  H      2.927518    1.398622   -0.187269
  H      3.288692   -1.026280   -0.103512
  H     -2.062134   -2.215141    0.066662

 Multiplicity           Mult            ....    1
 Number of Electrons    NEL             ....   88
 Basis Dimension        Dim             ....  163

ORBITAL ENERGIES
----------------

  NO   OCC          E(Eh)            E(eV)
   0   2.0000     -88.891206     -2418.8527
   1   2.0000     -88.872390     -2418.3407
   2   2.0000     -24.723044      -672.7482
   3   2.0000     -19.198480      -522.4172
   4   2.0000     -10.298226      -280.2290
   5   2.0000     -10.269279      -279.4413
   6   2.0000     -10.262171      -279.2479
   7   2.0000     -10.238811      -278.6122
   8   2.0000     -10.227734      -278.3108
   9   2.0000     -10.222035      -278.1557
  10   2.0000      -7.986530      -217.3245
  11   2.0000      -7.967047      -216.7944
  12   2.0000      -5.954862      -162.0400
  13   2.0000      -5.951164      -161.9394
  14   2.0000      -5.946910      -161.8236
  15   2.0000      -5.936289      -161.5346
  16   2.0000      -5.932452      -161.4302
  17   2.0000      -5.925759      -161.2481
  18   2.0000      -1.234372       -33.5890
  19   2.0000      -1.095554       -29.8115
  20   2.0000      -0.900194       -24.4955
  21   2.0000      -0.831632       -22.6299
  22   2.0000      -0.779273       -21.2051
  23   2.0000      -0.735091       -20.0028
  24   2.0000      -0.694893       -18.9090
  25   2.0000      -0.641056       -17.4440
  26   2.0000      -0.610141       -16.6028
  27   2.0000      -0.568889       -15.4803
  28   2.0000      -0.525257       -14.2930
  29   2.0000      -0.517118       -14.0715
  30   2.0000      -0.497264       -13.5313
  31   2.0000      -0.485718       -13.2171
  32   2.0000      -0.468808       -12.7569
  33   2.0000      -0.453690       -12.3455
  34   2.0000      -0.432601       -11.7717
  35   2.0000      -0.399113       -10.8604
  36   2.0000      -0.384707       -10.4684
  37   2.0000      -0.382868       -10.4184
  38   2.0000      -0.369381       -10.0514
  39   2.0000      -0.343677        -9.3519
  40   2.0000      -0.337135        -9.1739
  41   2.0000      -0.286825        -7.8049
  42   2.0000      -0.236087        -6.4243
  43   2.0000      -0.200141        -5.4461
  44   0.0000      -0.024808        -0.6751
  45   0.0000      -0.005856        -0.1594
  46   0.0000       0.012143         0.3304
  47   0.0000       0.026290         0.7154
  48   0.0000       0.054711         1.4888

MULLIKEN ATOMIC CHARGES
-----------------------
   0 C :    0.168552
   1 O :   -0.253974
   2 C :    0.203775
   3 C :    0.045884
   4 F :   -0.155401
   5 S :    0.086939
   6 C :   -0.110998
   7 S :    0.087376
   8 C :   -0.027298
   9 C :   -0.142909
  10 H :    0.024144
  11 H :    0.043305
  12 H :    0.030604
Sum of atomic charges:   -0.0000000

LOEWDIN ATOMIC CHARGES
----------------------
   0 C :    0.030896
   1 O :   -0.053726
   2 C :   -0.036018
   3 C :   -0.106638
   4 F :   -0.042797
   5 S :    0.411818
   6 C :   -0.227785
   7 S :    0.342030
   8 C :   -0.204469
   9 C :   -0.214002
  10 H :    0.034148
  11 H :    0.037650
  12 H :    0.028892

  Mayer bond orders larger than 0.100000
B(  0-C ,  1-O ) :   1.0569 B(  0-C ,  6-C ) :   1.8125 B(  0-C , 10-H ) :   0.9738
B(  1-O ,  2-C ) :   1.0657 B(  2-C ,  3-C ) :   1.4771 B(  2-C ,  8-C ) :   1.2050
B(  3-C ,  4-F ) :   1.1366 B(  3-C ,  5-S ) :   1.1302 B(  5-S ,  9-C ) :   1.1190
B(  6-C ,  7-S ) :   1.0147 B(  6-C , 11-H ) :   0.9389 B(  7-S ,  8-C ) :   0.9856
B(  8-C ,  9-C ) :   1.5816 B(  9-C , 12-H ) :   0.9668

Dispersion correction           -0.031386858
FINAL SINGLE POINT ENERGY     -1201.330760205794

DIPOLE MOMENT
-------------
                                X             Y             Z
Electronic contribution:     -5.95836       3.75277       0.09730
Nuclear contribution   :      6.24766      -4.18796      -0.09642
                        -----------------------------------------
Total Dipole Moment    :      0.28930      -0.43519       0.00088
                        -----------------------------------------
Magnitude (a.u.)       :      0.52257
Magnitude (Debye)      :      1.32828

Rotational constants in cm-1:     0.061228     0.028486     0.019442
Rotational constants in MHz :  1835.573500   853.998071   582.857141

                             ****ORCA TERMINATED NORMALLY****
TOTAL RUN TIME: 0 days 0 hours 3 minutes 56 seconds 582 msec
