                         Program Version 4.2.0 -  RELEASE  -
|  1> # ORCA input file
|  2> # SCF done        -48.788463330232          0.000686018758
|  3> ! B3LYP/G D3BJ Opt RIJCOSX def2-SVP def2/J
|  4> * xyz 0 1
|  5>    C        3.10738         0.60898        -0.24719
|  6>    C        2.36610        -0.36909        -0.85968
|  7>    C        1.00573        -0.29900        -0.43977
|  8>    C        0.79519         0.71653         0.45491
|  9>    S        2.20648         1.61858         0.81424
| 10>    C       -0.63965         0.85609         0.77050
| 11>    C       -1.12759        -0.56424         0.46422
| 12>    C       -0.29665        -1.02583        -0.76386
| 13>    C       -0.90687        -0.48113        -2.06873
| 14>    C       -0.08960        -0.75808        -3.32536
| 15>    C       -0.11097        -2.55052        -0.78277
| 16>    C       -1.40386        -3.35756        -0.73827
| 17>    C       -2.63926        -0.44931         0.56861
| 18>    C       -2.86661         0.20544         1.93938
| 19>    S       -1.36611         1.18425         2.40863
| 20>    C        2.94112        -1.32783        -1.79116
| 21>    C        4.01579        -1.10180        -2.53577
| 22>    H        4.16224         0.77414        -0.33819
| 23>    H       -1.09323         1.60350         0.10652
| 24>    H       -0.79119        -1.18952         1.30162
| 25>    H       -1.01806         0.60067        -1.96526
| 26>    H       -1.90581        -0.90453        -2.19076
| 27>    H        0.93139        -0.40400        -3.21004
| 28>    H       -0.53702        -0.24105        -4.17121
| 29>    H       -0.06560        -1.81899        -3.55931
| 30>    H        0.50920        -2.83124         0.07272
| 31>    H        0.43080        -2.82622        -1.68660
| 32>    H       -1.90837        -3.24050         0.21640
| 33>    H       -1.17875        -4.41398        -0.86915
| 34>    H       -2.08269        -3.05712        -1.53193
| 35>    H       -3.15271        -1.40817         0.52773
| 36>    H       -3.03078         0.18818        -0.22554
| 37>    H       -2.99701        -0.53988         2.72276
| 38>    H       -3.72169         0.87881         1.94612
| 39>    H        2.43485        -2.27922        -1.86130
| 40>    H        4.53638        -0.15971        -2.51794
| 41>    H        4.40514        -1.85060        -3.20340
| 42> *
| 43>
| 44>                          ****END OF INPUT****
 Total Charge           Charge          ....    0
 Multiplicity           Mult            ....    1
 Number of Electrons    NEL             ....  142
Dispersion correction           -0.090419751
FINAL SINGLE POINT ENERGY     -1379.420997237389
Dispersion correction            ... done
Dispersion correction           -0.089258591
FINAL SINGLE POINT ENERGY     -1379.426103075409
Dispersion correction            ... done
Dispersion correction           -0.089159212
FINAL SINGLE POINT ENERGY     -1379.426348057993
Dispersion correction            ... done
FINAL SINGLE POINT ENERGY     -1379.426290562194
FINAL SINGLE POINT ENERGY     -1379.426381191883
FINAL SINGLE POINT ENERGY     -1379.426380587753
FINAL SINGLE POINT ENERGY     -1379.426358537848
FINAL SINGLE POINT ENERGY     -1379.426331781378
FINAL SINGLE POINT ENERGY     -1379.426306151602
FINAL SINGLE POINT ENERGY     -1379.426284927458
Dispersion correction            ... done
Dispersion correction           -0.089106084
FINAL SINGLE POINT ENERGY     -1379.426273958767
Dispersion correction            ... done
Dispersion correction           -0.089112165
FINAL SINGLE POINT ENERGY     -1379.426269610096
Dispersion correction            ... done
                    ***********************HURRAY********************

CARTESIAN COORDINATES (ANGSTROEM)
---------------------------------
  C      3.184123    0.564333   -0.148371
  C      2.413361   -0.370760   -0.821410
  C      1.035519   -0.292741   -0.396332
  C      0.828387    0.702085    0.536365
  S      2.269957    1.554194    0.940844
  C     -0.624790    0.881239    0.809472
  C     -1.133926   -0.532463    0.484578
  C     -0.284425   -1.017116   -0.737636
  C     -0.914368   -0.505505   -2.055470
  C     -0.166275   -0.836498   -3.344412
  C     -0.094531   -2.548350   -0.720451
  C     -1.368817   -3.382543   -0.835430
  C     -2.650803   -0.407441    0.579392
  C     -2.905973    0.257339    1.957512
  S     -1.397147    1.270369    2.427237
  C      2.967318   -1.290039   -1.827048
  C      4.002181   -1.027848   -2.638918
  H      4.264436    0.687056   -0.206625
  H     -1.031893    1.612930    0.088889
  H     -0.804190   -1.157709    1.332947
  H     -1.026125    0.588711   -1.976224
  H     -1.939431   -0.906592   -2.124319
  H      0.874063   -0.480798   -3.315040
  H     -0.655741   -0.355956   -4.205575
  H     -0.146641   -1.920027   -3.542821
  H      0.433688   -2.810488    0.212160
  H      0.586745   -2.831520   -1.536379
  H     -2.057035   -3.200309    0.003674
  H     -1.121836   -4.456077   -0.831790
  H     -1.918614   -3.173146   -1.767024
  H     -3.178809   -1.369489    0.517257
  H     -3.037687    0.232717   -0.228435
  H     -3.050373   -0.500144    2.740851
  H     -3.788856    0.911335    1.948831
  H      2.476924   -2.263658   -1.913291
  H      4.506882   -0.057420   -2.638069
  H      4.372411   -1.781622   -3.337772

 Multiplicity           Mult            ....    1
 Number of Electrons    NEL             ....  142
 Basis Dimension        Dim             ....  346

ORBITAL ENERGIES
----------------

  NO   OCC          E(Eh)            E(eV)
   0   2.0000     -88.874955     -2418.4105
   1   2.0000     -88.825691     -2417.0699
   2   2.0000     -10.220165      -278.1048
   3   2.0000     -10.215396      -277.9751
   4   2.0000     -10.209079      -277.8032
   5   2.0000     -10.208728      -277.7936
   6   2.0000     -10.208199      -277.7792
   7   2.0000     -10.200565      -277.5715
   8   2.0000     -10.199182      -277.5339
   9   2.0000     -10.198400      -277.5126
  10   2.0000     -10.196999      -277.4745
  11   2.0000     -10.189546      -277.2716
  12   2.0000     -10.188050      -277.2309
  13   2.0000     -10.187521      -277.2165
  14   2.0000     -10.187385      -277.2129
  15   2.0000     -10.184954      -277.1467
  16   2.0000     -10.178428      -276.9691
  17   2.0000      -7.969513      -216.8615
  18   2.0000      -7.920685      -215.5328
  19   2.0000      -5.937629      -161.5711
  20   2.0000      -5.933516      -161.4592
  21   2.0000      -5.930997      -161.3906
  22   2.0000      -5.890060      -160.2767
  23   2.0000      -5.886757      -160.1868
  24   2.0000      -5.878603      -159.9649
  25   2.0000      -0.897587       -24.4246
  26   2.0000      -0.852225       -23.1902
  27   2.0000      -0.810503       -22.0549
  28   2.0000      -0.785965       -21.3872
  29   2.0000      -0.759706       -20.6726
  30   2.0000      -0.744848       -20.2684
  31   2.0000      -0.724191       -19.7062
  32   2.0000      -0.710522       -19.3343
  33   2.0000      -0.679319       -18.4852
  34   2.0000      -0.666784       -18.1441
  35   2.0000      -0.621382       -16.9087
  36   2.0000      -0.605117       -16.4661
  37   2.0000      -0.591889       -16.1061
  38   2.0000      -0.581659       -15.8277
  39   2.0000      -0.545853       -14.8534
  40   2.0000      -0.523928       -14.2568
  41   2.0000      -0.514921       -14.0117
  42   2.0000      -0.486987       -13.2516
  43   2.0000      -0.478930       -13.0324
  44   2.0000      -0.470264       -12.7965
  45   2.0000      -0.455329       -12.3901
  46   2.0000      -0.443401       -12.0656
  47   2.0000      -0.441211       -12.0060
  48   2.0000      -0.433742       -11.8027
  49   2.0000      -0.416315       -11.3285
  50   2.0000      -0.411995       -11.2110
  51   2.0000      -0.406132       -11.0514
  52   2.0000      -0.394217       -10.7272
  53   2.0000      -0.390574       -10.6280
  54   2.0000      -0.388134       -10.5617
  55   2.0000      -0.377909       -10.2834
  56   2.0000      -0.370989       -10.0951
  57   2.0000      -0.368457       -10.0262
  58   2.0000      -0.359147        -9.7729
  59   2.0000      -0.352243        -9.5850
  60   2.0000      -0.345961        -9.4141
  61   2.0000      -0.340869        -9.2755
  62   2.0000      -0.335600        -9.1321
  63   2.0000      -0.323583        -8.8051
  64   2.0000      -0.319597        -8.6967
  65   2.0000      -0.315922        -8.5967
  66   2.0000      -0.300435        -8.1752
  67   2.0000      -0.294002        -8.0002
  68   2.0000      -0.237580        -6.4649
  69   2.0000      -0.224315        -6.1039
  70   2.0000      -0.213018        -5.7965
  71   0.0000      -0.034324        -0.9340
  72   0.0000       0.003903         0.1062
  73   0.0000       0.026945         0.7332
  74   0.0000       0.042670         1.1611
  75   0.0000       0.052879         1.4389

MULLIKEN ATOMIC CHARGES
-----------------------
   0 C :   -0.153418
   1 C :    0.060318
   2 C :    0.020193
   3 C :   -0.102744
   4 S :    0.136368
   5 C :   -0.079979
   6 C :   -0.127459
   7 C :   -0.123638
   8 C :    0.058791
   9 C :    0.023052
  10 C :    0.031796
  11 C :    0.020868
  12 C :    0.153527
  13 C :   -0.056408
  14 S :   -0.069095
  15 C :   -0.023381
  16 C :   -0.029766
  17 H :    0.019729
  18 H :    0.049038
  19 H :    0.005358
  20 H :   -0.006869
  21 H :   -0.004771
  22 H :    0.025431
  23 H :    0.003770
  24 H :    0.006214
  25 H :   -0.002845
  26 H :    0.009081
  27 H :    0.009476
  28 H :    0.012402
  29 H :    0.011541
  30 H :    0.007778
  31 H :   -0.001241
  32 H :    0.045153
  33 H :    0.039776
  34 H :   -0.004230
  35 H :    0.015937
  36 H :    0.020244
Sum of atomic charges:   -0.0000000

LOEWDIN ATOMIC CHARGES
----------------------
   0 C :   -0.188258
   1 C :   -0.068001
   2 C :   -0.044003
   3 C :   -0.199752
   4 S :    0.438919
   5 C :   -0.128968
   6 C :   -0.024689
   7 C :   -0.027050
   8 C :   -0.023144
   9 C :   -0.056960
  10 C :   -0.026122
  11 C :   -0.056391
  12 C :   -0.034155
  13 C :   -0.110330
  14 S :    0.181649
  15 C :   -0.021660
  16 C :   -0.051666
  17 H :    0.022582
  18 H :    0.020067
  19 H :    0.024364
  20 H :    0.020012
  21 H :    0.016357
  22 H :    0.027248
  23 H :    0.024939
  24 H :    0.018640
  25 H :    0.022702
  26 H :    0.017200
  27 H :    0.020038
  28 H :    0.026917
  29 H :    0.021469
  30 H :    0.023766
  31 H :    0.021608
  32 H :    0.020641
  33 H :    0.019800
  34 H :    0.026682
  35 H :    0.021064
  36 H :    0.024486

  Mayer bond orders larger than 0.100000
B(  0-C ,  1-C ) :   1.5084 B(  0-C ,  4-S ) :   1.1571 B(  0-C , 17-H ) :   0.9571
B(  1-C ,  2-C ) :   1.2456 B(  1-C , 15-C ) :   1.0590 B(  2-C ,  3-C ) :   1.5971
B(  2-C ,  7-C ) :   0.9599 B(  3-C ,  4-S ) :   1.1257 B(  3-C ,  5-C ) :   1.0186
B(  5-C ,  6-C ) :   0.9826 B(  5-C , 14-S ) :   1.0124 B(  5-C , 18-H ) :   0.8842
B(  6-C ,  7-C ) :   0.9643 B(  6-C , 12-C ) :   1.0608 B(  6-C , 19-H ) :   0.9141
B(  7-C ,  8-C ) :   1.0112 B(  7-C , 10-C ) :   1.0371 B(  8-C ,  9-C ) :   1.1165
B(  8-C , 20-H ) :   0.9307 B(  8-C , 21-H ) :   0.9247 B(  9-C , 22-H ) :   0.9597
B(  9-C , 23-H ) :   0.9547 B(  9-C , 24-H ) :   0.9612 B( 10-C , 11-C ) :   1.1097
B( 10-C , 25-H ) :   0.9306 B( 10-C , 26-H ) :   0.9300 B( 11-C , 27-H ) :   0.9619
B( 11-C , 28-H ) :   0.9581 B( 11-C , 29-H ) :   0.9615 B( 12-C , 13-C ) :   1.0620
B( 12-C , 30-H ) :   0.9315 B( 12-C , 31-H ) :   0.9128 B( 13-C , 14-S ) :   0.9863
B( 13-C , 32-H ) :   0.9478 B( 13-C , 33-H ) :   0.9474 B( 15-C , 16-C ) :   1.9461
B( 15-C , 34-H ) :   0.9510 B( 16-C , 35-H ) :   0.9514 B( 16-C , 36-H ) :   0.9442

Dispersion correction           -0.089113412
FINAL SINGLE POINT ENERGY     -1379.426268245145

DIPOLE MOMENT
-------------
                                X             Y             Z
Electronic contribution:     10.66360      17.71286      17.30114
Nuclear contribution   :    -11.05794     -18.29520     -17.96735
                        -----------------------------------------
Total Dipole Moment    :     -0.39435      -0.58234      -0.66621
                        -----------------------------------------
Magnitude (a.u.)       :      0.96875
Magnitude (Debye)      :      2.46236

Rotational constants in cm-1:     0.017279     0.011528     0.007854
Rotational constants in MHz :   518.017957   345.605865   235.442399

                             ****ORCA TERMINATED NORMALLY****
TOTAL RUN TIME: 0 days 0 hours 46 minutes 48 seconds 325 msec
