                         Program Version 4.2.0 -  RELEASE  -
|  1> # ORCA input file
|  2> # SCF done        -34.787092267414          0.000679100949
|  3> ! B3LYP/G D3BJ Opt RIJCOSX def2-SVP def2/J
|  4> * xyz 0 1
|  5>    C       -1.31161         1.04602        -0.14724
|  6>    O       -2.05021        -0.07528        -0.21671
|  7>    C        0.00406         0.71947        -0.03378
|  8>    C        1.37600         1.24189         0.08197
|  9>    O        1.79441         2.36675         0.11773
| 10>    N        2.15803         0.09158         0.14602
| 11>    C        1.46415        -1.11853         0.08595
| 12>    O        1.97118        -2.20739         0.12811
| 13>    C        0.06279        -0.70574        -0.03243
| 14>    C       -1.22941        -1.15758        -0.14776
| 15>    C       -1.75279        -2.49606        -0.20329
| 16>    C       -3.04429        -2.78250        -0.34510
| 17>    H       -1.83128         1.98255        -0.18865
| 18>    H        3.16417         0.12990         0.23019
| 19>    H       -1.00012        -3.26713        -0.12325
| 20>    H       -3.78484        -2.00469        -0.42585
| 21>    H       -3.39347        -3.79864        -0.38435
| 22> *
| 23>
| 24>                          ****END OF INPUT****
 Total Charge           Charge          ....    0
 Multiplicity           Mult            ....    1
 Number of Electrons    NEL             ....   84
Dispersion correction           -0.031771936
FINAL SINGLE POINT ENERGY      -587.865343575285
Dispersion correction            ... done
Dispersion correction           -0.031744785
FINAL SINGLE POINT ENERGY      -587.867511370711
Dispersion correction            ... done
Dispersion correction           -0.031740393
FINAL SINGLE POINT ENERGY      -587.867684648168
Dispersion correction            ... done
FINAL SINGLE POINT ENERGY      -587.867723100946
Dispersion correction            ... done
Dispersion correction           -0.031741162
FINAL SINGLE POINT ENERGY      -587.867725696634
Dispersion correction            ... done
Dispersion correction           -0.031740968
FINAL SINGLE POINT ENERGY      -587.867734661060
Dispersion correction            ... done
                    ***********************HURRAY********************

CARTESIAN COORDINATES (ANGSTROEM)
---------------------------------
  C     -1.306172    1.060341   -0.165420
  O     -2.045703   -0.082024   -0.245308
  C      0.009306    0.725832   -0.046789
  C      1.390434    1.262806    0.093016
  O      1.799537    2.395216    0.152390
  N      2.184447    0.100021    0.151850
  C      1.482556   -1.121696    0.087150
  O      1.978654   -2.220221    0.146330
  C      0.071396   -0.699153   -0.053466
  C     -1.211794   -1.171112   -0.176524
  C     -1.764191   -2.503365   -0.232849
  C     -3.072085   -2.792520   -0.319590
  H     -1.856829    1.995462   -0.206050
  H      3.192567    0.139245    0.260884
  H     -1.009362   -3.293469   -0.191627
  H     -3.827128   -2.003622   -0.356802
  H     -3.418862   -3.827122   -0.355637

 Multiplicity           Mult            ....    1
 Number of Electrons    NEL             ....   84
 Basis Dimension        Dim             ....  193

ORBITAL ENERGIES
----------------

  NO   OCC          E(Eh)            E(eV)
   0   2.0000     -19.234517      -523.3978
   1   2.0000     -19.135961      -520.7160
   2   2.0000     -19.135866      -520.7134
   3   2.0000     -14.381384      -391.3373
   4   2.0000     -10.323671      -280.9214
   5   2.0000     -10.322424      -280.8874
   6   2.0000     -10.283350      -279.8242
   7   2.0000     -10.282529      -279.8018
   8   2.0000     -10.222152      -278.1589
   9   2.0000     -10.218462      -278.0585
  10   2.0000     -10.216103      -277.9943
  11   2.0000     -10.214005      -277.9372
  12   2.0000      -1.135941       -30.9105
  13   2.0000      -1.066250       -29.0141
  14   2.0000      -1.049664       -28.5628
  15   2.0000      -0.952716       -25.9247
  16   2.0000      -0.836818       -22.7710
  17   2.0000      -0.823307       -22.4033
  18   2.0000      -0.750611       -20.4252
  19   2.0000      -0.686586       -18.6829
  20   2.0000      -0.681752       -18.5514
  21   2.0000      -0.632358       -17.2073
  22   2.0000      -0.612873       -16.6771
  23   2.0000      -0.548127       -14.9153
  24   2.0000      -0.520502       -14.1636
  25   2.0000      -0.514629       -14.0038
  26   2.0000      -0.500825       -13.6281
  27   2.0000      -0.488660       -13.2971
  28   2.0000      -0.477826       -13.0023
  29   2.0000      -0.463414       -12.6101
  30   2.0000      -0.457108       -12.4386
  31   2.0000      -0.443642       -12.0721
  32   2.0000      -0.427868       -11.6429
  33   2.0000      -0.409956       -11.1555
  34   2.0000      -0.401370       -10.9218
  35   2.0000      -0.390497       -10.6260
  36   2.0000      -0.334767        -9.1095
  37   2.0000      -0.314917        -8.5693
  38   2.0000      -0.301422        -8.2021
  39   2.0000      -0.298479        -8.1220
  40   2.0000      -0.278335        -7.5739
  41   2.0000      -0.247900        -6.7457
  42   0.0000      -0.081941        -2.2297
  43   0.0000      -0.062887        -1.7113
  44   0.0000       0.021873         0.5952
  45   0.0000       0.067732         1.8431
  46   0.0000       0.069606         1.8941

MULLIKEN ATOMIC CHARGES
-----------------------
   0 C :    0.080366
   1 O :   -0.217140
   2 C :   -0.018942
   3 C :    0.198980
   4 O :   -0.154044
   5 N :   -0.183319
   6 C :    0.197054
   7 O :   -0.159103
   8 C :   -0.056629
   9 C :    0.066420
  10 C :   -0.016554
  11 C :    0.008497
  12 H :    0.030171
  13 H :    0.134547
  14 H :    0.019355
  15 H :    0.036719
  16 H :    0.033621
Sum of atomic charges:   -0.0000000

LOEWDIN ATOMIC CHARGES
----------------------
   0 C :    0.087820
   1 O :    0.008529
   2 C :   -0.099929
   3 C :    0.088395
   4 O :   -0.154899
   5 N :   -0.010305
   6 C :    0.086950
   7 O :   -0.160559
   8 C :   -0.098740
   9 C :    0.065132
  10 C :   -0.039022
  11 C :   -0.012554
  12 H :    0.035827
  13 H :    0.092167
  14 H :    0.047743
  15 H :    0.030537
  16 H :    0.032908

  Mayer bond orders larger than 0.100000
B(  0-C ,  1-O ) :   1.1354 B(  0-C ,  2-C ) :   1.5140 B(  0-C , 12-H ) :   1.0044
B(  1-O ,  9-C ) :   1.1379 B(  2-C ,  3-C ) :   0.8672 B(  2-C ,  8-C ) :   1.2543
B(  3-C ,  4-O ) :   2.2294 B(  3-C ,  5-N ) :   1.0631 B(  5-N ,  6-C ) :   1.0572
B(  5-N , 13-H ) :   0.9144 B(  6-C ,  7-O ) :   2.2202 B(  6-C ,  8-C ) :   0.8956
B(  8-C ,  9-C ) :   1.4408 B(  9-C , 10-C ) :   1.1611 B( 10-C , 11-C ) :   1.8758
B( 10-C , 14-H ) :   0.9480 B( 11-C , 15-H ) :   0.9559 B( 11-C , 16-H ) :   0.9417

Dispersion correction           -0.031740431
FINAL SINGLE POINT ENERGY      -587.867735608887

DIPOLE MOMENT
-------------
                                X             Y             Z
Electronic contribution:      5.42775       4.42386       0.47304
Nuclear contribution   :     -6.41016      -4.60603      -0.57258
                        -----------------------------------------
Total Dipole Moment    :     -0.98241      -0.18217      -0.09954
                        -----------------------------------------
Magnitude (a.u.)       :      1.00410
Magnitude (Debye)      :      2.55223

Rotational constants in cm-1:     0.058789     0.025208     0.017644
Rotational constants in MHz :  1762.461152   755.724210   528.959190

                             ****ORCA TERMINATED NORMALLY****
TOTAL RUN TIME: 0 days 0 hours 6 minutes 12 seconds 615 msec
