                         Program Version 4.2.0 -  RELEASE  -
|  1> # ORCA input file
|  2> # SCF done        -28.470588942373          0.000350644082
|  3> ! B3LYP/G D3BJ Opt RIJCOSX def2-SVP def2/J
|  4> * xyz 0 1
|  5>    C        0.20025         0.98113         0.01270
|  6>    S       -0.93898        -0.30588         0.04933
|  7>    C        0.33048        -1.48668         0.13938
|  8>    C        1.57872        -0.87808         0.14288
|  9>    C        1.47762         0.53973         0.07002
| 10>    C        2.85439        -1.60576         0.21496
| 11>    O        2.93773        -2.81630         0.20833
| 12>    C        4.09359        -0.74371         0.30193
| 13>    C        0.02917        -2.88933         0.21065
| 14>    C       -1.20213        -3.39454         0.19337
| 15>    H       -0.15200         1.99171        -0.04946
| 16>    H        2.32077         1.20528         0.05571
| 17>    H        4.03968        -0.09177         1.17084
| 18>    H        4.18634        -0.13052        -0.59174
| 19>    H        4.96603        -1.38662         0.38596
| 20>    H        0.89461        -3.53318         0.27885
| 21>    H       -2.07407        -2.76381         0.11971
| 22>    H       -1.37503        -4.45431         0.25085
| 23> *
| 24>
| 25>                          ****END OF INPUT****
 Total Charge           Charge          ....    0
 Multiplicity           Mult            ....    1
 Number of Electrons    NEL             ....   80
Dispersion correction           -0.036430259
FINAL SINGLE POINT ENERGY      -782.700494375270
Dispersion correction            ... done
Dispersion correction           -0.036117090
FINAL SINGLE POINT ENERGY      -782.703360399702
Dispersion correction            ... done
Dispersion correction           -0.036066139
FINAL SINGLE POINT ENERGY      -782.703452999305
Dispersion correction            ... done
FINAL SINGLE POINT ENERGY      -782.703472324355
FINAL SINGLE POINT ENERGY      -782.703464462447
Dispersion correction            ... done
Dispersion correction           -0.036050839
FINAL SINGLE POINT ENERGY      -782.703473999490
Dispersion correction            ... done
Dispersion correction           -0.036054050
FINAL SINGLE POINT ENERGY      -782.703475116263
Dispersion correction            ... done
                    ***********************HURRAY********************

CARTESIAN COORDINATES (ANGSTROEM)
---------------------------------
  C      0.182227    1.018156    0.001069
  S     -0.950071   -0.288746   -0.006580
  C      0.314532   -1.481201    0.111095
  C      1.569381   -0.862373    0.146648
  C      1.470387    0.568796    0.084089
  C      2.862434   -1.592157    0.241782
  O      2.930221   -2.808524    0.276814
  C      4.130051   -0.754832    0.298422
  C      0.004437   -2.901893    0.174064
  C     -1.228599   -3.434068    0.206710
  H     -0.171090    2.046184   -0.059673
  H      2.329169    1.237969    0.101564
  H      4.118365   -0.076505    1.166955
  H      4.229271   -0.127519   -0.602337
  H      4.991461   -1.430278    0.371354
  H      0.888602   -3.539987    0.204395
  H     -2.133902   -2.819601    0.191108
  H     -1.369707   -4.516062    0.256789

 Multiplicity           Mult            ....    1
 Number of Electrons    NEL             ....   80
 Basis Dimension        Dim             ....  184

ORBITAL ENERGIES
----------------

  NO   OCC          E(Eh)            E(eV)
   0   2.0000     -88.884613     -2418.6733
   1   2.0000     -19.121215      -520.3147
   2   2.0000     -10.278177      -279.6834
   3   2.0000     -10.234359      -278.4911
   4   2.0000     -10.224418      -278.2206
   5   2.0000     -10.207029      -277.7474
   6   2.0000     -10.204910      -277.6897
   7   2.0000     -10.199694      -277.5478
   8   2.0000     -10.195964      -277.4463
   9   2.0000     -10.194648      -277.4105
  10   2.0000      -7.979811      -217.1417
  11   2.0000      -5.947752      -161.8466
  12   2.0000      -5.943704      -161.7364
  13   2.0000      -5.941422      -161.6743
  14   2.0000      -1.029016       -28.0009
  15   2.0000      -0.892431       -24.2843
  16   2.0000      -0.788798       -21.4643
  17   2.0000      -0.769255       -20.9325
  18   2.0000      -0.723576       -19.6895
  19   2.0000      -0.715114       -19.4592
  20   2.0000      -0.617747       -16.8097
  21   2.0000      -0.593293       -16.1443
  22   2.0000      -0.557116       -15.1599
  23   2.0000      -0.519795       -14.1443
  24   2.0000      -0.494371       -13.4525
  25   2.0000      -0.455548       -12.3961
  26   2.0000      -0.448735       -12.2107
  27   2.0000      -0.446262       -12.1434
  28   2.0000      -0.432649       -11.7730
  29   2.0000      -0.426803       -11.6139
  30   2.0000      -0.401029       -10.9126
  31   2.0000      -0.398867       -10.8537
  32   2.0000      -0.385400       -10.4873
  33   2.0000      -0.371276       -10.1029
  34   2.0000      -0.362222        -9.8566
  35   2.0000      -0.349941        -9.5224
  36   2.0000      -0.310644        -8.4531
  37   2.0000      -0.267822        -7.2878
  38   2.0000      -0.252604        -6.8737
  39   2.0000      -0.229629        -6.2485
  40   0.0000      -0.074668        -2.0318
  41   0.0000      -0.017203        -0.4681
  42   0.0000       0.029649         0.8068
  43   0.0000       0.035794         0.9740
  44   0.0000       0.060507         1.6465

MULLIKEN ATOMIC CHARGES
-----------------------
   0 C :   -0.062075
   1 S :    0.114930
   2 C :   -0.152726
   3 C :    0.044589
   4 C :    0.014101
   5 C :    0.012824
   6 O :   -0.204275
   7 C :    0.036586
   8 C :    0.024191
   9 C :   -0.028324
  10 H :    0.030540
  11 H :   -0.007807
  12 H :    0.036633
  13 H :    0.035278
  14 H :    0.027803
  15 H :    0.024510
  16 H :    0.019894
  17 H :    0.033327
Sum of atomic charges:   -0.0000000

LOEWDIN ATOMIC CHARGES
----------------------
   0 C :   -0.183291
   1 S :    0.448276
   2 C :   -0.137928
   3 C :   -0.107147
   4 C :   -0.057199
   5 C :    0.083506
   6 O :   -0.155938
   7 C :   -0.074987
   8 C :   -0.037973
   9 C :   -0.038539
  10 H :    0.027532
  11 H :    0.030229
  12 H :    0.040091
  13 H :    0.039832
  14 H :    0.037285
  15 H :    0.039586
  16 H :    0.016284
  17 H :    0.030381

  Mayer bond orders larger than 0.100000
B(  0-C ,  1-S ) :   1.1499 B(  0-C ,  4-C ) :   1.5677 B(  0-C , 10-H ) :   0.9646
B(  1-S ,  2-C ) :   1.1529 B(  2-C ,  3-C ) :   1.4486 B(  2-C ,  8-C ) :   1.1625
B(  3-C ,  4-C ) :   1.2335 B(  3-C ,  5-C ) :   0.9576 B(  4-C , 11-H ) :   0.9795
B(  5-C ,  6-O ) :   2.0975 B(  5-C ,  7-C ) :   1.0688 B(  7-C , 12-H ) :   0.9442
B(  7-C , 13-H ) :   0.9427 B(  7-C , 14-H ) :   0.9481 B(  8-C ,  9-C ) :   1.8697
B(  8-C , 15-H ) :   0.9376 B(  9-C , 16-H ) :   0.9508 B(  9-C , 17-H ) :   0.9480

Dispersion correction           -0.036055293
FINAL SINGLE POINT ENERGY      -782.703473064035

DIPOLE MOMENT
-------------
                                X             Y             Z
Electronic contribution:     -5.38356       1.03332      -0.52371
Nuclear contribution   :      5.20887       0.01622       0.49808
                        -----------------------------------------
Total Dipole Moment    :     -0.17469       1.04954      -0.02563
                        -----------------------------------------
Magnitude (a.u.)       :      1.06429
Magnitude (Debye)      :      2.70521

Rotational constants in cm-1:     0.055037     0.034407     0.021262
Rotational constants in MHz :  1649.957151  1031.505413   637.409864

                             ****ORCA TERMINATED NORMALLY****
TOTAL RUN TIME: 0 days 0 hours 7 minutes 21 seconds 85 msec
