                         Program Version 4.2.0 -  RELEASE  -
|  1> # ORCA input file
|  2> # SCF done        -26.009520537248          0.000737208895
|  3> ! B3LYP/G D3BJ Opt RIJCOSX def2-SVP def2/J
|  4> * xyz 0 1
|  5>    N       -0.95779        -1.38167         0.32568
|  6>    C        0.24001        -0.71507         0.10696
|  7>    C        1.49402        -1.23529         0.16389
|  8>    S        2.70695        -0.02646        -0.05851
|  9>    C        1.50465         1.19960        -0.23845
| 10>    C        0.24588         0.69860        -0.13439
| 11>    N       -0.94865         1.38398        -0.30820
| 12>    C       -2.11202         0.73800         0.26276
| 13>    C       -2.13073        -0.71835        -0.20550
| 14>    H       -0.92024        -2.37755         0.16005
| 15>    H        1.78414        -2.25133         0.33806
| 16>    H        1.80281         2.21189        -0.42155
| 17>    H       -0.88899         2.37867        -0.14254
| 18>    H       -3.00627         1.25574        -0.09150
| 19>    H       -2.10402         0.75319         1.36359
| 20>    H       -2.15953        -0.73381        -1.30571
| 21>    H       -3.01938        -1.22343         0.17961
| 22> *
| 23>
| 24>                          ****END OF INPUT****
 Total Charge           Charge          ....    0
 Multiplicity           Mult            ....    1
 Number of Electrons    NEL             ....   74
Dispersion correction           -0.033425823
FINAL SINGLE POINT ENERGY      -740.800085184658
Dispersion correction            ... done
Dispersion correction           -0.033280096
FINAL SINGLE POINT ENERGY      -740.802173843570
Dispersion correction            ... done
Dispersion correction           -0.033245947
FINAL SINGLE POINT ENERGY      -740.802272817664
Dispersion correction            ... done
FINAL SINGLE POINT ENERGY      -740.802273425950
Dispersion correction            ... done
Dispersion correction           -0.033214992
FINAL SINGLE POINT ENERGY      -740.802264192375
Dispersion correction            ... done
Dispersion correction           -0.033212444
FINAL SINGLE POINT ENERGY      -740.802263985039
Dispersion correction            ... done
                    ***********************HURRAY********************

CARTESIAN COORDINATES (ANGSTROEM)
---------------------------------
  N     -0.949175   -1.383787    0.304821
  C      0.262294   -0.723467    0.095876
  C      1.530861   -1.251744    0.129996
  S      2.749445   -0.026864   -0.057999
  C      1.543428    1.216528   -0.202804
  C      0.269006    0.707119   -0.125216
  N     -0.939313    1.385269   -0.292672
  C     -2.132430    0.744960    0.239090
  C     -2.151675   -0.725715   -0.180858
  H     -0.916765   -2.384701    0.147507
  H      1.814522   -2.288046    0.302506
  H      1.835733    2.248785   -0.384977
  H     -0.886616    2.385222   -0.134379
  H     -3.018701    1.252093   -0.172799
  H     -2.194060    0.800859    1.346133
  H     -2.256602   -0.780240   -1.284587
  H     -3.029111   -1.219560    0.264612

 Multiplicity           Mult            ....    1
 Number of Electrons    NEL             ....   74
 Basis Dimension        Dim             ....  170

ORBITAL ENERGIES
----------------

  NO   OCC          E(Eh)            E(eV)
   0   2.0000     -88.848546     -2417.6918
   1   2.0000     -14.332671      -390.0118
   2   2.0000     -14.332650      -390.0112
   3   2.0000     -10.225092      -278.2389
   4   2.0000     -10.225011      -278.2367
   5   2.0000     -10.213316      -277.9185
   6   2.0000     -10.213051      -277.9113
   7   2.0000     -10.185206      -277.1535
   8   2.0000     -10.185098      -277.1506
   9   2.0000      -7.943099      -216.1427
  10   2.0000      -5.911606      -160.8630
  11   2.0000      -5.907639      -160.7550
  12   2.0000      -5.903737      -160.6489
  13   2.0000      -0.948559       -25.8116
  14   2.0000      -0.893421       -24.3112
  15   2.0000      -0.845588       -23.0096
  16   2.0000      -0.746236       -20.3061
  17   2.0000      -0.700698       -19.0670
  18   2.0000      -0.678232       -18.4556
  19   2.0000      -0.613265       -16.6878
  20   2.0000      -0.586663       -15.9639
  21   2.0000      -0.521923       -14.2023
  22   2.0000      -0.520889       -14.1741
  23   2.0000      -0.496508       -13.5107
  24   2.0000      -0.481282       -13.0964
  25   2.0000      -0.459922       -12.5151
  26   2.0000      -0.408890       -11.1265
  27   2.0000      -0.408174       -11.1070
  28   2.0000      -0.401642       -10.9292
  29   2.0000      -0.382513       -10.4087
  30   2.0000      -0.367340        -9.9958
  31   2.0000      -0.357172        -9.7191
  32   2.0000      -0.334088        -9.0910
  33   2.0000      -0.290804        -7.9132
  34   2.0000      -0.289387        -7.8746
  35   2.0000      -0.195537        -5.3208
  36   2.0000      -0.179192        -4.8760
  37   0.0000       0.009270         0.2523
  38   0.0000       0.044980         1.2240
  39   0.0000       0.060731         1.6526
  40   0.0000       0.072786         1.9806
  41   0.0000       0.073953         2.0124

MULLIKEN ATOMIC CHARGES
-----------------------
   0 N :   -0.171868
   1 C :    0.107717
   2 C :   -0.201445
   3 S :    0.063604
   4 C :   -0.201885
   5 C :    0.106811
   6 N :   -0.171406
   7 C :    0.128973
   8 C :    0.130897
   9 H :    0.108777
  10 H :   -0.009180
  11 H :   -0.009200
  12 H :    0.108746
  13 H :   -0.001629
  14 H :    0.006838
  15 H :    0.005888
  16 H :   -0.001637
Sum of atomic charges:    0.0000000

LOEWDIN ATOMIC CHARGES
----------------------
   0 N :   -0.060032
   1 C :   -0.032340
   2 C :   -0.253289
   3 S :    0.388095
   4 C :   -0.253167
   5 C :   -0.032471
   6 N :   -0.060156
   7 C :    0.033539
   8 C :    0.033666
   9 H :    0.071522
  10 H :    0.015818
  11 H :    0.015819
  12 H :    0.071515
  13 H :    0.022190
  14 H :    0.008622
  15 H :    0.008430
  16 H :    0.022241

  Mayer bond orders larger than 0.100000
B(  0-N ,  1-C ) :   1.1291 B(  0-N ,  8-C ) :   1.0274 B(  0-N ,  9-H ) :   0.9249
B(  1-C ,  2-C ) :   1.5112 B(  1-C ,  5-C ) :   1.2369 B(  2-C ,  3-S ) :   1.1130
B(  2-C , 10-H ) :   0.9713 B(  3-S ,  4-C ) :   1.1133 B(  4-C ,  5-C ) :   1.5114
B(  4-C , 11-H ) :   0.9714 B(  5-C ,  6-N ) :   1.1290 B(  6-N ,  7-C ) :   1.0272
B(  6-N , 12-H ) :   0.9247 B(  7-C ,  8-C ) :   1.0909 B(  7-C , 13-H ) :   0.9404
B(  7-C , 14-H ) :   0.9332 B(  8-C , 15-H ) :   0.9329 B(  8-C , 16-H ) :   0.9402

Dispersion correction           -0.033213407
FINAL SINGLE POINT ENERGY      -740.802274847852

DIPOLE MOMENT
-------------
                                X             Y             Z
Electronic contribution:      9.51517      -0.07206      -0.17233
Nuclear contribution   :    -10.60055       0.07915       0.19443
                        -----------------------------------------
Total Dipole Moment    :     -1.08538       0.00709       0.02210
                        -----------------------------------------
Magnitude (a.u.)       :      1.08563
Magnitude (Debye)      :      2.75945

Rotational constants in cm-1:     0.112283     0.036234     0.027997
Rotational constants in MHz :  3366.154075  1086.261277   839.319809

                             ****ORCA TERMINATED NORMALLY****
TOTAL RUN TIME: 0 days 0 hours 5 minutes 59 seconds 367 msec
