                         Program Version 4.2.0 -  RELEASE  -
|  1> # ORCA input file
|  2> # SCF done        -49.885228070914          0.000683136381
|  3> ! B3LYP/G D3BJ Opt RIJCOSX def2-SVP def2/J
|  4> * xyz 0 1
|  5>    C        2.19138        -0.58518        -0.02442
|  6>    C        1.03507        -1.36211        -0.00936
|  7>    C       -0.19792        -0.73994         0.00019
|  8>    C       -0.24581         0.67700        -0.01042
|  9>    C       -1.63610         1.07002        -0.01569
| 10>    C       -2.40701        -0.03522        -0.00175
| 11>    C       -1.58890        -1.23253         0.01240
| 12>    C       -2.05052        -2.52081         0.02980
| 13>    C       -1.23471        -3.72293         0.04408
| 14>    C       -2.00773        -4.82559         0.03700
| 15>    C       -3.39584        -4.42317         0.02284
| 16>    C       -3.44346        -3.00715         0.02521
| 17>    C       -4.68314        -2.39478         0.02317
| 18>    C       -5.83594        -3.17496         0.01344
| 19>    C       -5.77264        -4.55595         0.00589
| 20>    C       -4.53963        -5.19483         0.01166
| 21>    C        0.90455         1.46232        -0.03500
| 22>    C        2.13429         0.79109        -0.03741
| 23>    C        0.82076         2.91723        -0.04402
| 24>    C        1.76994         3.74225        -0.47034
| 25>    H        3.15288        -1.07809        -0.02207
| 26>    H        1.14863        -2.43211        -0.00389
| 27>    H       -1.99067         2.08453        -0.03487
| 28>    H       -3.47688        -0.02709        -0.00215
| 29>    H       -0.16486        -3.73296         0.06011
| 30>    H       -1.67386        -5.84774         0.04286
| 31>    H       -4.80339        -1.32503         0.03131
| 32>    H       -6.79898        -2.68525         0.01201
| 33>    H       -6.68275        -5.13753        -0.00303
| 34>    H       -4.47458        -6.27326         0.00778
| 35>    H        3.05016         1.36183        -0.02953
| 36>    H       -0.10980         3.33142         0.32029
| 37>    H        2.70584         3.39120        -0.87192
| 38>    H        1.63697         4.81059        -0.44816
| 39> *
| 40>
| 41>                          ****END OF INPUT****
 Total Charge           Charge          ....    0
 Multiplicity           Mult            ....    1
 Number of Electrons    NEL             ....  134
Dispersion correction           -0.080432923
FINAL SINGLE POINT ENERGY      -770.040423693239
Dispersion correction            ... done
Dispersion correction           -0.080119355
FINAL SINGLE POINT ENERGY      -770.045768348398
Dispersion correction            ... done
Dispersion correction           -0.080071404
FINAL SINGLE POINT ENERGY      -770.045935381217
Dispersion correction            ... done
FINAL SINGLE POINT ENERGY      -770.045978579361
FINAL SINGLE POINT ENERGY      -770.046023778852
FINAL SINGLE POINT ENERGY      -770.046050420275
FINAL SINGLE POINT ENERGY      -770.046021319422
FINAL SINGLE POINT ENERGY      -770.046032748558
FINAL SINGLE POINT ENERGY      -770.046141103591
Dispersion correction            ... done
Dispersion correction           -0.080075469
FINAL SINGLE POINT ENERGY      -770.046165130404
Dispersion correction            ... done
Dispersion correction           -0.080070037
FINAL SINGLE POINT ENERGY      -770.046168053635
Dispersion correction            ... done
                    ***********************HURRAY********************

CARTESIAN COORDINATES (ANGSTROEM)
---------------------------------
  C      2.223025   -0.594160   -0.090401
  C      1.053538   -1.375435   -0.059484
  C     -0.186423   -0.744667   -0.060912
  C     -0.238734    0.681490   -0.097026
  C     -1.646581    1.073927   -0.089953
  C     -2.425250   -0.038534   -0.052954
  C     -1.592009   -1.242717   -0.032646
  C     -2.049037   -2.538847    0.004716
  C     -1.220444   -3.749414    0.027037
  C     -2.005719   -4.857221    0.057984
  C     -3.409713   -4.451789    0.059919
  C     -3.458083   -3.027541    0.028595
  C     -4.703456   -2.399914    0.024897
  C     -5.874341   -3.175071    0.050740
  C     -5.813155   -4.569571    0.080119
  C     -4.570449   -5.219108    0.084922
  C      0.920768    1.472462   -0.131122
  C      2.160947    0.792970   -0.125160
  C      0.819564    2.937363   -0.172649
  C      1.826679    3.822131   -0.199037
  H      3.195221   -1.092370   -0.087417
  H      1.155251   -2.457857   -0.033879
  H     -2.018008    2.097676   -0.110508
  H     -3.508782   -0.029879   -0.038230
  H     -0.136446   -3.761440    0.019883
  H     -1.657609   -5.890435    0.079351
  H     -4.805575   -1.317301    0.000509
  H     -6.843837   -2.671624    0.047131
  H     -6.734388   -5.156061    0.100294
  H     -4.510277   -6.310425    0.109184
  H      3.088570    1.366831   -0.150457
  H     -0.199066    3.334888   -0.184299
  H      2.877906    3.521713   -0.191747
  H      1.621261    4.895198   -0.231388

 Multiplicity           Mult            ....    1
 Number of Electrons    NEL             ....  134
 Basis Dimension        Dim             ....  350

ORBITAL ENERGIES
----------------

  NO   OCC          E(Eh)            E(eV)
   0   2.0000     -10.215917      -277.9892
   1   2.0000     -10.215340      -277.9735
   2   2.0000     -10.202236      -277.6170
   3   2.0000     -10.199617      -277.5457
   4   2.0000     -10.199323      -277.5377
   5   2.0000     -10.198954      -277.5277
   6   2.0000     -10.198534      -277.5162
   7   2.0000     -10.198373      -277.5118
   8   2.0000     -10.197460      -277.4870
   9   2.0000     -10.197127      -277.4779
  10   2.0000     -10.195602      -277.4364
  11   2.0000     -10.195144      -277.4240
  12   2.0000     -10.194592      -277.4090
  13   2.0000     -10.194422      -277.4043
  14   2.0000     -10.193830      -277.3882
  15   2.0000     -10.193785      -277.3870
  16   2.0000     -10.193063      -277.3674
  17   2.0000     -10.192933      -277.3638
  18   2.0000     -10.192564      -277.3538
  19   2.0000     -10.190185      -277.2890
  20   2.0000      -0.888369       -24.1738
  21   2.0000      -0.874740       -23.8029
  22   2.0000      -0.827737       -22.5239
  23   2.0000      -0.815337       -22.1864
  24   2.0000      -0.787429       -21.4270
  25   2.0000      -0.760985       -20.7075
  26   2.0000      -0.736825       -20.0500
  27   2.0000      -0.718384       -19.5482
  28   2.0000      -0.713827       -19.4242
  29   2.0000      -0.706245       -19.2179
  30   2.0000      -0.653547       -17.7839
  31   2.0000      -0.625731       -17.0270
  32   2.0000      -0.607382       -16.5277
  33   2.0000      -0.594846       -16.1866
  34   2.0000      -0.579485       -15.7686
  35   2.0000      -0.570729       -15.5303
  36   2.0000      -0.549364       -14.9490
  37   2.0000      -0.537497       -14.6260
  38   2.0000      -0.521578       -14.1929
  39   2.0000      -0.485767       -13.2184
  40   2.0000      -0.482157       -13.1202
  41   2.0000      -0.469264       -12.7693
  42   2.0000      -0.466442       -12.6925
  43   2.0000      -0.455189       -12.3863
  44   2.0000      -0.443456       -12.0671
  45   2.0000      -0.432146       -11.7593
  46   2.0000      -0.427345       -11.6286
  47   2.0000      -0.423394       -11.5211
  48   2.0000      -0.412898       -11.2355
  49   2.0000      -0.412710       -11.2304
  50   2.0000      -0.399161       -10.8617
  51   2.0000      -0.393649       -10.7117
  52   2.0000      -0.390113       -10.6155
  53   2.0000      -0.378027       -10.2866
  54   2.0000      -0.373056       -10.1514
  55   2.0000      -0.359691        -9.7877
  56   2.0000      -0.351035        -9.5521
  57   2.0000      -0.347046        -9.4436
  58   2.0000      -0.343253        -9.3404
  59   2.0000      -0.327391        -8.9087
  60   2.0000      -0.322015        -8.7625
  61   2.0000      -0.309006        -8.4085
  62   2.0000      -0.281140        -7.6502
  63   2.0000      -0.251786        -6.8514
  64   2.0000      -0.233350        -6.3498
  65   2.0000      -0.227932        -6.2023
  66   2.0000      -0.211423        -5.7531
  67   0.0000      -0.103872        -2.8265
  68   0.0000      -0.047139        -1.2827
  69   0.0000      -0.021644        -0.5890
  70   0.0000       0.001600         0.0435
  71   0.0000       0.026203         0.7130

MULLIKEN ATOMIC CHARGES
-----------------------
   0 C :    0.031415
   1 C :   -0.071872
   2 C :    0.096107
   3 C :    0.008036
   4 C :    0.014708
   5 C :   -0.022306
   6 C :    0.068926
   7 C :    0.060722
   8 C :   -0.023045
   9 C :    0.031402
  10 C :    0.047130
  11 C :    0.097108
  12 C :   -0.069815
  13 C :    0.023007
  14 C :    0.035263
  15 C :   -0.040560
  16 C :    0.082733
  17 C :   -0.023035
  18 C :   -0.019860
  19 C :   -0.026047
  20 H :   -0.025381
  21 H :   -0.035006
  22 H :   -0.024256
  23 H :   -0.038148
  24 H :   -0.033817
  25 H :   -0.023924
  26 H :   -0.033744
  27 H :   -0.023306
  28 H :   -0.018305
  29 H :   -0.027984
  30 H :   -0.034866
  31 H :   -0.022315
  32 H :    0.016521
  33 H :    0.024517
Sum of atomic charges:   -0.0000000

LOEWDIN ATOMIC CHARGES
----------------------
   0 C :   -0.028117
   1 C :   -0.014114
   2 C :   -0.015468
   3 C :   -0.016322
   4 C :   -0.001088
   5 C :   -0.030411
   6 C :    0.011098
   7 C :    0.011660
   8 C :   -0.033228
   9 C :    0.002175
  10 C :   -0.022187
  11 C :   -0.017584
  12 C :   -0.015075
  13 C :   -0.031039
  14 C :   -0.020219
  15 C :   -0.026058
  16 C :   -0.026701
  17 C :   -0.008375
  18 C :   -0.020644
  19 C :   -0.045913
  20 H :    0.026715
  21 H :    0.024178
  22 H :    0.023963
  23 H :    0.022531
  24 H :    0.022247
  25 H :    0.025638
  26 H :    0.023815
  27 H :    0.025962
  28 H :    0.026905
  29 H :    0.027097
  30 H :    0.024864
  31 H :    0.026396
  32 H :    0.020294
  33 H :    0.027004

  Mayer bond orders larger than 0.100000
B(  0-C ,  1-C ) :   1.3068 B(  0-C , 17-C ) :   1.4260 B(  0-C , 20-H ) :   0.9775
B(  1-C ,  2-C ) :   1.3797 B(  1-C , 21-H ) :   0.9995 B(  2-C ,  3-C ) :   1.2926
B(  2-C ,  6-C ) :   1.0289 B(  3-C ,  4-C ) :   1.0777 B(  3-C , 16-C ) :   1.3219
B(  4-C ,  5-C ) :   1.6135 B(  4-C , 22-H ) :   0.9958 B(  5-C ,  6-C ) :   1.0837
B(  5-C , 23-H ) :   1.0076 B(  6-C ,  7-C ) :   1.5243 B(  7-C ,  8-C ) :   1.0821
B(  7-C , 11-C ) :   1.0353 B(  8-C ,  9-C ) :   1.6128 B(  8-C , 24-H ) :   1.0081
B(  9-C , 10-C ) :   1.0580 B(  9-C , 25-H ) :   1.0028 B( 10-C , 11-C ) :   1.3017
B( 10-C , 15-C ) :   1.3631 B( 11-C , 12-C ) :   1.3697 B( 12-C , 13-C ) :   1.3445
B( 12-C , 26-H ) :   0.9974 B( 13-C , 14-C ) :   1.3987 B( 13-C , 27-H ) :   0.9798
B( 14-C , 15-C ) :   1.3326 B( 14-C , 28-H ) :   0.9830 B( 15-C , 29-H ) :   0.9935
B( 16-C , 17-C ) :   1.2953 B( 16-C , 18-C ) :   1.0897 B( 17-C , 30-H ) :   0.9832
B( 18-C , 19-C ) :   1.9230 B( 18-C , 31-H ) :   0.9620 B( 19-C , 32-H ) :   0.9455
B( 19-C , 33-H ) :   0.9438

Dispersion correction           -0.080070837
FINAL SINGLE POINT ENERGY      -770.046168771613

DIPOLE MOMENT
-------------
                                X             Y             Z
Electronic contribution:     -2.36966      -4.98913       0.16516
Nuclear contribution   :      2.35392       4.93699      -0.16560
                        -----------------------------------------
Total Dipole Moment    :     -0.01574      -0.05214      -0.00044
                        -----------------------------------------
Magnitude (a.u.)       :      0.05446
Magnitude (Debye)      :      0.13843

Rotational constants in cm-1:     0.034371     0.005717     0.004902
Rotational constants in MHz :  1030.420800   171.398728   146.954921

                             ****ORCA TERMINATED NORMALLY****
TOTAL RUN TIME: 0 days 0 hours 48 minutes 8 seconds 122 msec
