                         Program Version 4.2.0 -  RELEASE  -
|  1> # ORCA input file
|  2> # SCF done        -49.055755298350          0.000349014832
|  3> ! B3LYP/G D3BJ Opt RIJCOSX def2-SVP def2/J
|  4> * xyz 0 1
|  5>    C        2.47766        -0.92777         0.02399
|  6>    C        3.44444         0.05831        -0.00971
|  7>    C        3.11192         1.41029        -0.02422
|  8>    C        1.79095         1.80578        -0.00408
|  9>    C        0.80274         0.83100         0.03099
| 10>    C        1.14084        -0.54526         0.04440
| 11>    N       -0.01472        -1.29595         0.07827
| 12>    C       -1.09075        -0.43642         0.08748
| 13>    C       -0.62798         0.90041         0.05932
| 14>    C       -1.52711         1.95878         0.06465
| 15>    C       -2.87753         1.67963         0.09734
| 16>    C       -3.33020         0.36249         0.12406
| 17>    C       -2.45371        -0.70468         0.11961
| 18>    C       -0.12099        -2.73748         0.09695
| 19>    C        0.45328        -3.36044        -1.18442
| 20>    C       -0.25654        -2.83696        -2.42758
| 21>    C        0.49562        -3.32797         1.37383
| 22>    C       -0.20813        -2.81220         2.62371
| 23>    H        2.77978        -1.96318         0.03353
| 24>    H        4.48583        -0.22934        -0.02535
| 25>    H        3.89832         2.14988        -0.05132
| 26>    H        1.52290         2.85168        -0.01505
| 27>    H       -1.17015         2.97759         0.04346
| 28>    H       -3.59569         2.48609         0.10250
| 29>    H       -4.39309         0.17046         0.14928
| 30>    H       -2.83817        -1.71365         0.14142
| 31>    H       -1.19220        -2.96483         0.11688
| 32>    H        0.33287        -4.44389        -1.12210
| 33>    H        1.51861        -3.14655        -1.26239
| 34>    H       -1.32164        -3.05517        -2.38282
| 35>    H        0.15216        -3.30206        -3.32123
| 36>    H       -0.13161        -1.76000        -2.51485
| 37>    H        1.55424        -3.07740         1.42940
| 38>    H        0.41008        -4.41542         1.32655
| 39>    H       -0.13173        -1.72889         2.68604
| 40>    H        0.24294        -3.23895         3.51612
| 41>    H       -1.26262        -3.08059         2.60984
| 42> *
| 43>
| 44>                          ****END OF INPUT****
 Total Charge           Charge          ....    0
 Multiplicity           Mult            ....    1
 Number of Electrons    NEL             ....  128
Dispersion correction           -0.081876190
FINAL SINGLE POINT ENERGY      -713.606163496651
Dispersion correction            ... done
Dispersion correction           -0.081098204
FINAL SINGLE POINT ENERGY      -713.611244285898
Dispersion correction            ... done
Dispersion correction           -0.081092147
FINAL SINGLE POINT ENERGY      -713.611451723291
Dispersion correction            ... done
FINAL SINGLE POINT ENERGY      -713.611344177285
Dispersion correction            ... done
Dispersion correction           -0.081101226
FINAL SINGLE POINT ENERGY      -713.611302032277
Dispersion correction            ... done
Dispersion correction           -0.081100090
FINAL SINGLE POINT ENERGY      -713.611308636232
Dispersion correction            ... done
                    ***********************HURRAY********************

CARTESIAN COORDINATES (ANGSTROEM)
---------------------------------
  C      2.462827   -0.936338    0.036606
  C      3.443593    0.055604    0.012710
  C      3.110982    1.422181    0.003335
  C      1.775912    1.821305    0.017185
  C      0.772417    0.845844    0.041803
  C      1.117714   -0.538335    0.052802
  N     -0.050981   -1.295569    0.079070
  C     -1.141827   -0.428268    0.083309
  C     -0.671978    0.915175    0.060405
  C     -1.584812    1.977283    0.059143
  C     -2.949808    1.698112    0.079993
  C     -3.403944    0.366344    0.102436
  C     -2.514502   -0.708101    0.104549
  C     -0.155599   -2.753430    0.096337
  C      0.394159   -3.404513   -1.183300
  C     -0.153431   -2.811412   -2.477548
  C      0.452038   -3.380575    1.361831
  C     -0.031751   -2.758740    2.667742
  H      2.752400   -1.986618    0.042255
  H      4.495012   -0.242691   -0.000078
  H      3.905033    2.171656   -0.016440
  H      1.509487    2.881624    0.008191
  H     -1.226831    3.009815    0.041150
  H     -3.673757    2.515691    0.078903
  H     -4.478062    0.164165    0.119119
  H     -2.890940   -1.731721    0.123277
  H     -1.235908   -2.957373    0.123200
  H      0.145986   -4.478430   -1.126970
  H      1.495061   -3.346253   -1.183251
  H     -1.251916   -2.891054   -2.523855
  H      0.260219   -3.336142   -3.352151
  H      0.111355   -1.746521   -2.569746
  H      1.551989   -3.328968    1.309763
  H      0.197032   -4.454026    1.338679
  H      0.248096   -1.695496    2.729386
  H      0.413335   -3.272210    3.533442
  H     -1.127984   -2.824678    2.761217

 Multiplicity           Mult            ....    1
 Number of Electrons    NEL             ....  128
 Basis Dimension        Dim             ....  347

ORBITAL ENERGIES
----------------

  NO   OCC          E(Eh)            E(eV)
   0   2.0000     -14.367144      -390.9499
   1   2.0000     -10.233914      -278.4790
   2   2.0000     -10.222889      -278.1789
   3   2.0000     -10.222168      -278.1593
   4   2.0000     -10.192859      -277.3618
   5   2.0000     -10.192832      -277.3611
   6   2.0000     -10.189592      -277.2729
   7   2.0000     -10.189130      -277.2603
   8   2.0000     -10.188675      -277.2479
   9   2.0000     -10.188219      -277.2355
  10   2.0000     -10.187906      -277.2270
  11   2.0000     -10.187814      -277.2245
  12   2.0000     -10.184926      -277.1459
  13   2.0000     -10.183910      -277.1183
  14   2.0000     -10.181746      -277.0594
  15   2.0000     -10.181698      -277.0581
  16   2.0000     -10.181555      -277.0542
  17   2.0000     -10.180983      -277.0386
  18   2.0000      -0.978257       -26.6197
  19   2.0000      -0.848693       -23.0941
  20   2.0000      -0.836968       -22.7751
  21   2.0000      -0.805031       -21.9060
  22   2.0000      -0.763467       -20.7750
  23   2.0000      -0.754156       -20.5216
  24   2.0000      -0.742738       -20.2109
  25   2.0000      -0.720627       -19.6092
  26   2.0000      -0.708126       -19.2691
  27   2.0000      -0.678299       -18.4575
  28   2.0000      -0.635618       -17.2960
  29   2.0000      -0.608543       -16.5593
  30   2.0000      -0.600614       -16.3435
  31   2.0000      -0.598159       -16.2767
  32   2.0000      -0.573350       -15.6016
  33   2.0000      -0.558911       -15.2087
  34   2.0000      -0.522688       -14.2231
  35   2.0000      -0.508825       -13.8458
  36   2.0000      -0.496515       -13.5109
  37   2.0000      -0.474410       -12.9094
  38   2.0000      -0.465615       -12.6700
  39   2.0000      -0.453950       -12.3526
  40   2.0000      -0.443805       -12.0765
  41   2.0000      -0.443042       -12.0558
  42   2.0000      -0.432791       -11.7768
  43   2.0000      -0.426897       -11.6165
  44   2.0000      -0.424059       -11.5392
  45   2.0000      -0.413739       -11.2584
  46   2.0000      -0.411448       -11.1961
  47   2.0000      -0.406068       -11.0497
  48   2.0000      -0.396886       -10.7998
  49   2.0000      -0.369743       -10.0612
  50   2.0000      -0.366806        -9.9813
  51   2.0000      -0.363760        -9.8984
  52   2.0000      -0.355516        -9.6741
  53   2.0000      -0.353609        -9.6222
  54   2.0000      -0.346807        -9.4371
  55   2.0000      -0.345198        -9.3933
  56   2.0000      -0.342948        -9.3321
  57   2.0000      -0.336442        -9.1551
  58   2.0000      -0.327778        -8.9193
  59   2.0000      -0.314121        -8.5477
  60   2.0000      -0.282174        -7.6783
  61   2.0000      -0.255990        -6.9659
  62   2.0000      -0.216626        -5.8947
  63   2.0000      -0.203504        -5.5376
  64   0.0000      -0.034275        -0.9327
  65   0.0000      -0.001382        -0.0376
  66   0.0000       0.021547         0.5863
  67   0.0000       0.034966         0.9515
  68   0.0000       0.044160         1.2017

MULLIKEN ATOMIC CHARGES
-----------------------
   0 C :   -0.068389
   1 C :    0.015461
   2 C :    0.020818
   3 C :   -0.057915
   4 C :    0.073276
   5 C :    0.134231
   6 N :   -0.206261
   7 C :    0.124314
   8 C :    0.073112
   9 C :   -0.050993
  10 C :    0.023841
  11 C :    0.006532
  12 C :   -0.061414
  13 C :    0.049459
  14 C :    0.005758
  15 C :    0.028951
  16 C :    0.006594
  17 C :    0.029539
  18 H :   -0.041170
  19 H :   -0.023075
  20 H :   -0.021951
  21 H :   -0.033362
  22 H :   -0.036867
  23 H :   -0.022937
  24 H :   -0.018887
  25 H :   -0.044913
  26 H :   -0.007181
  27 H :    0.001312
  28 H :    0.002909
  29 H :    0.009002
  30 H :    0.008486
  31 H :    0.030448
  32 H :    0.002699
  33 H :    0.001126
  34 H :    0.030120
  35 H :    0.008513
  36 H :    0.008812
Sum of atomic charges:   -0.0000000

LOEWDIN ATOMIC CHARGES
----------------------
   0 C :   -0.061757
   1 C :   -0.024976
   2 C :   -0.048657
   3 C :   -0.017178
   4 C :   -0.041106
   5 C :    0.028115
   6 N :    0.018025
   7 C :    0.030459
   8 C :   -0.044253
   9 C :   -0.015966
  10 C :   -0.049202
  11 C :   -0.025220
  12 C :   -0.062540
  13 C :    0.038999
  14 C :   -0.037785
  15 C :   -0.055967
  16 C :   -0.037714
  17 C :   -0.055705
  18 H :    0.020554
  19 H :    0.025266
  20 H :    0.024948
  21 H :    0.025947
  22 H :    0.025164
  23 H :    0.024617
  24 H :    0.025874
  25 H :    0.020760
  26 H :    0.024933
  27 H :    0.024703
  28 H :    0.020746
  29 H :    0.022749
  30 H :    0.025370
  31 H :    0.028734
  32 H :    0.020534
  33 H :    0.024778
  34 H :    0.028664
  35 H :    0.025339
  36 H :    0.022748

  Mayer bond orders larger than 0.100000
B(  0-C ,  1-C ) :   1.3860 B(  0-C ,  5-C ) :   1.2978 B(  0-C , 18-H ) :   0.9971
B(  1-C ,  2-C ) :   1.3411 B(  1-C , 19-H ) :   0.9799 B(  2-C ,  3-C ) :   1.3941
B(  2-C , 20-H ) :   0.9807 B(  3-C ,  4-C ) :   1.3266 B(  3-C , 21-H ) :   0.9910
B(  4-C ,  5-C ) :   1.2848 B(  4-C ,  8-C ) :   1.1014 B(  5-C ,  6-N ) :   1.1040
B(  6-N ,  7-C ) :   1.1061 B(  6-N , 13-C ) :   0.9419 B(  7-C ,  8-C ) :   1.2796
B(  7-C , 12-C ) :   1.3051 B(  8-C ,  9-C ) :   1.3256 B(  9-C , 10-C ) :   1.3974
B(  9-C , 22-H ) :   0.9917 B( 10-C , 11-C ) :   1.3401 B( 10-C , 23-H ) :   0.9808
B( 11-C , 12-C ) :   1.3901 B( 11-C , 24-H ) :   0.9790 B( 12-C , 25-H ) :   0.9950
B( 13-C , 14-C ) :   1.0568 B( 13-C , 16-C ) :   1.0575 B( 13-C , 26-H ) :   0.9104
B( 14-C , 15-C ) :   1.1109 B( 14-C , 27-H ) :   0.9337 B( 14-C , 28-H ) :   0.9323
B( 15-C , 29-H ) :   0.9658 B( 15-C , 30-H ) :   0.9599 B( 15-C , 31-H ) :   0.9653
B( 16-C , 17-C ) :   1.1097 B( 16-C , 32-H ) :   0.9326 B( 16-C , 33-H ) :   0.9332
B( 17-C , 34-H ) :   0.9656 B( 17-C , 35-H ) :   0.9599 B( 17-C , 36-H ) :   0.9658

Dispersion correction           -0.081103346
FINAL SINGLE POINT ENERGY      -713.611319861601

DIPOLE MOMENT
-------------
                                X             Y             Z
Electronic contribution:     -0.27110      13.87772      -0.13834
Nuclear contribution   :      0.25602     -14.62740       0.14576
                        -----------------------------------------
Total Dipole Moment    :     -0.01508      -0.74968       0.00742
                        -----------------------------------------
Magnitude (a.u.)       :      0.74987
Magnitude (Debye)      :      1.90602

Rotational constants in cm-1:     0.016066     0.014627     0.009980
Rotational constants in MHz :   481.640501   438.506051   299.201214

                             ****ORCA TERMINATED NORMALLY****
TOTAL RUN TIME: 0 days 0 hours 27 minutes 54 seconds 623 msec
