                         Program Version 4.2.0 -  RELEASE  -
|  1> # ORCA input file
|  2> # SCF done        -40.925932670236          0.000940367452
|  3> ! B3LYP/G D3BJ Opt RIJCOSX def2-SVP def2/J
|  4> * xyz 0 1
|  5>    C       -0.56851         1.29100         0.23625
|  6>    S       -1.85216         0.17936         0.41801
|  7>    C       -0.82857        -1.17986         0.26160
|  8>    C        0.47508        -0.79503         0.07278
|  9>    C        0.62746         0.63996         0.05859
| 10>    N        1.84587         1.20681        -0.11177
| 11>    C        2.86039         0.40448        -0.26325
| 12>    C        4.20296         1.05303        -0.40453
| 13>    C        4.84322         1.26664         0.97125
| 14>    O        6.13590         1.78956         0.77157
| 15>    C        2.70607        -1.03095        -0.25859
| 16>    C        3.88300        -1.95681        -0.45996
| 17>    N        3.56331        -3.36734        -0.39687
| 18>    N        1.54819        -1.60540        -0.09371
| 19>    H       -0.75033         2.34546         0.26833
| 20>    H       -1.22850        -2.17163         0.31390
| 21>    H        4.07693         2.02984        -0.87192
| 22>    H        4.87913         0.45267        -1.01159
| 23>    H        4.89524         0.31115         1.51597
| 24>    H        4.22187         1.96049         1.55349
| 25>    H        6.53746         1.98113         1.62501
| 26>    H        4.64521        -1.74443         0.29788
| 27>    H        4.32894        -1.75361        -1.44115
| 28>    H        3.14990        -3.57983         0.50570
| 29>    H        2.85416        -3.58228        -1.09071
| 30> *
| 31>
| 32>                          ****END OF INPUT****
 Total Charge           Charge          ....    0
 Multiplicity           Mult            ....    1
 Number of Electrons    NEL             ....  110
Dispersion correction           -0.051324046
FINAL SINGLE POINT ENERGY      -986.725078240983
Dispersion correction            ... done
Dispersion correction           -0.051153966
FINAL SINGLE POINT ENERGY      -986.727957928687
Dispersion correction            ... done
Dispersion correction           -0.051138432
FINAL SINGLE POINT ENERGY      -986.728176021513
Dispersion correction            ... done
FINAL SINGLE POINT ENERGY      -986.728126586356
FINAL SINGLE POINT ENERGY      -986.728195251408
FINAL SINGLE POINT ENERGY      -986.728202948689
FINAL SINGLE POINT ENERGY      -986.728194191806
FINAL SINGLE POINT ENERGY      -986.728179613534
Dispersion correction            ... done
Dispersion correction           -0.051144544
FINAL SINGLE POINT ENERGY      -986.728173418607
Dispersion correction            ... done
Dispersion correction           -0.051143406
FINAL SINGLE POINT ENERGY      -986.728167829482
Dispersion correction            ... done
                    ***********************HURRAY********************

CARTESIAN COORDINATES (ANGSTROEM)
---------------------------------
  C     -0.623599    1.302169    0.224086
  S     -1.904377    0.174177    0.397338
  C     -0.876759   -1.195023    0.257390
  C      0.441311   -0.797735    0.081821
  C      0.589265    0.644651    0.061479
  N      1.815173    1.222146   -0.103940
  C      2.840193    0.418945   -0.241634
  C      4.202182    1.051726   -0.385339
  C      4.894733    1.262134    0.960948
  O      6.184292    1.778657    0.707187
  C      2.687803   -1.038107   -0.225892
  C      3.892808   -1.952961   -0.406512
  N      3.607575   -3.371223   -0.406393
  N      1.525073   -1.613261   -0.066851
  H     -0.805864    2.374212    0.245777
  H     -1.265295   -2.209980    0.305385
  H      4.080781    2.030525   -0.869963
  H      4.866934    0.443813   -1.015628
  H      4.942031    0.299867    1.512078
  H      4.276813    1.950795    1.570305
  H      6.616958    1.949668    1.552688
  H      4.631437   -1.725059    0.383700
  H      4.404141   -1.684570   -1.348606
  H      3.079281   -3.598686    0.437328
  H      2.949329   -3.572472   -1.160472

 Multiplicity           Mult            ....    1
 Number of Electrons    NEL             ....  110
 Basis Dimension        Dim             ....  255

ORBITAL ENERGIES
----------------

  NO   OCC          E(Eh)            E(eV)
   0   2.0000     -88.897206     -2419.0159
   1   2.0000     -19.133543      -520.6502
   2   2.0000     -14.337337      -390.1388
   3   2.0000     -14.337142      -390.1335
   4   2.0000     -14.301166      -389.1545
   5   2.0000     -10.241700      -278.6908
   6   2.0000     -10.240693      -278.6634
   7   2.0000     -10.237849      -278.5860
   8   2.0000     -10.229535      -278.3598
   9   2.0000     -10.229157      -278.3495
  10   2.0000     -10.220592      -278.1165
  11   2.0000     -10.219977      -278.0997
  12   2.0000     -10.218791      -278.0674
  13   2.0000     -10.191603      -277.3276
  14   2.0000      -7.991671      -217.4644
  15   2.0000      -5.959313      -162.1611
  16   2.0000      -5.955263      -162.0509
  17   2.0000      -5.954079      -162.0187
  18   2.0000      -1.012158       -27.5422
  19   2.0000      -0.977845       -26.6085
  20   2.0000      -0.911276       -24.7971
  21   2.0000      -0.887120       -24.1398
  22   2.0000      -0.866734       -23.5850
  23   2.0000      -0.789016       -21.4702
  24   2.0000      -0.741899       -20.1881
  25   2.0000      -0.723548       -19.6888
  26   2.0000      -0.689585       -18.7646
  27   2.0000      -0.645140       -17.5551
  28   2.0000      -0.607176       -16.5221
  29   2.0000      -0.590947       -16.0805
  30   2.0000      -0.577679       -15.7195
  31   2.0000      -0.550926       -14.9915
  32   2.0000      -0.526194       -14.3185
  33   2.0000      -0.495071       -13.4716
  34   2.0000      -0.485108       -13.2005
  35   2.0000      -0.471222       -12.8226
  36   2.0000      -0.466408       -12.6916
  37   2.0000      -0.446390       -12.1469
  38   2.0000      -0.433480       -11.7956
  39   2.0000      -0.421485       -11.4692
  40   2.0000      -0.420172       -11.4335
  41   2.0000      -0.415468       -11.3055
  42   2.0000      -0.390083       -10.6147
  43   2.0000      -0.386838       -10.5264
  44   2.0000      -0.371320       -10.1041
  45   2.0000      -0.363867        -9.9013
  46   2.0000      -0.356498        -9.7008
  47   2.0000      -0.344215        -9.3666
  48   2.0000      -0.333650        -9.0791
  49   2.0000      -0.310451        -8.4478
  50   2.0000      -0.276021        -7.5109
  51   2.0000      -0.258227        -7.0267
  52   2.0000      -0.250814        -6.8250
  53   2.0000      -0.238386        -6.4868
  54   2.0000      -0.231967        -6.3121
  55   0.0000      -0.082582        -2.2472
  56   0.0000      -0.000470        -0.0128
  57   0.0000       0.002866         0.0780
  58   0.0000       0.043705         1.1893
  59   0.0000       0.045925         1.2497

MULLIKEN ATOMIC CHARGES
-----------------------
   0 C :   -0.149442
   1 S :    0.145092
   2 C :   -0.148002
   3 C :    0.064625
   4 C :    0.068162
   5 N :   -0.028730
   6 C :   -0.153105
   7 C :    0.134414
   8 C :    0.176237
   9 O :   -0.299962
  10 C :   -0.156884
  11 C :    0.156164
  12 N :   -0.175831
  13 N :   -0.043960
  14 H :    0.021616
  15 H :    0.015883
  16 H :    0.012578
  17 H :    0.004102
  18 H :   -0.016032
  19 H :   -0.000735
  20 H :    0.164950
  21 H :    0.014710
  22 H :    0.021910
  23 H :    0.086244
  24 H :    0.085994
Sum of atomic charges:   -0.0000000

LOEWDIN ATOMIC CHARGES
----------------------
   0 C :   -0.206645
   1 S :    0.494841
   2 C :   -0.208907
   3 C :   -0.053569
   4 C :   -0.054123
   5 N :   -0.055832
   6 C :   -0.001411
   7 C :   -0.039011
   8 C :    0.078775
   9 O :   -0.144351
  10 C :   -0.019602
  11 C :    0.004232
  12 N :   -0.099756
  13 N :   -0.069396
  14 H :    0.030227
  15 H :    0.028656
  16 H :    0.037688
  17 H :    0.028331
  18 H :   -0.002974
  19 H :    0.006135
  20 H :    0.079233
  21 H :    0.028981
  22 H :    0.031637
  23 H :    0.052785
  24 H :    0.054057

  Mayer bond orders larger than 0.100000
B(  0-C ,  1-S ) :   1.2083 B(  0-C ,  2-C ) :   0.1256 B(  0-C ,  4-C ) :   1.3839
B(  0-C , 14-H ) :   0.9690 B(  1-S ,  2-C ) :   1.2019 B(  2-C ,  3-C ) :   1.3891
B(  2-C , 15-H ) :   0.9705 B(  3-C ,  4-C ) :   1.1899 B(  3-C , 13-N ) :   1.3256
B(  4-C ,  5-N ) :   1.3305 B(  5-N ,  6-C ) :   1.7291 B(  6-C ,  7-C ) :   1.0511
B(  6-C , 10-C ) :   1.0832 B(  7-C ,  8-C ) :   1.0863 B(  7-C , 16-H ) :   0.9028
B(  7-C , 17-H ) :   0.9021 B(  8-C ,  9-O ) :   1.0848 B(  8-C , 18-H ) :   0.9394
B(  8-C , 19-H ) :   0.9350 B(  9-O , 20-H ) :   0.9749 B( 10-C , 11-C ) :   0.9756
B( 10-C , 13-N ) :   1.7555 B( 11-C , 12-N ) :   1.1697 B( 11-C , 21-H ) :   0.9160
B( 11-C , 22-H ) :   0.9234 B( 12-N , 23-H ) :   0.9700 B( 12-N , 24-H ) :   0.9724

Dispersion correction           -0.051142947
FINAL SINGLE POINT ENERGY      -986.728169043268

DIPOLE MOMENT
-------------
                                X             Y             Z
Electronic contribution:    -16.80364       2.40697       0.15533
Nuclear contribution   :     16.38588      -2.22340       0.44749
                        -----------------------------------------
Total Dipole Moment    :     -0.41776       0.18358       0.60282
                        -----------------------------------------
Magnitude (a.u.)       :      0.75605
Magnitude (Debye)      :      1.92174

Rotational constants in cm-1:     0.033522     0.012281     0.009298
Rotational constants in MHz :  1004.974774   368.177194   278.732298

                             ****ORCA TERMINATED NORMALLY****
TOTAL RUN TIME: 0 days 0 hours 17 minutes 32 seconds 675 msec
