                         Program Version 4.2.0 -  RELEASE  -
|  1> # ORCA input file
|  2> # SCF done        -25.121223230711          0.000756267396
|  3> ! B3LYP/G D3BJ Opt RIJCOSX def2-SVP def2/J
|  4> * xyz 0 1
|  5>    C       -1.48804         0.17744         0.16500
|  6>    S       -0.34931         1.22702        -0.58706
|  7>    C        0.82297        -0.03283        -0.69504
|  8>    C        0.35024        -1.19512        -0.17671
|  9>    C       -0.98847        -1.07449         0.32294
| 10>    O       -1.65384        -2.11353         0.88450
| 11>    O        0.96148        -2.41322        -0.07358
| 12>    C        2.27324        -2.49850        -0.57373
| 13>    H       -2.45472         0.53834         0.44647
| 14>    H        1.77596         0.17794        -1.13394
| 15>    H       -1.06267        -2.87821         0.87046
| 16>    H        2.59197        -3.52553        -0.40981
| 17>    H        2.94316        -1.81702        -0.04075
| 18>    H        2.30352        -2.26983        -1.64326
| 19> *
| 20>
| 21>                          ****END OF INPUT****
 Total Charge           Charge          ....    0
 Multiplicity           Mult            ....    1
 Number of Electrons    NEL             ....   68
Dispersion correction           -0.024137087
FINAL SINGLE POINT ENERGY      -742.405873001640
Dispersion correction            ... done
Dispersion correction           -0.024102265
FINAL SINGLE POINT ENERGY      -742.407331271555
Dispersion correction            ... done
Dispersion correction           -0.024105770
FINAL SINGLE POINT ENERGY      -742.407433801828
Dispersion correction            ... done
FINAL SINGLE POINT ENERGY      -742.407439223633
Dispersion correction            ... done
Dispersion correction           -0.024112587
FINAL SINGLE POINT ENERGY      -742.407433341943
Dispersion correction            ... done
Dispersion correction           -0.024113093
FINAL SINGLE POINT ENERGY      -742.407431414629
Dispersion correction            ... done
                    ***********************HURRAY********************

CARTESIAN COORDINATES (ANGSTROEM)
---------------------------------
  C     -1.509047    0.185263    0.167856
  S     -0.361101    1.253731   -0.582580
  C      0.833176   -0.004843   -0.696456
  C      0.352950   -1.179164   -0.175634
  C     -0.993853   -1.073722    0.324485
  O     -1.631235   -2.127947    0.882781
  O      0.950804   -2.392939   -0.065987
  C      2.264155   -2.516709   -0.566471
  H     -2.492116    0.535991    0.471484
  H      1.802912    0.194647   -1.143717
  H     -1.029253   -2.886147    0.823333
  H      2.590277   -3.546173   -0.367769
  H      2.950564   -1.814483   -0.061239
  H      2.297257   -2.325044   -1.654597

 Multiplicity           Mult            ....    1
 Number of Electrons    NEL             ....   68
 Basis Dimension        Dim             ....  146

ORBITAL ENERGIES
----------------

  NO   OCC          E(Eh)            E(eV)
   0   2.0000     -88.865224     -2418.1457
   1   2.0000     -19.180671      -521.9326
   2   2.0000     -19.159118      -521.3461
   3   2.0000     -10.257019      -279.1077
   4   2.0000     -10.248065      -278.8640
   5   2.0000     -10.242919      -278.7240
   6   2.0000     -10.205348      -277.7016
   7   2.0000     -10.196774      -277.4683
   8   2.0000      -7.959759      -216.5961
   9   2.0000      -5.928175      -161.3138
  10   2.0000      -5.924301      -161.2084
  11   2.0000      -5.920410      -161.1025
  12   2.0000      -1.076742       -29.2996
  13   2.0000      -1.042430       -28.3660
  14   2.0000      -0.867165       -23.5968
  15   2.0000      -0.749145       -20.3853
  16   2.0000      -0.714543       -19.4437
  17   2.0000      -0.685447       -18.6520
  18   2.0000      -0.586585       -15.9618
  19   2.0000      -0.566572       -15.4172
  20   2.0000      -0.552030       -15.0215
  21   2.0000      -0.494162       -13.4468
  22   2.0000      -0.484145       -13.1743
  23   2.0000      -0.461938       -12.5700
  24   2.0000      -0.441443       -12.0123
  25   2.0000      -0.415858       -11.3161
  26   2.0000      -0.396577       -10.7914
  27   2.0000      -0.370841       -10.0911
  28   2.0000      -0.362528        -9.8649
  29   2.0000      -0.352969        -9.6048
  30   2.0000      -0.340463        -9.2645
  31   2.0000      -0.328585        -8.9413
  32   2.0000      -0.224663        -6.1134
  33   2.0000      -0.210798        -5.7361
  34   0.0000      -0.002253        -0.0613
  35   0.0000       0.045939         1.2501
  36   0.0000       0.054788         1.4909
  37   0.0000       0.062584         1.7030
  38   0.0000       0.087878         2.3913

MULLIKEN ATOMIC CHARGES
-----------------------
   0 C :   -0.177467
   1 S :    0.086527
   2 C :   -0.204120
   3 C :    0.182041
   4 C :    0.166627
   5 O :   -0.186584
   6 O :   -0.343281
   7 C :    0.189237
   8 H :    0.015863
   9 H :    0.014174
  10 H :    0.178451
  11 H :    0.032509
  12 H :    0.021853
  13 H :    0.024173
Sum of atomic charges:   -0.0000000

LOEWDIN ATOMIC CHARGES
----------------------
   0 C :   -0.233809
   1 S :    0.406969
   2 C :   -0.253619
   3 C :   -0.023865
   4 C :   -0.007679
   5 O :   -0.054380
   6 O :   -0.113954
   7 C :    0.085567
   8 H :    0.026349
   9 H :    0.021121
  10 H :    0.089843
  11 H :    0.026384
  12 H :    0.015251
  13 H :    0.015824

  Mayer bond orders larger than 0.100000
B(  0-C ,  1-S ) :   1.1251 B(  0-C ,  4-C ) :   1.5432 B(  0-C ,  8-H ) :   0.9676
B(  1-S ,  2-C ) :   1.1195 B(  2-C ,  3-C ) :   1.4901 B(  2-C ,  9-H ) :   0.9712
B(  3-C ,  4-C ) :   1.1966 B(  3-C ,  6-O ) :   1.1088 B(  4-C ,  5-O ) :   1.2354
B(  5-O , 10-H ) :   0.9505 B(  6-O ,  7-C ) :   0.9574 B(  7-C , 11-H ) :   0.9795
B(  7-C , 12-H ) :   0.9654 B(  7-C , 13-H ) :   0.9672

Dispersion correction           -0.024112563
FINAL SINGLE POINT ENERGY      -742.407431970143

DIPOLE MOMENT
-------------
                                X             Y             Z
Electronic contribution:     -4.96827       4.62489       0.69818
Nuclear contribution   :      5.95430      -5.13293      -0.96565
                        -----------------------------------------
Total Dipole Moment    :      0.98603      -0.50805      -0.26747
                        -----------------------------------------
Magnitude (a.u.)       :      1.14101
Magnitude (Debye)      :      2.90022

Rotational constants in cm-1:     0.089328     0.050687     0.032541
Rotational constants in MHz :  2677.987630  1519.558114   975.559694

                             ****ORCA TERMINATED NORMALLY****
TOTAL RUN TIME: 0 days 0 hours 3 minutes 11 seconds 413 msec
