                         Program Version 4.2.0 -  RELEASE  -
|  1> # ORCA input file
|  2> # SCF done        -39.464471229599          0.000871655886
|  3> ! B3LYP/G D3BJ Opt RIJCOSX def2-SVP def2/J
|  4> * xyz 0 1
|  5>    C        0.18322         0.97758        -0.20404
|  6>    S        1.78268         0.38817        -0.24231
|  7>    C        1.24953        -1.26753        -0.12084
|  8>    C       -0.12345        -1.32006        -0.05746
|  9>    C       -0.73564        -0.03033        -0.10397
| 10>    C       -2.12731         0.19285        -0.04875
| 11>    N       -3.25380         0.39224         0.00037
| 12>    C       -1.00552        -2.52349         0.05440
| 13>    F       -0.35905        -3.69673         0.05354
| 14>    F       -1.72945        -2.50032         1.18755
| 15>    F       -1.88539        -2.58564        -0.95981
| 16>    C        2.21737        -2.33640        -0.09728
| 17>    C        3.53070        -2.14303        -0.17318
| 18>    H       -0.01281         2.03020        -0.25543
| 19>    H        1.82345        -3.33778        -0.01125
| 20>    H        3.95861        -1.15716        -0.26095
| 21>    H        4.21795        -2.96934        -0.15128
| 22> *
| 23>
| 24>                          ****END OF INPUT****
 Total Charge           Charge          ....    0
 Multiplicity           Mult            ....    1
 Number of Electrons    NEL             ....  102
Dispersion correction           -0.037061833
FINAL SINGLE POINT ENERGY     -1059.118119206927
Dispersion correction            ... done
Dispersion correction           -0.036818153
FINAL SINGLE POINT ENERGY     -1059.121141290367
Dispersion correction            ... done
Dispersion correction           -0.036741470
FINAL SINGLE POINT ENERGY     -1059.121354543420
Dispersion correction            ... done
FINAL SINGLE POINT ENERGY     -1059.121378991629
FINAL SINGLE POINT ENERGY     -1059.121341986044
FINAL SINGLE POINT ENERGY     -1059.121337917643
Dispersion correction            ... done
Dispersion correction           -0.036741604
FINAL SINGLE POINT ENERGY     -1059.121350943887
Dispersion correction            ... done
Dispersion correction           -0.036741792
FINAL SINGLE POINT ENERGY     -1059.121349463865
Dispersion correction            ... done
                    ***********************HURRAY********************

CARTESIAN COORDINATES (ANGSTROEM)
---------------------------------
  C      0.159658    1.000379   -0.200877
  S      1.767900    0.407576   -0.262202
  C      1.241160   -1.260006   -0.143244
  C     -0.140227   -1.319412   -0.059505
  C     -0.762168   -0.017930   -0.099562
  C     -2.168443    0.231689   -0.055462
  N     -3.304849    0.464180   -0.018426
  C     -0.996242   -2.551004    0.084410
  F     -0.286365   -3.691883    0.145365
  F     -1.735254   -2.484106    1.204688
  F     -1.847754   -2.662275   -0.947659
  C      2.227177   -2.335655   -0.154964
  C      3.558304   -2.171071   -0.155035
  H     -0.052463    2.067243   -0.249141
  H      1.815642   -3.343722   -0.171181
  H      4.031624   -1.184604   -0.131969
  H      4.223390   -3.036169   -0.175927

 Multiplicity           Mult            ....    1
 Number of Electrons    NEL             ....  102
 Basis Dimension        Dim             ....  206

ORBITAL ENERGIES
----------------

  NO   OCC          E(Eh)            E(eV)
   0   2.0000     -88.915189     -2419.5053
   1   2.0000     -24.737190      -673.1332
   2   2.0000     -24.727727      -672.8757
   3   2.0000     -24.727375      -672.8661
   4   2.0000     -14.338383      -390.1672
   5   2.0000     -10.453631      -284.4578
   6   2.0000     -10.265971      -279.3513
   7   2.0000     -10.260893      -279.2131
   8   2.0000     -10.260313      -279.1973
   9   2.0000     -10.247765      -278.8559
  10   2.0000     -10.239571      -278.6329
  11   2.0000     -10.229356      -278.3549
  12   2.0000     -10.220120      -278.1036
  13   2.0000      -8.010563      -217.9785
  14   2.0000      -5.978566      -162.6851
  15   2.0000      -5.974475      -162.5737
  16   2.0000      -5.971903      -162.5037
  17   2.0000      -1.311561       -35.6894
  18   2.0000      -1.221273       -33.2325
  19   2.0000      -1.215022       -33.0624
  20   2.0000      -0.933575       -25.4039
  21   2.0000      -0.903505       -24.5856
  22   2.0000      -0.822354       -22.3774
  23   2.0000      -0.807329       -21.9685
  24   2.0000      -0.762293       -20.7431
  25   2.0000      -0.708009       -19.2659
  26   2.0000      -0.646123       -17.5819
  27   2.0000      -0.640772       -17.4363
  28   2.0000      -0.623917       -16.9776
  29   2.0000      -0.605492       -16.4763
  30   2.0000      -0.603106       -16.4114
  31   2.0000      -0.550516       -14.9803
  32   2.0000      -0.523809       -14.2536
  33   2.0000      -0.500446       -13.6178
  34   2.0000      -0.483216       -13.1490
  35   2.0000      -0.478416       -13.0184
  36   2.0000      -0.461399       -12.5553
  37   2.0000      -0.452707       -12.3188
  38   2.0000      -0.442774       -12.0485
  39   2.0000      -0.437500       -11.9050
  40   2.0000      -0.429250       -11.6805
  41   2.0000      -0.423586       -11.5264
  42   2.0000      -0.420546       -11.4436
  43   2.0000      -0.403707       -10.9854
  44   2.0000      -0.376702       -10.2506
  45   2.0000      -0.373489       -10.1631
  46   2.0000      -0.366853        -9.9826
  47   2.0000      -0.346623        -9.4321
  48   2.0000      -0.331751        -9.0274
  49   2.0000      -0.292735        -7.9657
  50   2.0000      -0.257958        -7.0194
  51   0.0000      -0.086570        -2.3557
  52   0.0000      -0.048507        -1.3199
  53   0.0000      -0.010763        -0.2929
  54   0.0000       0.030865         0.8399
  55   0.0000       0.036584         0.9955

MULLIKEN ATOMIC CHARGES
-----------------------
   0 C :   -0.053909
   1 S :    0.146368
   2 C :   -0.159717
   3 C :   -0.002259
   4 C :   -0.108076
   5 C :   -0.131505
   6 N :    0.099444
   7 C :    0.560885
   8 F :   -0.162045
   9 F :   -0.161229
  10 F :   -0.160393
  11 C :    0.012956
  12 C :   -0.024990
  13 H :    0.050167
  14 H :    0.018796
  15 H :    0.033272
  16 H :    0.042238
Sum of atomic charges:    0.0000000

LOEWDIN ATOMIC CHARGES
----------------------
   0 C :   -0.142486
   1 S :    0.478716
   2 C :   -0.145760
   3 C :   -0.099040
   4 C :   -0.090856
   5 C :   -0.035299
   6 N :   -0.047270
   7 C :    0.178260
   8 F :   -0.052262
   9 F :   -0.054296
  10 F :   -0.053609
  11 C :   -0.043555
  12 C :   -0.028575
  13 H :    0.042103
  14 H :    0.037027
  15 H :    0.021293
  16 H :    0.035612

  Mayer bond orders larger than 0.100000
B(  0-C ,  1-S ) :   1.1748 B(  0-C ,  4-C ) :   1.5494 B(  0-C , 13-H ) :   0.9699
B(  1-S ,  2-C ) :   1.1378 B(  2-C ,  3-C ) :   1.5223 B(  2-C , 11-C ) :   1.1223
B(  3-C ,  4-C ) :   1.2448 B(  3-C ,  7-C ) :   0.9492 B(  4-C ,  5-C ) :   1.1135
B(  5-C ,  6-N ) :   3.0033 B(  7-C ,  8-F ) :   1.1232 B(  7-C ,  9-F ) :   1.1561
B(  7-C , 10-F ) :   1.1552 B( 11-C , 12-C ) :   1.9017 B( 11-C , 14-H ) :   0.9544
B( 12-C , 15-H ) :   0.9523 B( 12-C , 16-H ) :   0.9454

Dispersion correction           -0.036742325
FINAL SINGLE POINT ENERGY     -1059.121350440446

DIPOLE MOMENT
-------------
                                X             Y             Z
Electronic contribution:    -10.83425      -3.93928       0.86146
Nuclear contribution   :     12.98728       4.21441      -0.99632
                        -----------------------------------------
Total Dipole Moment    :      2.15304       0.27513      -0.13486
                        -----------------------------------------
Magnitude (a.u.)       :      2.17473
Magnitude (Debye)      :      5.52773

Rotational constants in cm-1:     0.032151     0.022002     0.014031
Rotational constants in MHz :   963.863320   659.594544   420.638827

                             ****ORCA TERMINATED NORMALLY****
TOTAL RUN TIME: 0 days 0 hours 9 minutes 3 seconds 199 msec
