                         Program Version 4.2.0 -  RELEASE  -
|  1> # ORCA input file
|  2> # SCF done        -45.615715455260          0.000520042166
|  3> ! B3LYP/G D3BJ Opt RIJCOSX def2-SVP def2/J
|  4> * xyz 0 1
|  5>    C        2.50697         1.55505        -0.15477
|  6>    C        1.29595         0.82769        -0.01682
|  7>    C        0.03053         1.43301        -0.08266
|  8>    C       -0.09565         2.89059        -0.23643
|  9>    C        0.39180         3.77628         0.61798
| 10>    C       -1.13666         0.65246        -0.00371
| 11>    C       -1.04374        -0.76839         0.14222
| 12>    C        0.21724        -1.34532         0.25282
| 13>    C        1.38083        -0.58624         0.17181
| 14>    C        2.65975        -1.19241         0.26804
| 15>    C        3.79672        -0.45387         0.15847
| 16>    C        3.71612         0.93538        -0.06815
| 17>    C       -2.24772        -1.54309         0.21323
| 18>    C       -3.46162        -0.90573         0.17903
| 19>    C       -3.54980         0.49148         0.07039
| 20>    C       -2.42275         1.25029        -0.02232
| 21>    C       -2.19155        -3.00244         0.29160
| 22>    C       -3.02587        -3.74615         1.00522
| 23>    H        2.45471         2.61696        -0.34127
| 24>    H       -0.64040         3.22558        -1.11169
| 25>    H        0.91475         3.47132         1.50945
| 26>    H        0.27532         4.83669         0.46902
| 27>    H        0.31315        -2.40814         0.41660
| 28>    H        2.70801        -2.26109         0.42363
| 29>    H        4.76706        -0.92304         0.23078
| 30>    H        4.62776         1.50468        -0.17782
| 31>    H       -4.37034        -1.48832         0.21393
| 32>    H       -4.52436         0.95755         0.05326
| 33>    H       -2.49738         2.32425        -0.10020
| 34>    H       -1.41590        -3.48301        -0.29068
| 35>    H       -3.79444        -3.30889         1.62078
| 36>    H       -2.96135        -4.82085         1.01543
| 37> *
| 38>
| 39>                          ****END OF INPUT****
 Total Charge           Charge          ....    0
 Multiplicity           Mult            ....    1
 Number of Electrons    NEL             ....  122
Dispersion correction           -0.076261446
FINAL SINGLE POINT ENERGY      -693.893734864616
Dispersion correction            ... done
Dispersion correction           -0.075578964
FINAL SINGLE POINT ENERGY      -693.898713223120
Dispersion correction            ... done
Dispersion correction           -0.075503580
FINAL SINGLE POINT ENERGY      -693.898801393237
Dispersion correction            ... done
FINAL SINGLE POINT ENERGY      -693.898815680525
FINAL SINGLE POINT ENERGY      -693.898818353694
Dispersion correction            ... done
Dispersion correction           -0.075479362
FINAL SINGLE POINT ENERGY      -693.898832987574
Dispersion correction            ... done
Dispersion correction           -0.075482496
FINAL SINGLE POINT ENERGY      -693.898843529395
Dispersion correction            ... done
                    ***********************HURRAY********************

CARTESIAN COORDINATES (ANGSTROEM)
---------------------------------
  C      2.542477    1.563476   -0.081460
  C      1.309481    0.837202   -0.000330
  C      0.033946    1.453421   -0.069377
  C     -0.110992    2.917948   -0.237092
  C      0.401913    3.859667    0.563282
  C     -1.143758    0.663426   -0.003987
  C     -1.054367   -0.774660    0.115618
  C      0.214268   -1.360957    0.190692
  C      1.387694   -0.599391    0.138029
  C      2.671860   -1.224796    0.217080
  C      3.825581   -0.487771    0.156406
  C      3.755279    0.926118   -0.001940
  C     -2.268390   -1.559538    0.195302
  C     -3.489196   -0.913685    0.168696
  C     -3.576145    0.498646    0.077049
  C     -2.440975    1.264741   -0.007898
  C     -2.201379   -3.027697    0.307143
  C     -3.032184   -3.784403    1.037612
  H      2.505847    2.642578   -0.222335
  H     -0.721106    3.241198   -1.090076
  H      0.984726    3.601685    1.452373
  H      0.235314    4.921192    0.358541
  H      0.309512   -2.440410    0.316527
  H      2.710739   -2.311542    0.330572
  H      4.798569   -0.980615    0.220738
  H      4.677926    1.507129   -0.071475
  H     -4.405789   -1.506011    0.199788
  H     -4.558438    0.977191    0.068734
  H     -2.524210    2.350621   -0.065242
  H     -1.404294   -3.527419   -0.253530
  H     -3.819798   -3.341521    1.654200
  H     -2.936970   -4.873543    1.053528

 Multiplicity           Mult            ....    1
 Number of Electrons    NEL             ....  122
 Basis Dimension        Dim             ....  322

ORBITAL ENERGIES
----------------

  NO   OCC          E(Eh)            E(eV)
   0   2.0000     -10.202986      -277.6374
   1   2.0000     -10.201802      -277.6051
   2   2.0000     -10.201170      -277.5880
   3   2.0000     -10.200870      -277.5798
   4   2.0000     -10.200295      -277.5641
   5   2.0000     -10.199685      -277.5475
   6   2.0000     -10.199012      -277.5292
   7   2.0000     -10.197087      -277.4768
   8   2.0000     -10.193553      -277.3807
   9   2.0000     -10.193120      -277.3689
  10   2.0000     -10.192637      -277.3557
  11   2.0000     -10.192562      -277.3537
  12   2.0000     -10.192402      -277.3494
  13   2.0000     -10.192225      -277.3446
  14   2.0000     -10.192018      -277.3389
  15   2.0000     -10.191715      -277.3307
  16   2.0000     -10.190560      -277.2992
  17   2.0000     -10.189623      -277.2737
  18   2.0000      -0.879866       -23.9424
  19   2.0000      -0.848119       -23.0785
  20   2.0000      -0.813121       -22.1261
  21   2.0000      -0.792247       -21.5581
  22   2.0000      -0.779938       -21.2232
  23   2.0000      -0.745138       -20.2762
  24   2.0000      -0.734289       -19.9810
  25   2.0000      -0.728949       -19.8357
  26   2.0000      -0.693665       -18.8756
  27   2.0000      -0.644558       -17.5393
  28   2.0000      -0.621008       -16.8985
  29   2.0000      -0.617456       -16.8018
  30   2.0000      -0.595681       -16.2093
  31   2.0000      -0.563936       -15.3455
  32   2.0000      -0.551039       -14.9945
  33   2.0000      -0.532999       -14.5036
  34   2.0000      -0.515353       -14.0235
  35   2.0000      -0.506546       -13.7838
  36   2.0000      -0.474939       -12.9237
  37   2.0000      -0.465507       -12.6671
  38   2.0000      -0.464242       -12.6327
  39   2.0000      -0.460093       -12.5198
  40   2.0000      -0.446342       -12.1456
  41   2.0000      -0.436069       -11.8660
  42   2.0000      -0.428524       -11.6607
  43   2.0000      -0.420933       -11.4542
  44   2.0000      -0.411376       -11.1941
  45   2.0000      -0.401431       -10.9235
  46   2.0000      -0.395876       -10.7723
  47   2.0000      -0.384235       -10.4556
  48   2.0000      -0.379803       -10.3350
  49   2.0000      -0.368118       -10.0170
  50   2.0000      -0.366193        -9.9646
  51   2.0000      -0.348952        -9.4955
  52   2.0000      -0.341490        -9.2924
  53   2.0000      -0.323137        -8.7930
  54   2.0000      -0.316747        -8.6191
  55   2.0000      -0.307365        -8.3638
  56   2.0000      -0.287730        -7.8295
  57   2.0000      -0.270858        -7.3704
  58   2.0000      -0.247837        -6.7440
  59   2.0000      -0.245771        -6.6878
  60   2.0000      -0.196604        -5.3499
  61   0.0000      -0.076261        -2.0752
  62   0.0000      -0.024582        -0.6689
  63   0.0000      -0.022480        -0.6117
  64   0.0000      -0.009428        -0.2565
  65   0.0000       0.020707         0.5635

MULLIKEN ATOMIC CHARGES
-----------------------
   0 C :   -0.032681
   1 C :    0.063987
   2 C :    0.007967
   3 C :   -0.082103
   4 C :   -0.013195
   5 C :    0.055420
   6 C :    0.112313
   7 C :   -0.131353
   8 C :    0.107902
   9 C :   -0.029173
  10 C :    0.032145
  11 C :    0.029905
  12 C :    0.068331
  13 C :   -0.050214
  14 C :    0.039382
  15 C :   -0.040078
  16 C :   -0.030547
  17 C :   -0.030169
  18 H :   -0.024457
  19 H :    0.019254
  20 H :    0.029744
  21 H :    0.024678
  22 H :   -0.044248
  23 H :   -0.026511
  24 H :   -0.020944
  25 H :   -0.020980
  26 H :   -0.026145
  27 H :   -0.023436
  28 H :   -0.021766
  29 H :    0.008899
  30 H :    0.021772
  31 H :    0.026302
Sum of atomic charges:   -0.0000000

LOEWDIN ATOMIC CHARGES
----------------------
   0 C :   -0.016861
   1 C :   -0.010552
   2 C :   -0.014609
   3 C :   -0.018179
   4 C :   -0.042695
   5 C :   -0.012700
   6 C :   -0.011406
   7 C :   -0.014380
   8 C :   -0.013663
   9 C :   -0.016629
  10 C :   -0.027793
  11 C :   -0.027850
  12 C :   -0.016936
  13 C :   -0.019249
  14 C :   -0.024771
  15 C :   -0.018758
  16 C :   -0.020238
  17 C :   -0.044510
  18 H :    0.027168
  19 H :    0.030881
  20 H :    0.025677
  21 H :    0.025887
  22 H :    0.024088
  23 H :    0.026639
  24 H :    0.026665
  25 H :    0.026668
  26 H :    0.026294
  27 H :    0.027402
  28 H :    0.027616
  29 H :    0.028270
  30 H :    0.022658
  31 H :    0.025866

  Mayer bond orders larger than 0.100000
B(  0-C ,  1-C ) :   1.2123 B(  0-C , 11-C ) :   1.5243 B(  0-C , 18-H ) :   0.9751
B(  1-C ,  2-C ) :   1.3259 B(  1-C ,  8-C ) :   1.1791 B(  2-C ,  3-C ) :   1.0242
B(  2-C ,  5-C ) :   1.3202 B(  3-C ,  4-C ) :   1.9673 B(  3-C , 19-H ) :   0.9344
B(  4-C , 20-H ) :   0.9557 B(  4-C , 21-H ) :   0.9465 B(  5-C ,  6-C ) :   1.1747
B(  5-C , 15-C ) :   1.2183 B(  6-C ,  7-C ) :   1.3057 B(  6-C , 12-C ) :   1.1700
B(  7-C ,  8-C ) :   1.3026 B(  7-C , 22-H ) :   0.9871 B(  8-C ,  9-C ) :   1.1924
B(  9-C , 10-C ) :   1.5186 B(  9-C , 23-H ) :   0.9890 B( 10-C , 11-C ) :   1.2031
B( 10-C , 24-H ) :   0.9836 B( 11-C , 25-H ) :   0.9801 B( 12-C , 13-C ) :   1.4996
B( 12-C , 16-C ) :   1.0504 B( 13-C , 14-C ) :   1.2079 B( 13-C , 26-H ) :   0.9866
B( 14-C , 15-C ) :   1.4972 B( 14-C , 27-H ) :   0.9798 B( 15-C , 28-H ) :   0.9735
B( 16-C , 17-C ) :   1.9567 B( 16-C , 29-H ) :   0.9371 B( 17-C , 30-H ) :   0.9541
B( 17-C , 31-H ) :   0.9459

Dispersion correction           -0.075482542
FINAL SINGLE POINT ENERGY      -693.898848254167

DIPOLE MOMENT
-------------
                                X             Y             Z
Electronic contribution:      1.47882       0.01440      -1.58105
Nuclear contribution   :     -1.47834       0.05700       1.58694
                        -----------------------------------------
Total Dipole Moment    :      0.00048       0.07140       0.00589
                        -----------------------------------------
Magnitude (a.u.)       :      0.07165
Magnitude (Debye)      :      0.18211

Rotational constants in cm-1:     0.022935     0.011232     0.007659
Rotational constants in MHz :   687.578437   336.734481   229.605545

                             ****ORCA TERMINATED NORMALLY****
TOTAL RUN TIME: 0 days 0 hours 22 minutes 46 seconds 95 msec
