                         Program Version 4.2.0 -  RELEASE  -
|  1> # ORCA input file
|  2> # SCF done        -60.757778494680          0.000210845053
|  3> ! B3LYP/G D3BJ Opt RIJCOSX def2-SVP def2/J
|  4> * xyz 0 1
|  5>    N       -1.51287        -0.07581        -0.77747
|  6>    C       -1.96813         1.20313        -0.66255
|  7>    O       -3.06893         1.58659        -0.97980
|  8>    C       -0.83571         2.03231        -0.04429
|  9>    C        0.25145         1.01948         0.13502
| 10>    C       -0.21767        -0.22262        -0.30067
| 11>    C        0.56604        -1.35429        -0.24379
| 12>    C        1.85909        -1.24000         0.26490
| 13>    C        2.32302        -0.00413         0.69586
| 14>    C        1.52648         1.13256         0.63888
| 15>    C        2.72844        -2.45743         0.35676
| 16>    C       -1.32215         2.64654         1.28636
| 17>    C       -2.18758         1.62189         2.03020
| 18>    O       -1.86453         0.51675         2.39591
| 19>    N       -3.41932         2.18047         2.19452
| 20>    C       -3.50355         3.45074         1.64160
| 21>    C       -2.26338         3.79479         1.09807
| 22>    C       -2.09239         5.02375         0.50341
| 23>    C       -3.16921         5.89987         0.46503
| 24>    C       -4.40383         5.56006         1.00364
| 25>    C       -5.55609         6.51510         0.92294
| 26>    C       -4.57693         4.31429         1.60390
| 27>    H       -2.09098        -0.83922        -1.09132
| 28>    H       -0.54990         2.84278        -0.72072
| 29>    H        0.19210        -2.31030        -0.57836
| 30>    H        3.32617         0.07424         1.08821
| 31>    H        1.90736         2.08332         0.98172
| 32>    H        2.40834        -3.08014         1.19206
| 33>    H        3.76816        -2.18312         0.51478
| 34>    H        2.65512        -3.05322        -0.55088
| 35>    H       -0.44941         2.91110         1.89006
| 36>    H       -4.19970         1.68352         2.59400
| 37>    H       -1.14188         5.30824         0.07664
| 38>    H       -3.04594         6.86785         0.00216
| 39>    H       -5.20627         7.53958         0.82343
| 40>    H       -6.18502         6.44043         1.80716
| 41>    H       -6.17021         6.28073         0.05316
| 42>    H       -5.53218         4.03572         2.02297
| 43> *
| 44>
| 45>                          ****END OF INPUT****
 Total Charge           Charge          ....    0
 Multiplicity           Mult            ....    1
 Number of Electrons    NEL             ....  154
Dispersion correction           -0.089400938
FINAL SINGLE POINT ENERGY      -954.956817727613
Dispersion correction            ... done
Dispersion correction           -0.088267876
FINAL SINGLE POINT ENERGY      -954.962766235777
Dispersion correction            ... done
Dispersion correction           -0.088233586
FINAL SINGLE POINT ENERGY      -954.963147725421
Dispersion correction            ... done
FINAL SINGLE POINT ENERGY      -954.962942666690
FINAL SINGLE POINT ENERGY      -954.962394889111
FINAL SINGLE POINT ENERGY      -954.961875089708
FINAL SINGLE POINT ENERGY      -954.961911013097
FINAL SINGLE POINT ENERGY      -954.962234000118
FINAL SINGLE POINT ENERGY      -954.962245179235
FINAL SINGLE POINT ENERGY      -954.962237355239
FINAL SINGLE POINT ENERGY      -954.962269485342
FINAL SINGLE POINT ENERGY      -954.962335135369
FINAL SINGLE POINT ENERGY      -954.962365261000
FINAL SINGLE POINT ENERGY      -954.962409520367
FINAL SINGLE POINT ENERGY      -954.962412982098
FINAL SINGLE POINT ENERGY      -954.962419683177
FINAL SINGLE POINT ENERGY      -954.962429459219
Dispersion correction            ... done
Dispersion correction           -0.088315718
FINAL SINGLE POINT ENERGY      -954.962446175194
Dispersion correction            ... done
Dispersion correction           -0.088306571
FINAL SINGLE POINT ENERGY      -954.962458523033
Dispersion correction            ... done
                    ***********************HURRAY********************

CARTESIAN COORDINATES (ANGSTROEM)
---------------------------------
  N     -1.437930    0.179553   -0.954423
  C     -1.857591    1.464500   -0.671848
  O     -2.942672    1.928084   -0.940291
  C     -0.681541    2.158567    0.062187
  C      0.328206    1.045770    0.212229
  C     -0.179281   -0.107089   -0.415851
  C      0.516875   -1.307838   -0.431021
  C      1.763849   -1.375200    0.219843
  C      2.270491   -0.228593    0.846266
  C      1.558960    0.981801    0.844969
  C      2.528653   -2.674796    0.239656
  C     -1.141462    2.858788    1.366115
  C     -1.858418    1.860636    2.304094
  O     -1.405071    0.846916    2.784231
  N     -3.144246    2.336409    2.473326
  C     -3.369239    3.538344    1.794059
  C     -2.181844    3.930148    1.148677
  C     -2.165116    5.102174    0.411659
  C     -3.339594    5.864801    0.307760
  C     -4.529392    5.458571    0.926086
  C     -5.801548    6.251038    0.758748
  C     -4.538534    4.278359    1.695767
  H     -2.050193   -0.493661   -1.399128
  H     -0.299724    2.944422   -0.612897
  H      0.099845   -2.190747   -0.921861
  H      3.234291   -0.284724    1.356642
  H      1.971224    1.855002    1.356566
  H      1.889231   -3.504235    0.583119
  H      3.400525   -2.619483    0.906445
  H      2.894156   -2.943300   -0.766282
  H     -0.245471    3.237089    1.885133
  H     -3.836960    1.826327    3.007557
  H     -1.255442    5.430671   -0.097736
  H     -3.332045    6.788732   -0.274684
  H     -5.633091    7.162825    0.168339
  H     -6.225401    6.549232    1.731771
  H     -6.570348    5.652345    0.242181
  H     -5.456145    3.944112    2.186098

 Multiplicity           Mult            ....    1
 Number of Electrons    NEL             ....  154
 Basis Dimension        Dim             ....  388

ORBITAL ENERGIES
----------------

  NO   OCC          E(Eh)            E(eV)
   0   2.0000     -19.110133      -520.0131
   1   2.0000     -19.108206      -519.9607
   2   2.0000     -14.369536      -391.0150
   3   2.0000     -14.367394      -390.9567
   4   2.0000     -10.292965      -280.0858
   5   2.0000     -10.290591      -280.0212
   6   2.0000     -10.231476      -278.4126
   7   2.0000     -10.228866      -278.3416
   8   2.0000     -10.218230      -278.0522
   9   2.0000     -10.215856      -277.9876
  10   2.0000     -10.198249      -277.5085
  11   2.0000     -10.196276      -277.4548
  12   2.0000     -10.193315      -277.3742
  13   2.0000     -10.191921      -277.3363
  14   2.0000     -10.191482      -277.3243
  15   2.0000     -10.189489      -277.2701
  16   2.0000     -10.189376      -277.2670
  17   2.0000     -10.188144      -277.2335
  18   2.0000     -10.187014      -277.2027
  19   2.0000     -10.186601      -277.1915
  20   2.0000     -10.182448      -277.0785
  21   2.0000     -10.180933      -277.0373
  22   2.0000      -1.038835       -28.2681
  23   2.0000      -1.033500       -28.1230
  24   2.0000      -0.953875       -25.9563
  25   2.0000      -0.951394       -25.8888
  26   2.0000      -0.845951       -23.0195
  27   2.0000      -0.842013       -22.9123
  28   2.0000      -0.816965       -22.2308
  29   2.0000      -0.775325       -21.0977
  30   2.0000      -0.747497       -20.3404
  31   2.0000      -0.734988       -20.0000
  32   2.0000      -0.733087       -19.9483
  33   2.0000      -0.718669       -19.5560
  34   2.0000      -0.666472       -18.1356
  35   2.0000      -0.657178       -17.8827
  36   2.0000      -0.634040       -17.2531
  37   2.0000      -0.615800       -16.7568
  38   2.0000      -0.608467       -16.5572
  39   2.0000      -0.580944       -15.8083
  40   2.0000      -0.570003       -15.5106
  41   2.0000      -0.567239       -15.4354
  42   2.0000      -0.525625       -14.3030
  43   2.0000      -0.520519       -14.1640
  44   2.0000      -0.499727       -13.5983
  45   2.0000      -0.496128       -13.5003
  46   2.0000      -0.474290       -12.9061
  47   2.0000      -0.464461       -12.6386
  48   2.0000      -0.462581       -12.5875
  49   2.0000      -0.457226       -12.4417
  50   2.0000      -0.443069       -12.0565
  51   2.0000      -0.435927       -11.8622
  52   2.0000      -0.434078       -11.8119
  53   2.0000      -0.431691       -11.7469
  54   2.0000      -0.420632       -11.4460
  55   2.0000      -0.419548       -11.4165
  56   2.0000      -0.417336       -11.3563
  57   2.0000      -0.409006       -11.1296
  58   2.0000      -0.394826       -10.7438
  59   2.0000      -0.390436       -10.6243
  60   2.0000      -0.383627       -10.4390
  61   2.0000      -0.382025       -10.3954
  62   2.0000      -0.381439       -10.3795
  63   2.0000      -0.370215       -10.0741
  64   2.0000      -0.366140        -9.9632
  65   2.0000      -0.362641        -9.8680
  66   2.0000      -0.360253        -9.8030
  67   2.0000      -0.347707        -9.4616
  68   2.0000      -0.337463        -9.1828
  69   2.0000      -0.310140        -8.4393
  70   2.0000      -0.304521        -8.2864
  71   2.0000      -0.266268        -7.2455
  72   2.0000      -0.262980        -7.1561
  73   2.0000      -0.244156        -6.6438
  74   2.0000      -0.243547        -6.6273
  75   2.0000      -0.217763        -5.9256
  76   2.0000      -0.214636        -5.8405
  77   0.0000      -0.026114        -0.7106
  78   0.0000      -0.011560        -0.3146
  79   0.0000      -0.006710        -0.1826
  80   0.0000      -0.003602        -0.0980
  81   0.0000       0.026204         0.7130

MULLIKEN ATOMIC CHARGES
-----------------------
   0 N :   -0.092908
   1 C :    0.117368
   2 O :   -0.196478
   3 C :   -0.001463
   4 C :    0.036868
   5 C :    0.160053
   6 C :   -0.100209
   7 C :   -0.036609
   8 C :   -0.003015
   9 C :   -0.042244
  10 C :    0.085282
  11 C :   -0.000354
  12 C :    0.122653
  13 O :   -0.197412
  14 N :   -0.095807
  15 C :    0.177663
  16 C :    0.029262
  17 C :   -0.048738
  18 C :   -0.005334
  19 C :   -0.033945
  20 C :    0.080059
  21 C :   -0.099268
  22 H :    0.116811
  23 H :    0.042036
  24 H :   -0.056411
  25 H :   -0.038748
  26 H :   -0.037079
  27 H :    0.020658
  28 H :    0.008530
  29 H :    0.021864
  30 H :    0.031969
  31 H :    0.115780
  32 H :   -0.038328
  33 H :   -0.037678
  34 H :    0.005429
  35 H :    0.018275
  36 H :    0.028270
  37 H :   -0.056803
Sum of atomic charges:   -0.0000000

LOEWDIN ATOMIC CHARGES
----------------------
   0 N :    0.020577
   1 C :    0.075523
   2 O :   -0.187516
   3 C :   -0.026774
   4 C :   -0.043357
   5 C :    0.034847
   6 C :   -0.061106
   7 C :   -0.012506
   8 C :   -0.044212
   9 C :   -0.010410
  10 C :   -0.043900
  11 C :   -0.026388
  12 C :    0.074445
  13 O :   -0.189312
  14 N :    0.021580
  15 C :    0.038523
  16 C :   -0.043590
  17 C :   -0.014915
  18 C :   -0.046077
  19 C :   -0.011451
  20 C :   -0.044633
  21 C :   -0.058885
  22 H :    0.086490
  23 H :    0.051800
  24 H :    0.022322
  25 H :    0.022318
  26 H :    0.025252
  27 H :    0.033065
  28 H :    0.028152
  29 H :    0.033645
  30 H :    0.047247
  31 H :    0.086154
  32 H :    0.024206
  33 H :    0.021907
  34 H :    0.027169
  35 H :    0.031765
  36 H :    0.035766
  37 H :    0.022277

  Mayer bond orders larger than 0.100000
B(  0-N ,  1-C ) :   1.1414 B(  0-N ,  5-C ) :   1.0615 B(  0-N , 22-H ) :   0.9221
B(  1-C ,  2-O ) :   2.1534 B(  1-C ,  3-C ) :   0.8863 B(  3-C ,  4-C ) :   0.9674
B(  3-C , 11-C ) :   1.0459 B(  3-C , 23-H ) :   0.8637 B(  4-C ,  5-C ) :   1.3417
B(  4-C ,  9-C ) :   1.4326 B(  5-C ,  6-C ) :   1.3562 B(  6-C ,  7-C ) :   1.3233
B(  6-C , 24-H ) :   0.9986 B(  7-C ,  8-C ) :   1.4179 B(  7-C , 10-C ) :   1.0622
B(  8-C ,  9-C ) :   1.3300 B(  8-C , 25-H ) :   0.9784 B(  9-C , 26-H ) :   0.9908
B( 10-C , 27-H ) :   0.9546 B( 10-C , 28-H ) :   0.9590 B( 10-C , 29-H ) :   0.9527
B( 11-C , 12-C ) :   0.8888 B( 11-C , 16-C ) :   0.9751 B( 11-C , 30-H ) :   0.8720
B( 12-C , 13-O ) :   2.1654 B( 12-C , 14-N ) :   1.1361 B( 14-N , 15-C ) :   1.0567
B( 14-N , 31-H ) :   0.9233 B( 15-C , 16-C ) :   1.3393 B( 15-C , 21-C ) :   1.3622
B( 16-C , 17-C ) :   1.4297 B( 17-C , 18-C ) :   1.3266 B( 17-C , 32-H ) :   0.9907
B( 18-C , 19-C ) :   1.4208 B( 18-C , 33-H ) :   0.9788 B( 19-C , 20-C ) :   1.0654
B( 19-C , 21-C ) :   1.3194 B( 20-C , 34-H ) :   0.9586 B( 20-C , 35-H ) :   0.9535
B( 20-C , 36-H ) :   0.9534 B( 21-C , 37-H ) :   0.9985

Dispersion correction           -0.088305493
FINAL SINGLE POINT ENERGY      -954.962459433260

DIPOLE MOMENT
-------------
                                X             Y             Z
Electronic contribution:     -1.81051      -1.37152       1.26340
Nuclear contribution   :      1.83944       1.33655      -1.47630
                        -----------------------------------------
Total Dipole Moment    :      0.02894      -0.03498      -0.21290
                        -----------------------------------------
Magnitude (a.u.)       :      0.21769
Magnitude (Debye)      :      0.55332

Rotational constants in cm-1:     0.028888     0.005116     0.004998
Rotational constants in MHz :   866.040794   153.376368   149.851036

                             ****ORCA TERMINATED NORMALLY****
TOTAL RUN TIME: 0 days 1 hours 24 minutes 47 seconds 363 msec
