                         Program Version 4.2.0 -  RELEASE  -
|  1> # ORCA input file
|  2> # SCF done        -25.927561381012          0.000286260362
|  3> ! B3LYP/G D3BJ Opt RIJCOSX def2-SVP def2/J
|  4> * xyz 0 1
|  5>    C       -1.24170        -1.24965         0.00102
|  6>    S       -2.41961         0.02123         0.00158
|  7>    C       -1.21700         1.26875         0.00642
|  8>    C        0.01823         0.71374         0.00533
|  9>    C        0.00418        -0.71898         0.00226
| 10>    N        1.31920        -1.12507         0.00188
| 11>    C        2.15762        -0.02366         0.00365
| 12>    O        3.36188        -0.03548         0.00378
| 13>    N        1.34096         1.09397         0.00665
| 14>    H       -1.56033        -2.27066        -0.00094
| 15>    H       -1.51551         2.29582         0.00885
| 16>    H        1.65826        -2.07074        -0.00068
| 17>    H        1.69842         2.03285         0.00808
| 18> *
| 19>
| 20>                          ****END OF INPUT****
 Total Charge           Charge          ....    0
 Multiplicity           Mult            ....    1
 Number of Electrons    NEL             ....   72
Dispersion correction           -0.026120211
FINAL SINGLE POINT ENERGY      -775.508236957685
Dispersion correction            ... done
Dispersion correction           -0.026129918
FINAL SINGLE POINT ENERGY      -775.510343835182
Dispersion correction            ... done
Dispersion correction           -0.026140412
FINAL SINGLE POINT ENERGY      -775.510453053554
Dispersion correction            ... done
Dispersion correction           -0.026145926
FINAL SINGLE POINT ENERGY      -775.510477620424
Dispersion correction            ... done
Dispersion correction           -0.026146636
FINAL SINGLE POINT ENERGY      -775.510492547832
Dispersion correction            ... done
                    ***********************HURRAY********************

CARTESIAN COORDINATES (ANGSTROEM)
---------------------------------
  C     -1.261372   -1.259057    0.000976
  S     -2.448691    0.021640    0.002644
  C     -1.236273    1.278498    0.006077
  C      0.010665    0.716249    0.005173
  C     -0.003559   -0.721442    0.002157
  N      1.323297   -1.127482    0.001662
  C      2.185624   -0.023927    0.003871
  O      3.393713   -0.035803    0.004059
  N      1.345178    1.096373    0.006418
  H     -1.575288   -2.299966   -0.001268
  H     -1.529935    2.325289    0.008526
  H      1.680571   -2.072597   -0.000779
  H      1.720671    2.034346    0.008365

 Multiplicity           Mult            ....    1
 Number of Electrons    NEL             ....   72
 Basis Dimension        Dim             ....  150

ORBITAL ENERGIES
----------------

  NO   OCC          E(Eh)            E(eV)
   0   2.0000     -88.875486     -2418.4249
   1   2.0000     -19.105785      -519.8948
   2   2.0000     -14.377801      -391.2398
   3   2.0000     -14.377742      -391.2383
   4   2.0000     -10.322099      -280.8786
   5   2.0000     -10.240818      -278.6668
   6   2.0000     -10.240550      -278.6595
   7   2.0000     -10.216845      -278.0145
   8   2.0000     -10.216775      -278.0126
   9   2.0000      -7.969743      -216.8677
  10   2.0000      -5.938307      -161.5895
  11   2.0000      -5.934123      -161.4757
  12   2.0000      -5.930470      -161.3763
  13   2.0000      -1.057062       -28.7641
  14   2.0000      -0.985467       -26.8159
  15   2.0000      -0.904236       -24.6055
  16   2.0000      -0.870729       -23.6937
  17   2.0000      -0.728712       -19.8293
  18   2.0000      -0.724359       -19.7108
  19   2.0000      -0.657845       -17.9009
  20   2.0000      -0.595461       -16.2033
  21   2.0000      -0.593439       -16.1483
  22   2.0000      -0.546292       -14.8654
  23   2.0000      -0.513009       -13.9597
  24   2.0000      -0.483233       -13.1494
  25   2.0000      -0.475841       -12.9483
  26   2.0000      -0.429838       -11.6965
  27   2.0000      -0.411451       -11.1961
  28   2.0000      -0.406688       -11.0665
  29   2.0000      -0.387836       -10.5536
  30   2.0000      -0.356361        -9.6971
  31   2.0000      -0.341218        -9.2850
  32   2.0000      -0.315281        -8.5792
  33   2.0000      -0.281647        -7.6640
  34   2.0000      -0.228893        -6.2285
  35   2.0000      -0.218270        -5.9394
  36   0.0000      -0.020651        -0.5620
  37   0.0000       0.033591         0.9141
  38   0.0000       0.047240         1.2855
  39   0.0000       0.063381         1.7247
  40   0.0000       0.074242         2.0202

MULLIKEN ATOMIC CHARGES
-----------------------
   0 C :   -0.208046
   1 S :    0.076087
   2 C :   -0.208744
   3 C :    0.174467
   4 C :    0.174485
   5 N :   -0.137227
   6 C :    0.189524
   7 O :   -0.217416
   8 N :   -0.137138
   9 H :    0.014967
  10 H :    0.015268
  11 H :    0.131892
  12 H :    0.131880
Sum of atomic charges:   -0.0000000

LOEWDIN ATOMIC CHARGES
----------------------
   0 C :   -0.234894
   1 S :    0.412603
   2 C :   -0.235066
   3 C :   -0.023812
   4 C :   -0.023816
   5 N :    0.003258
   6 C :    0.079543
   7 O :   -0.216433
   8 N :    0.003288
   9 H :    0.025359
  10 H :    0.025420
  11 H :    0.092280
  12 H :    0.092271

  Mayer bond orders larger than 0.100000
B(  0-C ,  1-S ) :   1.1127 B(  0-C ,  4-C ) :   1.4983 B(  0-C ,  9-H ) :   0.9887
B(  1-S ,  2-C ) :   1.1127 B(  2-C ,  3-C ) :   1.4986 B(  2-C , 10-H ) :   0.9886
B(  3-C ,  4-C ) :   1.2318 B(  3-C ,  8-N ) :   1.0966 B(  4-C ,  5-N ) :   1.0965
B(  5-N ,  6-C ) :   1.0638 B(  5-N , 11-H ) :   0.9331 B(  6-C ,  7-O ) :   2.1461
B(  6-C ,  8-N ) :   1.0634 B(  8-N , 12-H ) :   0.9332

Dispersion correction           -0.026145133
FINAL SINGLE POINT ENERGY      -775.510494106968

DIPOLE MOMENT
-------------
                                X             Y             Z
Electronic contribution:     -0.88973       0.00884      -0.00113
Nuclear contribution   :      0.15120      -0.00158       0.00066
                        -----------------------------------------
Total Dipole Moment    :     -0.73853       0.00726      -0.00047
                        -----------------------------------------
Magnitude (a.u.)       :      0.73856
Magnitude (Debye)      :      1.87728

Rotational constants in cm-1:     0.160529     0.031731     0.026494
Rotational constants in MHz :  4812.526641   951.274813   794.273631

                             ****ORCA TERMINATED NORMALLY****
TOTAL RUN TIME: 0 days 0 hours 3 minutes 1 seconds 148 msec
