                         Program Version 4.2.0 -  RELEASE  -
|  1> # ORCA input file
|  2> # SCF done        -30.759044475869          0.000931212039
|  3> ! B3LYP/G D3BJ Opt RIJCOSX def2-SVP def2/J
|  4> * xyz 0 1
|  5>    C        1.49905        -1.28263        -0.12861
|  6>    S        2.73505        -0.09528        -0.07647
|  7>    C        1.55541         1.18611         0.05103
|  8>    C        0.27833         0.67751         0.03131
|  9>    C        0.25324        -0.73954        -0.06883
| 10>    C       -1.01663        -1.53146        -0.13272
| 11>    C       -2.20186        -0.69379         0.33871
| 12>    C       -2.18530         0.65651        -0.36915
| 13>    C       -0.98428         1.47940         0.09364
| 14>    C        2.06295         2.53116         0.14231
| 15>    C        1.40962         3.61883         0.54338
| 16>    H        1.76507        -2.31872        -0.20190
| 17>    H       -0.92021        -2.43871         0.46844
| 18>    H       -1.18439        -1.84385        -1.16910
| 19>    H       -2.13763        -0.53781         1.41800
| 20>    H       -3.13293        -1.22357         0.12895
| 21>    H       -3.10404         1.20753        -0.15996
| 22>    H       -2.12690         0.49640        -1.44804
| 23>    H       -1.14972         1.80194         1.12735
| 24>    H       -0.88261         2.37604        -0.52256
| 25>    H        3.10707         2.62224        -0.13430
| 26>    H        0.38735         3.60349         0.87467
| 27>    H        1.90340         4.57526         0.56855
| 28> *
| 29>
| 30>                          ****END OF INPUT****
 Total Charge           Charge          ....    0
 Multiplicity           Mult            ....    1
 Number of Electrons    NEL             ....   88
Dispersion correction           -0.047848516
FINAL SINGLE POINT ENERGY      -786.120587592430
Dispersion correction            ... done
Dispersion correction           -0.047452271
FINAL SINGLE POINT ENERGY      -786.123699016537
Dispersion correction            ... done
Dispersion correction           -0.047333152
FINAL SINGLE POINT ENERGY      -786.123792721896
Dispersion correction            ... done
FINAL SINGLE POINT ENERGY      -786.123619182491
FINAL SINGLE POINT ENERGY      -786.123562626777
FINAL SINGLE POINT ENERGY      -786.123607459246
FINAL SINGLE POINT ENERGY      -786.123613720131
FINAL SINGLE POINT ENERGY      -786.123589248277
FINAL SINGLE POINT ENERGY      -786.123544319426
Dispersion correction            ... done
Dispersion correction           -0.047233602
FINAL SINGLE POINT ENERGY      -786.123582646866
Dispersion correction            ... done
Dispersion correction           -0.047237810
FINAL SINGLE POINT ENERGY      -786.123602238532
Dispersion correction            ... done
                    ***********************HURRAY********************

CARTESIAN COORDINATES (ANGSTROEM)
---------------------------------
  C      1.531728   -1.311355   -0.071905
  S      2.760038   -0.111774    0.042552
  C      1.582126    1.181406    0.104992
  C      0.290135    0.668612    0.033824
  C      0.269485   -0.762094   -0.078251
  C     -1.014686   -1.539721   -0.223153
  C     -2.218475   -0.756244    0.313549
  C     -2.240298    0.668535   -0.246819
  C     -0.982015    1.472574    0.122031
  C      2.098466    2.536679    0.217966
  C      1.428858    3.692651    0.382598
  H      1.796591   -2.365228   -0.146348
  H     -0.925453   -2.515125    0.280331
  H     -1.183167   -1.762248   -1.293173
  H     -2.176043   -0.721556    1.416964
  H     -3.149536   -1.282267    0.046272
  H     -3.130081    1.207762    0.115915
  H     -2.332257    0.616518   -1.346237
  H     -1.080063    1.857879    1.154161
  H     -0.911417    2.365517   -0.519062
  H      3.191579    2.601351    0.152928
  H      0.344779    3.750536    0.479385
  H      1.979745    4.634650    0.436180

 Multiplicity           Mult            ....    1
 Number of Electrons    NEL             ....   88
 Basis Dimension        Dim             ....  218

ORBITAL ENERGIES
----------------

  NO   OCC          E(Eh)            E(eV)
   0   2.0000     -88.865516     -2418.1536
   1   2.0000     -10.209431      -277.8127
   2   2.0000     -10.203399      -277.6486
   3   2.0000     -10.200659      -277.5740
   4   2.0000     -10.191681      -277.3297
   5   2.0000     -10.191283      -277.3189
   6   2.0000     -10.191266      -277.3184
   7   2.0000     -10.190376      -277.2942
   8   2.0000     -10.187697      -277.2213
   9   2.0000     -10.187610      -277.2190
  10   2.0000     -10.184682      -277.1393
  11   2.0000      -7.960656      -216.6205
  12   2.0000      -5.928596      -161.3253
  13   2.0000      -5.924760      -161.2209
  14   2.0000      -5.922133      -161.1494
  15   2.0000      -0.879480       -23.9319
  16   2.0000      -0.812770       -22.1166
  17   2.0000      -0.780514       -21.2389
  18   2.0000      -0.743174       -20.2228
  19   2.0000      -0.725982       -19.7550
  20   2.0000      -0.684984       -18.6394
  21   2.0000      -0.626449       -17.0465
  22   2.0000      -0.603306       -16.4168
  23   2.0000      -0.574797       -15.6410
  24   2.0000      -0.544546       -14.8179
  25   2.0000      -0.507207       -13.8018
  26   2.0000      -0.482373       -13.1260
  27   2.0000      -0.460309       -12.5256
  28   2.0000      -0.452665       -12.3176
  29   2.0000      -0.432916       -11.7803
  30   2.0000      -0.424288       -11.5455
  31   2.0000      -0.409297       -11.1375
  32   2.0000      -0.403590       -10.9822
  33   2.0000      -0.394540       -10.7360
  34   2.0000      -0.384195       -10.4545
  35   2.0000      -0.365165        -9.9366
  36   2.0000      -0.356221        -9.6933
  37   2.0000      -0.335838        -9.1386
  38   2.0000      -0.334630        -9.1057
  39   2.0000      -0.326607        -8.8874
  40   2.0000      -0.317310        -8.6344
  41   2.0000      -0.295326        -8.0362
  42   2.0000      -0.238023        -6.4769
  43   2.0000      -0.210610        -5.7310
  44   0.0000      -0.039992        -1.0882
  45   0.0000       0.025623         0.6972
  46   0.0000       0.037542         1.0216
  47   0.0000       0.051957         1.4138
  48   0.0000       0.075864         2.0644

MULLIKEN ATOMIC CHARGES
-----------------------
   0 C :   -0.128694
   1 S :    0.097106
   2 C :   -0.162865
   3 C :   -0.044416
   4 C :   -0.062530
   5 C :    0.137661
   6 C :    0.000389
   7 C :    0.020329
   8 C :    0.097051
   9 C :    0.037445
  10 C :   -0.046280
  11 H :    0.008459
  12 H :   -0.006401
  13 H :    0.008583
  14 H :    0.006560
  15 H :   -0.006082
  16 H :   -0.007373
  17 H :    0.001976
  18 H :    0.015298
  19 H :    0.017573
  20 H :   -0.011328
  21 H :    0.010351
  22 H :    0.017188
Sum of atomic charges:    0.0000000

LOEWDIN ATOMIC CHARGES
----------------------
   0 C :   -0.202590
   1 S :    0.426886
   2 C :   -0.184805
   3 C :   -0.055775
   4 C :   -0.065404
   5 C :   -0.023287
   6 C :   -0.030812
   7 C :   -0.029752
   8 C :   -0.026126
   9 C :   -0.041629
  10 C :   -0.063787
  11 H :    0.021173
  12 H :    0.027557
  13 H :    0.030074
  14 H :    0.020976
  15 H :    0.021747
  16 H :    0.022426
  17 H :    0.020828
  18 H :    0.031021
  19 H :    0.030716
  20 H :    0.027370
  21 H :    0.018424
  22 H :    0.024770

  Mayer bond orders larger than 0.100000
B(  0-C ,  1-S ) :   1.1529 B(  0-C ,  4-C ) :   1.5350 B(  0-C , 11-H ) :   0.9654
B(  1-S ,  2-C ) :   1.1270 B(  2-C ,  3-C ) :   1.5004 B(  2-C ,  9-C ) :   1.1249
B(  3-C ,  4-C ) :   1.2991 B(  3-C ,  8-C ) :   1.0721 B(  4-C ,  5-C ) :   1.0398
B(  5-C ,  6-C ) :   1.0916 B(  5-C , 12-H ) :   0.9176 B(  5-C , 13-H ) :   0.9134
B(  6-C ,  7-C ) :   1.0805 B(  6-C , 14-H ) :   0.9450 B(  6-C , 15-H ) :   0.9330
B(  7-C ,  8-C ) :   1.0837 B(  7-C , 16-H ) :   0.9307 B(  7-C , 17-H ) :   0.9399
B(  8-C , 18-H ) :   0.9098 B(  8-C , 19-H ) :   0.9064 B(  9-C , 10-C ) :   1.9048
B(  9-C , 20-H ) :   0.9415 B( 10-C , 21-H ) :   0.9533 B( 10-C , 22-H ) :   0.9398

Dispersion correction           -0.047239028
FINAL SINGLE POINT ENERGY      -786.123603049063

DIPOLE MOMENT
-------------
                                X             Y             Z
Electronic contribution:     12.87296      -2.90255      -0.15558
Nuclear contribution   :    -13.32579       2.73535       0.12565
                        -----------------------------------------
Total Dipole Moment    :     -0.45283      -0.16720      -0.02993
                        -----------------------------------------
Magnitude (a.u.)       :      0.48364
Magnitude (Debye)      :      1.22932

Rotational constants in cm-1:     0.047082     0.028700     0.018225
Rotational constants in MHz :  1411.475435   860.405466   546.380217

                             ****ORCA TERMINATED NORMALLY****
TOTAL RUN TIME: 0 days 0 hours 15 minutes 11 seconds 919 msec
