                         Program Version 4.2.0 -  RELEASE  -
|  1> # ORCA input file
|  2> # SCF done        -33.872934082231          0.000850874477
|  3> ! B3LYP/G D3BJ Opt RIJCOSX def2-SVP def2/J
|  4> * xyz 0 1
|  5>    C       -0.01439         0.99394        -0.25860
|  6>    S       -0.99438        -0.41720        -0.28861
|  7>    C        0.37294        -1.43078         0.11099
|  8>    N        0.17821        -2.77366         0.30578
|  9>    C        1.32041        -3.65790         0.33666
| 10>    C        1.50790        -0.69034         0.25061
| 11>    C        1.28364         0.69865         0.04073
| 12>    C        2.36662         1.68492         0.13913
| 13>    O        3.50980         1.42590         0.42777
| 14>    O        1.94224         2.93217        -0.13891
| 15>    C        2.92806         3.94970        -0.06670
| 16>    H       -0.44911         1.95128        -0.45808
| 17>    H       -0.64136        -3.14914        -0.14812
| 18>    H        1.98807        -3.34618         1.13896
| 19>    H        1.88240        -3.65832        -0.60484
| 20>    H        0.97265        -4.66716         0.54447
| 21>    H        2.47760        -1.08107         0.49027
| 22>    H        2.47849         4.84190        -0.49539
| 23>    H        3.81785         3.65692        -0.62822
| 24>    H        3.21292         4.12846         0.97281
| 25> *
| 26>
| 27>                          ****END OF INPUT****
 Total Charge           Charge          ....    0
 Multiplicity           Mult            ....    1
 Number of Electrons    NEL             ....   90
Dispersion correction           -0.036007898
FINAL SINGLE POINT ENERGY      -875.123319721226
Dispersion correction            ... done
Dispersion correction           -0.035872224
FINAL SINGLE POINT ENERGY      -875.125231405072
Dispersion correction            ... done
Dispersion correction           -0.035876047
FINAL SINGLE POINT ENERGY      -875.125400941363
Dispersion correction            ... done
FINAL SINGLE POINT ENERGY      -875.125429256327
FINAL SINGLE POINT ENERGY      -875.125432011182
FINAL SINGLE POINT ENERGY      -875.125472164370
FINAL SINGLE POINT ENERGY      -875.125482240842
Dispersion correction            ... done
Dispersion correction           -0.035923362
FINAL SINGLE POINT ENERGY      -875.125464491608
Dispersion correction            ... done
Dispersion correction           -0.035921154
FINAL SINGLE POINT ENERGY      -875.125466694817
Dispersion correction            ... done
                    ***********************HURRAY********************

CARTESIAN COORDINATES (ANGSTROEM)
---------------------------------
  C     -0.061107    1.019494   -0.173290
  S     -1.050222   -0.404426   -0.222568
  C      0.336156   -1.444468    0.078175
  N      0.163358   -2.805550    0.188241
  C      1.326826   -3.639803    0.382925
  C      1.486001   -0.702503    0.231410
  C      1.250446    0.703794    0.084610
  C      2.353569    1.682817    0.164239
  O      3.497382    1.408326    0.449743
  O      1.947302    2.934377   -0.137884
  C      2.952834    3.940728   -0.111434
  H     -0.486075    2.003180   -0.353594
  H     -0.579567   -3.203425   -0.374110
  H      1.826808   -3.372304    1.329133
  H      2.078179   -3.542661   -0.426598
  H      1.010642   -4.690101    0.451955
  H      2.474120   -1.109959    0.431982
  H      2.467319    4.866877   -0.443507
  H      3.785209    3.681380   -0.782400
  H      3.361379    4.066316    0.903684

 Multiplicity           Mult            ....    1
 Number of Electrons    NEL             ....   90
 Basis Dimension        Dim             ....  203

ORBITAL ENERGIES
----------------

  NO   OCC          E(Eh)            E(eV)
   0   2.0000     -88.873858     -2418.3806
   1   2.0000     -19.170205      -521.6478
   2   2.0000     -19.111998      -520.0639
   3   2.0000     -14.352994      -390.5648
   4   2.0000     -10.305914      -280.4382
   5   2.0000     -10.248436      -278.8741
   6   2.0000     -10.240106      -278.6475
   7   2.0000     -10.228926      -278.3432
   8   2.0000     -10.210337      -277.8374
   9   2.0000     -10.195267      -277.4273
  10   2.0000     -10.178604      -276.9739
  11   2.0000      -7.969345      -216.8569
  12   2.0000      -5.937640      -161.5714
  13   2.0000      -5.933614      -161.4619
  14   2.0000      -5.930187      -161.3686
  15   2.0000      -1.088200       -29.6114
  16   2.0000      -0.996898       -27.1270
  17   2.0000      -0.942786       -25.6545
  18   2.0000      -0.864061       -23.5123
  19   2.0000      -0.759350       -20.6630
  20   2.0000      -0.724102       -19.7038
  21   2.0000      -0.712456       -19.3869
  22   2.0000      -0.673330       -18.3222
  23   2.0000      -0.595816       -16.2130
  24   2.0000      -0.578153       -15.7323
  25   2.0000      -0.540832       -14.7168
  26   2.0000      -0.531935       -14.4747
  27   2.0000      -0.491406       -13.3718
  28   2.0000      -0.479088       -13.0366
  29   2.0000      -0.473704       -12.8901
  30   2.0000      -0.455571       -12.3967
  31   2.0000      -0.449835       -12.2406
  32   2.0000      -0.422515       -11.4972
  33   2.0000      -0.403752       -10.9867
  34   2.0000      -0.401731       -10.9317
  35   2.0000      -0.395562       -10.7638
  36   2.0000      -0.389103       -10.5880
  37   2.0000      -0.374724       -10.1968
  38   2.0000      -0.356728        -9.7071
  39   2.0000      -0.349158        -9.5011
  40   2.0000      -0.301104        -8.1934
  41   2.0000      -0.298976        -8.1355
  42   2.0000      -0.271462        -7.3869
  43   2.0000      -0.254793        -6.9333
  44   2.0000      -0.199591        -5.4312
  45   0.0000      -0.034350        -0.9347
  46   0.0000       0.017580         0.4784
  47   0.0000       0.029402         0.8001
  48   0.0000       0.060404         1.6437
  49   0.0000       0.077968         2.1216

MULLIKEN ATOMIC CHARGES
-----------------------
   0 C :   -0.093550
   1 S :    0.074179
   2 C :   -0.043405
   3 N :   -0.171210
   4 C :    0.102497
   5 C :   -0.023641
   6 C :    0.009620
   7 C :    0.201138
   8 O :   -0.223098
   9 O :   -0.312775
  10 C :    0.203634
  11 H :    0.023723
  12 H :    0.120608
  13 H :    0.031721
  14 H :    0.022826
  15 H :    0.022955
  16 H :   -0.017888
  17 H :    0.022987
  18 H :    0.027131
  19 H :    0.022549
Sum of atomic charges:   -0.0000000

LOEWDIN ATOMIC CHARGES
----------------------
   0 C :   -0.179355
   1 S :    0.394847
   2 C :   -0.122696
   3 N :   -0.052590
   4 C :    0.023433
   5 C :   -0.110911
   6 C :   -0.099992
   7 C :    0.087298
   8 O :   -0.184675
   9 O :   -0.101840
  10 C :    0.084188
  11 H :    0.027595
  12 H :    0.073496
  13 H :    0.027920
  14 H :    0.013358
  15 H :    0.027443
  16 H :    0.031069
  17 H :    0.021683
  18 H :    0.020149
  19 H :    0.019581

  Mayer bond orders larger than 0.100000
B(  0-C ,  1-S ) :   1.1200 B(  0-C ,  6-C ) :   1.5404 B(  0-C , 11-H ) :   0.9651
B(  1-S ,  2-C ) :   1.1130 B(  2-C ,  3-N ) :   1.1765 B(  2-C ,  5-C ) :   1.4704
B(  3-N ,  4-C ) :   1.0355 B(  3-N , 12-H ) :   0.9319 B(  4-C , 13-H ) :   0.9661
B(  4-C , 14-H ) :   0.9615 B(  4-C , 15-H ) :   0.9731 B(  5-C ,  6-C ) :   1.2033
B(  5-C , 16-H ) :   1.0021 B(  6-C ,  7-C ) :   0.9673 B(  7-C ,  8-O ) :   2.0881
B(  7-C ,  9-O ) :   1.2067 B(  9-O , 10-C ) :   0.9300 B( 10-C , 17-H ) :   0.9794
B( 10-C , 18-H ) :   0.9724 B( 10-C , 19-H ) :   0.9736

Dispersion correction           -0.035920692
FINAL SINGLE POINT ENERGY      -875.125469645596

DIPOLE MOMENT
-------------
                                X             Y             Z
Electronic contribution:     -6.38834       2.34913      -0.63426
Nuclear contribution   :      5.80432      -2.86947       0.25302
                        -----------------------------------------
Total Dipole Moment    :     -0.58402      -0.52034      -0.38124
                        -----------------------------------------
Magnitude (a.u.)       :      0.87016
Magnitude (Debye)      :      2.21177

Rotational constants in cm-1:     0.067021     0.017531     0.013990
Rotational constants in MHz :  2009.237913   525.575912   419.424564

                             ****ORCA TERMINATED NORMALLY****
TOTAL RUN TIME: 0 days 0 hours 9 minutes 17 seconds 494 msec
