                         Program Version 4.2.0 -  RELEASE  -
|  1> # ORCA input file
|  2> # SCF done        -36.947721243809          0.000426672988
|  3> ! B3LYP/G D3BJ Opt RIJCOSX def2-SVP def2/J
|  4> * xyz 0 1
|  5>    C        1.49462        -1.28874         0.03040
|  6>    S        2.71679        -0.08840         0.14798
|  7>    C        1.52638         1.18247         0.12366
|  8>    C        0.25802         0.65759         0.02009
|  9>    C        0.24273        -0.76062        -0.02788
| 10>    C       -1.01909        -1.55110        -0.17395
| 11>    C       -2.21457        -0.73655         0.31162
| 12>    C       -2.22595         0.62977        -0.36706
| 13>    C       -1.00292         1.47958         0.00635
| 14>    C       -1.14434         2.05952         1.39346
| 15>    O       -0.99140         3.21419         1.67587
| 16>    C        1.91034         2.56714         0.19653
| 17>    C        3.16386         2.99657         0.31013
| 18>    H        1.77405        -2.32343         0.00515
| 19>    H       -0.93915        -2.48960         0.37818
| 20>    H       -1.15793        -1.80295        -1.23064
| 21>    H       -2.16211        -0.62006         1.39526
| 22>    H       -3.13996        -1.26682         0.07962
| 23>    H       -3.13276         1.17706        -0.10029
| 24>    H       -2.22976         0.48558        -1.45007
| 25>    H       -0.90151         2.31064        -0.69970
| 26>    H       -1.38039         1.30934         2.17136
| 27>    H        1.09604         3.27751         0.16573
| 28>    H        3.99296         2.30937         0.35642
| 29>    H        3.39667         4.04485         0.36374
| 30> *
| 31>
| 32>                          ****END OF INPUT****
 Total Charge           Charge          ....    0
 Multiplicity           Mult            ....    1
 Number of Electrons    NEL             ....  102
Dispersion correction           -0.055659428
FINAL SINGLE POINT ENERGY      -899.359054360288
Dispersion correction            ... done
Dispersion correction           -0.055000586
FINAL SINGLE POINT ENERGY      -899.362519182444
Dispersion correction            ... done
Dispersion correction           -0.054867940
FINAL SINGLE POINT ENERGY      -899.362660194184
Dispersion correction            ... done
FINAL SINGLE POINT ENERGY      -899.362311200774
FINAL SINGLE POINT ENERGY      -899.362606672633
FINAL SINGLE POINT ENERGY      -899.362644382754
FINAL SINGLE POINT ENERGY      -899.362616183433
Dispersion correction            ... done
Dispersion correction           -0.054792325
FINAL SINGLE POINT ENERGY      -899.362588996338
Dispersion correction            ... done
Dispersion correction           -0.054792319
FINAL SINGLE POINT ENERGY      -899.362584374688
Dispersion correction            ... done
                    ***********************HURRAY********************

CARTESIAN COORDINATES (ANGSTROEM)
---------------------------------
  C      1.516091   -1.327580    0.143235
  S      2.741313   -0.118389    0.283899
  C      1.563962    1.168345    0.203542
  C      0.279854    0.647185    0.086217
  C      0.256582   -0.787851    0.036699
  C     -1.016077   -1.563433   -0.190741
  C     -2.256480   -0.757702    0.212321
  C     -2.219269    0.659803   -0.370165
  C     -0.986177    1.479796    0.076118
  C     -1.200100    2.044988    1.474859
  O     -1.088351    3.210806    1.761990
  C      1.957675    2.569292    0.231811
  C      3.211216    3.042315    0.128804
  H      1.791805   -2.381331    0.128725
  H     -0.982282   -2.523146    0.347049
  H     -1.088372   -1.817096   -1.264547
  H     -2.328205   -0.715403    1.312711
  H     -3.163011   -1.275478   -0.139966
  H     -3.134628    1.211021   -0.097346
  H     -2.211798    0.597607   -1.471545
  H     -0.865785    2.353280   -0.582202
  H     -1.466503    1.283600    2.253636
  H      1.132641    3.277684    0.353181
  H      4.072279    2.379867   -0.000287
  H      3.414240    4.114730    0.163960

 Multiplicity           Mult            ....    1
 Number of Electrons    NEL             ....  102
 Basis Dimension        Dim             ....  246

ORBITAL ENERGIES
----------------

  NO   OCC          E(Eh)            E(eV)
   0   2.0000     -88.873447     -2418.3694
   1   2.0000     -19.138459      -520.7840
   2   2.0000     -10.278377      -279.6888
   3   2.0000     -10.219278      -278.0807
   4   2.0000     -10.212298      -277.8908
   5   2.0000     -10.209267      -277.8083
   6   2.0000     -10.204475      -277.6779
   7   2.0000     -10.203719      -277.6573
   8   2.0000     -10.201171      -277.5880
   9   2.0000     -10.201108      -277.5863
  10   2.0000     -10.200254      -277.5630
  11   2.0000     -10.199722      -277.5486
  12   2.0000     -10.189767      -277.2777
  13   2.0000      -7.968433      -216.8321
  14   2.0000      -5.936453      -161.5391
  15   2.0000      -5.932494      -161.4314
  16   2.0000      -5.929861      -161.3597
  17   2.0000      -1.041520       -28.3412
  18   2.0000      -0.890051       -24.2195
  19   2.0000      -0.828625       -22.5480
  20   2.0000      -0.791274       -21.5317
  21   2.0000      -0.762436       -20.7469
  22   2.0000      -0.736154       -20.0318
  23   2.0000      -0.695555       -18.9270
  24   2.0000      -0.653107       -17.7719
  25   2.0000      -0.609076       -16.5738
  26   2.0000      -0.604232       -16.4420
  27   2.0000      -0.577642       -15.7184
  28   2.0000      -0.538092       -14.6422
  29   2.0000      -0.520860       -14.1733
  30   2.0000      -0.504945       -13.7402
  31   2.0000      -0.473376       -12.8812
  32   2.0000      -0.458442       -12.4749
  33   2.0000      -0.448073       -12.1927
  34   2.0000      -0.442053       -12.0289
  35   2.0000      -0.438640       -11.9360
  36   2.0000      -0.425580       -11.5806
  37   2.0000      -0.422502       -11.4969
  38   2.0000      -0.408049       -11.1036
  39   2.0000      -0.398125       -10.8335
  40   2.0000      -0.382749       -10.4151
  41   2.0000      -0.374679       -10.1955
  42   2.0000      -0.368492       -10.0272
  43   2.0000      -0.352227        -9.5846
  44   2.0000      -0.342996        -9.3334
  45   2.0000      -0.338114        -9.2005
  46   2.0000      -0.330833        -9.0024
  47   2.0000      -0.300426        -8.1750
  48   2.0000      -0.266496        -7.2517
  49   2.0000      -0.243543        -6.6271
  50   2.0000      -0.217065        -5.9066
  51   0.0000      -0.053521        -1.4564
  52   0.0000      -0.028695        -0.7808
  53   0.0000       0.026231         0.7138
  54   0.0000       0.039975         1.0878
  55   0.0000       0.049311         1.3418

MULLIKEN ATOMIC CHARGES
-----------------------
   0 C :   -0.130348
   1 S :    0.106033
   2 C :   -0.142211
   3 C :   -0.018052
   4 C :   -0.047979
   5 C :    0.144044
   6 C :    0.003324
   7 C :    0.041992
   8 C :    0.012493
   9 C :    0.155554
  10 O :   -0.194094
  11 C :   -0.001555
  12 C :   -0.035595
  13 H :    0.011469
  14 H :   -0.003475
  15 H :    0.013525
  16 H :    0.011963
  17 H :   -0.000663
  18 H :    0.004491
  19 H :    0.013907
  20 H :    0.006842
  21 H :   -0.008592
  22 H :    0.010344
  23 H :    0.019069
  24 H :    0.027514
Sum of atomic charges:   -0.0000000

LOEWDIN ATOMIC CHARGES
----------------------
   0 C :   -0.194601
   1 S :    0.433931
   2 C :   -0.175683
   3 C :   -0.060806
   4 C :   -0.066718
   5 C :   -0.021495
   6 C :   -0.031574
   7 C :   -0.018208
   8 C :   -0.059236
   9 C :    0.123909
  10 O :   -0.132786
  11 C :   -0.041420
  12 C :   -0.049760
  13 H :    0.022854
  14 H :    0.029594
  15 H :    0.032361
  16 H :    0.019918
  17 H :    0.025953
  18 H :    0.025668
  19 H :    0.028493
  20 H :    0.036601
  21 H :   -0.008262
  22 H :    0.035462
  23 H :    0.017526
  24 H :    0.028276

  Mayer bond orders larger than 0.100000
B(  0-C ,  1-S ) :   1.1503 B(  0-C ,  4-C ) :   1.5510 B(  0-C , 13-H ) :   0.9657
B(  1-S ,  2-C ) :   1.1273 B(  2-C ,  3-C ) :   1.4764 B(  2-C , 11-C ) :   1.1366
B(  3-C ,  4-C ) :   1.2869 B(  3-C ,  8-C ) :   1.0017 B(  4-C ,  5-C ) :   1.0416
B(  5-C ,  6-C ) :   1.0877 B(  5-C , 14-H ) :   0.9153 B(  5-C , 15-H ) :   0.9155
B(  6-C ,  7-C ) :   1.0690 B(  6-C , 16-H ) :   0.9471 B(  6-C , 17-H ) :   0.9278
B(  7-C ,  8-C ) :   1.0440 B(  7-C , 18-H ) :   0.9347 B(  7-C , 19-H ) :   0.9361
B(  8-C ,  9-C ) :   0.9219 B(  8-C , 20-H ) :   0.8843 B(  9-C , 10-O ) :   2.1387
B(  9-C , 21-H ) :   0.9319 B( 11-C , 12-C ) :   1.9038 B( 11-C , 22-H ) :   0.9417
B( 12-C , 23-H ) :   0.9539 B( 12-C , 24-H ) :   0.9457

Dispersion correction           -0.054793424
FINAL SINGLE POINT ENERGY      -899.362582391535

DIPOLE MOMENT
-------------
                                X             Y             Z
Electronic contribution:      8.85455       1.00569       2.20934
Nuclear contribution   :     -9.24072      -2.05115      -2.70846
                        -----------------------------------------
Total Dipole Moment    :     -0.38618      -1.04546      -0.49912
                        -----------------------------------------
Magnitude (a.u.)       :      1.22117
Magnitude (Debye)      :      3.10396

Rotational constants in cm-1:     0.031023     0.022531     0.014144
Rotational constants in MHz :   930.048263   675.453706   424.039893

                             ****ORCA TERMINATED NORMALLY****
TOTAL RUN TIME: 0 days 0 hours 16 minutes 46 seconds 600 msec
