                         Program Version 4.2.0 -  RELEASE  -
|  1> # ORCA input file
|  2> # SCF done        -33.559199084458          0.000365338514
|  3> ! B3LYP/G D3BJ Opt RIJCOSX def2-SVP def2/J
|  4> * xyz 0 1
|  5>    C        1.47340         0.71176         0.65501
|  6>    C        0.22182         1.19022         0.48034
|  7>    O       -0.29339         2.43841         0.59867
|  8>    C        0.61571         3.44467         0.98077
|  9>    S       -0.90633        -0.05438         0.01726
| 10>    C        0.37405        -1.24296         0.06911
| 11>    O        0.16669        -2.54379        -0.21557
| 12>    C       -1.14838        -2.92297        -0.53988
| 13>    C        1.58092        -0.69621         0.42145
| 14>    C        2.78649        -1.48831         0.52942
| 15>    C        3.99159        -1.03244         0.85445
| 16>    H        2.31317         1.31494         0.94213
| 17>    H        0.03730         4.36510         1.02548
| 18>    H        1.42001         3.54934         0.24597
| 19>    H        1.04885         3.23240         1.96314
| 20>    H       -1.11451        -3.99135        -0.74411
| 21>    H       -1.50617        -2.38633        -1.42491
| 22>    H       -1.83201        -2.72480         0.29231
| 23>    H        2.64352        -2.53890         0.31650
| 24>    H        4.17993         0.00447         1.07256
| 25>    H        4.84070        -1.69078         0.91175
| 26> *
| 27>
| 28>                          ****END OF INPUT****
 Total Charge           Charge          ....    0
 Multiplicity           Mult            ....    1
 Number of Electrons    NEL             ....   90
Dispersion correction           -0.038342717
FINAL SINGLE POINT ENERGY      -859.029677266877
Dispersion correction            ... done
Dispersion correction           -0.038137505
FINAL SINGLE POINT ENERGY      -859.031856569443
Dispersion correction            ... done
Dispersion correction           -0.038105638
FINAL SINGLE POINT ENERGY      -859.031985584360
Dispersion correction            ... done
FINAL SINGLE POINT ENERGY      -859.031925042560
FINAL SINGLE POINT ENERGY      -859.031879660825
FINAL SINGLE POINT ENERGY      -859.031620803765
FINAL SINGLE POINT ENERGY      -859.031468724777
FINAL SINGLE POINT ENERGY      -859.031529854193
FINAL SINGLE POINT ENERGY      -859.031551419482
FINAL SINGLE POINT ENERGY      -859.031561023024
FINAL SINGLE POINT ENERGY      -859.031589304037
FINAL SINGLE POINT ENERGY      -859.031624420944
Dispersion correction            ... done
Dispersion correction           -0.038098498
FINAL SINGLE POINT ENERGY      -859.031649705668
Dispersion correction            ... done
Dispersion correction           -0.038097280
FINAL SINGLE POINT ENERGY      -859.031656950055
Dispersion correction            ... done
                    ***********************HURRAY********************

CARTESIAN COORDINATES (ANGSTROEM)
---------------------------------
  C      1.468463    0.706389    0.760535
  C      0.190925    1.177375    0.683801
  O     -0.321420    2.413028    0.827771
  C      0.604807    3.476710    0.896430
  S     -0.969437   -0.078436    0.281103
  C      0.337832   -1.262991    0.209180
  O      0.109069   -2.563204   -0.058890
  C     -1.137497   -2.917808   -0.623521
  C      1.570328   -0.712717    0.494531
  C      2.797774   -1.497466    0.513933
  C      4.022425   -1.056593    0.847640
  H      2.330147    1.331859    0.984137
  H      0.016719    4.403374    0.912068
  H      1.275702    3.476622    0.018478
  H      1.220033    3.418138    1.812302
  H     -1.084233   -3.985081   -0.875501
  H     -1.344671   -2.338070   -1.540399
  H     -1.960804   -2.756722    0.095845
  H      2.673463   -2.544438    0.220859
  H      4.208145   -0.026227    1.163685
  H      4.885592   -1.725652    0.827865

 Multiplicity           Mult            ....    1
 Number of Electrons    NEL             ....   90
 Basis Dimension        Dim             ....  208

ORBITAL ENERGIES
----------------

  NO   OCC          E(Eh)            E(eV)
   0   2.0000     -88.871051     -2418.3042
   1   2.0000     -19.177988      -521.8596
   2   2.0000     -19.175011      -521.7786
   3   2.0000     -10.262789      -279.2647
   4   2.0000     -10.262094      -279.2458
   5   2.0000     -10.254849      -279.0486
   6   2.0000     -10.251865      -278.9674
   7   2.0000     -10.185195      -277.1532
   8   2.0000     -10.184806      -277.1427
   9   2.0000     -10.182354      -277.0759
  10   2.0000     -10.172293      -276.8022
  11   2.0000      -7.966843      -216.7888
  12   2.0000      -5.935173      -161.5043
  13   2.0000      -5.931490      -161.4041
  14   2.0000      -5.927118      -161.2851
  15   2.0000      -1.073497       -29.2113
  16   2.0000      -1.071385       -29.1539
  17   2.0000      -0.866483       -23.5782
  18   2.0000      -0.778865       -21.1940
  19   2.0000      -0.742382       -20.2012
  20   2.0000      -0.721469       -19.6322
  21   2.0000      -0.713123       -19.4050
  22   2.0000      -0.662015       -18.0143
  23   2.0000      -0.584183       -15.8964
  24   2.0000      -0.566590       -15.4177
  25   2.0000      -0.545579       -14.8460
  26   2.0000      -0.520660       -14.1679
  27   2.0000      -0.499188       -13.5836
  28   2.0000      -0.483131       -13.1467
  29   2.0000      -0.477185       -12.9849
  30   2.0000      -0.472589       -12.8598
  31   2.0000      -0.451021       -12.2729
  32   2.0000      -0.431041       -11.7292
  33   2.0000      -0.419702       -11.4207
  34   2.0000      -0.396269       -10.7830
  35   2.0000      -0.384895       -10.4735
  36   2.0000      -0.376738       -10.2516
  37   2.0000      -0.359063        -9.7706
  38   2.0000      -0.355595        -9.6762
  39   2.0000      -0.339544        -9.2395
  40   2.0000      -0.327122        -8.9014
  41   2.0000      -0.309587        -8.4243
  42   2.0000      -0.285660        -7.7732
  43   2.0000      -0.233550        -6.3552
  44   2.0000      -0.186833        -5.0840
  45   0.0000      -0.012888        -0.3507
  46   0.0000       0.019746         0.5373
  47   0.0000       0.024364         0.6630
  48   0.0000       0.061071         1.6618
  49   0.0000       0.066587         1.8119

MULLIKEN ATOMIC CHARGES
-----------------------
   0 C :   -0.066098
   1 C :    0.087714
   2 O :   -0.306001
   3 C :    0.186224
   4 S :    0.043710
   5 C :   -0.013639
   6 O :   -0.294691
   7 C :    0.180209
   8 C :    0.069729
   9 C :    0.006665
  10 C :   -0.042181
  11 H :   -0.028939
  12 H :    0.032791
  13 H :    0.023155
  14 H :    0.023175
  15 H :    0.040934
  16 H :    0.023240
  17 H :    0.030838
  18 H :   -0.013062
  19 H :   -0.000002
  20 H :    0.016228
Sum of atomic charges:   -0.0000000

LOEWDIN ATOMIC CHARGES
----------------------
   0 C :   -0.114129
   1 C :   -0.111515
   2 O :   -0.110131
   3 C :    0.086436
   4 S :    0.366048
   5 C :   -0.103365
   6 O :   -0.099742
   7 C :    0.074397
   8 C :   -0.102555
   9 C :   -0.016858
  10 C :   -0.074661
  11 H :    0.025716
  12 H :    0.027145
  13 H :    0.015613
  14 H :    0.014628
  15 H :    0.030015
  16 H :    0.013310
  17 H :    0.013473
  18 H :    0.029522
  19 H :    0.014484
  20 H :    0.022169

  Mayer bond orders larger than 0.100000
B(  0-C ,  1-C ) :   1.5240 B(  0-C ,  8-C ) :   1.1387 B(  0-C , 11-H ) :   0.9959
B(  1-C ,  2-O ) :   1.1368 B(  1-C ,  4-S ) :   1.0799 B(  2-O ,  3-C ) :   0.9562
B(  3-C , 12-H ) :   0.9779 B(  3-C , 13-H ) :   0.9651 B(  3-C , 14-H ) :   0.9673
B(  4-S ,  5-C ) :   1.0562 B(  5-C ,  6-O ) :   1.1489 B(  5-C ,  8-C ) :   1.4978
B(  6-O ,  7-C ) :   0.9518 B(  7-C , 15-H ) :   0.9796 B(  7-C , 16-H ) :   0.9617
B(  7-C , 17-H ) :   0.9640 B(  8-C ,  9-C ) :   1.1289 B(  9-C , 10-C ) :   1.9039
B(  9-C , 18-H ) :   0.9587 B( 10-C , 19-H ) :   0.9441 B( 10-C , 20-H ) :   0.9482

Dispersion correction           -0.038096576
FINAL SINGLE POINT ENERGY      -859.031655402692

DIPOLE MOMENT
-------------
                                X             Y             Z
Electronic contribution:     -6.49915      -0.68420       0.22341
Nuclear contribution   :      6.18673       0.99416      -0.48110
                        -----------------------------------------
Total Dipole Moment    :     -0.31242       0.30996      -0.25769
                        -----------------------------------------
Magnitude (a.u.)       :      0.50999
Magnitude (Debye)      :      1.29629

Rotational constants in cm-1:     0.039843     0.026353     0.016023
Rotational constants in MHz :  1194.450098   790.046273   480.371136

                             ****ORCA TERMINATED NORMALLY****
TOTAL RUN TIME: 0 days 0 hours 18 minutes 20 seconds 29 msec
