                         Program Version 4.2.0 -  RELEASE  -
|  1> # ORCA input file
|  2> # SCF done        -41.544582997814          0.000512126737
|  3> ! B3LYP/G D3BJ Opt RIJCOSX def2-SVP def2/J
|  4> * xyz 0 1
|  5>    C       -0.43598        -1.50592         0.27680
|  6>    N       -1.72794        -1.21919        -0.04171
|  7>    C       -2.84396        -2.12312         0.07949
|  8>    C       -3.27903        -2.28587         1.53369
|  9>    C       -1.87884         0.12925        -0.44832
| 10>    O       -2.93993         0.60977        -0.77864
| 11>    C       -0.53693         0.66430        -0.36148
| 12>    C        0.33144        -0.39542         0.09629
| 13>    C        1.67399         0.13821         0.17871
| 14>    O        2.73657        -0.34488         0.50012
| 15>    N        1.52536         1.48331        -0.23966
| 16>    C        2.62394         2.41598        -0.25713
| 17>    C        2.56507         3.37641         0.92765
| 18>    C        0.23106         1.77390        -0.54522
| 19>    H       -0.15648        -2.49108         0.60260
| 20>    H       -2.56922        -3.09236        -0.34743
| 21>    H       -3.65839        -1.68973        -0.50723
| 22>    H       -2.46339        -2.67910         2.13676
| 23>    H       -4.11995        -2.97085         1.59413
| 24>    H       -3.58184        -1.32489         1.94198
| 25>    H        2.61069         2.97194        -1.19954
| 26>    H        3.53683         1.81641        -0.20715
| 27>    H        1.65042         3.96450         0.90153
| 28>    H        3.41521         4.05202         0.89833
| 29>    H        2.59418         2.82006         1.86110
| 30>    H       -0.04675         2.75616        -0.88224
| 31> *
| 32>
| 33>                          ****END OF INPUT****
 Total Charge           Charge          ....    0
 Multiplicity           Mult            ....    1
 Number of Electrons    NEL             ....  102
Dispersion correction           -0.047666704
FINAL SINGLE POINT ENERGY      -647.818354810576
Dispersion correction            ... done
Dispersion correction           -0.047357978
FINAL SINGLE POINT ENERGY      -647.821813529827
Dispersion correction            ... done
Dispersion correction           -0.047303433
FINAL SINGLE POINT ENERGY      -647.822061091577
Dispersion correction            ... done
FINAL SINGLE POINT ENERGY      -647.822111099834
FINAL SINGLE POINT ENERGY      -647.822152324351
FINAL SINGLE POINT ENERGY      -647.822177255772
FINAL SINGLE POINT ENERGY      -647.822196686516
FINAL SINGLE POINT ENERGY      -647.822224960797
FINAL SINGLE POINT ENERGY      -647.822234994090
FINAL SINGLE POINT ENERGY      -647.822232353624
FINAL SINGLE POINT ENERGY      -647.822231082375
FINAL SINGLE POINT ENERGY      -647.822237852350
Dispersion correction            ... done
Dispersion correction           -0.047331009
FINAL SINGLE POINT ENERGY      -647.822246062048
Dispersion correction            ... done
Dispersion correction           -0.047333541
FINAL SINGLE POINT ENERGY      -647.822251032283
Dispersion correction            ... done
                    ***********************HURRAY********************

CARTESIAN COORDINATES (ANGSTROEM)
---------------------------------
  C     -0.369844   -1.522318    0.296567
  N     -1.690304   -1.286383   -0.007007
  C     -2.791588   -2.225713    0.112549
  C     -3.442503   -2.220116    1.494545
  C     -1.898552    0.081087   -0.415582
  O     -2.988409    0.522044   -0.716905
  C     -0.554746    0.652655   -0.343058
  C      0.355739   -0.374835    0.104328
  C      1.703108    0.189224    0.154810
  O      2.791155   -0.252683    0.460910
  N      1.500781    1.548724   -0.284082
  C      2.586975    2.512395   -0.310032
  C      2.701639    3.315850    0.984330
  C      0.175933    1.792152   -0.562510
  H     -0.045048   -2.507454    0.632742
  H     -2.414944   -3.228320   -0.146718
  H     -3.529677   -1.936860   -0.649591
  H     -2.721212   -2.504644    2.276603
  H     -4.283360   -2.930285    1.529795
  H     -3.833788   -1.218589    1.728716
  H      2.444581    3.177725   -1.176355
  H      3.505736    1.932236   -0.479657
  H      1.777657    3.881712    1.186530
  H      3.533180    4.035427    0.921928
  H      2.889403    2.644120    1.835059
  H     -0.145781    2.772659   -0.914487

 Multiplicity           Mult            ....    1
 Number of Electrons    NEL             ....  102
 Basis Dimension        Dim             ....  256

ORBITAL ENERGIES
----------------

  NO   OCC          E(Eh)            E(eV)
   0   2.0000     -19.114206      -520.1240
   1   2.0000     -19.114067      -520.1202
   2   2.0000     -14.378140      -391.2491
   3   2.0000     -14.377974      -391.2446
   4   2.0000     -10.295345      -280.1506
   5   2.0000     -10.295279      -280.1488
   6   2.0000     -10.256976      -279.1065
   7   2.0000     -10.256958      -279.1060
   8   2.0000     -10.237247      -278.5697
   9   2.0000     -10.236731      -278.5556
  10   2.0000     -10.194186      -277.3979
  11   2.0000     -10.193400      -277.3765
  12   2.0000     -10.187556      -277.2175
  13   2.0000     -10.187321      -277.2111
  14   2.0000      -1.040294       -28.3079
  15   2.0000      -1.035665       -28.1819
  16   2.0000      -0.970925       -26.4202
  17   2.0000      -0.960436       -26.1348
  18   2.0000      -0.835758       -22.7421
  19   2.0000      -0.785993       -21.3880
  20   2.0000      -0.734917       -19.9981
  21   2.0000      -0.728460       -19.8224
  22   2.0000      -0.686402       -18.6779
  23   2.0000      -0.677011       -18.4224
  24   2.0000      -0.628898       -17.1132
  25   2.0000      -0.592339       -16.1184
  26   2.0000      -0.574089       -15.6218
  27   2.0000      -0.531741       -14.4694
  28   2.0000      -0.506836       -13.7917
  29   2.0000      -0.503545       -13.7022
  30   2.0000      -0.500208       -13.6114
  31   2.0000      -0.467606       -12.7242
  32   2.0000      -0.467110       -12.7107
  33   2.0000      -0.455214       -12.3870
  34   2.0000      -0.440664       -11.9911
  35   2.0000      -0.435338       -11.8462
  36   2.0000      -0.426948       -11.6178
  37   2.0000      -0.426104       -11.5949
  38   2.0000      -0.408165       -11.1067
  39   2.0000      -0.393663       -10.7121
  40   2.0000      -0.390853       -10.6357
  41   2.0000      -0.385156       -10.4806
  42   2.0000      -0.384151       -10.4533
  43   2.0000      -0.363795        -9.8994
  44   2.0000      -0.362673        -9.8688
  45   2.0000      -0.339270        -9.2320
  46   2.0000      -0.336759        -9.1637
  47   2.0000      -0.277183        -7.5425
  48   2.0000      -0.263298        -7.1647
  49   2.0000      -0.252770        -6.8782
  50   2.0000      -0.207021        -5.6333
  51   0.0000      -0.084746        -2.3060
  52   0.0000      -0.003374        -0.0918
  53   0.0000       0.052916         1.4399
  54   0.0000       0.053447         1.4544
  55   0.0000       0.079371         2.1598

MULLIKEN ATOMIC CHARGES
-----------------------
   0 C :    0.067016
   1 N :   -0.289297
   2 C :    0.129385
   3 C :   -0.002029
   4 C :    0.195901
   5 O :   -0.199373
   6 C :   -0.028802
   7 C :   -0.029864
   8 C :    0.197182
   9 O :   -0.198994
  10 N :   -0.292945
  11 C :    0.133162
  12 C :   -0.005493
  13 C :    0.066244
  14 H :    0.015724
  15 H :    0.010554
  16 H :    0.033145
  17 H :    0.012982
  18 H :    0.023495
  19 H :    0.032563
  20 H :    0.011764
  21 H :    0.031393
  22 H :    0.014029
  23 H :    0.023614
  24 H :    0.032653
  25 H :    0.015992
Sum of atomic charges:    0.0000000

LOEWDIN ATOMIC CHARGES
----------------------
   0 C :    0.092359
   1 N :   -0.013165
   2 C :    0.041580
   3 C :   -0.060388
   4 C :    0.082340
   5 O :   -0.187724
   6 C :   -0.130640
   7 C :   -0.130993
   8 C :    0.082670
   9 O :   -0.187618
  10 N :   -0.013811
  11 C :    0.041565
  12 C :   -0.060713
  13 C :    0.092520
  14 H :    0.033197
  15 H :    0.023516
  16 H :    0.034305
  17 H :    0.022434
  18 H :    0.030483
  19 H :    0.032391
  20 H :    0.023450
  21 H :    0.034008
  22 H :    0.022511
  23 H :    0.030375
  24 H :    0.032197
  25 H :    0.033154

  Mayer bond orders larger than 0.100000
B(  0-C ,  1-N ) :   1.1905 B(  0-C ,  7-C ) :   1.4508 B(  0-C , 14-H ) :   0.9839
B(  1-N ,  2-C ) :   0.9472 B(  1-N ,  4-C ) :   0.9852 B(  2-C ,  3-C ) :   1.1238
B(  2-C , 15-H ) :   0.9489 B(  2-C , 16-H ) :   0.9320 B(  3-C , 17-H ) :   0.9656
B(  3-C , 18-H ) :   0.9646 B(  3-C , 19-H ) :   0.9661 B(  4-C ,  5-O ) :   2.1218
B(  4-C ,  6-C ) :   0.9761 B(  6-C ,  7-C ) :   1.1958 B(  6-C , 13-C ) :   1.4538
B(  7-C ,  8-C ) :   0.9766 B(  8-C ,  9-O ) :   2.1232 B(  8-C , 10-N ) :   0.9840
B( 10-N , 11-C ) :   0.9465 B( 10-N , 13-C ) :   1.1910 B( 11-C , 12-C ) :   1.1219
B( 11-C , 20-H ) :   0.9490 B( 11-C , 21-H ) :   0.9311 B( 12-C , 22-H ) :   0.9666
B( 12-C , 23-H ) :   0.9657 B( 12-C , 24-H ) :   0.9661 B( 13-C , 25-H ) :   0.9828

Dispersion correction           -0.047334762
FINAL SINGLE POINT ENERGY      -647.822252387462

DIPOLE MOMENT
-------------
                                X             Y             Z
Electronic contribution:      1.03417      -1.56941      -5.22155
Nuclear contribution   :     -1.06093       1.60179       5.33271
                        -----------------------------------------
Total Dipole Moment    :     -0.02676       0.03238       0.11117
                        -----------------------------------------
Magnitude (a.u.)       :      0.11884
Magnitude (Debye)      :      0.30206

Rotational constants in cm-1:     0.054504     0.012860     0.011269
Rotational constants in MHz :  1633.985409   385.538424   337.840394

                             ****ORCA TERMINATED NORMALLY****
TOTAL RUN TIME: 0 days 0 hours 28 minutes 20 seconds 756 msec
