                         Program Version 4.2.0 -  RELEASE  -
|  1> # ORCA input file
|  2> # SCF done        -57.176983275319          0.000784476251
|  3> ! B3LYP/G D3BJ Opt RIJCOSX def2-SVP def2/J
|  4> * xyz 0 1
|  5>    C        1.60491         0.72520        -0.04224
|  6>    S        2.52682        -0.67711         0.31095
|  7>    C        1.09940        -1.61544         0.46231
|  8>    C       -0.02592        -0.88133         0.25312
|  9>    C        0.26787         0.47765        -0.04191
| 10>    C       -0.79012         1.48837        -0.36368
| 11>    C       -2.17877         1.02319         0.09126
| 12>    C       -2.34933         1.27658         1.58789
| 13>    F       -2.39098         2.59243         1.84399
| 14>    F       -3.49867         0.76236         2.05910
| 15>    F       -1.37330         0.77607         2.35196
| 16>    C       -2.45319        -0.45354        -0.24177
| 17>    C       -2.51522        -0.66070        -1.75387
| 18>    F       -3.31055         0.24017        -2.35463
| 19>    F       -1.33295        -0.59275        -2.37333
| 20>    F       -3.02415        -1.86701        -2.04628
| 21>    C       -1.42338        -1.40747         0.37637
| 22>    H        2.10229         1.65460        -0.23367
| 23>    H        1.17066        -2.65683         0.70384
| 24>    H       -0.80925         1.65598        -1.44411
| 25>    H       -0.55380         2.44613         0.10625
| 26>    H       -2.94615         1.64348        -0.38766
| 27>    H       -3.45514        -0.71763         0.11817
| 28>    H       -1.50183        -2.38700        -0.10152
| 29>    H       -1.66037        -1.54615         1.43489
| 30> *
| 31>
| 32>                          ****END OF INPUT****
 Total Charge           Charge          ....    0
 Multiplicity           Mult            ....    1
 Number of Electrons    NEL             ....  138
Dispersion correction           -0.055761281
FINAL SINGLE POINT ENERGY     -1382.360842308902
Dispersion correction            ... done
Dispersion correction           -0.055256976
FINAL SINGLE POINT ENERGY     -1382.363791659140
Dispersion correction            ... done
Dispersion correction           -0.055122358
FINAL SINGLE POINT ENERGY     -1382.363925429125
Dispersion correction            ... done
FINAL SINGLE POINT ENERGY     -1382.364034892241
FINAL SINGLE POINT ENERGY     -1382.364098945176
FINAL SINGLE POINT ENERGY     -1382.364165516189
FINAL SINGLE POINT ENERGY     -1382.364225945790
Dispersion correction            ... done
Dispersion correction           -0.054805969
FINAL SINGLE POINT ENERGY     -1382.364264148790
Dispersion correction            ... done
Dispersion correction           -0.054804495
FINAL SINGLE POINT ENERGY     -1382.364266761165
Dispersion correction            ... done
                    ***********************HURRAY********************

CARTESIAN COORDINATES (ANGSTROEM)
---------------------------------
  C      1.686374    0.719051    0.012009
  S      2.605274   -0.721963    0.277670
  C      1.168872   -1.674268    0.379314
  C      0.034444   -0.915203    0.221828
  C      0.334680    0.471005   -0.004048
  C     -0.734362    1.488848   -0.307097
  C     -2.151237    1.022789    0.087371
  C     -2.450374    1.341020    1.546718
  F     -2.426489    2.668747    1.760166
  F     -3.673017    0.907787    1.907588
  F     -1.565171    0.789210    2.396631
  C     -2.426137   -0.465658   -0.234513
  C     -2.602837   -0.678374   -1.732656
  F     -3.575608    0.114801   -2.222031
  F     -1.489142   -0.423982   -2.443732
  F     -2.958485   -1.947135   -1.997423
  C     -1.377004   -1.418913    0.364384
  H      2.190753    1.672067   -0.141999
  H      1.235253   -2.741793    0.583536
  H     -0.737139    1.693021   -1.388868
  H     -0.516119    2.448799    0.184098
  H     -2.885593    1.626313   -0.464921
  H     -3.410861   -0.726286    0.180312
  H     -1.490680   -2.416507   -0.084164
  H     -1.606515   -1.534126    1.435257

 Multiplicity           Mult            ....    1
 Number of Electrons    NEL             ....  138
 Basis Dimension        Dim             ....  282

ORBITAL ENERGIES
----------------

  NO   OCC          E(Eh)            E(eV)
   0   2.0000     -88.875429     -2418.4234
   1   2.0000     -24.728782      -672.9044
   2   2.0000     -24.728376      -672.8933
   3   2.0000     -24.728303      -672.8913
   4   2.0000     -24.728250      -672.8899
   5   2.0000     -24.727336      -672.8650
   6   2.0000     -24.726881      -672.8526
   7   2.0000     -10.439824      -284.0820
   8   2.0000     -10.439723      -284.0793
   9   2.0000     -10.237288      -278.5708
  10   2.0000     -10.237104      -278.5658
  11   2.0000     -10.215037      -277.9653
  12   2.0000     -10.214357      -277.9468
  13   2.0000     -10.211285      -277.8632
  14   2.0000     -10.211200      -277.8609
  15   2.0000     -10.201445      -277.5954
  16   2.0000     -10.201100      -277.5860
  17   2.0000      -7.970498      -216.8883
  18   2.0000      -5.938630      -161.5983
  19   2.0000      -5.934432      -161.4841
  20   2.0000      -5.931946      -161.4165
  21   2.0000      -1.307254       -35.5722
  22   2.0000      -1.306904       -35.5627
  23   2.0000      -1.214962       -33.0608
  24   2.0000      -1.214572       -33.0502
  25   2.0000      -1.214379       -33.0449
  26   2.0000      -1.213820       -33.0297
  27   2.0000      -0.892575       -24.2882
  28   2.0000      -0.859663       -23.3926
  29   2.0000      -0.793442       -21.5907
  30   2.0000      -0.763305       -20.7706
  31   2.0000      -0.739362       -20.1191
  32   2.0000      -0.693462       -18.8700
  33   2.0000      -0.690558       -18.7910
  34   2.0000      -0.654757       -17.8168
  35   2.0000      -0.639683       -17.4067
  36   2.0000      -0.605981       -16.4896
  37   2.0000      -0.605326       -16.4718
  38   2.0000      -0.602131       -16.3848
  39   2.0000      -0.600032       -16.3277
  40   2.0000      -0.577666       -15.7191
  41   2.0000      -0.558997       -15.2111
  42   2.0000      -0.551440       -15.0055
  43   2.0000      -0.515738       -14.0339
  44   2.0000      -0.497988       -13.5509
  45   2.0000      -0.483693       -13.1620
  46   2.0000      -0.479405       -13.0453
  47   2.0000      -0.478508       -13.0209
  48   2.0000      -0.476297       -12.9607
  49   2.0000      -0.467373       -12.7179
  50   2.0000      -0.461565       -12.5598
  51   2.0000      -0.452542       -12.3143
  52   2.0000      -0.442749       -12.0478
  53   2.0000      -0.430821       -11.7232
  54   2.0000      -0.426660       -11.6100
  55   2.0000      -0.424709       -11.5569
  56   2.0000      -0.422112       -11.4863
  57   2.0000      -0.419101       -11.4043
  58   2.0000      -0.415822       -11.3151
  59   2.0000      -0.412863       -11.2346
  60   2.0000      -0.408462       -11.1148
  61   2.0000      -0.402567       -10.9544
  62   2.0000      -0.364760        -9.9256
  63   2.0000      -0.364439        -9.9169
  64   2.0000      -0.359454        -9.7813
  65   2.0000      -0.354343        -9.6422
  66   2.0000      -0.343670        -9.3517
  67   2.0000      -0.247518        -6.7353
  68   2.0000      -0.238545        -6.4911
  69   0.0000      -0.024674        -0.6714
  70   0.0000       0.039026         1.0619
  71   0.0000       0.044914         1.2222
  72   0.0000       0.055753         1.5171
  73   0.0000       0.072177         1.9640

MULLIKEN ATOMIC CHARGES
-----------------------
   0 C :   -0.145042
   1 S :    0.101008
   2 C :   -0.142862
   3 C :   -0.023683
   4 C :   -0.019368
   5 C :    0.157307
   6 C :   -0.158545
   7 C :    0.528131
   8 F :   -0.169958
   9 F :   -0.172523
  10 F :   -0.169947
  11 C :   -0.154987
  12 C :    0.529716
  13 F :   -0.174021
  14 F :   -0.169004
  15 F :   -0.168091
  16 C :    0.165074
  17 H :    0.014440
  18 H :    0.013608
  19 H :    0.031650
  20 H :    0.016469
  21 H :    0.034273
  22 H :    0.030627
  23 H :    0.013446
  24 H :    0.032282
Sum of atomic charges:   -0.0000000

LOEWDIN ATOMIC CHARGES
----------------------
   0 C :   -0.198709
   1 S :    0.433437
   2 C :   -0.199346
   3 C :   -0.070365
   4 C :   -0.069124
   5 C :   -0.016587
   6 C :   -0.058871
   7 C :    0.172727
   8 F :   -0.061900
   9 F :   -0.064133
  10 F :   -0.059456
  11 C :   -0.059277
  12 C :    0.173141
  13 F :   -0.065405
  14 F :   -0.059129
  15 F :   -0.060067
  16 C :   -0.016320
  17 H :    0.023124
  18 H :    0.022976
  19 H :    0.038269
  20 H :    0.034996
  21 H :    0.043889
  22 H :    0.043289
  23 H :    0.034602
  24 H :    0.038238

  Mayer bond orders larger than 0.100000
B(  0-C ,  1-S ) :   1.1647 B(  0-C ,  4-C ) :   1.5541 B(  0-C , 17-H ) :   0.9679
B(  1-S ,  2-C ) :   1.1667 B(  2-C ,  3-C ) :   1.5551 B(  2-C , 18-H ) :   0.9656
B(  3-C ,  4-C ) :   1.2882 B(  3-C , 16-C ) :   1.0318 B(  4-C ,  5-C ) :   1.0332
B(  5-C ,  6-C ) :   1.0400 B(  5-C , 19-H ) :   0.9055 B(  5-C , 20-H ) :   0.9118
B(  6-C ,  7-C ) :   0.9847 B(  6-C , 11-C ) :   1.0104 B(  6-C , 21-H ) :   0.8895
B(  7-C ,  8-F ) :   1.1343 B(  7-C ,  9-F ) :   1.1270 B(  7-C , 10-F ) :   1.1330
B( 11-C , 12-C ) :   0.9815 B( 11-C , 16-C ) :   1.0408 B( 11-C , 22-H ) :   0.8889
B( 12-C , 13-F ) :   1.1260 B( 12-C , 14-F ) :   1.1365 B( 12-C , 15-F ) :   1.1347
B( 16-C , 23-H ) :   0.9093 B( 16-C , 24-H ) :   0.9082

Dispersion correction           -0.054803979
FINAL SINGLE POINT ENERGY     -1382.364260256734

DIPOLE MOMENT
-------------
                                X             Y             Z
Electronic contribution:     -9.84231       1.99769      -0.80408
Nuclear contribution   :      9.95145      -2.02270       0.81844
                        -----------------------------------------
Total Dipole Moment    :      0.10914      -0.02501       0.01437
                        -----------------------------------------
Magnitude (a.u.)       :      0.11289
Magnitude (Debye)      :      0.28694

Rotational constants in cm-1:     0.017056     0.012552     0.008810
Rotational constants in MHz :   511.332258   376.309737   264.129293

                             ****ORCA TERMINATED NORMALLY****
TOTAL RUN TIME: 0 days 0 hours 21 minutes 40 seconds 142 msec
