                         Program Version 4.2.0 -  RELEASE  -
|  1> # ORCA input file
|  2> # SCF done        -24.014039640699          0.000421857148
|  3> ! B3LYP/G D3BJ Opt RIJCOSX def2-SVP def2/J
|  4> * xyz 0 1
|  5>    C       -0.21365         1.06896         0.07679
|  6>    O       -1.01053         0.01526         0.23862
|  7>    C       -0.24195        -1.08660         0.14061
|  8>    C        1.05317        -0.75161        -0.08616
|  9>    C        1.08593         0.67482        -0.13054
| 10>    C        2.22583         1.57480        -0.34598
| 11>    O        2.09721         2.77832        -0.35897
| 12>    C        3.55591         0.89299        -0.54758
| 13>    H       -0.64581         2.04893         0.12240
| 14>    H       -0.72895        -2.03545         0.24827
| 15>    H        1.87630        -1.42453        -0.20628
| 16>    H        3.50424         0.23351        -1.41129
| 17>    H        3.79725         0.29453         0.32791
| 18>    H        4.33101         1.63797        -0.70399
| 19> *
| 20>
| 21>                          ****END OF INPUT****
 Total Charge           Charge          ....    0
 Multiplicity           Mult            ....    1
 Number of Electrons    NEL             ....   58
Dispersion correction           -0.021380797
FINAL SINGLE POINT ENERGY      -382.410834185210
Dispersion correction            ... done
Dispersion correction           -0.021322720
FINAL SINGLE POINT ENERGY      -382.412784916059
Dispersion correction            ... done
Dispersion correction           -0.021299094
FINAL SINGLE POINT ENERGY      -382.412909078432
Dispersion correction            ... done
FINAL SINGLE POINT ENERGY      -382.412929308353
FINAL SINGLE POINT ENERGY      -382.412943534174
Dispersion correction            ... done
Dispersion correction           -0.021287077
FINAL SINGLE POINT ENERGY      -382.412951706231
Dispersion correction            ... done
Dispersion correction           -0.021288329
FINAL SINGLE POINT ENERGY      -382.412949532313
Dispersion correction            ... done
                    ***********************HURRAY********************

CARTESIAN COORDINATES (ANGSTROEM)
---------------------------------
  C     -0.209006    1.078091    0.075661
  O     -1.028794    0.023177    0.233020
  C     -0.271950   -1.108291    0.141843
  C      1.034113   -0.783589   -0.070080
  C      1.084763    0.657604   -0.118192
  C      2.233079    1.566304   -0.339698
  O      2.085624    2.774066   -0.348152
  C      3.587458    0.920004   -0.557835
  H     -0.652481    2.068620    0.118048
  H     -0.805390   -2.048693    0.247706
  H      1.861468   -1.479098   -0.186039
  H      3.558914    0.242789   -1.427429
  H      3.868350    0.309472    0.316675
  H      4.339812    1.701444   -0.721717

 Multiplicity           Mult            ....    1
 Number of Electrons    NEL             ....   58
 Basis Dimension        Dim             ....  142

ORBITAL ENERGIES
----------------

  NO   OCC          E(Eh)            E(eV)
   0   2.0000     -19.220526      -523.0171
   1   2.0000     -19.119213      -520.2602
   2   2.0000     -10.277399      -279.6622
   3   2.0000     -10.256153      -279.0841
   4   2.0000     -10.252565      -278.9865
   5   2.0000     -10.205235      -277.6986
   6   2.0000     -10.199325      -277.5377
   7   2.0000     -10.194893      -277.4171
   8   2.0000      -1.123648       -30.5760
   9   2.0000      -1.026577       -27.9346
  10   2.0000      -0.816104       -22.2073
  11   2.0000      -0.760309       -20.6891
  12   2.0000      -0.738373       -20.0921
  13   2.0000      -0.637008       -17.3339
  14   2.0000      -0.586519       -15.9600
  15   2.0000      -0.571280       -15.5453
  16   2.0000      -0.506506       -13.7827
  17   2.0000      -0.475324       -12.9342
  18   2.0000      -0.461665       -12.5625
  19   2.0000      -0.450285       -12.2529
  20   2.0000      -0.442633       -12.0447
  21   2.0000      -0.438646       -11.9362
  22   2.0000      -0.416294       -11.3279
  23   2.0000      -0.394706       -10.7405
  24   2.0000      -0.378741       -10.3061
  25   2.0000      -0.366580        -9.9751
  26   2.0000      -0.296396        -8.0653
  27   2.0000      -0.254279        -6.9193
  28   2.0000      -0.249661        -6.7936
  29   0.0000      -0.047462        -1.2915
  30   0.0000       0.001218         0.0331
  31   0.0000       0.059616         1.6222
  32   0.0000       0.085158         2.3173
  33   0.0000       0.090815         2.4712

MULLIKEN ATOMIC CHARGES
-----------------------
   0 C :    0.122157
   1 O :   -0.197102
   2 C :    0.140863
   3 C :   -0.035861
   4 C :   -0.023930
   5 C :    0.026321
   6 O :   -0.200044
   7 C :    0.030036
   8 H :    0.025843
   9 H :    0.015319
  10 H :   -0.003411
  11 H :    0.035292
  12 H :    0.034664
  13 H :    0.029851
Sum of atomic charges:   -0.0000000

LOEWDIN ATOMIC CHARGES
----------------------
   0 C :    0.082039
   1 O :    0.017556
   2 C :    0.036938
   3 C :   -0.067432
   4 C :   -0.120696
   5 C :    0.078654
   6 O :   -0.160099
   7 C :   -0.076971
   8 H :    0.032656
   9 H :    0.025375
  10 H :    0.032500
  11 H :    0.040746
  12 H :    0.041038
  13 H :    0.037697

  Mayer bond orders larger than 0.100000
B(  0-C ,  1-O ) :   1.1800 B(  0-C ,  4-C ) :   1.4965 B(  0-C ,  8-H ) :   1.0012
B(  1-O ,  2-C ) :   1.1171 B(  2-C ,  3-C ) :   1.5694 B(  2-C ,  9-H ) :   0.9981
B(  3-C ,  4-C ) :   1.2118 B(  3-C , 10-H ) :   0.9972 B(  4-C ,  5-C ) :   0.9516
B(  5-C ,  6-O ) :   2.1762 B(  5-C ,  7-C ) :   1.0588 B(  7-C , 11-H ) :   0.9453
B(  7-C , 12-H ) :   0.9445 B(  7-C , 13-H ) :   0.9486

Dispersion correction           -0.021288501
FINAL SINGLE POINT ENERGY      -382.412950308418

DIPOLE MOMENT
-------------
                                X             Y             Z
Electronic contribution:     -5.27165       1.81587       0.85158
Nuclear contribution   :      5.33082      -2.99248      -0.83605
                        -----------------------------------------
Total Dipole Moment    :      0.05917      -1.17661       0.01553
                        -----------------------------------------
Magnitude (a.u.)       :      1.17820
Magnitude (Debye)      :      2.99474

Rotational constants in cm-1:     0.163480     0.051172     0.039261
Rotational constants in MHz :  4900.999053  1534.089692  1177.014884

                             ****ORCA TERMINATED NORMALLY****
TOTAL RUN TIME: 0 days 0 hours 4 minutes 18 seconds 797 msec
