                         Program Version 4.2.0 -  RELEASE  -
|  1> # ORCA input file
|  2> # SCF done        -37.091074417510          0.000596978620
|  3> ! B3LYP/G D3BJ Opt RIJCOSX def2-SVP def2/J
|  4> * xyz 0 1
|  5>    C        1.27085        -1.29920         0.37732
|  6>    S        2.52742        -0.13376         0.34312
|  7>    C        1.37498         1.16124         0.13110
|  8>    C        0.08930         0.67293         0.11148
|  9>    C        0.03694        -0.73922         0.25048
| 10>    C       -1.24258        -1.51474         0.28851
| 11>    C       -2.41642        -0.68679        -0.23969
| 12>    C       -2.38192        -0.63211        -1.76669
| 13>    C       -2.40586         0.71910         0.38023
| 14>    C       -2.51326         0.66682         1.90415
| 15>    C       -1.15121         1.49519        -0.03446
| 16>    C        1.91014         2.49365         0.01678
| 17>    C        1.29023         3.58652        -0.42230
| 18>    H        1.51492        -2.33709         0.49141
| 19>    H       -1.44105        -1.82214         1.31948
| 20>    H       -1.13716        -2.42867        -0.30150
| 21>    H       -3.34884        -1.17958         0.06025
| 22>    H       -1.40841        -0.30351        -2.12106
| 23>    H       -3.14051         0.04991        -2.14510
| 24>    H       -2.57534        -1.61940        -2.18083
| 25>    H       -3.28079         1.25923        -0.00097
| 26>    H       -1.59176         0.29599         2.34551
| 27>    H       -3.33336         0.02090         2.21116
| 28>    H       -2.69823         1.66322         2.30058
| 29>    H       -1.06575         2.39641         0.57813
| 30>    H       -1.24807         1.81575        -1.07612
| 31>    H        2.95118         2.56851         0.30830
| 32>    H        0.27293         3.59076        -0.76706
| 33>    H        1.80891         4.52920        -0.46201
| 34> *
| 35>
| 36>                          ****END OF INPUT****
 Total Charge           Charge          ....    0
 Multiplicity           Mult            ....    1
 Number of Electrons    NEL             ....  104
Dispersion correction           -0.063144990
FINAL SINGLE POINT ENERGY      -864.703581273880
Dispersion correction            ... done
Dispersion correction           -0.062407457
FINAL SINGLE POINT ENERGY      -864.707182214014
Dispersion correction            ... done
Dispersion correction           -0.062243527
FINAL SINGLE POINT ENERGY      -864.707281096753
Dispersion correction            ... done
FINAL SINGLE POINT ENERGY      -864.707252595807
Dispersion correction            ... done
Dispersion correction           -0.062204342
FINAL SINGLE POINT ENERGY      -864.707298272456
Dispersion correction            ... done
Dispersion correction           -0.062220513
FINAL SINGLE POINT ENERGY      -864.707312795317
Dispersion correction            ... done
                    ***********************HURRAY********************

CARTESIAN COORDINATES (ANGSTROEM)
---------------------------------
  C      1.321374   -1.323985    0.318564
  S      2.568847   -0.137825    0.300269
  C      1.414262    1.164850    0.124171
  C      0.115988    0.667579    0.092125
  C      0.068503   -0.762627    0.215381
  C     -1.231188   -1.525064    0.295907
  C     -2.423058   -0.707274   -0.235149
  C     -2.455344   -0.698079   -1.765527
  C     -2.404504    0.718522    0.360190
  C     -2.542973    0.710123    1.885473
  C     -1.138185    1.484837   -0.070962
  C      1.943517    2.517830    0.045901
  C      1.318751    3.648888   -0.329407
  H      1.569103   -2.379391    0.424280
  H     -1.416015   -1.801997    1.348141
  H     -1.148134   -2.476728   -0.252623
  H     -3.346839   -1.195531    0.119711
  H     -1.490164   -0.381779   -2.191721
  H     -3.229099   -0.013343   -2.147789
  H     -2.673892   -1.703666   -2.157931
  H     -3.273735    1.256045   -0.055266
  H     -1.627244    0.343057    2.375061
  H     -3.376813    0.067882    2.211679
  H     -2.730692    1.726131    2.266228
  H     -1.057193    2.419592    0.505960
  H     -1.230245    1.796810   -1.126946
  H      2.997423    2.602441    0.336871
  H      0.284369    3.673909   -0.671788
  H      1.860460    4.597911   -0.320603

 Multiplicity           Mult            ....    1
 Number of Electrons    NEL             ....  104
 Basis Dimension        Dim             ....  266

ORBITAL ENERGIES
----------------

  NO   OCC          E(Eh)            E(eV)
   0   2.0000     -88.865204     -2418.1451
   1   2.0000     -10.208783      -277.7951
   2   2.0000     -10.203016      -277.6382
   3   2.0000     -10.200020      -277.5567
   4   2.0000     -10.190754      -277.3045
   5   2.0000     -10.190350      -277.2935
   6   2.0000     -10.189375      -277.2670
   7   2.0000     -10.189191      -277.2620
   8   2.0000     -10.188622      -277.2465
   9   2.0000     -10.188194      -277.2349
  10   2.0000     -10.184459      -277.1332
  11   2.0000     -10.177659      -276.9482
  12   2.0000     -10.177581      -276.9461
  13   2.0000      -7.960355      -216.6123
  14   2.0000      -5.928325      -161.3179
  15   2.0000      -5.924449      -161.2125
  16   2.0000      -5.921810      -161.1406
  17   2.0000      -0.879987       -23.9457
  18   2.0000      -0.827169       -22.5084
  19   2.0000      -0.781633       -21.2693
  20   2.0000      -0.752407       -20.4740
  21   2.0000      -0.740277       -20.1440
  22   2.0000      -0.710851       -19.3432
  23   2.0000      -0.674776       -18.3616
  24   2.0000      -0.654508       -17.8101
  25   2.0000      -0.606981       -16.5168
  26   2.0000      -0.596532       -16.2325
  27   2.0000      -0.562709       -15.3121
  28   2.0000      -0.535109       -14.5610
  29   2.0000      -0.494303       -13.4507
  30   2.0000      -0.481923       -13.1138
  31   2.0000      -0.458138       -12.4666
  32   2.0000      -0.454168       -12.3585
  33   2.0000      -0.452630       -12.3167
  34   2.0000      -0.440744       -11.9932
  35   2.0000      -0.416725       -11.3397
  36   2.0000      -0.408894       -11.1266
  37   2.0000      -0.403935       -10.9916
  38   2.0000      -0.395188       -10.7536
  39   2.0000      -0.379548       -10.3280
  40   2.0000      -0.376413       -10.2427
  41   2.0000      -0.373967       -10.1762
  42   2.0000      -0.363626        -9.8948
  43   2.0000      -0.353186        -9.6107
  44   2.0000      -0.348524        -9.4838
  45   2.0000      -0.331235        -9.0134
  46   2.0000      -0.325393        -8.8544
  47   2.0000      -0.314733        -8.5643
  48   2.0000      -0.304718        -8.2918
  49   2.0000      -0.293834        -7.9956
  50   2.0000      -0.238008        -6.4765
  51   2.0000      -0.210665        -5.7325
  52   0.0000      -0.039085        -1.0635
  53   0.0000       0.026157         0.7118
  54   0.0000       0.038957         1.0601
  55   0.0000       0.045056         1.2260
  56   0.0000       0.073989         2.0133

MULLIKEN ATOMIC CHARGES
-----------------------
   0 C :   -0.131001
   1 S :    0.096654
   2 C :   -0.166558
   3 C :   -0.042113
   4 C :   -0.059215
   5 C :    0.165644
   6 C :   -0.084607
   7 C :    0.072359
   8 C :   -0.071787
   9 C :    0.065531
  10 C :    0.128110
  11 C :    0.035232
  12 C :   -0.042354
  13 H :    0.007811
  14 H :    0.007807
  15 H :   -0.011942
  16 H :   -0.021469
  17 H :    0.016317
  18 H :    0.000002
  19 H :   -0.000724
  20 H :   -0.021778
  21 H :    0.018386
  22 H :    0.000521
  23 H :    0.000802
  24 H :    0.005371
  25 H :    0.015838
  26 H :   -0.013463
  27 H :    0.011449
  28 H :    0.019174
Sum of atomic charges:   -0.0000000

LOEWDIN ATOMIC CHARGES
----------------------
   0 C :   -0.202365
   1 S :    0.425602
   2 C :   -0.186198
   3 C :   -0.054893
   4 C :   -0.064476
   5 C :   -0.017717
   6 C :   -0.028409
   7 C :   -0.047347
   8 C :   -0.026887
   9 C :   -0.047855
  10 C :   -0.020090
  11 C :   -0.040925
  12 C :   -0.062798
  13 H :    0.020927
  14 H :    0.029263
  15 H :    0.026644
  16 H :    0.018399
  17 H :    0.023517
  18 H :    0.020045
  19 H :    0.021806
  20 H :    0.018755
  21 H :    0.023796
  22 H :    0.019888
  23 H :    0.022295
  24 H :    0.029238
  25 H :    0.028678
  26 H :    0.027067
  27 H :    0.019121
  28 H :    0.024918

  Mayer bond orders larger than 0.100000
B(  0-C ,  1-S ) :   1.1522 B(  0-C ,  4-C ) :   1.5312 B(  0-C , 13-H ) :   0.9660
B(  1-S ,  2-C ) :   1.1246 B(  2-C ,  3-C ) :   1.4973 B(  2-C , 11-C ) :   1.1164
B(  3-C ,  4-C ) :   1.2898 B(  3-C , 10-C ) :   1.0697 B(  4-C ,  5-C ) :   1.0336
B(  5-C ,  6-C ) :   1.0521 B(  5-C , 14-H ) :   0.9104 B(  5-C , 15-H ) :   0.9121
B(  6-C ,  7-C ) :   1.0770 B(  6-C ,  8-C ) :   1.0238 B(  6-C , 16-H ) :   0.9096
B(  7-C , 17-H ) :   0.9606 B(  7-C , 18-H ) :   0.9619 B(  7-C , 19-H ) :   0.9594
B(  8-C ,  9-C ) :   1.0775 B(  8-C , 10-C ) :   1.0404 B(  8-C , 20-H ) :   0.9067
B(  9-C , 21-H ) :   0.9605 B(  9-C , 22-H ) :   0.9622 B(  9-C , 23-H ) :   0.9583
B( 10-C , 24-H ) :   0.9019 B( 10-C , 25-H ) :   0.9015 B( 11-C , 12-C ) :   1.9143
B( 11-C , 26-H ) :   0.9392 B( 12-C , 27-H ) :   0.9488 B( 12-C , 28-H ) :   0.9407

Dispersion correction           -0.062223356
FINAL SINGLE POINT ENERGY      -864.707315729826

DIPOLE MOMENT
-------------
                                X             Y             Z
Electronic contribution:     17.50522      -2.31896       1.08454
Nuclear contribution   :    -17.96141       2.16589      -1.06484
                        -----------------------------------------
Total Dipole Moment    :     -0.45619      -0.15307       0.01969
                        -----------------------------------------
Magnitude (a.u.)       :      0.48159
Magnitude (Debye)      :      1.22410

Rotational constants in cm-1:     0.034379     0.018843     0.014755
Rotational constants in MHz :  1030.665577   564.887462   442.345891

                             ****ORCA TERMINATED NORMALLY****
TOTAL RUN TIME: 0 days 0 hours 15 minutes 26 seconds 443 msec
