                         Program Version 4.2.0 -  RELEASE  -
|  1> # ORCA input file
|  2> # SCF done        -20.012190438473          0.000181100047
|  3> ! B3LYP/G D3BJ Opt RIJCOSX def2-SVP def2/J
|  4> * xyz 0 1
|  5>    C        0.10149         1.17915        -0.05369
|  6>    S       -1.07095        -0.06360        -0.09818
|  7>    C        0.16828        -1.27675        -0.00657
|  8>    C       -0.16506        -2.68372        -0.00080
|  9>    O        0.63843        -3.58189         0.06098
| 10>    C        1.41767        -0.70329         0.05426
| 11>    C        1.37596         0.69769         0.02732
| 12>    H       -0.21473         2.20332        -0.08971
| 13>    H       -1.25318        -2.88238        -0.05948
| 14>    H        2.31556        -1.29102         0.11562
| 15>    H        2.24650         1.32739         0.06576
| 16> *
| 17>
| 18>                          ****END OF INPUT****
 Total Charge           Charge          ....    0
 Multiplicity           Mult            ....    1
 Number of Electrons    NEL             ....   58
Dispersion correction           -0.020852464
FINAL SINGLE POINT ENERGY      -666.045952228361
Dispersion correction            ... done
Dispersion correction           -0.020779541
FINAL SINGLE POINT ENERGY      -666.047542471286
Dispersion correction            ... done
Dispersion correction           -0.020769962
FINAL SINGLE POINT ENERGY      -666.047579906346
Dispersion correction            ... done
FINAL SINGLE POINT ENERGY      -666.047547218829
FINAL SINGLE POINT ENERGY      -666.047596901542
Dispersion correction            ... done
Dispersion correction           -0.020775773
FINAL SINGLE POINT ENERGY      -666.047614154760
Dispersion correction            ... done
Dispersion correction           -0.020772974
FINAL SINGLE POINT ENERGY      -666.047618365098
Dispersion correction            ... done
                    ***********************HURRAY********************

CARTESIAN COORDINATES (ANGSTROEM)
---------------------------------
  C      0.097923    1.202908   -0.058585
  S     -1.079289   -0.050694   -0.112719
  C      0.157872   -1.275349   -0.016148
  C     -0.172696   -2.703893   -0.000714
  O      0.657209   -3.585562    0.040283
  C      1.417666   -0.708019    0.051810
  C      1.383590    0.709335    0.028763
  H     -0.217294    2.245532   -0.091726
  H     -1.269360   -2.936316   -0.027210
  H      2.317208   -1.319601    0.123072
  H      2.267142    1.346559    0.078684

 Multiplicity           Mult            ....    1
 Number of Electrons    NEL             ....   58
 Basis Dimension        Dim             ....  122

ORBITAL ENERGIES
----------------

  NO   OCC          E(Eh)            E(eV)
   0   2.0000     -88.894718     -2418.9483
   1   2.0000     -19.130936      -520.5792
   2   2.0000     -10.282188      -279.7926
   3   2.0000     -10.236666      -278.5538
   4   2.0000     -10.225128      -278.2399
   5   2.0000     -10.214334      -277.9462
   6   2.0000     -10.213444      -277.9219
   7   2.0000      -7.989752      -217.4122
   8   2.0000      -5.957633      -162.1154
   9   2.0000      -5.953640      -162.0068
  10   2.0000      -5.951524      -161.9492
  11   2.0000      -1.034550       -28.1515
  12   2.0000      -0.897468       -24.4213
  13   2.0000      -0.755701       -20.5637
  14   2.0000      -0.749498       -20.3949
  15   2.0000      -0.641211       -17.4482
  16   2.0000      -0.579521       -15.7696
  17   2.0000      -0.542431       -14.7603
  18   2.0000      -0.515869       -14.0375
  19   2.0000      -0.460591       -12.5333
  20   2.0000      -0.435137       -11.8407
  21   2.0000      -0.421542       -11.4708
  22   2.0000      -0.418188       -11.3795
  23   2.0000      -0.399190       -10.8625
  24   2.0000      -0.379545       -10.3279
  25   2.0000      -0.367127        -9.9900
  26   2.0000      -0.275611        -7.4997
  27   2.0000      -0.263616        -7.1734
  28   2.0000      -0.259486        -7.0610
  29   0.0000      -0.075763        -2.0616
  30   0.0000       0.006355         0.1729
  31   0.0000       0.020895         0.5686
  32   0.0000       0.067696         1.8421
  33   0.0000       0.070422         1.9163

MULLIKEN ATOMIC CHARGES
-----------------------
   0 C :   -0.076129
   1 S :    0.135231
   2 C :   -0.183170
   3 C :    0.198122
   4 O :   -0.198196
   5 C :    0.052500
   6 C :    0.038677
   7 H :    0.043018
   8 H :   -0.024374
   9 H :    0.009988
  10 H :    0.004331
Sum of atomic charges:   -0.0000000

LOEWDIN ATOMIC CHARGES
----------------------
   0 C :   -0.170693
   1 S :    0.451222
   2 C :   -0.241363
   3 C :    0.086755
   4 O :   -0.146410
   5 C :   -0.013971
   6 C :   -0.060514
   7 H :    0.029987
   8 H :   -0.009977
   9 H :    0.040407
  10 H :    0.034557

  Mayer bond orders larger than 0.100000
B(  0-C ,  1-S ) :   1.2036 B(  0-C ,  6-C ) :   1.5097 B(  0-C ,  7-H ) :   0.9701
B(  1-S ,  2-C ) :   1.1180 B(  2-C ,  3-C ) :   1.0169 B(  2-C ,  5-C ) :   1.4829
B(  3-C ,  4-O ) :   2.1383 B(  3-C ,  8-H ) :   0.9439 B(  5-C ,  6-C ) :   1.2879
B(  5-C ,  9-H ) :   0.9953 B(  6-C , 10-H ) :   0.9925

Dispersion correction           -0.020773538
FINAL SINGLE POINT ENERGY      -666.047618445440

DIPOLE MOMENT
-------------
                                X             Y             Z
Electronic contribution:     -2.73380      -1.15571      -0.19014
Nuclear contribution   :      2.49114       2.42562       0.17571
                        -----------------------------------------
Total Dipole Moment    :     -0.24267       1.26991      -0.01443
                        -----------------------------------------
Magnitude (a.u.)       :      1.29297
Magnitude (Debye)      :      3.28646

Rotational constants in cm-1:     0.166056     0.059246     0.043668
Rotational constants in MHz :  4978.229972  1776.139543  1309.126756

                             ****ORCA TERMINATED NORMALLY****
TOTAL RUN TIME: 0 days 0 hours 2 minutes 33 seconds 553 msec
