                         Program Version 4.2.0 -  RELEASE  -
|  1> # ORCA input file
|  2> # SCF done        -25.434598579031          0.000446193743
|  3> ! B3LYP/G D3BJ Opt RIJCOSX def2-SVP def2/J
|  4> * xyz 0 1
|  5>    C        0.06433         1.21891        -0.08121
|  6>    C        1.34541         0.75754        -0.04389
|  7>    C        2.55994         1.63246        -0.03106
|  8>    C        3.07141         1.83126         1.39654
|  9>    C        1.39343        -0.65322         0.02675
| 10>    C        0.16120        -1.24872         0.03687
| 11>    S       -1.09560        -0.04544        -0.03419
| 12>    C       -0.20065        -2.64131         0.08913
| 13>    C        0.65594        -3.65887         0.07732
| 14>    H       -0.27005         2.23599        -0.13832
| 15>    H        2.31664         2.60264        -0.46855
| 16>    H        3.34369         1.17061        -0.63562
| 17>    H        2.30978         2.31186         2.00670
| 18>    H        3.96188         2.45566         1.39705
| 19>    H        3.31814         0.87349         1.84924
| 20>    H        2.31568        -1.20428         0.06594
| 21>    H       -1.26458        -2.83426         0.13625
| 22>    H        1.72052        -3.51122         0.02482
| 23>    H        0.31440        -4.67802         0.11895
| 24> *
| 25>
| 26>                          ****END OF INPUT****
 Total Charge           Charge          ....    0
 Multiplicity           Mult            ....    1
 Number of Electrons    NEL             ....   74
Dispersion correction           -0.034869817
FINAL SINGLE POINT ENERGY      -708.737751992781
Dispersion correction            ... done
Dispersion correction           -0.034537153
FINAL SINGLE POINT ENERGY      -708.740733292494
Dispersion correction            ... done
Dispersion correction           -0.034462373
FINAL SINGLE POINT ENERGY      -708.740808933487
Dispersion correction            ... done
FINAL SINGLE POINT ENERGY      -708.740787183900
Dispersion correction            ... done
Dispersion correction           -0.034420621
FINAL SINGLE POINT ENERGY      -708.740796300560
Dispersion correction            ... done
Dispersion correction           -0.034430218
FINAL SINGLE POINT ENERGY      -708.740801246837
Dispersion correction            ... done
                    ***********************HURRAY********************

CARTESIAN COORDINATES (ANGSTROEM)
---------------------------------
  C      0.053215    1.218468   -0.058045
  C      1.352185    0.756293   -0.030796
  C      2.570266    1.644789   -0.010122
  C      3.104470    1.911758    1.405216
  C      1.399147   -0.670468    0.018955
  C      0.156302   -1.274793    0.024127
  S     -1.100468   -0.063720   -0.026018
  C     -0.219945   -2.681716    0.057760
  C      0.616381   -3.731403    0.062761
  H     -0.280584    2.254379   -0.099607
  H      2.323984    2.602807   -0.496260
  H      3.362708    1.183003   -0.623122
  H      2.337948    2.401863    2.025851
  H      3.991786    2.564446    1.379708
  H      3.389662    0.974099    1.907969
  H      2.333176   -1.233955    0.043475
  H     -1.297950   -2.878122    0.081046
  H      1.703462   -3.611504    0.037743
  H      0.225766   -4.751145    0.092079

 Multiplicity           Mult            ....    1
 Number of Electrons    NEL             ....   74
 Basis Dimension        Dim             ....  180

ORBITAL ENERGIES
----------------

  NO   OCC          E(Eh)            E(eV)
   0   2.0000     -88.869759     -2418.2691
   1   2.0000     -10.214901      -277.9616
   2   2.0000     -10.206290      -277.7273
   3   2.0000     -10.202662      -277.6285
   4   2.0000     -10.195262      -277.4272
   5   2.0000     -10.194516      -277.4069
   6   2.0000     -10.188545      -277.2444
   7   2.0000     -10.188414      -277.2408
   8   2.0000     -10.183982      -277.1202
   9   2.0000      -7.964868      -216.7351
  10   2.0000      -5.932809      -161.4399
  11   2.0000      -5.928921      -161.3341
  12   2.0000      -5.926423      -161.2662
  13   2.0000      -0.878876       -23.9154
  14   2.0000      -0.791057       -21.5258
  15   2.0000      -0.768040       -20.8994
  16   2.0000      -0.717233       -19.5169
  17   2.0000      -0.697128       -18.9698
  18   2.0000      -0.623790       -16.9742
  19   2.0000      -0.595625       -16.2078
  20   2.0000      -0.546637       -14.8748
  21   2.0000      -0.526825       -14.3356
  22   2.0000      -0.485090       -13.2000
  23   2.0000      -0.456677       -12.4268
  24   2.0000      -0.445647       -12.1267
  25   2.0000      -0.431380       -11.7384
  26   2.0000      -0.405692       -11.0395
  27   2.0000      -0.394517       -10.7354
  28   2.0000      -0.387191       -10.5360
  29   2.0000      -0.371522       -10.1096
  30   2.0000      -0.368264       -10.0210
  31   2.0000      -0.355011        -9.6603
  32   2.0000      -0.341853        -9.3023
  33   2.0000      -0.334437        -9.1005
  34   2.0000      -0.300045        -8.1646
  35   2.0000      -0.247797        -6.7429
  36   2.0000      -0.215106        -5.8533
  37   0.0000      -0.043937        -1.1956
  38   0.0000       0.024161         0.6575
  39   0.0000       0.033359         0.9077
  40   0.0000       0.063222         1.7204
  41   0.0000       0.081069         2.2060

MULLIKEN ATOMIC CHARGES
-----------------------
   0 C :   -0.119838
   1 C :   -0.031983
   2 C :    0.079627
   3 C :    0.009227
   4 C :    0.010015
   5 C :   -0.118693
   6 S :    0.099848
   7 C :    0.052321
   8 C :   -0.038836
   9 H :    0.014465
  10 H :   -0.004337
  11 H :    0.004383
  12 H :    0.013326
  13 H :    0.015814
  14 H :    0.011095
  15 H :   -0.028902
  16 H :   -0.010083
  17 H :    0.020402
  18 H :    0.022148
Sum of atomic charges:    0.0000000

LOEWDIN ATOMIC CHARGES
----------------------
   0 C :   -0.202643
   1 C :   -0.058455
   2 C :   -0.027434
   3 C :   -0.051331
   4 C :   -0.059728
   5 C :   -0.179277
   6 S :    0.426667
   7 C :   -0.041402
   8 C :   -0.052878
   9 H :    0.021458
  10 H :    0.026595
  11 H :    0.028004
  12 H :    0.023657
  13 H :    0.022947
  14 H :    0.022603
  15 H :    0.024996
  16 H :    0.027902
  17 H :    0.022035
  18 H :    0.026286

  Mayer bond orders larger than 0.100000
B(  0-C ,  1-C ) :   1.5456 B(  0-C ,  6-S ) :   1.1466 B(  0-C ,  9-H ) :   0.9670
B(  1-C ,  2-C ) :   1.0582 B(  1-C ,  4-C ) :   1.2752 B(  2-C ,  3-C ) :   1.1044
B(  2-C , 10-H ) :   0.9276 B(  2-C , 11-H ) :   0.9267 B(  3-C , 12-H ) :   0.9683
B(  3-C , 13-H ) :   0.9650 B(  3-C , 14-H ) :   0.9692 B(  4-C ,  5-C ) :   1.5016
B(  4-C , 15-H ) :   0.9910 B(  5-C ,  6-S ) :   1.1373 B(  5-C ,  7-C ) :   1.1026
B(  7-C ,  8-C ) :   1.9276 B(  7-C , 16-H ) :   0.9508 B(  8-C , 17-H ) :   0.9521
B(  8-C , 18-H ) :   0.9451

Dispersion correction           -0.034434618
FINAL SINGLE POINT ENERGY      -708.740796126686

DIPOLE MOMENT
-------------
                                X             Y             Z
Electronic contribution:    -10.54671      -1.83245      -2.62561
Nuclear contribution   :     10.81658       2.00773       2.64606
                        -----------------------------------------
Total Dipole Moment    :      0.26987       0.17528       0.02045
                        -----------------------------------------
Magnitude (a.u.)       :      0.32245
Magnitude (Debye)      :      0.81959

Rotational constants in cm-1:     0.077238     0.030085     0.022840
Rotational constants in MHz :  2315.525406   901.925312   684.736187

                             ****ORCA TERMINATED NORMALLY****
TOTAL RUN TIME: 0 days 0 hours 5 minutes 9 seconds 333 msec
