                         Program Version 4.2.0 -  RELEASE  -
|  1> # ORCA input file
|  2> # SCF done        -47.507006825962          0.000990590600
|  3> ! B3LYP/G D3BJ Opt RIJCOSX def2-SVP def2/J
|  4> * xyz 0 1
|  5>    C        1.49440         1.17968        -0.08011
|  6>    S        2.76188         0.07435        -0.40647
|  7>    C        1.62851        -1.18842        -0.68203
|  8>    C        0.34177        -0.77988        -0.52814
|  9>    C        0.26606         0.59744        -0.17346
| 10>    C       -1.05493         1.29268         0.07245
| 11>    C       -1.15927         1.45556         1.56561
| 12>    O       -1.79313         0.77897         2.32212
| 13>    C       -0.30821         2.61682         2.17393
| 14>    F       -0.00262         3.58040         1.29052
| 15>    F       -0.96729         3.20655         3.17288
| 16>    F        0.85097         2.16507         2.67166
| 17>    C       -2.22220         0.46924        -0.48426
| 18>    C       -2.10145        -1.00910        -0.12272
| 19>    C       -0.86883        -1.62044        -0.78118
| 20>    H        1.73902         2.19748         0.14750
| 21>    H        1.97984        -2.16417        -0.95176
| 22>    H       -1.03286         2.28543        -0.38898
| 23>    H       -2.23381         0.57825        -1.57076
| 24>    H       -3.15679         0.87095        -0.08960
| 25>    H       -2.99488        -1.53773        -0.45782
| 26>    H       -2.03541        -1.11481         0.95935
| 27>    H       -1.02639        -1.68147        -1.86345
| 28>    H       -0.70270        -2.63602        -0.41804
| 29> *
| 30>
| 31>                          ****END OF INPUT****
 Total Charge           Charge          ....    0
 Multiplicity           Mult            ....    1
 Number of Electrons    NEL             ....  120
Dispersion correction           -0.053057833
FINAL SINGLE POINT ENERGY     -1158.793187773815
Dispersion correction            ... done
Dispersion correction           -0.052318167
FINAL SINGLE POINT ENERGY     -1158.796734177510
Dispersion correction            ... done
Dispersion correction           -0.052458992
FINAL SINGLE POINT ENERGY     -1158.796463191860
Dispersion correction            ... done
FINAL SINGLE POINT ENERGY     -1158.797193341542
FINAL SINGLE POINT ENERGY     -1158.797186066991
FINAL SINGLE POINT ENERGY     -1158.797204591368
FINAL SINGLE POINT ENERGY     -1158.797143661795
FINAL SINGLE POINT ENERGY     -1158.797160996993
FINAL SINGLE POINT ENERGY     -1158.797208583941
FINAL SINGLE POINT ENERGY     -1158.797188033072
Dispersion correction            ... done
Dispersion correction           -0.052274036
FINAL SINGLE POINT ENERGY     -1158.797175782314
Dispersion correction            ... done
Dispersion correction           -0.052270772
FINAL SINGLE POINT ENERGY     -1158.797174128839
Dispersion correction            ... done
                    ***********************HURRAY********************

CARTESIAN COORDINATES (ANGSTROEM)
---------------------------------
  C      1.522433    1.219321   -0.162107
  S      2.795427    0.111194   -0.505653
  C      1.673421   -1.185835   -0.723403
  C      0.371603   -0.784365   -0.541685
  C      0.285697    0.613719   -0.202584
  C     -1.053028    1.282059    0.087605
  C     -1.209528    1.535768    1.583880
  O     -2.001239    0.986850    2.304074
  C     -0.288644    2.606813    2.239207
  F      0.209836    3.468725    1.329055
  F     -0.979357    3.320736    3.125918
  F      0.738848    2.018877    2.864226
  C     -2.232702    0.455208   -0.451530
  C     -2.106451   -1.038644   -0.131342
  C     -0.847302   -1.644701   -0.762039
  H      1.752348    2.255898    0.067149
  H      2.028079   -2.175395   -1.008324
  H     -1.050729    2.277879   -0.384863
  H     -2.277720    0.596665   -1.544469
  H     -3.168575    0.854197   -0.033272
  H     -2.994592   -1.572285   -0.504748
  H     -2.090290   -1.172524    0.961178
  H     -1.005920   -1.751510   -1.851326
  H     -0.669934   -2.661821   -0.377709

 Multiplicity           Mult            ....    1
 Number of Electrons    NEL             ....  120
 Basis Dimension        Dim             ....  259

ORBITAL ENERGIES
----------------

  NO   OCC          E(Eh)            E(eV)
   0   2.0000     -88.878048     -2418.4946
   1   2.0000     -24.738302      -673.1634
   2   2.0000     -24.732610      -673.0085
   3   2.0000     -24.731059      -672.9663
   4   2.0000     -19.166608      -521.5499
   5   2.0000     -10.442861      -284.1647
   6   2.0000     -10.308626      -280.5120
   7   2.0000     -10.225706      -278.2556
   8   2.0000     -10.214721      -277.9567
   9   2.0000     -10.211495      -277.8689
  10   2.0000     -10.209551      -277.8160
  11   2.0000     -10.201438      -277.5952
  12   2.0000     -10.200726      -277.5759
  13   2.0000     -10.198674      -277.5200
  14   2.0000     -10.191502      -277.3249
  15   2.0000      -7.973252      -216.9632
  16   2.0000      -5.941249      -161.6696
  17   2.0000      -5.937175      -161.5587
  18   2.0000      -5.934800      -161.4941
  19   2.0000      -1.313951       -35.7544
  20   2.0000      -1.222677       -33.2707
  21   2.0000      -1.221270       -33.2325
  22   2.0000      -1.075078       -29.2544
  23   2.0000      -0.890554       -24.2332
  24   2.0000      -0.830261       -22.5926
  25   2.0000      -0.785581       -21.3768
  26   2.0000      -0.743069       -20.2199
  27   2.0000      -0.733573       -19.9615
  28   2.0000      -0.703854       -19.1528
  29   2.0000      -0.665036       -18.0965
  30   2.0000      -0.628039       -17.0898
  31   2.0000      -0.608496       -16.5580
  32   2.0000      -0.607342       -16.5266
  33   2.0000      -0.591992       -16.1089
  34   2.0000      -0.575839       -15.6694
  35   2.0000      -0.548675       -14.9302
  36   2.0000      -0.512483       -13.9454
  37   2.0000      -0.504904       -13.7391
  38   2.0000      -0.486973       -13.2512
  39   2.0000      -0.481010       -13.0890
  40   2.0000      -0.474762       -12.9189
  41   2.0000      -0.460063       -12.5190
  42   2.0000      -0.454608       -12.3705
  43   2.0000      -0.445362       -12.1189
  44   2.0000      -0.441573       -12.0158
  45   2.0000      -0.430702       -11.7200
  46   2.0000      -0.427799       -11.6410
  47   2.0000      -0.424734       -11.5576
  48   2.0000      -0.411242       -11.1905
  49   2.0000      -0.405262       -11.0278
  50   2.0000      -0.403298       -10.9743
  51   2.0000      -0.394464       -10.7339
  52   2.0000      -0.373643       -10.1673
  53   2.0000      -0.350623        -9.5410
  54   2.0000      -0.345562        -9.4032
  55   2.0000      -0.338668        -9.2156
  56   2.0000      -0.335050        -9.1172
  57   2.0000      -0.292330        -7.9547
  58   2.0000      -0.249114        -6.7787
  59   2.0000      -0.240248        -6.5375
  60   0.0000      -0.063867        -1.7379
  61   0.0000      -0.025680        -0.6988
  62   0.0000       0.041204         1.1212
  63   0.0000       0.045348         1.2340
  64   0.0000       0.051589         1.4038

MULLIKEN ATOMIC CHARGES
-----------------------
   0 C :   -0.131504
   1 S :    0.112155
   2 C :   -0.141211
   3 C :   -0.037205
   4 C :   -0.030362
   5 C :    0.005338
   6 C :   -0.012196
   7 O :   -0.158511
   8 C :    0.555157
   9 F :   -0.176619
  10 F :   -0.147747
  11 F :   -0.161074
  12 C :    0.076927
  13 C :    0.014002
  14 C :    0.126690
  15 H :    0.027270
  16 H :    0.013210
  17 H :    0.025160
  18 H :    0.003046
  19 H :    0.001632
  20 H :   -0.002581
  21 H :    0.023627
  22 H :    0.013021
  23 H :    0.001773
Sum of atomic charges:    0.0000000

LOEWDIN ATOMIC CHARGES
----------------------
   0 C :   -0.200700
   1 S :    0.440949
   2 C :   -0.200333
   3 C :   -0.061697
   4 C :   -0.070205
   5 C :   -0.052176
   6 C :    0.056427
   7 O :   -0.091572
   8 C :    0.145058
   9 F :   -0.062796
  10 F :   -0.039220
  11 F :   -0.047332
  12 C :   -0.016881
  13 C :   -0.029118
  14 C :   -0.023867
  15 H :    0.019341
  16 H :    0.023292
  17 H :    0.044442
  18 H :    0.025571
  19 H :    0.027751
  20 H :    0.025235
  21 H :    0.025068
  22 H :    0.031586
  23 H :    0.031178

  Mayer bond orders larger than 0.100000
B(  0-C ,  1-S ) :   1.1752 B(  0-C ,  4-C ) :   1.5519 B(  0-C , 15-H ) :   0.9499
B(  1-S ,  2-C ) :   1.1627 B(  2-C ,  3-C ) :   1.5608 B(  2-C , 16-H ) :   0.9637
B(  3-C ,  4-C ) :   1.2982 B(  3-C , 14-C ) :   1.0422 B(  4-C ,  5-C ) :   0.9637
B(  5-C ,  6-C ) :   0.9195 B(  5-C , 12-C ) :   1.0714 B(  5-C , 17-H ) :   0.8811
B(  6-C ,  7-O ) :   2.1671 B(  6-C ,  8-C ) :   0.8738 B(  8-C ,  9-F ) :   1.0889
B(  8-C , 10-F ) :   1.1704 B(  8-C , 11-F ) :   1.1356 B( 12-C , 13-C ) :   1.0741
B( 12-C , 18-H ) :   0.9332 B( 12-C , 19-H ) :   0.9225 B( 13-C , 14-C ) :   1.0903
B( 13-C , 20-H ) :   0.9286 B( 13-C , 21-H ) :   0.9453 B( 14-C , 22-H ) :   0.9174
B( 14-C , 23-H ) :   0.9177

Dispersion correction           -0.052269512
FINAL SINGLE POINT ENERGY     -1158.797178864654

DIPOLE MOMENT
-------------
                                X             Y             Z
Electronic contribution:      8.94488      16.31993      14.13858
Nuclear contribution   :     -8.99307     -16.59973     -15.12958
                        -----------------------------------------
Total Dipole Moment    :     -0.04819      -0.27980      -0.99100
                        -----------------------------------------
Magnitude (a.u.)       :      1.03086
Magnitude (Debye)      :      2.62025

Rotational constants in cm-1:     0.025540     0.015440     0.010902
Rotational constants in MHz :   765.675142   462.880993   326.825090

                             ****ORCA TERMINATED NORMALLY****
TOTAL RUN TIME: 0 days 0 hours 22 minutes 14 seconds 137 msec
