                         Program Version 4.2.0 -  RELEASE  -
|  1> # ORCA input file
|  2> # SCF done        -32.661985093722          0.000492736913
|  3> ! B3LYP/G D3BJ Opt RIJCOSX def2-SVP def2/J
|  4> * xyz 0 1
|  5>    N        0.84537         0.22592        -0.04276
|  6>    C        2.20241         0.08266        -0.06376
|  7>    S        2.98942        -1.44882        -0.02167
|  8>    C        4.59389        -0.75404         0.04643
|  9>    C        4.49871         0.62728         0.03832
| 10>    C        3.13796         1.10866        -0.02849
| 11>    N        2.84214         2.42515        -0.07234
| 12>    C        3.86366         3.23405        -0.03410
| 13>    C        5.20425         2.76999         0.04876
| 14>    N        5.52663         1.50989         0.08045
| 15>    C        5.73438        -1.61722         0.09908
| 16>    C        6.99760        -1.19482         0.15398
| 17>    H        0.28526        -0.53754        -0.38408
| 18>    H        0.52351         1.15565        -0.26456
| 19>    H        3.64649         4.29274        -0.07290
| 20>    H        6.02341         3.47626         0.08270
| 21>    H        5.50677        -2.67625         0.09111
| 22>    H        7.22982        -0.14481         0.16222
| 23>    H        7.81644        -1.89152         0.19175
| 24> *
| 25>
| 26>                          ****END OF INPUT****
 Total Charge           Charge          ....    0
 Multiplicity           Mult            ....    1
 Number of Electrons    NEL             ....   92
Dispersion correction           -0.042397941
FINAL SINGLE POINT ENERGY      -871.056537698441
Dispersion correction            ... done
Dispersion correction           -0.042118219
FINAL SINGLE POINT ENERGY      -871.059367620861
Dispersion correction            ... done
Dispersion correction           -0.042090099
FINAL SINGLE POINT ENERGY      -871.059514318915
Dispersion correction            ... done
FINAL SINGLE POINT ENERGY      -871.059564987008
FINAL SINGLE POINT ENERGY      -871.059618237791
FINAL SINGLE POINT ENERGY      -871.059627649720
FINAL SINGLE POINT ENERGY      -871.059632180068
Dispersion correction            ... done
Dispersion correction           -0.042096404
FINAL SINGLE POINT ENERGY      -871.059632370443
Dispersion correction            ... done
Dispersion correction           -0.042095904
FINAL SINGLE POINT ENERGY      -871.059631422754
Dispersion correction            ... done
                    ***********************HURRAY********************

CARTESIAN COORDINATES (ANGSTROEM)
---------------------------------
  N      0.830077    0.225214   -0.043859
  C      2.187782    0.066925   -0.050971
  S      2.995160   -1.457974    0.016654
  C      4.608287   -0.754468    0.071716
  C      4.497647    0.636835    0.053816
  C      3.127683    1.106813   -0.019187
  N      2.802278    2.422618   -0.068151
  C      3.814705    3.254504   -0.038623
  C      5.180539    2.801992    0.039278
  N      5.525661    1.539961    0.082612
  C      5.759423   -1.630489    0.108131
  C      7.051703   -1.251443    0.145732
  H      0.258023   -0.478318   -0.495436
  H      0.540143    1.185377   -0.209509
  H      3.601619    4.329353   -0.078426
  H      5.983487    3.549260    0.062717
  H      5.527645   -2.702650    0.107311
  H      7.332764   -0.197355    0.150925
  H      7.843492   -2.002924    0.175410

 Multiplicity           Mult            ....    1
 Number of Electrons    NEL             ....   92
 Basis Dimension        Dim             ....  207

ORBITAL ENERGIES
----------------

  NO   OCC          E(Eh)            E(eV)
   0   2.0000     -88.888699     -2418.7845
   1   2.0000     -14.364130      -390.8678
   2   2.0000     -14.345156      -390.3515
   3   2.0000     -14.337083      -390.1319
   4   2.0000     -10.264420      -279.3091
   5   2.0000     -10.234027      -278.4820
   6   2.0000     -10.231314      -278.4082
   7   2.0000     -10.224354      -278.2188
   8   2.0000     -10.221793      -278.1491
   9   2.0000     -10.211009      -277.8557
  10   2.0000     -10.193300      -277.3738
  11   2.0000     -10.170074      -276.7418
  12   2.0000      -7.983657      -217.2464
  13   2.0000      -5.951658      -161.9528
  14   2.0000      -5.947848      -161.8492
  15   2.0000      -5.944914      -161.7693
  16   2.0000      -0.977384       -26.5960
  17   2.0000      -0.938270       -25.5316
  18   2.0000      -0.903507       -24.5857
  19   2.0000      -0.862143       -23.4601
  20   2.0000      -0.768686       -20.9170
  21   2.0000      -0.753051       -20.4916
  22   2.0000      -0.699027       -19.0215
  23   2.0000      -0.660846       -17.9825
  24   2.0000      -0.629890       -17.1402
  25   2.0000      -0.595916       -16.2157
  26   2.0000      -0.554887       -15.0993
  27   2.0000      -0.541609       -14.7379
  28   2.0000      -0.532280       -14.4841
  29   2.0000      -0.504551       -13.7295
  30   2.0000      -0.468527       -12.7493
  31   2.0000      -0.464802       -12.6479
  32   2.0000      -0.445476       -12.1220
  33   2.0000      -0.436783       -11.8855
  34   2.0000      -0.418154       -11.3786
  35   2.0000      -0.391088       -10.6421
  36   2.0000      -0.385337       -10.4856
  37   2.0000      -0.359608        -9.7854
  38   2.0000      -0.357633        -9.7317
  39   2.0000      -0.355330        -9.6690
  40   2.0000      -0.319960        -8.7066
  41   2.0000      -0.314007        -8.5446
  42   2.0000      -0.273517        -7.4428
  43   2.0000      -0.263685        -7.1752
  44   2.0000      -0.247262        -6.7283
  45   2.0000      -0.182535        -4.9670
  46   0.0000      -0.081238        -2.2106
  47   0.0000      -0.020477        -0.5572
  48   0.0000       0.011275         0.3068
  49   0.0000       0.017763         0.4834
  50   0.0000       0.052271         1.4224

MULLIKEN ATOMIC CHARGES
-----------------------
   0 N :   -0.040423
   1 C :   -0.204945
   2 S :    0.114430
   3 C :   -0.182022
   4 C :    0.076255
   5 C :    0.053809
   6 N :   -0.059915
   7 C :    0.007523
   8 C :    0.021412
   9 N :   -0.044395
  10 C :    0.002509
  11 C :   -0.024329
  12 H :    0.126883
  13 H :    0.129984
  14 H :    0.003943
  15 H :    0.007300
  16 H :   -0.026227
  17 H :    0.025924
  18 H :    0.012284
Sum of atomic charges:    0.0000000

LOEWDIN ATOMIC CHARGES
----------------------
   0 N :   -0.012796
   1 C :   -0.138748
   2 S :    0.443511
   3 C :   -0.208621
   4 C :   -0.039196
   5 C :   -0.091274
   6 N :   -0.053081
   7 C :   -0.020173
   8 C :    0.001775
   9 N :   -0.047171
  10 C :   -0.053183
  11 C :   -0.056817
  12 H :    0.078778
  13 H :    0.085168
  14 H :    0.021071
  15 H :    0.023188
  16 H :    0.022951
  17 H :    0.023499
  18 H :    0.021119

  Mayer bond orders larger than 0.100000
B(  0-N ,  1-C ) :   1.3033 B(  0-N , 12-H ) :   0.9337 B(  0-N , 13-H ) :   0.9306
B(  1-C ,  2-S ) :   1.1721 B(  1-C ,  5-C ) :   1.2625 B(  2-S ,  3-C ) :   1.0835
B(  3-C ,  4-C ) :   1.3810 B(  3-C , 10-C ) :   1.1533 B(  4-C ,  5-C ) :   1.1886
B(  4-C ,  9-N ) :   1.3676 B(  5-C ,  6-N ) :   1.3799 B(  6-N ,  7-C ) :   1.6738
B(  7-C ,  8-C ) :   1.1755 B(  7-C , 14-H ) :   0.9640 B(  8-C ,  9-N ) :   1.6989
B(  8-C , 15-H ) :   0.9629 B( 10-C , 11-C ) :   1.9063 B( 10-C , 16-H ) :   0.9375
B( 11-C , 17-H ) :   0.9381 B( 11-C , 18-H ) :   0.9378

Dispersion correction           -0.042095765
FINAL SINGLE POINT ENERGY      -871.059630934571

DIPOLE MOMENT
-------------
                                X             Y             Z
Electronic contribution:     -4.72448      -0.98420       0.03312
Nuclear contribution   :      3.58035       1.06290      -0.40139
                        -----------------------------------------
Total Dipole Moment    :     -1.14413       0.07870      -0.36827
                        -----------------------------------------
Magnitude (a.u.)       :      1.20452
Magnitude (Debye)      :      3.06164

Rotational constants in cm-1:     0.036017     0.031164     0.016715
Rotational constants in MHz :  1079.776860   934.274602   501.103622

                             ****ORCA TERMINATED NORMALLY****
TOTAL RUN TIME: 0 days 0 hours 10 minutes 16 seconds 6 msec
