                         Program Version 4.2.0 -  RELEASE  -
|  1> # ORCA input file
|  2> # SCF done        -37.902809534365          0.000123026286
|  3> ! B3LYP/G D3BJ Opt RIJCOSX def2-SVP def2/J
|  4> * xyz 0 1
|  5>    C       -1.12332        -1.41100         0.13561
|  6>    S       -2.36532        -0.21830         0.11078
|  7>    C       -1.26317         1.12208         0.01432
|  8>    C        0.03628         0.63720         0.00242
|  9>    C        0.08802        -0.79694         0.07177
| 10>    O        1.36538        -1.23551         0.05829
| 11>    C        2.12524        -0.10772        -0.01797
| 12>    N        3.53161        -0.25642        -0.04939
| 13>    O        4.18007         0.77256        -0.11608
| 14>    O        3.98932        -1.37755        -0.00872
| 15>    C        1.39323         1.04821        -0.05489
| 16>    C       -1.78247         2.45681        -0.03780
| 17>    C       -1.04808         3.56604        -0.11719
| 18>    H       -1.36352        -2.45164         0.19355
| 19>    H        1.80577         2.03380        -0.11440
| 20>    H       -2.86197         2.52221        -0.00854
| 21>    H        0.02601         3.54124        -0.14935
| 22>    H       -1.51074         4.53599        -0.15266
| 23> *
| 24>
| 25>                          ****END OF INPUT****
 Total Charge           Charge          ....    0
 Multiplicity           Mult            ....    1
 Number of Electrons    NEL             ....  100
Dispersion correction           -0.037975950
FINAL SINGLE POINT ENERGY      -985.804102598908
Dispersion correction            ... done
Dispersion correction           -0.037809654
FINAL SINGLE POINT ENERGY      -985.806573237280
Dispersion correction            ... done
Dispersion correction           -0.037753426
FINAL SINGLE POINT ENERGY      -985.806717510939
Dispersion correction            ... done
FINAL SINGLE POINT ENERGY      -985.806313207629
Dispersion correction            ... done
Dispersion correction           -0.037720633
FINAL SINGLE POINT ENERGY      -985.806813705006
Dispersion correction            ... done
Dispersion correction           -0.037721875
FINAL SINGLE POINT ENERGY      -985.806814954300
Dispersion correction            ... done
                    ***********************HURRAY********************

CARTESIAN COORDINATES (ANGSTROEM)
---------------------------------
  C     -1.124234   -1.432505    0.135930
  S     -2.370043   -0.229410    0.104303
  C     -1.268025    1.122371    0.009791
  C      0.039767    0.636896    0.006136
  C      0.084792   -0.791943    0.080947
  O      1.374206   -1.237893    0.073395
  C      2.130982   -0.109931   -0.015243
  N      3.560557   -0.283686   -0.056486
  O      4.221338    0.739412   -0.186361
  O      3.993614   -1.418285    0.040036
  C      1.415092    1.052343   -0.057459
  C     -1.799716    2.468281   -0.049572
  C     -1.078278    3.601217   -0.098410
  H     -1.357437   -2.492314    0.194752
  H      1.850971    2.042860   -0.130496
  H     -2.892642    2.541084   -0.052315
  H      0.014323    3.599214   -0.096112
  H     -1.572925    4.573350   -0.143087

 Multiplicity           Mult            ....    1
 Number of Electrons    NEL             ....  100
 Basis Dimension        Dim             ....  211

ORBITAL ENERGIES
----------------

  NO   OCC          E(Eh)            E(eV)
   0   2.0000     -88.906725     -2419.2750
   1   2.0000     -19.233263      -523.3637
   2   2.0000     -19.169450      -521.6273
   3   2.0000     -19.167242      -521.5672
   4   2.0000     -14.572977      -396.5509
   5   2.0000     -10.311783      -280.5979
   6   2.0000     -10.278131      -279.6822
   7   2.0000     -10.250491      -278.9300
   8   2.0000     -10.240472      -278.6574
   9   2.0000     -10.240148      -278.6486
  10   2.0000     -10.229193      -278.3505
  11   2.0000     -10.225670      -278.2546
  12   2.0000     -10.211235      -277.8618
  13   2.0000      -8.001058      -217.7199
  14   2.0000      -5.969046      -162.4260
  15   2.0000      -5.965050      -162.3173
  16   2.0000      -5.962642      -162.2517
  17   2.0000      -1.233069       -33.5535
  18   2.0000      -1.141829       -31.0708
  19   2.0000      -1.057646       -28.7800
  20   2.0000      -0.913329       -24.8530
  21   2.0000      -0.846326       -23.0297
  22   2.0000      -0.807692       -21.9784
  23   2.0000      -0.801250       -21.8031
  24   2.0000      -0.734285       -19.9809
  25   2.0000      -0.705191       -19.1892
  26   2.0000      -0.642155       -17.4739
  27   2.0000      -0.614890       -16.7320
  28   2.0000      -0.595388       -16.2013
  29   2.0000      -0.568399       -15.4669
  30   2.0000      -0.557582       -15.1726
  31   2.0000      -0.535346       -14.5675
  32   2.0000      -0.526331       -14.3222
  33   2.0000      -0.509523       -13.8648
  34   2.0000      -0.489879       -13.3303
  35   2.0000      -0.483690       -13.1619
  36   2.0000      -0.482288       -13.1237
  37   2.0000      -0.446245       -12.1429
  38   2.0000      -0.421722       -11.4756
  39   2.0000      -0.407632       -11.0922
  40   2.0000      -0.405791       -11.0421
  41   2.0000      -0.382966       -10.4210
  42   2.0000      -0.375571       -10.2198
  43   2.0000      -0.338979        -9.2241
  44   2.0000      -0.319408        -8.6915
  45   2.0000      -0.319018        -8.6809
  46   2.0000      -0.311322        -8.4715
  47   2.0000      -0.303316        -8.2537
  48   2.0000      -0.272374        -7.4117
  49   2.0000      -0.230674        -6.2770
  50   0.0000      -0.110924        -3.0184
  51   0.0000      -0.058214        -1.5841
  52   0.0000       0.002716         0.0739
  53   0.0000       0.013181         0.3587
  54   0.0000       0.024791         0.6746

MULLIKEN ATOMIC CHARGES
-----------------------
   0 C :   -0.184091
   1 S :    0.142850
   2 C :   -0.166315
   3 C :    0.097278
   4 C :    0.236395
   5 O :   -0.196032
   6 C :    0.249800
   7 N :    0.255747
   8 O :   -0.253944
   9 O :   -0.231012
  10 C :   -0.076280
  11 C :    0.053104
  12 C :   -0.032525
  13 H :    0.040295
  14 H :    0.013938
  15 H :   -0.005029
  16 H :    0.022806
  17 H :    0.033014
Sum of atomic charges:   -0.0000000

LOEWDIN ATOMIC CHARGES
----------------------
   0 C :   -0.217996
   1 S :    0.479727
   2 C :   -0.174679
   3 C :   -0.074017
   4 C :    0.024260
   5 O :   -0.004946
   6 C :    0.035067
   7 N :    0.263668
   8 O :   -0.213714
   9 O :   -0.190725
  10 C :   -0.019526
  11 C :   -0.042532
  12 C :   -0.036747
  13 H :    0.037756
  14 H :    0.045875
  15 H :    0.032399
  16 H :    0.024525
  17 H :    0.031606

  Mayer bond orders larger than 0.100000
B(  0-C ,  1-S ) :   1.1361 B(  0-C ,  2-C ) :   0.1107 B(  0-C ,  4-C ) :   1.4785
B(  0-C , 13-H ) :   0.9794 B(  1-S ,  2-C ) :   1.1657 B(  2-C ,  3-C ) :   1.3658
B(  2-C , 11-C ) :   1.1372 B(  3-C ,  4-C ) :   1.2206 B(  3-C , 10-C ) :   1.0975
B(  4-C ,  5-O ) :   1.0773 B(  5-O ,  6-C ) :   1.1277 B(  6-C ,  7-N ) :   0.9012
B(  6-C , 10-C ) :   1.5421 B(  7-N ,  8-O ) :   1.5054 B(  7-N ,  9-O ) :   1.4980
B(  8-O ,  9-O ) :   0.2908 B( 10-C , 14-H ) :   1.0158 B( 11-C , 12-C ) :   1.8932
B( 11-C , 15-H ) :   0.9484 B( 12-C , 16-H ) :   0.9554 B( 12-C , 17-H ) :   0.9437

Dispersion correction           -0.037721340
FINAL SINGLE POINT ENERGY      -985.806811878091

DIPOLE MOMENT
-------------
                                X             Y             Z
Electronic contribution:      4.11897      -7.88921       0.27292
Nuclear contribution   :     -5.99599       8.47219      -0.24906
                        -----------------------------------------
Total Dipole Moment    :     -1.87702       0.58297       0.02386
                        -----------------------------------------
Magnitude (a.u.)       :      1.96561
Magnitude (Debye)      :      4.99618

Rotational constants in cm-1:     0.047148     0.015301     0.011554
Rotational constants in MHz :  1413.456616   458.705317   346.369745

                             ****ORCA TERMINATED NORMALLY****
TOTAL RUN TIME: 0 days 0 hours 7 minutes 44 seconds 8 msec
