                         Program Version 4.2.0 -  RELEASE  -
|  1> # ORCA input file
|  2> # SCF done        -25.181728563214          0.000967710646
|  3> ! B3LYP/G D3BJ Opt RIJCOSX def2-SVP def2/J
|  4> * xyz 0 1
|  5>    C       -1.22387        -0.02451        -0.21377
|  6>    O       -0.46492         1.09889        -0.11672
|  7>    C        0.78757         0.63220         0.01131
|  8>    C        2.26647         0.84408         0.17377
|  9>    C        2.35633        -0.71970         0.16244
| 10>    C        0.84736        -0.72102        -0.00077
| 11>    C       -0.48469        -1.19489        -0.15063
| 12>    C       -0.94369        -2.56527        -0.21823
| 13>    C       -2.20671        -2.94941        -0.35923
| 14>    H       -2.27832         0.12637        -0.32586
| 15>    H        2.56993         1.31403         1.10768
| 16>    H        2.76099         1.33828        -0.66089
| 17>    H        2.71676        -1.15658         1.09138
| 18>    H        2.90867        -1.13315        -0.67860
| 19>    H       -0.15698        -3.30609        -0.14457
| 20>    H       -3.01286        -2.24056        -0.43743
| 21>    H       -2.47700        -3.99036        -0.40223
| 22> *
| 23>
| 24>                          ****END OF INPUT****
 Total Charge           Charge          ....    0
 Multiplicity           Mult            ....    1
 Number of Electrons    NEL             ....   64
Dispersion correction           -0.026269312
FINAL SINGLE POINT ENERGY      -384.521504970727
Dispersion correction            ... done
Dispersion correction           -0.026192132
FINAL SINGLE POINT ENERGY      -384.524647552361
Dispersion correction            ... done
Dispersion correction           -0.026159200
FINAL SINGLE POINT ENERGY      -384.524939085628
Dispersion correction            ... done
FINAL SINGLE POINT ENERGY      -384.525026298743
FINAL SINGLE POINT ENERGY      -384.525036695023
FINAL SINGLE POINT ENERGY      -384.525033124290
FINAL SINGLE POINT ENERGY      -384.525034466984
Dispersion correction            ... done
Dispersion correction           -0.026147737
FINAL SINGLE POINT ENERGY      -384.525034909381
Dispersion correction            ... done
Dispersion correction           -0.026147098
FINAL SINGLE POINT ENERGY      -384.525035349042
Dispersion correction            ... done
                    ***********************HURRAY********************

CARTESIAN COORDINATES (ANGSTROEM)
---------------------------------
  C     -1.228574   -0.016175   -0.253177
  O     -0.442782    1.106503   -0.142131
  C      0.808310    0.616551   -0.002058
  C      2.280481    0.878749    0.194815
  C      2.378950   -0.716281    0.179390
  C      0.859116   -0.725558   -0.020145
  C     -0.496562   -1.195493   -0.185953
  C     -0.977964   -2.574430   -0.269658
  C     -2.253837   -2.987352   -0.307599
  H     -2.288952    0.173623   -0.396969
  H      2.577076    1.346124    1.147599
  H      2.808899    1.379922   -0.631581
  H      2.742560   -1.147650    1.125107
  H      2.978217   -1.119450   -0.651490
  H     -0.183907   -3.328564   -0.301647
  H     -3.094676   -2.289084   -0.266744
  H     -2.501314   -4.049126   -0.380109

 Multiplicity           Mult            ....    1
 Number of Electrons    NEL             ....   64
 Basis Dimension        Dim             ....  166

ORBITAL ENERGIES
----------------

  NO   OCC          E(Eh)            E(eV)
   0   2.0000     -19.203575      -522.5558
   1   2.0000     -10.237835      -278.5857
   2   2.0000     -10.223421      -278.1934
   3   2.0000     -10.213263      -277.9170
   4   2.0000     -10.212045      -277.8839
   5   2.0000     -10.199743      -277.5491
   6   2.0000     -10.197024      -277.4751
   7   2.0000     -10.185305      -277.1562
   8   2.0000     -10.174374      -276.8588
   9   2.0000      -1.100675       -29.9509
  10   2.0000      -0.859792       -23.3961
  11   2.0000      -0.799928       -21.7672
  12   2.0000      -0.734286       -19.9809
  13   2.0000      -0.685233       -18.6461
  14   2.0000      -0.638959       -17.3869
  15   2.0000      -0.612884       -16.6774
  16   2.0000      -0.561372       -15.2757
  17   2.0000      -0.533440       -14.5156
  18   2.0000      -0.493598       -13.4315
  19   2.0000      -0.483356       -13.1528
  20   2.0000      -0.460929       -12.5425
  21   2.0000      -0.434475       -11.8227
  22   2.0000      -0.422471       -11.4960
  23   2.0000      -0.415368       -11.3027
  24   2.0000      -0.377791       -10.2802
  25   2.0000      -0.374221       -10.1831
  26   2.0000      -0.365432        -9.9439
  27   2.0000      -0.353969        -9.6320
  28   2.0000      -0.323240        -8.7958
  29   2.0000      -0.318998        -8.6804
  30   2.0000      -0.247527        -6.7356
  31   2.0000      -0.214219        -5.8292
  32   0.0000      -0.029273        -0.7966
  33   0.0000       0.034065         0.9270
  34   0.0000       0.060522         1.6469
  35   0.0000       0.072645         1.9768
  36   0.0000       0.080385         2.1874

MULLIKEN ATOMIC CHARGES
-----------------------
   0 C :    0.073834
   1 O :   -0.204034
   2 C :   -0.021290
   3 C :    0.119529
   4 C :    0.108341
   5 C :   -0.116812
   6 C :   -0.033324
   7 C :    0.020017
   8 C :   -0.029774
   9 H :    0.003558
  10 H :    0.018008
  11 H :    0.020364
  12 H :    0.011885
  13 H :    0.013227
  14 H :   -0.013888
  15 H :    0.009449
  16 H :    0.020910
Sum of atomic charges:   -0.0000000

LOEWDIN ATOMIC CHARGES
----------------------
   0 C :    0.043648
   1 O :   -0.000665
   2 C :   -0.010250
   3 C :   -0.004617
   4 C :    0.010422
   5 C :   -0.082738
   6 C :   -0.076461
   7 C :   -0.022611
   8 C :   -0.053682
   9 H :    0.020601
  10 H :    0.026930
  11 H :    0.027359
  12 H :    0.023851
  13 H :    0.023821
  14 H :    0.030044
  15 H :    0.019371
  16 H :    0.024979

  Mayer bond orders larger than 0.100000
B(  0-C ,  1-O ) :   1.1154 B(  0-C ,  6-C ) :   1.5090 B(  0-C ,  9-H ) :   0.9997
B(  1-O ,  2-C ) :   1.1438 B(  2-C ,  3-C ) :   1.1278 B(  2-C ,  5-C ) :   1.6171
B(  3-C ,  4-C ) :   1.1737 B(  3-C , 10-H ) :   0.8940 B(  3-C , 11-H ) :   0.8930
B(  4-C ,  5-C ) :   1.1204 B(  4-C , 12-H ) :   0.8979 B(  4-C , 13-H ) :   0.8968
B(  5-C ,  6-C ) :   1.1958 B(  6-C ,  7-C ) :   1.0902 B(  7-C ,  8-C ) :   1.9367
B(  7-C , 14-H ) :   0.9599 B(  8-C , 15-H ) :   0.9512 B(  8-C , 16-H ) :   0.9469

Dispersion correction           -0.026146073
FINAL SINGLE POINT ENERGY      -384.525035562382

DIPOLE MOMENT
-------------
                                X             Y             Z
Electronic contribution:     -1.73876       3.84195      -0.29593
Nuclear contribution   :      2.06541      -3.94552       0.32830
                        -----------------------------------------
Total Dipole Moment    :      0.32665      -0.10357       0.03236
                        -----------------------------------------
Magnitude (a.u.)       :      0.34420
Magnitude (Debye)      :      0.87488

Rotational constants in cm-1:     0.126107     0.040326     0.030937
Rotational constants in MHz :  3780.603717  1208.936788   927.479021

                             ****ORCA TERMINATED NORMALLY****
TOTAL RUN TIME: 0 days 0 hours 6 minutes 15 seconds 928 msec
