                         Program Version 4.2.0 -  RELEASE  -
|  1> # ORCA input file
|  2> # SCF done        -23.620667688513          0.000802900097
|  3> ! B3LYP/G D3BJ Opt RIJCOSX def2-SVP def2/J
|  4> * xyz 0 1
|  5>    C        1.37035        -1.16537        -0.14153
|  6>    S        1.79402         0.50009        -0.11412
|  7>    C        0.13551         0.97863         0.06227
|  8>    C       -0.68423        -0.13678         0.09451
|  9>    C        0.03489        -1.35744        -0.02336
| 10>    C       -2.08179        -0.12926         0.22826
| 11>    N       -3.22303        -0.18945         0.33598
| 12>    C       -0.17416         2.38098         0.14862
| 13>    C       -1.39124         2.90346         0.28361
| 14>    H        2.13959        -1.90467        -0.24430
| 15>    H       -0.44263        -2.32101        -0.01769
| 16>    H        0.69043         3.03102         0.09391
| 17>    H       -2.27727         2.29480         0.34073
| 18>    H       -1.53124         3.96862         0.34027
| 19> *
| 20>
| 21>                          ****END OF INPUT****
 Total Charge           Charge          ....    0
 Multiplicity           Mult            ....    1
 Number of Electrons    NEL             ....   70
Dispersion correction           -0.029983836
FINAL SINGLE POINT ENERGY      -722.331041881472
Dispersion correction            ... done
Dispersion correction           -0.029732044
FINAL SINGLE POINT ENERGY      -722.333858604554
Dispersion correction            ... done
Dispersion correction           -0.029721192
FINAL SINGLE POINT ENERGY      -722.333971409889
Dispersion correction            ... done
FINAL SINGLE POINT ENERGY      -722.334022022230
FINAL SINGLE POINT ENERGY      -722.334034139380
FINAL SINGLE POINT ENERGY      -722.334034159466
FINAL SINGLE POINT ENERGY      -722.334045779015
Dispersion correction            ... done
Dispersion correction           -0.029740858
FINAL SINGLE POINT ENERGY      -722.334048631122
Dispersion correction            ... done
Dispersion correction           -0.029741208
FINAL SINGLE POINT ENERGY      -722.334049793821
Dispersion correction            ... done
                    ***********************HURRAY********************

CARTESIAN COORDINATES (ANGSTROEM)
---------------------------------
  C      1.404239   -1.186095   -0.153431
  S      1.792889    0.497048   -0.121477
  C      0.127817    0.964842    0.067098
  C     -0.680436   -0.174448    0.099778
  C      0.058418   -1.396628   -0.027340
  C     -2.096705   -0.144341    0.249410
  N     -3.252174   -0.121263    0.371950
  C     -0.191732    2.381930    0.163758
  C     -1.413427    2.933171    0.264771
  H      2.190889   -1.928857   -0.271799
  H     -0.412506   -2.379417   -0.023709
  H      0.679978    3.045297    0.147680
  H     -2.330896    2.343803    0.286681
  H     -1.517154    4.018579    0.333788

 Multiplicity           Mult            ....    1
 Number of Electrons    NEL             ....   70
 Basis Dimension        Dim             ....  155

ORBITAL ENERGIES
----------------

  NO   OCC          E(Eh)            E(eV)
   0   2.0000     -88.899592     -2419.0809
   1   2.0000     -14.330900      -389.9636
   2   2.0000     -10.251313      -278.9524
   3   2.0000     -10.240386      -278.6551
   4   2.0000     -10.236124      -278.5391
   5   2.0000     -10.232993      -278.4539
   6   2.0000     -10.223056      -278.1835
   7   2.0000     -10.220712      -278.1197
   8   2.0000     -10.205669      -277.7104
   9   2.0000      -7.994939      -217.5533
  10   2.0000      -5.962898      -162.2587
  11   2.0000      -5.958842      -162.1483
  12   2.0000      -5.956435      -162.0828
  13   2.0000      -0.915738       -24.9185
  14   2.0000      -0.894436       -24.3388
  15   2.0000      -0.802988       -21.8504
  16   2.0000      -0.776282       -21.1237
  17   2.0000      -0.731559       -19.9067
  18   2.0000      -0.638808       -17.3828
  19   2.0000      -0.600793       -16.3484
  20   2.0000      -0.588247       -16.0070
  21   2.0000      -0.521916       -14.2021
  22   2.0000      -0.477405       -12.9909
  23   2.0000      -0.463044       -12.6001
  24   2.0000      -0.444789       -12.1033
  25   2.0000      -0.427042       -11.6204
  26   2.0000      -0.408400       -11.1131
  27   2.0000      -0.390639       -10.6298
  28   2.0000      -0.374992       -10.2041
  29   2.0000      -0.361993        -9.8503
  30   2.0000      -0.360559        -9.8113
  31   2.0000      -0.333571        -9.0769
  32   2.0000      -0.324787        -8.8379
  33   2.0000      -0.275378        -7.4934
  34   2.0000      -0.241520        -6.5721
  35   0.0000      -0.077277        -2.1028
  36   0.0000      -0.007383        -0.2009
  37   0.0000       0.001495         0.0407
  38   0.0000       0.030036         0.8173
  39   0.0000       0.036243         0.9862

MULLIKEN ATOMIC CHARGES
-----------------------
   0 C :   -0.067794
   1 S :    0.129511
   2 C :   -0.086077
   3 C :   -0.099775
   4 C :    0.073565
   5 C :   -0.152008
   6 N :    0.068506
   7 C :    0.039627
   8 C :   -0.026171
   9 H :    0.042972
  10 H :    0.000162
  11 H :   -0.005991
  12 H :    0.048521
  13 H :    0.034951
Sum of atomic charges:   -0.0000000

LOEWDIN ATOMIC CHARGES
----------------------
   0 C :   -0.182928
   1 S :    0.461647
   2 C :   -0.145404
   3 C :   -0.108986
   4 C :   -0.032382
   5 C :   -0.022236
   6 N :   -0.071708
   7 C :   -0.050779
   8 C :   -0.016813
   9 H :    0.032255
  10 H :    0.040307
  11 H :    0.030564
  12 H :    0.034014
  13 H :    0.032450

  Mayer bond orders larger than 0.100000
B(  0-C ,  1-S ) :   1.1545 B(  0-C ,  4-C ) :   1.5485 B(  0-C ,  9-H ) :   0.9641
B(  1-S ,  2-C ) :   1.1494 B(  2-C ,  3-C ) :   1.4629 B(  2-C ,  7-C ) :   1.1276
B(  3-C ,  4-C ) :   1.2617 B(  3-C ,  5-C ) :   1.1492 B(  4-C , 10-H ) :   0.9958
B(  5-C ,  6-N ) :   2.9411 B(  7-C ,  8-C ) :   1.9118 B(  7-C , 11-H ) :   0.9399
B(  8-C , 12-H ) :   0.9475 B(  8-C , 13-H ) :   0.9416

Dispersion correction           -0.029741343
FINAL SINGLE POINT ENERGY      -722.334049881780

DIPOLE MOMENT
-------------
                                X             Y             Z
Electronic contribution:      2.05186      -2.66039      -0.26786
Nuclear contribution   :     -0.57924       2.69903       0.11174
                        -----------------------------------------
Total Dipole Moment    :      1.47262       0.03864      -0.15611
                        -----------------------------------------
Magnitude (a.u.)       :      1.48137
Magnitude (Debye)      :      3.76535

Rotational constants in cm-1:     0.071809     0.044051     0.027305
Rotational constants in MHz :  2152.783985  1320.614572   818.571928

                             ****ORCA TERMINATED NORMALLY****
TOTAL RUN TIME: 0 days 0 hours 7 minutes 35 seconds 967 msec
