                         Program Version 4.2.0 -  RELEASE  -
|  1> # ORCA input file
|  2> # SCF done        -34.567280683378          0.000548635126
|  3> ! B3LYP/G D3BJ Opt RIJCOSX def2-SVP def2/J
|  4> * xyz 0 1
|  5>    C        1.02197        -1.27425         0.07282
|  6>    C        2.06823        -0.45882        -0.01136
|  7>    C        3.48650        -0.92942        -0.14092
|  8>    C        3.87056        -1.04012        -1.61933
|  9>    C        1.71962         0.98050        -0.04312
| 10>    C        2.77405         2.04707        -0.02639
| 11>    C        3.19491         2.34843         1.41499
| 12>    C        0.41402         1.22859        -0.02082
| 13>    S       -0.48805        -0.31380         0.08000
| 14>    O       -1.24950        -0.55701        -1.11495
| 15>    O       -1.17354        -0.41975         1.33922
| 16>    H        1.01807        -2.34444         0.10399
| 17>    H        3.57902        -1.91172         0.32443
| 18>    H        4.16806        -0.24667         0.36544
| 19>    H        3.22184        -1.75306        -2.12125
| 20>    H        4.89965        -1.37729        -1.71457
| 21>    H        3.77101        -0.08082        -2.12117
| 22>    H        2.36854         2.95499        -0.47504
| 23>    H        3.64369         1.73932        -0.60622
| 24>    H        2.34156         2.70316         1.98686
| 25>    H        3.96614         3.11444         1.42745
| 26>    H        3.58182         1.45733         1.90286
| 27>    H       -0.07919         2.17883        -0.02959
| 28> *
| 29>
| 30>                          ****END OF INPUT****
 Total Charge           Charge          ....    0
 Multiplicity           Mult            ....    1
 Number of Electrons    NEL             ....   92
Dispersion correction           -0.044998785
FINAL SINGLE POINT ENERGY      -860.186628187828
Dispersion correction            ... done
Dispersion correction           -0.044453737
FINAL SINGLE POINT ENERGY      -860.191487523010
Dispersion correction            ... done
Dispersion correction           -0.044302704
FINAL SINGLE POINT ENERGY      -860.192138795244
Dispersion correction            ... done
FINAL SINGLE POINT ENERGY      -860.192241172326
FINAL SINGLE POINT ENERGY      -860.192266012175
Dispersion correction            ... done
Dispersion correction           -0.044312391
FINAL SINGLE POINT ENERGY      -860.192274541752
Dispersion correction            ... done
Dispersion correction           -0.044315181
FINAL SINGLE POINT ENERGY      -860.192275443169
Dispersion correction            ... done
                    ***********************HURRAY********************

CARTESIAN COORDINATES (ANGSTROEM)
---------------------------------
  C      0.994138   -1.279869    0.066857
  C      2.062641   -0.469184    0.005774
  C      3.479785   -0.951553   -0.139566
  C      3.896404   -1.061346   -1.614236
  C      1.700830    0.994509   -0.018959
  C      2.743993    2.080654    0.001342
  C      3.264784    2.392590    1.415897
  C      0.375386    1.211454   -0.002719
  S     -0.528192   -0.339855    0.053465
  O     -1.247258   -0.563747   -1.206626
  O     -1.245663   -0.481331    1.325644
  H      0.955305   -2.368737    0.079432
  H      3.574531   -1.936110    0.343422
  H      4.166121   -0.275794    0.394144
  H      3.241236   -1.764051   -2.149567
  H      4.932538   -1.423682   -1.701505
  H      3.826904   -0.089944   -2.127747
  H      2.312459    2.993338   -0.437798
  H      3.587544    1.793751   -0.647824
  H      2.449487    2.754322    2.060373
  H      4.043620    3.170594    1.382271
  H      3.700343    1.503530    1.897653
  H     -0.167957    2.155954   -0.006397

 Multiplicity           Mult            ....    1
 Number of Electrons    NEL             ....   92
 Basis Dimension        Dim             ....  218

ORBITAL ENERGIES
----------------

  NO   OCC          E(Eh)            E(eV)
   0   2.0000     -89.052781     -2423.2494
   1   2.0000     -19.115088      -520.1480
   2   2.0000     -19.114669      -520.1366
   3   2.0000     -10.236062      -278.5374
   4   2.0000     -10.235409      -278.5196
   5   2.0000     -10.219724      -278.0928
   6   2.0000     -10.219021      -278.0737
   7   2.0000     -10.218857      -278.0692
   8   2.0000     -10.217788      -278.0401
   9   2.0000     -10.204602      -277.6813
  10   2.0000     -10.203466      -277.6504
  11   2.0000      -8.118111      -220.9050
  12   2.0000      -6.085867      -165.6049
  13   2.0000      -6.085764      -165.6021
  14   2.0000      -6.085175      -165.5860
  15   2.0000      -1.088932       -29.6314
  16   2.0000      -0.977191       -26.5907
  17   2.0000      -0.882891       -24.0247
  18   2.0000      -0.801824       -21.8187
  19   2.0000      -0.788918       -21.4675
  20   2.0000      -0.734499       -19.9867
  21   2.0000      -0.695227       -18.9181
  22   2.0000      -0.646720       -17.5981
  23   2.0000      -0.621846       -16.9213
  24   2.0000      -0.586598       -15.9621
  25   2.0000      -0.557147       -15.1607
  26   2.0000      -0.507609       -13.8127
  27   2.0000      -0.488036       -13.2801
  28   2.0000      -0.470907       -12.8140
  29   2.0000      -0.458761       -12.4835
  30   2.0000      -0.454475       -12.3669
  31   2.0000      -0.448681       -12.2092
  32   2.0000      -0.441533       -12.0147
  33   2.0000      -0.423505       -11.5241
  34   2.0000      -0.416654       -11.3377
  35   2.0000      -0.408167       -11.1068
  36   2.0000      -0.382476       -10.4077
  37   2.0000      -0.379660       -10.3311
  38   2.0000      -0.374379       -10.1874
  39   2.0000      -0.356437        -9.6991
  40   2.0000      -0.347323        -9.4512
  41   2.0000      -0.324065        -8.8182
  42   2.0000      -0.318126        -8.6567
  43   2.0000      -0.286722        -7.8021
  44   2.0000      -0.285855        -7.7785
  45   2.0000      -0.254711        -6.9311
  46   0.0000      -0.081662        -2.2221
  47   0.0000       0.019285         0.5248
  48   0.0000       0.043579         1.1858
  49   0.0000       0.055956         1.5226
  50   0.0000       0.059156         1.6097

MULLIKEN ATOMIC CHARGES
-----------------------
   0 C :   -0.086714
   1 C :   -0.029496
   2 C :    0.082160
   3 C :    0.012156
   4 C :   -0.024515
   5 C :    0.072193
   6 C :   -0.000346
   7 C :   -0.084881
   8 S :    0.752418
   9 O :   -0.473740
  10 O :   -0.472457
  11 H :    0.038226
  12 H :    0.009294
  13 H :    0.007733
  14 H :    0.022986
  15 H :    0.023085
  16 H :    0.019937
  17 H :    0.010777
  18 H :    0.010156
  19 H :    0.023956
  20 H :    0.030147
  21 H :    0.021510
  22 H :    0.035416
Sum of atomic charges:   -0.0000000

LOEWDIN ATOMIC CHARGES
----------------------
   0 C :   -0.168886
   1 C :   -0.016773
   2 C :   -0.028692
   3 C :   -0.044076
   4 C :   -0.017764
   5 C :   -0.028901
   6 C :   -0.047141
   7 C :   -0.166850
   8 S :    1.171576
   9 O :   -0.507331
  10 O :   -0.506532
  11 H :    0.034809
  12 H :    0.034850
  13 H :    0.028440
  14 H :    0.028861
  15 H :    0.028511
  16 H :    0.023694
  17 H :    0.035059
  18 H :    0.029882
  19 H :    0.029338
  20 H :    0.029870
  21 H :    0.023697
  22 H :    0.034357

  Mayer bond orders larger than 0.100000
B(  0-C ,  1-C ) :   1.7584 B(  0-C ,  8-S ) :   0.8344 B(  0-C , 11-H ) :   0.9647
B(  1-C ,  2-C ) :   1.0741 B(  1-C ,  4-C ) :   1.0501 B(  2-C ,  3-C ) :   1.1009
B(  2-C , 12-H ) :   0.9200 B(  2-C , 13-H ) :   0.9119 B(  3-C , 14-H ) :   0.9657
B(  3-C , 15-H ) :   0.9647 B(  3-C , 16-H ) :   0.9673 B(  4-C ,  5-C ) :   1.0717
B(  4-C ,  7-C ) :   1.7582 B(  5-C ,  6-C ) :   1.1035 B(  5-C , 17-H ) :   0.9234
B(  5-C , 18-H ) :   0.9117 B(  6-C , 19-H ) :   0.9643 B(  6-C , 20-H ) :   0.9661
B(  6-C , 21-H ) :   0.9671 B(  7-C ,  8-S ) :   0.8308 B(  7-C , 22-H ) :   0.9664
B(  8-S ,  9-O ) :   1.6430 B(  8-S , 10-O ) :   1.6469

Dispersion correction           -0.044314120
FINAL SINGLE POINT ENERGY      -860.192274935725

DIPOLE MOMENT
-------------
                                X             Y             Z
Electronic contribution:    -18.76698      -4.60562       0.74585
Nuclear contribution   :     21.09879       5.19052      -0.80893
                        -----------------------------------------
Total Dipole Moment    :      2.33181       0.58490      -0.06308
                        -----------------------------------------
Magnitude (a.u.)       :      2.40488
Magnitude (Debye)      :      6.11271

Rotational constants in cm-1:     0.046280     0.023701     0.018547
Rotational constants in MHz :  1387.448607   710.544864   556.035051

                             ****ORCA TERMINATED NORMALLY****
TOTAL RUN TIME: 0 days 0 hours 9 minutes 4 seconds 833 msec
