                         Program Version 4.2.0 -  RELEASE  -
|  1> # ORCA input file
|  2> # SCF done        -16.150108129984          0.000488792243
|  3> ! B3LYP/G D3BJ Opt RIJCOSX def2-SVP def2/J
|  4> * xyz 0 1
|  5>    C        0.68803         1.21791         0.00083
|  6>    C        1.43669         0.05172         0.00123
|  7>    C        0.77340        -1.16506         0.00379
|  8>    C       -0.61378        -1.15602         0.00569
|  9>    N       -1.33359        -0.04752         0.00548
| 10>    C       -0.69494         1.10964         0.00317
| 11>    H        1.16435         2.18635        -0.00148
| 12>    H        2.51686         0.09041        -0.00040
| 13>    H        1.31780        -2.09693         0.00459
| 14>    H       -1.17885        -2.07933         0.00836
| 15>    H       -1.32463         1.99015         0.00245
| 16> *
| 17>
| 18>                          ****END OF INPUT****
 Total Charge           Charge          ....    0
 Multiplicity           Mult            ....    1
 Number of Electrons    NEL             ....   42
Dispersion correction           -0.017201947
FINAL SINGLE POINT ENERGY      -248.121248309701
Dispersion correction            ... done
Dispersion correction           -0.017128020
FINAL SINGLE POINT ENERGY      -248.122774086366
Dispersion correction            ... done
Dispersion correction           -0.017121702
FINAL SINGLE POINT ENERGY      -248.122812363131
Dispersion correction            ... done
Dispersion correction           -0.017120741
FINAL SINGLE POINT ENERGY      -248.122824244285
Dispersion correction            ... done
Dispersion correction           -0.017121578
FINAL SINGLE POINT ENERGY      -248.122827161468
Dispersion correction            ... done
                    ***********************HURRAY********************

CARTESIAN COORDINATES (ANGSTROEM)
---------------------------------
  C      0.689189    1.225598    0.000723
  C      1.444680    0.051809    0.001285
  C      0.774972   -1.173131    0.003952
  C     -0.623664   -1.166057    0.006028
  N     -1.354132   -0.047926    0.005606
  C     -0.705359    1.118843    0.002922
  H      1.169041    2.206875   -0.001502
  H      2.537270    0.092554   -0.000425
  H      1.323291   -2.117727    0.004455
  H     -1.178013   -2.111850    0.008195
  H     -1.325936    2.022330    0.002470

 Multiplicity           Mult            ....    1
 Number of Electrons    NEL             ....   42
 Basis Dimension        Dim             ....  109

ORBITAL ENERGIES
----------------

  NO   OCC          E(Eh)            E(eV)
   0   2.0000     -14.322472      -389.7343
   1   2.0000     -10.225300      -278.2446
   2   2.0000     -10.225267      -278.2437
   3   2.0000     -10.213192      -277.9151
   4   2.0000     -10.203190      -277.6429
   5   2.0000     -10.203117      -277.6409
   6   2.0000      -0.936684       -25.4885
   7   2.0000      -0.799705       -21.7611
   8   2.0000      -0.756589       -20.5878
   9   2.0000      -0.628213       -17.0945
  10   2.0000      -0.624862       -17.0033
  11   2.0000      -0.529860       -14.4182
  12   2.0000      -0.486259       -13.2318
  13   2.0000      -0.469076       -12.7642
  14   2.0000      -0.432667       -11.7735
  15   2.0000      -0.407781       -11.0963
  16   2.0000      -0.403208       -10.9719
  17   2.0000      -0.369596       -10.0572
  18   2.0000      -0.294681        -8.0187
  19   2.0000      -0.270158        -7.3514
  20   2.0000      -0.255685        -6.9576
  21   0.0000      -0.031894        -0.8679
  22   0.0000      -0.021104        -0.5743
  23   0.0000       0.058656         1.5961
  24   0.0000       0.092420         2.5149
  25   0.0000       0.110313         3.0018

MULLIKEN ATOMIC CHARGES
-----------------------
   0 C :   -0.004583
   1 C :    0.043565
   2 C :   -0.002843
   3 C :    0.040154
   4 N :   -0.108846
   5 C :    0.039780
   6 H :   -0.008077
   7 H :    0.004030
   8 H :   -0.007287
   9 H :    0.001556
  10 H :    0.002550
Sum of atomic charges:   -0.0000000

LOEWDIN ATOMIC CHARGES
----------------------
   0 C :   -0.044559
   1 C :   -0.000606
   2 C :   -0.044494
   3 C :    0.020583
   4 N :   -0.084250
   5 C :    0.020307
   6 H :    0.029988
   7 H :    0.032117
   8 H :    0.030174
   9 H :    0.020295
  10 H :    0.020445

  Mayer bond orders larger than 0.100000
B(  0-C ,  1-C ) :   1.4144 B(  0-C ,  5-C ) :   1.3862 B(  0-C ,  6-H ) :   0.9728
B(  1-C ,  2-C ) :   1.4127 B(  1-C ,  7-H ) :   0.9817 B(  2-C ,  3-C ) :   1.3867
B(  2-C ,  8-H ) :   0.9724 B(  3-C ,  4-N ) :   1.5325 B(  3-C ,  9-H ) :   0.9743
B(  4-N ,  5-C ) :   1.5340 B(  5-C , 10-H ) :   0.9740

Dispersion correction           -0.017122136
FINAL SINGLE POINT ENERGY      -248.122827623485

DIPOLE MOMENT
-------------
                                X             Y             Z
Electronic contribution:     -1.37111      -0.04986       0.00226
Nuclear contribution   :      2.21043       0.07987      -0.00368
                        -----------------------------------------
Total Dipole Moment    :      0.83932       0.03001      -0.00141
                        -----------------------------------------
Magnitude (a.u.)       :      0.83986
Magnitude (Debye)      :      2.13475

Rotational constants in cm-1:     0.200553     0.193671     0.098526
Rotational constants in MHz :  6012.428559  5806.097580  2953.730993

                             ****ORCA TERMINATED NORMALLY****
TOTAL RUN TIME: 0 days 0 hours 1 minutes 24 seconds 189 msec
