                         Program Version 4.2.0 -  RELEASE  -
|  1> # ORCA input file
|  2> # SCF done        -17.814802196506          0.000726689008
|  3> ! B3LYP/G D3BJ Opt RIJCOSX def2-SVP def2/J
|  4> * xyz 0 1
|  5>    C        0.05956        -1.03148        -0.00953
|  6>    O        1.32565        -0.57606        -0.01264
|  7>    C        1.25838         0.76411        -0.00488
|  8>    C       -0.03599         1.17864         0.00215
|  9>    C       -0.83171         0.00062         0.00062
| 10>    C       -2.32038        -0.07318         0.00800
| 11>    H       -0.08036        -2.09429        -0.01475
| 12>    H        2.18491         1.30325        -0.00590
| 13>    H       -0.39024         2.18925         0.00862
| 14>    H       -2.74437         0.92712         0.00609
| 15>    H       -2.67361        -0.60088         0.89259
| 16>    H       -2.68179        -0.60806        -0.86884
| 17> *
| 18>
| 19>                          ****END OF INPUT****
 Total Charge           Charge          ....    0
 Multiplicity           Mult            ....    1
 Number of Electrons    NEL             ....   44
Dispersion correction           -0.015860519
FINAL SINGLE POINT ENERGY      -269.158965504922
Dispersion correction            ... done
Dispersion correction           -0.015857336
FINAL SINGLE POINT ENERGY      -269.160738965128
Dispersion correction            ... done
Dispersion correction           -0.015854372
FINAL SINGLE POINT ENERGY      -269.160832558433
Dispersion correction            ... done
FINAL SINGLE POINT ENERGY      -269.160871012250
Dispersion correction            ... done
Dispersion correction           -0.015852256
FINAL SINGLE POINT ENERGY      -269.160872999766
Dispersion correction            ... done
Dispersion correction           -0.015852657
FINAL SINGLE POINT ENERGY      -269.160873259350
Dispersion correction            ... done
                    ***********************HURRAY********************

CARTESIAN COORDINATES (ANGSTROEM)
---------------------------------
  C      0.061099   -1.039907   -0.010947
  O      1.337931   -0.576554   -0.013834
  C      1.276414    0.777457   -0.004560
  C     -0.026021    1.188818    0.004440
  C     -0.832546   -0.003381    0.000103
  C     -2.330009   -0.079397    0.007767
  H     -0.055963   -2.120787   -0.018679
  H      2.226510    1.305186   -0.005942
  H     -0.388088    2.215588    0.013207
  H     -2.770522    0.927789   -0.001402
  H     -2.710217   -0.597838    0.902595
  H     -2.718539   -0.617934   -0.871218

 Multiplicity           Mult            ....    1
 Number of Electrons    NEL             ....   44
 Basis Dimension        Dim             ....  114

ORBITAL ENERGIES
----------------

  NO   OCC          E(Eh)            E(eV)
   0   2.0000     -19.195106      -522.3254
   1   2.0000     -10.231916      -278.4246
   2   2.0000     -10.226602      -278.2800
   3   2.0000     -10.191256      -277.3182
   4   2.0000     -10.187618      -277.2192
   5   2.0000     -10.182045      -277.0675
   6   2.0000      -1.097892       -29.8752
   7   2.0000      -0.800961       -21.7953
   8   2.0000      -0.740795       -20.1580
   9   2.0000      -0.693087       -18.8599
  10   2.0000      -0.582011       -15.8373
  11   2.0000      -0.558835       -15.2067
  12   2.0000      -0.515861       -14.0373
  13   2.0000      -0.452877       -12.3234
  14   2.0000      -0.441354       -12.0099
  15   2.0000      -0.420066       -11.4306
  16   2.0000      -0.410117       -11.1599
  17   2.0000      -0.397633       -10.8201
  18   2.0000      -0.381819       -10.3898
  19   2.0000      -0.352323        -9.5872
  20   2.0000      -0.269846        -7.3429
  21   2.0000      -0.225255        -6.1295
  22   0.0000       0.009627         0.2620
  23   0.0000       0.064438         1.7535
  24   0.0000       0.070843         1.9277
  25   0.0000       0.091243         2.4828
  26   0.0000       0.108685         2.9575

MULLIKEN ATOMIC CHARGES
-----------------------
   0 C :    0.063414
   1 O :   -0.209601
   2 C :    0.133128
   3 C :   -0.048303
   4 C :   -0.082018
   5 C :    0.103263
   6 H :   -0.000488
   7 H :    0.006292
   8 H :   -0.018119
   9 H :    0.004441
  10 H :    0.024161
  11 H :    0.023829
Sum of atomic charges:   -0.0000000

LOEWDIN ATOMIC CHARGES
----------------------
   0 C :    0.011989
   1 O :    0.002245
   2 C :    0.026466
   3 C :   -0.081836
   4 C :   -0.078466
   5 C :   -0.045353
   6 H :    0.019053
   7 H :    0.020584
   8 H :    0.027056
   9 H :    0.030165
  10 H :    0.034095
  11 H :    0.034003

  Mayer bond orders larger than 0.100000
B(  0-C ,  1-O ) :   1.1327 B(  0-C ,  4-C ) :   1.5558 B(  0-C ,  6-H ) :   1.0105
B(  1-O ,  2-C ) :   1.1446 B(  2-C ,  3-C ) :   1.5429 B(  2-C ,  7-H ) :   0.9970
B(  3-C ,  4-C ) :   1.2425 B(  3-C ,  8-H ) :   1.0051 B(  4-C ,  5-C ) :   1.0790
B(  5-C ,  9-H ) :   0.9560 B(  5-C , 10-H ) :   0.9563 B(  5-C , 11-H ) :   0.9566

Dispersion correction           -0.015853032
FINAL SINGLE POINT ENERGY      -269.160873694709

DIPOLE MOMENT
-------------
                                X             Y             Z
Electronic contribution:      5.17463      -0.77204      -0.03111
Nuclear contribution   :     -5.49880       0.89525       0.03378
                        -----------------------------------------
Total Dipole Moment    :     -0.32417       0.12322       0.00267
                        -----------------------------------------
Magnitude (a.u.)       :      0.34681
Magnitude (Debye)      :      0.88151

Rotational constants in cm-1:     0.296715     0.111914     0.082525
Rotational constants in MHz :  8895.300518  3355.087859  2474.040599

                             ****ORCA TERMINATED NORMALLY****
TOTAL RUN TIME: 0 days 0 hours 1 minutes 46 seconds 598 msec
