                         Program Version 4.2.0 -  RELEASE  -
|  1> # ORCA input file
|  2> # SCF done        -34.168520316270          0.000735390687
|  3> ! B3LYP/G D3BJ Opt RIJCOSX def2-SVP def2/J
|  4> * xyz 0 1
|  5>    C        2.68281         0.73208        -0.12120
|  6>    S        3.30837        -0.87212         0.01682
|  7>    C        1.72845        -1.55575         0.08821
|  8>    C        0.76699        -0.59704         0.00721
|  9>    C        1.32857         0.71644        -0.11304
| 10>    S        0.12271         1.98834        -0.21912
| 11>    C       -1.15386         0.78879        -0.10441
| 12>    C       -0.66752        -0.55157         0.01129
| 13>    C       -1.67521        -1.46361         0.09791
| 14>    S       -3.21677        -0.70566         0.04006
| 15>    C       -2.51946         0.89447        -0.10516
| 16>    C       -3.38639         2.03570        -0.19819
| 17>    C       -2.97968         3.29888        -0.29732
| 18>    H        3.35199         1.56383        -0.19865
| 19>    H        1.61157        -2.61601         0.18382
| 20>    H       -1.60618        -2.52834         0.19193
| 21>    H       -4.44302         1.80302        -0.18037
| 22>    H       -1.93638         3.56520        -0.31532
| 23>    H       -3.68563         4.10754        -0.36334
| 24> *
| 25>
| 26>                          ****END OF INPUT****
 Total Charge           Charge          ....    0
 Multiplicity           Mult            ....    1
 Number of Electrons    NEL             ....  114
Dispersion correction           -0.053090277
FINAL SINGLE POINT ENERGY     -1578.652933640115
Dispersion correction            ... done
Dispersion correction           -0.052913240
FINAL SINGLE POINT ENERGY     -1578.656201898927
Dispersion correction            ... done
Dispersion correction           -0.052895995
FINAL SINGLE POINT ENERGY     -1578.656281499590
Dispersion correction            ... done
FINAL SINGLE POINT ENERGY     -1578.656209826677
FINAL SINGLE POINT ENERGY     -1578.656272341629
Dispersion correction            ... done
Dispersion correction           -0.052900901
FINAL SINGLE POINT ENERGY     -1578.656280050266
Dispersion correction            ... done
Dispersion correction           -0.052900650
FINAL SINGLE POINT ENERGY     -1578.656281611108
Dispersion correction            ... done
                    ***********************HURRAY********************

CARTESIAN COORDINATES (ANGSTROEM)
---------------------------------
  C      2.724132    0.727901   -0.129191
  S      3.344927   -0.884935    0.067617
  C      1.758444   -1.576782    0.120339
  C      0.786837   -0.612691   -0.007862
  C      1.355036    0.708645   -0.154716
  S      0.132009    1.983961   -0.316573
  C     -1.155672    0.778366   -0.160208
  C     -0.665853   -0.569806   -0.016385
  C     -1.688667   -1.484400    0.093857
  S     -3.232562   -0.713338    0.031313
  C     -2.533270    0.890636   -0.144279
  C     -3.402728    2.050718   -0.209311
  C     -3.013928    3.337259   -0.256982
  H      3.402939    1.573605   -0.212575
  H      1.630177   -2.649579    0.254598
  H     -1.616903   -2.563627    0.216774
  H     -4.476212    1.830673   -0.208322
  H     -1.963822    3.638053   -0.249020
  H     -3.753526    4.139533   -0.297944

 Multiplicity           Mult            ....    1
 Number of Electrons    NEL             ....  114
 Basis Dimension        Dim             ....  224

ORBITAL ENERGIES
----------------

  NO   OCC          E(Eh)            E(eV)
   0   2.0000     -88.884591     -2418.6727
   1   2.0000     -88.882191     -2418.6074
   2   2.0000     -88.873015     -2418.3577
   3   2.0000     -10.225629      -278.2535
   4   2.0000     -10.225342      -278.2457
   5   2.0000     -10.224087      -278.2116
   6   2.0000     -10.223086      -278.1843
   7   2.0000     -10.222858      -278.1781
   8   2.0000     -10.221254      -278.1345
   9   2.0000     -10.211791      -277.8770
  10   2.0000     -10.211318      -277.8641
  11   2.0000     -10.207978      -277.7732
  12   2.0000     -10.191783      -277.3325
  13   2.0000      -7.979272      -217.1270
  14   2.0000      -7.976955      -217.0640
  15   2.0000      -7.966916      -216.7908
  16   2.0000      -5.947545      -161.8409
  17   2.0000      -5.945133      -161.7753
  18   2.0000      -5.943296      -161.7253
  19   2.0000      -5.941125      -161.6662
  20   2.0000      -5.940514      -161.6496
  21   2.0000      -5.938105      -161.5840
  22   2.0000      -5.935896      -161.5239
  23   2.0000      -5.932093      -161.4205
  24   2.0000      -5.926303      -161.2629
  25   2.0000      -0.912396       -24.8276
  26   2.0000      -0.882642       -24.0179
  27   2.0000      -0.821854       -22.3638
  28   2.0000      -0.792623       -21.5684
  29   2.0000      -0.753892       -20.5144
  30   2.0000      -0.725614       -19.7450
  31   2.0000      -0.703561       -19.1449
  32   2.0000      -0.686360       -18.6768
  33   2.0000      -0.608872       -16.5683
  34   2.0000      -0.605914       -16.4878
  35   2.0000      -0.561074       -15.2676
  36   2.0000      -0.547984       -14.9114
  37   2.0000      -0.516141       -14.0449
  38   2.0000      -0.500376       -13.6159
  39   2.0000      -0.464385       -12.6366
  40   2.0000      -0.459364       -12.4999
  41   2.0000      -0.434919       -11.8347
  42   2.0000      -0.426889       -11.6162
  43   2.0000      -0.414199       -11.2709
  44   2.0000      -0.397341       -10.8122
  45   2.0000      -0.394242       -10.7279
  46   2.0000      -0.387751       -10.5512
  47   2.0000      -0.377615       -10.2754
  48   2.0000      -0.367283        -9.9943
  49   2.0000      -0.351530        -9.5656
  50   2.0000      -0.332957        -9.0602
  51   2.0000      -0.323085        -8.7916
  52   2.0000      -0.317855        -8.6493
  53   2.0000      -0.279151        -7.5961
  54   2.0000      -0.252176        -6.8621
  55   2.0000      -0.222726        -6.0607
  56   2.0000      -0.206515        -5.6196
  57   0.0000      -0.054774        -1.4905
  58   0.0000      -0.034952        -0.9511
  59   0.0000       0.008510         0.2316
  60   0.0000       0.015541         0.4229
  61   0.0000       0.019222         0.5230

MULLIKEN ATOMIC CHARGES
-----------------------
   0 C :   -0.161961
   1 S :    0.103358
   2 C :   -0.145093
   3 C :    0.103223
   4 C :    0.012254
   5 S :    0.103554
   6 C :   -0.020819
   7 C :    0.118566
   8 C :   -0.142527
   9 S :    0.112100
  10 C :   -0.177512
  11 C :    0.027383
  12 C :   -0.040405
  13 H :    0.026325
  14 H :    0.021787
  15 H :    0.021366
  16 H :   -0.011525
  17 H :    0.021541
  18 H :    0.028386
Sum of atomic charges:   -0.0000000

LOEWDIN ATOMIC CHARGES
----------------------
   0 C :   -0.217406
   1 S :    0.440180
   2 C :   -0.192086
   3 C :   -0.072967
   4 C :   -0.180209
   5 S :    0.360488
   6 C :   -0.172670
   7 C :   -0.071019
   8 C :   -0.190364
   9 S :    0.440288
  10 C :   -0.201005
  11 C :   -0.045204
  12 C :   -0.053888
  13 H :    0.028418
  14 H :    0.027553
  15 H :    0.027448
  16 H :    0.029376
  17 H :    0.014497
  18 H :    0.028568

  Mayer bond orders larger than 0.100000
B(  0-C ,  1-S ) :   1.1549 B(  0-C ,  4-C ) :   1.5501 B(  0-C , 13-H ) :   0.9696
B(  1-S ,  2-C ) :   1.1577 B(  2-C ,  3-C ) :   1.5200 B(  2-C , 14-H ) :   0.9643
B(  3-C ,  4-C ) :   1.2290 B(  3-C ,  7-C ) :   1.0479 B(  4-C ,  5-S ) :   0.9946
B(  5-S ,  6-C ) :   1.0244 B(  6-C ,  7-C ) :   1.2297 B(  6-C , 10-C ) :   1.5314
B(  7-C ,  8-C ) :   1.5037 B(  8-C ,  9-S ) :   1.1489 B(  8-C , 15-H ) :   0.9645
B(  9-S , 10-C ) :   1.1190 B( 10-C , 11-C ) :   1.1244 B( 11-C , 12-C ) :   1.9067
B( 11-C , 16-H ) :   0.9484 B( 12-C , 17-H ) :   0.9483 B( 12-C , 18-H ) :   0.9430

Dispersion correction           -0.052900229
FINAL SINGLE POINT ENERGY     -1578.656280118355

DIPOLE MOMENT
-------------
                                X             Y             Z
Electronic contribution:      4.73988      -4.18893       0.08462
Nuclear contribution   :     -4.64324       3.85790      -0.01419
                        -----------------------------------------
Total Dipole Moment    :      0.09664      -0.33104       0.07043
                        -----------------------------------------
Magnitude (a.u.)       :      0.35197
Magnitude (Debye)      :      0.89465

Rotational constants in cm-1:     0.040391     0.012702     0.009669
Rotational constants in MHz :  1210.887357   380.810857   289.857721

                             ****ORCA TERMINATED NORMALLY****
TOTAL RUN TIME: 0 days 0 hours 9 minutes 2 seconds 969 msec
