                         Program Version 4.2.0 -  RELEASE  -
|  1> # ORCA input file
|  2> # SCF done        -30.294500208559          0.000481603815
|  3> ! B3LYP/G D3BJ Opt RIJCOSX def2-SVP def2/J
|  4> * xyz 0 1
|  5>    C        2.50621         0.93020         0.00008
|  6>    C        2.80950        -0.49014         0.00134
|  7>    N        1.75919        -1.26890         0.00112
|  8>    C        0.69090        -0.43079        -0.00027
|  9>    C        1.15135         0.98972        -0.00103
| 10>    C        0.01242         1.87919        -0.00236
| 11>    S        0.01467         3.51667        -0.00369
| 12>    C       -1.12895         0.99285        -0.00229
| 13>    C       -0.67238        -0.42892        -0.00102
| 14>    N       -1.74295        -1.26411        -0.00083
| 15>    C       -2.79113        -0.48248        -0.00175
| 16>    C       -2.48395         0.93703        -0.00270
| 17>    H        3.22856         1.72212         0.00008
| 18>    H        3.79904        -0.91391         0.00238
| 19>    H       -3.78182        -0.90355        -0.00185
| 20>    H       -3.20413         1.73092        -0.00351
| 21> *
| 22>
| 23>                          ****END OF INPUT****
 Total Charge           Charge          ....    0
 Multiplicity           Mult            ....    1
 Number of Electrons    NEL             ....   88
Dispersion correction           -0.036674024
FINAL SINGLE POINT ENERGY      -852.547722148710
Dispersion correction            ... done
Dispersion correction           -0.036728015
FINAL SINGLE POINT ENERGY      -852.551295895760
Dispersion correction            ... done
Dispersion correction           -0.036703052
FINAL SINGLE POINT ENERGY      -852.551595140049
Dispersion correction            ... done
Dispersion correction           -0.036678626
FINAL SINGLE POINT ENERGY      -852.551648208621
Dispersion correction            ... done
Dispersion correction           -0.036668587
FINAL SINGLE POINT ENERGY      -852.551654942102
Dispersion correction            ... done
                    ***********************HURRAY********************

CARTESIAN COORDINATES (ANGSTROEM)
---------------------------------
  C      2.517658    0.932348    0.000178
  C      2.812931   -0.511924    0.001323
  N      1.750436   -1.296924    0.001046
  C      0.695967   -0.421961   -0.000293
  C      1.158011    0.996811   -0.001002
  C      0.012496    1.920024   -0.002508
  S      0.014773    3.558585   -0.003981
  C     -1.135588    0.999974   -0.002258
  C     -0.677424   -0.420072   -0.001036
  N     -1.734280   -1.292140   -0.000850
  C     -2.794626   -0.504254   -0.001788
  C     -2.495402    0.939222   -0.002591
  H      3.245194    1.741680    0.000262
  H      3.819001   -0.943176    0.002415
  H     -3.801858   -0.932799   -0.001845
  H     -3.220758    1.750507   -0.003373

 Multiplicity           Mult            ....    1
 Number of Electrons    NEL             ....   88
 Basis Dimension        Dim             ....  192

ORBITAL ENERGIES
----------------

  NO   OCC          E(Eh)            E(eV)
   0   2.0000     -88.829698     -2417.1790
   1   2.0000     -14.345187      -390.3524
   2   2.0000     -14.345133      -390.3509
   3   2.0000     -10.271268      -279.4954
   4   2.0000     -10.267423      -279.3908
   5   2.0000     -10.267419      -279.3907
   6   2.0000     -10.262594      -279.2594
   7   2.0000     -10.262047      -279.2445
   8   2.0000     -10.230851      -278.3956
   9   2.0000     -10.230848      -278.3955
  10   2.0000     -10.228131      -278.3216
  11   2.0000     -10.228124      -278.3214
  12   2.0000      -7.924998      -215.6502
  13   2.0000      -5.892716      -160.3490
  14   2.0000      -5.892623      -160.3464
  15   2.0000      -5.883162      -160.0890
  16   2.0000      -0.994865       -27.0717
  17   2.0000      -0.976183       -26.5633
  18   2.0000      -0.873306       -23.7639
  19   2.0000      -0.788560       -21.4578
  20   2.0000      -0.787613       -21.4320
  21   2.0000      -0.763979       -20.7889
  22   2.0000      -0.693916       -18.8824
  23   2.0000      -0.661233       -17.9931
  24   2.0000      -0.624049       -16.9812
  25   2.0000      -0.570925       -15.5357
  26   2.0000      -0.561970       -15.2920
  27   2.0000      -0.543597       -14.7920
  28   2.0000      -0.496893       -13.5211
  29   2.0000      -0.491560       -13.3760
  30   2.0000      -0.466107       -12.6834
  31   2.0000      -0.458105       -12.4657
  32   2.0000      -0.425060       -11.5665
  33   2.0000      -0.420366       -11.4387
  34   2.0000      -0.413943       -11.2640
  35   2.0000      -0.407811       -11.0971
  36   2.0000      -0.378666       -10.3040
  37   2.0000      -0.362526        -9.8648
  38   2.0000      -0.298191        -8.1142
  39   2.0000      -0.296492        -8.0679
  40   2.0000      -0.289590        -7.8801
  41   2.0000      -0.282297        -7.6817
  42   2.0000      -0.262269        -7.1367
  43   2.0000      -0.229667        -6.2496
  44   0.0000      -0.149383        -4.0649
  45   0.0000      -0.115700        -3.1484
  46   0.0000       0.002371         0.0645
  47   0.0000       0.036412         0.9908
  48   0.0000       0.076073         2.0701

MULLIKEN ATOMIC CHARGES
-----------------------
   0 C :   -0.088558
   1 C :    0.108819
   2 N :   -0.082248
   3 C :    0.020763
   4 C :    0.067457
   5 C :    0.018084
   6 S :   -0.116401
   7 C :    0.067527
   8 C :    0.020754
   9 N :   -0.082313
  10 C :    0.108726
  11 C :   -0.088527
  12 H :    0.005120
  13 H :    0.017823
  14 H :    0.017859
  15 H :    0.005117
Sum of atomic charges:   -0.0000000

LOEWDIN ATOMIC CHARGES
----------------------
   0 C :   -0.033380
   1 C :    0.092240
   2 N :   -0.098024
   3 C :    0.042665
   4 C :   -0.021700
   5 C :   -0.153817
   6 S :    0.060446
   7 C :   -0.021690
   8 C :    0.042676
   9 N :   -0.098017
  10 C :    0.092230
  11 C :   -0.033382
  12 H :    0.037919
  13 H :    0.026953
  14 H :    0.026961
  15 H :    0.037919

  Mayer bond orders larger than 0.100000
B(  0-C ,  1-C ) :   1.0484 B(  0-C ,  4-C ) :   1.5760 B(  0-C , 12-H ) :   1.0006
B(  1-C ,  2-N ) :   1.6267 B(  1-C , 13-H ) :   0.9814 B(  2-N ,  3-C ) :   1.2886
B(  3-C ,  4-C ) :   1.0388 B(  3-C ,  8-C ) :   1.4994 B(  4-C ,  5-C ) :   1.0009
B(  5-C ,  6-S ) :   1.7088 B(  5-C ,  7-C ) :   1.0009 B(  7-C ,  8-C ) :   1.0387
B(  7-C , 11-C ) :   1.5760 B(  8-C ,  9-N ) :   1.2885 B(  9-N , 10-C ) :   1.6267
B( 10-C , 11-C ) :   1.0484 B( 10-C , 14-H ) :   0.9814 B( 11-C , 15-H ) :   1.0006

Dispersion correction           -0.036668476
FINAL SINGLE POINT ENERGY      -852.551655626320

DIPOLE MOMENT
-------------
                                X             Y             Z
Electronic contribution:      0.00223       1.64067      -0.00280
Nuclear contribution   :     -0.00191      -1.34793       0.00309
                        -----------------------------------------
Total Dipole Moment    :      0.00031       0.29275       0.00030
                        -----------------------------------------
Magnitude (a.u.)       :      0.29275
Magnitude (Debye)      :      0.74410

Rotational constants in cm-1:     0.036065     0.032539     0.017106
Rotational constants in MHz :  1081.206947   975.498657   512.818140

                             ****ORCA TERMINATED NORMALLY****
TOTAL RUN TIME: 0 days 0 hours 5 minutes 14 seconds 760 msec
