                         Program Version 4.2.0 -  RELEASE  -
|  1> # ORCA input file
|  2> # SCF done        -32.376297064030          0.000515086382
|  3> ! B3LYP/G D3BJ Opt RIJCOSX def2-SVP def2/J
|  4> * xyz 0 1
|  5>    C        0.87934        -0.31970        -0.44067
|  6>    C        2.33547        -0.15309        -0.15669
|  7>    C        3.21692         0.51446        -0.89750
|  8>    O        4.53391         0.45936        -0.48999
|  9>    C        5.40947         1.53103        -0.75261
| 10>    C        5.01697         2.85485        -0.08581
| 11>    C        4.02625         3.72934        -0.86691
| 12>    O        2.68521         3.30340        -0.75964
| 13>    C        2.16130         2.59147        -1.85181
| 14>    C        2.86993         1.25925        -2.15823
| 15>    H        0.55521        -1.31807        -0.15134
| 16>    H        0.64884        -0.17024        -1.49218
| 17>    H        0.29776         0.39778         0.13969
| 18>    H        2.70374        -0.63245         0.73869
| 19>    H        5.56238         1.68222        -1.83107
| 20>    H        6.35789         1.18611        -0.33004
| 21>    H        5.92673         3.43845         0.06347
| 22>    H        4.58232         2.63520         0.89052
| 23>    H        4.32903         3.80825        -1.91966
| 24>    H        4.04983         4.73533        -0.43061
| 25>    H        2.16925         3.22145        -2.75653
| 26>    H        1.12511         2.39978        -1.56672
| 27>    H        3.77099         1.44011        -2.74486
| 28>    H        2.20074         0.65305        -2.77109
| 29> *
| 30>
| 31>                          ****END OF INPUT****
 Total Charge           Charge          ....    0
 Multiplicity           Mult            ....    1
 Number of Electrons    NEL             ....   78
Dispersion correction           -0.039902015
FINAL SINGLE POINT ENERGY      -463.379295859522
Dispersion correction            ... done
Dispersion correction           -0.039508352
FINAL SINGLE POINT ENERGY      -463.381439349689
Dispersion correction            ... done
Dispersion correction           -0.039323860
FINAL SINGLE POINT ENERGY      -463.381874850763
Dispersion correction            ... done
FINAL SINGLE POINT ENERGY      -463.382169526020
FINAL SINGLE POINT ENERGY      -463.382273452673
FINAL SINGLE POINT ENERGY      -463.382395229127
FINAL SINGLE POINT ENERGY      -463.382561930578
FINAL SINGLE POINT ENERGY      -463.382695223985
FINAL SINGLE POINT ENERGY      -463.382817861575
FINAL SINGLE POINT ENERGY      -463.382958298480
FINAL SINGLE POINT ENERGY      -463.383071839839
FINAL SINGLE POINT ENERGY      -463.383102336138
FINAL SINGLE POINT ENERGY      -463.383122804029
FINAL SINGLE POINT ENERGY      -463.383108238570
FINAL SINGLE POINT ENERGY      -463.383114101434
FINAL SINGLE POINT ENERGY      -463.383107781113
FINAL SINGLE POINT ENERGY      -463.383085741631
Dispersion correction            ... done
Dispersion correction           -0.038507238
FINAL SINGLE POINT ENERGY      -463.383068317225
Dispersion correction            ... done
Dispersion correction           -0.038519612
FINAL SINGLE POINT ENERGY      -463.383063397892
Dispersion correction            ... done
                    ***********************HURRAY********************

CARTESIAN COORDINATES (ANGSTROEM)
---------------------------------
  C      0.864763   -0.798339   -0.730807
  C      2.188984   -0.360946   -0.180865
  C      2.985819    0.614813   -0.653132
  O      4.093765    0.926754    0.095245
  C      5.243564    1.528873   -0.474887
  C      5.284213    3.046285   -0.308298
  C      4.281380    3.865885   -1.114438
  O      2.947515    3.612652   -0.725986
  C      2.170619    2.842030   -1.608615
  C      2.709339    1.428757   -1.888239
  H      0.866882   -1.871498   -0.994904
  H      0.564539   -0.240714   -1.629618
  H      0.062248   -0.662100    0.016136
  H      2.539621   -0.858119    0.729811
  H      5.368206    1.242125   -1.534556
  H      6.097396    1.094984    0.068535
  H      6.299287    3.388898   -0.580560
  H      5.139463    3.279942    0.759811
  H      4.420174    3.697509   -2.201238
  H      4.479377    4.937075   -0.931306
  H      2.039473    3.367907   -2.577962
  H      1.180263    2.764517   -1.134159
  H      3.616169    1.494489   -2.509652
  H      1.971531    0.905563   -2.511906

 Multiplicity           Mult            ....    1
 Number of Electrons    NEL             ....   78
 Basis Dimension        Dim             ....  210

ORBITAL ENERGIES
----------------

  NO   OCC          E(Eh)            E(eV)
   0   2.0000     -19.142454      -520.8927
   1   2.0000     -19.130165      -520.5583
   2   2.0000     -10.240352      -278.6542
   3   2.0000     -10.236978      -278.5623
   4   2.0000     -10.236247      -278.5424
   5   2.0000     -10.230502      -278.3861
   6   2.0000     -10.193584      -277.3815
   7   2.0000     -10.188224      -277.2357
   8   2.0000     -10.182039      -277.0674
   9   2.0000     -10.164197      -276.5818
  10   2.0000      -1.038775       -28.2665
  11   2.0000      -1.022692       -27.8289
  12   2.0000      -0.805644       -21.9227
  13   2.0000      -0.763712       -20.7817
  14   2.0000      -0.745654       -20.2903
  15   2.0000      -0.704902       -19.1814
  16   2.0000      -0.640597       -17.4315
  17   2.0000      -0.625060       -17.0087
  18   2.0000      -0.580373       -15.7928
  19   2.0000      -0.540457       -14.7066
  20   2.0000      -0.505327       -13.7506
  21   2.0000      -0.495549       -13.4846
  22   2.0000      -0.477942       -13.0055
  23   2.0000      -0.469049       -12.7635
  24   2.0000      -0.448685       -12.2093
  25   2.0000      -0.439518       -11.9599
  26   2.0000      -0.423425       -11.5220
  27   2.0000      -0.404019       -10.9939
  28   2.0000      -0.402006       -10.9391
  29   2.0000      -0.388977       -10.5846
  30   2.0000      -0.376395       -10.2422
  31   2.0000      -0.369400       -10.0519
  32   2.0000      -0.360909        -9.8208
  33   2.0000      -0.345574        -9.4036
  34   2.0000      -0.327616        -8.9149
  35   2.0000      -0.312486        -8.5032
  36   2.0000      -0.296456        -8.0670
  37   2.0000      -0.259159        -7.0521
  38   2.0000      -0.203729        -5.5438
  39   0.0000       0.029956         0.8151
  40   0.0000       0.052154         1.4192
  41   0.0000       0.067873         1.8469
  42   0.0000       0.072116         1.9624
  43   0.0000       0.091673         2.4945

MULLIKEN ATOMIC CHARGES
-----------------------
   0 C :    0.073871
   1 C :   -0.142966
   2 C :    0.094857
   3 O :   -0.333358
   4 C :    0.218481
   5 C :    0.012308
   6 C :    0.201152
   7 O :   -0.384876
   8 C :    0.249665
   9 C :    0.009809
  10 H :    0.016487
  11 H :   -0.006874
  12 H :    0.020680
  13 H :   -0.014259
  14 H :   -0.010953
  15 H :    0.003283
  16 H :   -0.010180
  17 H :    0.017257
  18 H :   -0.016681
  19 H :    0.004269
  20 H :   -0.011957
  21 H :    0.004790
  22 H :   -0.000415
  23 H :    0.005609
Sum of atomic charges:    0.0000000

LOEWDIN ATOMIC CHARGES
----------------------
   0 C :   -0.056252
   1 C :   -0.097014
   2 C :    0.036485
   3 O :   -0.118375
   4 C :    0.085006
   5 C :   -0.060427
   6 C :    0.075426
   7 O :   -0.171980
   8 C :    0.083478
   9 C :   -0.066039
  10 H :    0.028494
  11 H :    0.019441
  12 H :    0.030356
  13 H :    0.024378
  14 H :    0.005601
  15 H :    0.022032
  16 H :    0.027270
  17 H :    0.030916
  18 H :    0.002506
  19 H :    0.018372
  20 H :    0.001043
  21 H :    0.021336
  22 H :    0.022109
  23 H :    0.035839

  Mayer bond orders larger than 0.100000
B(  0-C ,  1-C ) :   1.0864 B(  0-C , 10-H ) :   0.9524 B(  0-C , 11-H ) :   0.9541
B(  0-C , 12-H ) :   0.9492 B(  1-C ,  2-C ) :   1.8647 B(  1-C , 13-H ) :   0.9397
B(  2-C ,  3-O ) :   1.0810 B(  2-C ,  9-C ) :   1.0292 B(  3-O ,  4-C ) :   0.9765
B(  4-C ,  5-C ) :   1.0840 B(  4-C , 14-H ) :   0.9388 B(  4-C , 15-H ) :   0.9416
B(  5-C ,  6-C ) :   1.0810 B(  5-C , 16-H ) :   0.9212 B(  5-C , 17-H ) :   0.9219
B(  6-C ,  7-O ) :   0.9986 B(  6-C , 18-H ) :   0.9322 B(  6-C , 19-H ) :   0.9427
B(  7-O ,  8-C ) :   1.0242 B(  8-C ,  9-C ) :   1.0575 B(  8-C , 20-H ) :   0.9388
B(  8-C , 21-H ) :   0.9455 B(  9-C , 22-H ) :   0.9014 B(  9-C , 23-H ) :   0.9060

Dispersion correction           -0.038523021
FINAL SINGLE POINT ENERGY      -463.383068091234

DIPOLE MOMENT
-------------
                                X             Y             Z
Electronic contribution:      1.59766       1.28094       3.20320
Nuclear contribution   :     -1.21468      -1.14179      -4.03651
                        -----------------------------------------
Total Dipole Moment    :      0.38298       0.13915      -0.83331
                        -----------------------------------------
Magnitude (a.u.)       :      0.92760
Magnitude (Debye)      :      2.35777

Rotational constants in cm-1:     0.075417     0.032616     0.025237
Rotational constants in MHz :  2260.948608   977.791568   756.598450

                             ****ORCA TERMINATED NORMALLY****
TOTAL RUN TIME: 0 days 0 hours 21 minutes 38 seconds 418 msec
