                         Program Version 4.2.0 -  RELEASE  -
|  1> # ORCA input file
|  2> # SCF done        -36.615693000840          0.000619254506
|  3> ! B3LYP/G D3BJ Opt RIJCOSX def2-SVP def2/J
|  4> * xyz 0 1
|  5>    C       -0.06383         1.35614         0.66235
|  6>    S       -0.98843         0.01682         1.17150
|  7>    C        0.02729        -1.09115         0.29647
|  8>    C        1.03513        -0.40898        -0.34652
|  9>    C        0.98373         1.00249        -0.14196
| 10>    C        1.91573         2.00569        -0.71947
| 11>    O        1.91181         3.15996        -0.38485
| 12>    O        2.76159         1.54156        -1.64479
| 13>    O        2.00350        -1.01344        -1.12601
| 14>    C        3.04220        -1.64904        -0.39231
| 15>    C       -0.22336        -2.50898         0.25984
| 16>    C       -1.14821        -3.13184         0.98247
| 17>    H       -0.32410         2.35027         0.96632
| 18>    H        2.63553         0.58255        -1.79225
| 19>    H        3.70125        -2.09557        -1.13370
| 20>    H        2.64631        -2.42496         0.26669
| 21>    H        3.59944        -0.92140         0.20591
| 22>    H        0.39896        -3.05980        -0.43317
| 23>    H       -1.77901        -2.59358         1.67041
| 24>    H       -1.30327        -4.19302         0.90623
| 25> *
| 26>
| 27>                          ****END OF INPUT****
 Total Charge           Charge          ....    0
 Multiplicity           Mult            ....    1
 Number of Electrons    NEL             ....   96
Dispersion correction           -0.040939983
FINAL SINGLE POINT ENERGY      -933.037969818440
Dispersion correction            ... done
Dispersion correction           -0.040720580
FINAL SINGLE POINT ENERGY      -933.040261773489
Dispersion correction            ... done
Dispersion correction           -0.040663848
FINAL SINGLE POINT ENERGY      -933.040339794477
Dispersion correction            ... done
FINAL SINGLE POINT ENERGY      -933.040449293907
FINAL SINGLE POINT ENERGY      -933.040439919441
Dispersion correction            ... done
Dispersion correction           -0.040713856
FINAL SINGLE POINT ENERGY      -933.040471827229
Dispersion correction            ... done
Dispersion correction           -0.040709910
FINAL SINGLE POINT ENERGY      -933.040467089000
Dispersion correction            ... done
                    ***********************HURRAY********************

CARTESIAN COORDINATES (ANGSTROEM)
---------------------------------
  C     -0.073197    1.392623    0.642256
  S     -1.024678    0.050754    1.143015
  C     -0.010732   -1.085829    0.283350
  C      1.008802   -0.403636   -0.355769
  C      0.984591    1.017638   -0.154204
  C      1.952430    2.013074   -0.710004
  O      1.942666    3.176704   -0.400335
  O      2.847327    1.518379   -1.585538
  O      1.968931   -1.012199   -1.127806
  C      3.038223   -1.630729   -0.401053
  C     -0.262585   -2.515606    0.247128
  C     -1.136872   -3.189785    1.011316
  H     -0.318621    2.408114    0.947628
  H      2.657052    0.572557   -1.749572
  H      3.679311   -2.127978   -1.141356
  H      2.646579   -2.376444    0.307772
  H      3.622625   -0.874210    0.149334
  H      0.335481   -3.055659   -0.494886
  H     -1.746348   -2.687798    1.768701
  H     -1.278725   -4.266249    0.893182

 Multiplicity           Mult            ....    1
 Number of Electrons    NEL             ....   96
 Basis Dimension        Dim             ....  212

ORBITAL ENERGIES
----------------

  NO   OCC          E(Eh)            E(eV)
   0   2.0000     -88.897634     -2419.0276
   1   2.0000     -19.196127      -522.3532
   2   2.0000     -19.166274      -521.5408
   3   2.0000     -19.110191      -520.0147
   4   2.0000     -10.315501      -280.6991
   5   2.0000     -10.271245      -279.4948
   6   2.0000     -10.268380      -279.4168
   7   2.0000     -10.237800      -278.5847
   8   2.0000     -10.237074      -278.5649
   9   2.0000     -10.221460      -278.1401
  10   2.0000     -10.216989      -278.0184
  11   2.0000     -10.207293      -277.7546
  12   2.0000      -7.992676      -217.4918
  13   2.0000      -5.960634      -162.1971
  14   2.0000      -5.956666      -162.0891
  15   2.0000      -5.954112      -162.0196
  16   2.0000      -1.090742       -29.6806
  17   2.0000      -1.074474       -29.2379
  18   2.0000      -0.999854       -27.2074
  19   2.0000      -0.903702       -24.5910
  20   2.0000      -0.805540       -21.9199
  21   2.0000      -0.770826       -20.9752
  22   2.0000      -0.740166       -20.1410
  23   2.0000      -0.704014       -19.1572
  24   2.0000      -0.627312       -17.0700
  25   2.0000      -0.624790       -17.0014
  26   2.0000      -0.597938       -16.2707
  27   2.0000      -0.568951       -15.4819
  28   2.0000      -0.541549       -14.7363
  29   2.0000      -0.511241       -13.9116
  30   2.0000      -0.496960       -13.5230
  31   2.0000      -0.487610       -13.2685
  32   2.0000      -0.462177       -12.5765
  33   2.0000      -0.446853       -12.1595
  34   2.0000      -0.446279       -12.1439
  35   2.0000      -0.436730       -11.8840
  36   2.0000      -0.423324       -11.5192
  37   2.0000      -0.409469       -11.1422
  38   2.0000      -0.404549       -11.0083
  39   2.0000      -0.387013       -10.5311
  40   2.0000      -0.372131       -10.1262
  41   2.0000      -0.360665        -9.8142
  42   2.0000      -0.328327        -8.9342
  43   2.0000      -0.316379        -8.6091
  44   2.0000      -0.310210        -8.4413
  45   2.0000      -0.274114        -7.4590
  46   2.0000      -0.272126        -7.4049
  47   2.0000      -0.238424        -6.4879
  48   0.0000      -0.068765        -1.8712
  49   0.0000      -0.031822        -0.8659
  50   0.0000       0.018987         0.5167
  51   0.0000       0.040535         1.1030
  52   0.0000       0.050437         1.3725

MULLIKEN ATOMIC CHARGES
-----------------------
   0 C :   -0.089214
   1 S :    0.140232
   2 C :   -0.139997
   3 C :    0.155617
   4 C :   -0.034545
   5 C :    0.170054
   6 O :   -0.190618
   7 O :   -0.175037
   8 O :   -0.387167
   9 C :    0.185910
  10 C :   -0.003287
  11 C :   -0.035599
  12 H :    0.045927
  13 H :    0.177952
  14 H :    0.046026
  15 H :    0.036246
  16 H :    0.031749
  17 H :    0.006534
  18 H :    0.024366
  19 H :    0.034852
Sum of atomic charges:    0.0000000

LOEWDIN ATOMIC CHARGES
----------------------
   0 C :   -0.136105
   1 S :    0.463888
   2 C :   -0.199703
   3 C :    0.004799
   4 C :   -0.136424
   5 C :    0.075822
   6 O :   -0.168603
   7 O :   -0.039780
   8 O :   -0.126865
   9 C :    0.090322
  10 C :   -0.041820
  11 C :   -0.047036
  12 H :    0.039307
  13 H :    0.064999
  14 H :    0.029785
  15 H :    0.019976
  16 H :    0.018370
  17 H :    0.036882
  18 H :    0.021331
  19 H :    0.030855

  Mayer bond orders larger than 0.100000
B(  0-C ,  1-S ) :   1.1956 B(  0-C ,  4-C ) :   1.5232 B(  0-C , 12-H ) :   0.9578
B(  1-S ,  2-C ) :   1.1105 B(  2-C ,  3-C ) :   1.5028 B(  2-C , 10-C ) :   1.1280
B(  3-C ,  4-C ) :   1.1993 B(  3-C ,  8-O ) :   1.0616 B(  4-C ,  5-C ) :   0.8958
B(  5-C ,  6-O ) :   2.1652 B(  5-C ,  7-O ) :   1.2579 B(  7-O , 13-H ) :   0.9148
B(  8-O ,  9-C ) :   0.8977 B(  8-O , 13-H ) :   0.1042 B(  9-C , 14-H ) :   0.9801
B(  9-C , 15-H ) :   0.9712 B(  9-C , 16-H ) :   0.9673 B( 10-C , 11-C ) :   1.8988
B( 10-C , 17-H ) :   0.9550 B( 11-C , 18-H ) :   0.9541 B( 11-C , 19-H ) :   0.9465

Dispersion correction           -0.040715437
FINAL SINGLE POINT ENERGY      -933.040462190444

DIPOLE MOMENT
-------------
                                X             Y             Z
Electronic contribution:     -3.27683       9.40192      -0.27467
Nuclear contribution   :      2.96753     -11.39027       0.79319
                        -----------------------------------------
Total Dipole Moment    :     -0.30930      -1.98835       0.51852
                        -----------------------------------------
Magnitude (a.u.)       :      2.07800
Magnitude (Debye)      :      5.28185

Rotational constants in cm-1:     0.044215     0.021498     0.014972
Rotational constants in MHz :  1325.540389   644.484683   448.843874

                             ****ORCA TERMINATED NORMALLY****
TOTAL RUN TIME: 0 days 0 hours 9 minutes 30 seconds 705 msec
