                         Program Version 4.2.0 -  RELEASE  -
|  1> # ORCA input file
|  2> # SCF done        -28.173931790582          0.000724941272
|  3> ! B3LYP/G D3BJ Opt RIJCOSX def2-SVP def2/J
|  4> * xyz 0 1
|  5>    C       -1.31104        -0.17259         0.11907
|  6>    S       -0.60576         1.37993         0.24279
|  7>    C        0.99352         0.71336         0.11184
|  8>    C        2.22350         1.51892         0.14127
|  9>    O        3.31215         1.02132         0.03519
| 10>    O        2.07339         2.84517         0.28820
| 11>    C        0.94739        -0.64945        -0.02106
| 12>    C       -0.37058        -1.15788        -0.01627
| 13>    O       -0.70476        -2.46342        -0.13009
| 14>    H       -2.37517        -0.28680         0.15134
| 15>    H        1.14826         3.11599         0.36160
| 16>    H        1.83600        -1.24830        -0.11657
| 17>    H        0.09442        -2.99658        -0.21489
| 18> *
| 19>
| 20>                          ****END OF INPUT****
 Total Charge           Charge          ....    0
 Multiplicity           Mult            ....    1
 Number of Electrons    NEL             ....   74
Dispersion correction           -0.025310325
FINAL SINGLE POINT ENERGY      -816.397206042122
Dispersion correction            ... done
Dispersion correction           -0.025207672
FINAL SINGLE POINT ENERGY      -816.398375328619
Dispersion correction            ... done
Dispersion correction           -0.025187820
FINAL SINGLE POINT ENERGY      -816.398367148955
Dispersion correction            ... done
FINAL SINGLE POINT ENERGY      -816.398286355642
FINAL SINGLE POINT ENERGY      -816.398431967926
FINAL SINGLE POINT ENERGY      -816.398452893977
FINAL SINGLE POINT ENERGY      -816.398473719213
Dispersion correction            ... done
Dispersion correction           -0.025225860
FINAL SINGLE POINT ENERGY      -816.398478756750
Dispersion correction            ... done
Dispersion correction           -0.025221020
FINAL SINGLE POINT ENERGY      -816.398482525056
Dispersion correction            ... done
                    ***********************HURRAY********************

CARTESIAN COORDINATES (ANGSTROEM)
---------------------------------
  C     -1.336248   -0.174895    0.064409
  S     -0.624748    1.396645    0.104536
  C      0.983330    0.729726    0.049050
  C      2.229981    1.536457    0.070533
  O      3.313776    1.062896   -0.150590
  O      2.101216    2.850028    0.365333
  C      0.949157   -0.645734   -0.016749
  C     -0.378454   -1.167858   -0.001537
  O     -0.710224   -2.480285   -0.042575
  H     -2.416243   -0.306548    0.078297
  H      1.196035    3.071679    0.627097
  H      1.863140   -1.239390   -0.069238
  H      0.090602   -3.013053   -0.126145

 Multiplicity           Mult            ....    1
 Number of Electrons    NEL             ....   74
 Basis Dimension        Dim             ....  150

ORBITAL ENERGIES
----------------

  NO   OCC          E(Eh)            E(eV)
   0   2.0000     -88.901146     -2419.1232
   1   2.0000     -19.185592      -522.0665
   2   2.0000     -19.183890      -522.0202
   3   2.0000     -19.121929      -520.3341
   4   2.0000     -10.328754      -281.0597
   5   2.0000     -10.273181      -279.5475
   6   2.0000     -10.238647      -278.6078
   7   2.0000     -10.228334      -278.3271
   8   2.0000     -10.219205      -278.0787
   9   2.0000      -7.995985      -217.5818
  10   2.0000      -5.964152      -162.2928
  11   2.0000      -5.960183      -162.1848
  12   2.0000      -5.957174      -162.1029
  13   2.0000      -1.096587       -29.8396
  14   2.0000      -1.071093       -29.1459
  15   2.0000      -1.013567       -27.5806
  16   2.0000      -0.899921       -24.4881
  17   2.0000      -0.758065       -20.6280
  18   2.0000      -0.750649       -20.4262
  19   2.0000      -0.654491       -17.8096
  20   2.0000      -0.616442       -16.7742
  21   2.0000      -0.594395       -16.1743
  22   2.0000      -0.551386       -15.0040
  23   2.0000      -0.526950       -14.3390
  24   2.0000      -0.463375       -12.6091
  25   2.0000      -0.460293       -12.5252
  26   2.0000      -0.447825       -12.1859
  27   2.0000      -0.433359       -11.7923
  28   2.0000      -0.429508       -11.6875
  29   2.0000      -0.404151       -10.9975
  30   2.0000      -0.380353       -10.3499
  31   2.0000      -0.374316       -10.1857
  32   2.0000      -0.367042        -9.9877
  33   2.0000      -0.326321        -8.8797
  34   2.0000      -0.286577        -7.7981
  35   2.0000      -0.272237        -7.4079
  36   2.0000      -0.242226        -6.5913
  37   0.0000      -0.068248        -1.8571
  38   0.0000      -0.008027        -0.2184
  39   0.0000       0.032556         0.8859
  40   0.0000       0.039237         1.0677
  41   0.0000       0.061584         1.6758

MULLIKEN ATOMIC CHARGES
-----------------------
   0 C :   -0.139763
   1 S :    0.098883
   2 C :   -0.202970
   3 C :    0.199072
   4 O :   -0.183655
   5 O :   -0.163601
   6 C :   -0.010114
   7 C :    0.194403
   8 O :   -0.188414
   9 H :    0.034902
  10 H :    0.173866
  11 H :    0.002818
  12 H :    0.184574
Sum of atomic charges:    0.0000000

LOEWDIN ATOMIC CHARGES
----------------------
   0 C :   -0.216384
   1 S :    0.428883
   2 C :   -0.237582
   3 C :    0.065824
   4 O :   -0.159151
   5 O :   -0.036434
   6 C :   -0.056412
   7 C :    0.010797
   8 O :   -0.048937
   9 H :    0.033160
  10 H :    0.077644
  11 H :    0.039906
  12 H :    0.098686

  Mayer bond orders larger than 0.100000
B(  0-C ,  1-S ) :   1.1416 B(  0-C ,  2-C ) :   0.1012 B(  0-C ,  7-C ) :   1.5033
B(  0-C ,  9-H ) :   0.9707 B(  1-S ,  2-C ) :   1.1321 B(  2-C ,  3-C ) :   0.9420
B(  2-C ,  6-C ) :   1.5092 B(  3-C ,  4-O ) :   2.1626 B(  3-C ,  5-O ) :   1.2209
B(  5-O , 10-H ) :   0.9487 B(  6-C ,  7-C ) :   1.1949 B(  6-C , 11-H ) :   0.9950
B(  7-C ,  8-O ) :   1.1994 B(  8-O , 12-H ) :   0.9626

Dispersion correction           -0.025220463
FINAL SINGLE POINT ENERGY      -816.398483767466

DIPOLE MOMENT
-------------
                                X             Y             Z
Electronic contribution:      0.25504       2.72469      -0.05172
Nuclear contribution   :     -1.45615      -3.23231       0.25291
                        -----------------------------------------
Total Dipole Moment    :     -1.20110      -0.50761       0.20120
                        -----------------------------------------
Magnitude (a.u.)       :      1.31939
Magnitude (Debye)      :      3.35363

Rotational constants in cm-1:     0.093115     0.033186     0.024561
Rotational constants in MHz :  2791.528035   994.904683   736.316845

                             ****ORCA TERMINATED NORMALLY****
TOTAL RUN TIME: 0 days 0 hours 5 minutes 22 seconds 207 msec
