                         Program Version 4.2.0 -  RELEASE  -
|  1> # ORCA input file
|  2> # SCF done        -34.820929883899          0.000921381615
|  3> ! B3LYP/G D3BJ Opt RIJCOSX def2-SVP def2/J
|  4> * xyz 0 1
|  5>    C        1.43688        -1.25726         0.19190
|  6>    S        2.66584        -0.07150         0.33457
|  7>    C        1.49326         1.21732         0.23687
|  8>    C        0.21990         0.71097         0.11575
|  9>    C        0.19523        -0.70943         0.08728
| 10>    C       -1.07100        -1.50465        -0.01489
| 11>    C       -2.24086        -0.62552        -0.45400
| 12>    C       -2.27811         0.67785         0.35541
| 13>    O       -2.40814         0.44695         1.73834
| 14>    C       -1.03615         1.52280         0.03689
| 15>    C        1.99970         2.56484         0.29949
| 16>    C        1.36892         3.68666        -0.03669
| 17>    H        1.70005        -2.29655         0.19229
| 18>    H       -1.29569        -1.95400         0.95869
| 19>    H       -0.93571        -2.32830        -0.71939
| 20>    H       -3.17726        -1.16783        -0.31678
| 21>    H       -2.14188        -0.37101        -1.51030
| 22>    H       -3.17562         1.24619         0.08663
| 23>    H       -1.59279         0.03841         2.05121
| 24>    H       -0.98606         2.35568         0.74251
| 25>    H       -1.14201         1.93748        -0.96966
| 26>    H        3.02598         2.62629         0.64190
| 27>    H        0.36713         3.70701        -0.42469
| 28>    H        1.86311         4.63859         0.05432
| 29> *
| 30>
| 31>                          ****END OF INPUT****
 Total Charge           Charge          ....    0
 Multiplicity           Mult            ....    1
 Number of Electrons    NEL             ....   96
Dispersion correction           -0.051235777
FINAL SINGLE POINT ENERGY      -861.281671464704
Dispersion correction            ... done
Dispersion correction           -0.050914238
FINAL SINGLE POINT ENERGY      -861.284501980137
Dispersion correction            ... done
Dispersion correction           -0.050887072
FINAL SINGLE POINT ENERGY      -861.284670302466
Dispersion correction            ... done
FINAL SINGLE POINT ENERGY      -861.284690562170
FINAL SINGLE POINT ENERGY      -861.284623333482
FINAL SINGLE POINT ENERGY      -861.284576042688
FINAL SINGLE POINT ENERGY      -861.284494022461
FINAL SINGLE POINT ENERGY      -861.284455002435
Dispersion correction            ... done
Dispersion correction           -0.051070480
FINAL SINGLE POINT ENERGY      -861.284448078288
Dispersion correction            ... done
Dispersion correction           -0.051072734
FINAL SINGLE POINT ENERGY      -861.284449024646
Dispersion correction            ... done
                    ***********************HURRAY********************

CARTESIAN COORDINATES (ANGSTROEM)
---------------------------------
  C      1.440468   -1.280474    0.231446
  S      2.657201   -0.080959    0.442641
  C      1.496025    1.216432    0.286307
  C      0.217356    0.707235    0.092534
  C      0.190213   -0.730067    0.055776
  C     -1.091385   -1.520228   -0.090086
  C     -2.293788   -0.630603   -0.437710
  C     -2.264462    0.667492    0.378677
  O     -2.265642    0.397939    1.772429
  C     -1.049827    1.515716   -0.018337
  C      1.987119    2.584301    0.364610
  C      1.378458    3.707930   -0.054691
  H      1.703586   -2.337425    0.248843
  H     -1.299397   -2.038093    0.861676
  H     -0.964727   -2.313791   -0.843926
  H     -3.228209   -1.175847   -0.234397
  H     -2.291233   -0.369946   -1.510281
  H     -3.182532    1.244196    0.181842
  H     -1.363175    0.166654    2.031770
  H     -0.996372    2.403091    0.630850
  H     -1.184466    1.888412   -1.049828
  H      2.984705    2.683493    0.807667
  H      0.404395    3.710333   -0.543982
  H      1.870410    4.675201    0.073819

 Multiplicity           Mult            ....    1
 Number of Electrons    NEL             ....   96
 Basis Dimension        Dim             ....  232

ORBITAL ENERGIES
----------------

  NO   OCC          E(Eh)            E(eV)
   0   2.0000     -88.873138     -2418.3610
   1   2.0000     -19.124804      -520.4124
   2   2.0000     -10.234515      -278.4953
   3   2.0000     -10.216949      -278.0173
   4   2.0000     -10.210463      -277.8408
   5   2.0000     -10.205767      -277.7130
   6   2.0000     -10.198930      -277.5270
   7   2.0000     -10.198633      -277.5189
   8   2.0000     -10.196376      -277.4575
   9   2.0000     -10.193623      -277.3826
  10   2.0000     -10.190976      -277.3106
  11   2.0000     -10.185892      -277.1722
  12   2.0000      -7.968332      -216.8293
  13   2.0000      -5.936304      -161.5351
  14   2.0000      -5.932386      -161.4284
  15   2.0000      -5.929781      -161.3575
  16   2.0000      -1.006763       -27.3954
  17   2.0000      -0.885910       -24.1068
  18   2.0000      -0.807689       -21.9783
  19   2.0000      -0.786406       -21.3992
  20   2.0000      -0.748889       -20.3783
  21   2.0000      -0.727600       -19.7990
  22   2.0000      -0.690209       -18.7816
  23   2.0000      -0.634221       -17.2580
  24   2.0000      -0.609220       -16.5777
  25   2.0000      -0.579844       -15.7784
  26   2.0000      -0.558776       -15.2051
  27   2.0000      -0.515505       -14.0276
  28   2.0000      -0.493159       -13.4195
  29   2.0000      -0.471840       -12.8394
  30   2.0000      -0.464805       -12.6480
  31   2.0000      -0.458423       -12.4743
  32   2.0000      -0.449221       -12.2239
  33   2.0000      -0.428968       -11.6728
  34   2.0000      -0.416669       -11.3381
  35   2.0000      -0.407225       -11.0811
  36   2.0000      -0.396462       -10.7883
  37   2.0000      -0.380896       -10.3647
  38   2.0000      -0.374521       -10.1912
  39   2.0000      -0.358702        -9.7608
  40   2.0000      -0.353682        -9.6242
  41   2.0000      -0.343948        -9.3593
  42   2.0000      -0.333102        -9.0642
  43   2.0000      -0.316408        -8.6099
  44   2.0000      -0.299788        -8.1576
  45   2.0000      -0.268633        -7.3099
  46   2.0000      -0.246282        -6.7017
  47   2.0000      -0.218545        -5.9469
  48   0.0000      -0.046497        -1.2653
  49   0.0000       0.017184         0.4676
  50   0.0000       0.033291         0.9059
  51   0.0000       0.046468         1.2645
  52   0.0000       0.069993         1.9046

MULLIKEN ATOMIC CHARGES
-----------------------
   0 C :   -0.124973
   1 S :    0.107149
   2 C :   -0.158461
   3 C :   -0.095584
   4 C :   -0.069453
   5 C :    0.095259
   6 C :    0.072446
   7 C :    0.101571
   8 O :   -0.309087
   9 C :    0.139860
  10 C :    0.029784
  11 C :   -0.035040
  12 H :    0.012105
  13 H :    0.014167
  14 H :    0.011104
  15 H :   -0.001119
  16 H :   -0.005417
  17 H :   -0.013917
  18 H :    0.169748
  19 H :    0.015978
  20 H :    0.015004
  21 H :   -0.010652
  22 H :    0.016529
  23 H :    0.022999
Sum of atomic charges:   -0.0000000

LOEWDIN ATOMIC CHARGES
----------------------
   0 C :   -0.200091
   1 S :    0.432445
   2 C :   -0.185223
   3 C :   -0.069614
   4 C :   -0.073213
   5 C :   -0.028830
   6 C :   -0.039017
   7 C :    0.066800
   8 O :   -0.133442
   9 C :   -0.037130
  10 C :   -0.040950
  11 C :   -0.054384
  12 H :    0.022675
  13 H :    0.030507
  14 H :    0.032807
  15 H :    0.025365
  16 H :    0.021555
  17 H :    0.018328
  18 H :    0.070753
  19 H :    0.032559
  20 H :    0.032423
  21 H :    0.028050
  22 H :    0.021153
  23 H :    0.026473

  Mayer bond orders larger than 0.100000
B(  0-C ,  1-S ) :   1.1574 B(  0-C ,  4-C ) :   1.5347 B(  0-C , 12-H ) :   0.9671
B(  1-S ,  2-C ) :   1.1323 B(  2-C ,  3-C ) :   1.4966 B(  2-C , 10-C ) :   1.1091
B(  3-C ,  4-C ) :   1.2934 B(  3-C ,  9-C ) :   1.0450 B(  4-C ,  5-C ) :   1.0321
B(  5-C ,  6-C ) :   1.0778 B(  5-C , 13-H ) :   0.9175 B(  5-C , 14-H ) :   0.9207
B(  6-C ,  7-C ) :   1.0284 B(  6-C , 15-H ) :   0.9244 B(  6-C , 16-H ) :   0.9294
B(  7-C ,  8-O ) :   1.0369 B(  7-C ,  9-C ) :   1.0494 B(  7-C , 17-H ) :   0.9172
B(  8-O , 18-H ) :   0.9760 B(  9-C , 19-H ) :   0.9041 B(  9-C , 20-H ) :   0.8981
B( 10-C , 11-C ) :   1.9163 B( 10-C , 21-H ) :   0.9413 B( 11-C , 22-H ) :   0.9498
B( 11-C , 23-H ) :   0.9421

Dispersion correction           -0.051073214
FINAL SINGLE POINT ENERGY      -861.284448777432

DIPOLE MOMENT
-------------
                                X             Y             Z
Electronic contribution:      9.96558      -2.73183       2.27090
Nuclear contribution   :     -9.77671       2.57164      -2.67377
                        -----------------------------------------
Total Dipole Moment    :      0.18887      -0.16018      -0.40287
                        -----------------------------------------
Magnitude (a.u.)       :      0.47290
Magnitude (Debye)      :      1.20201

Rotational constants in cm-1:     0.040556     0.023515     0.016604
Rotational constants in MHz :  1215.845216   704.952576   497.763938

                             ****ORCA TERMINATED NORMALLY****
TOTAL RUN TIME: 0 days 0 hours 17 minutes 21 seconds 400 msec
