                         Program Version 4.2.0 -  RELEASE  -
|  1> # ORCA input file
|  2> # SCF done        -21.150436223552          0.000679144940
|  3> ! B3LYP/G D3BJ Opt RIJCOSX def2-SVP def2/J
|  4> * xyz 0 1
|  5>    C        1.19457         0.26946         0.01455
|  6>    C        0.65716        -0.96541        -0.00246
|  7>    C       -0.77052        -0.83295        -0.00207
|  8>    C       -1.10964         0.48842         0.01553
|  9>    C        0.12170         1.32277         0.02709
| 10>    C       -2.53733         0.62084         0.01510
| 11>    C       -3.07471        -0.61398        -0.00284
| 12>    C       -2.00184        -1.66727        -0.01640
| 13>    H        2.24124         0.51575         0.01876
| 14>    H        1.19512        -1.89695        -0.01484
| 15>    H        0.19203         1.95553         0.91432
| 16>    H        0.19273         1.97648        -0.84491
| 17>    H       -3.07530         1.55238         0.02670
| 18>    H       -4.12138        -0.86025        -0.00794
| 19>    H       -2.07066        -2.29698        -0.90607
| 20>    H       -2.07438        -2.32400         0.85306
| 21> *
| 22>
| 23>                          ****END OF INPUT****
 Total Charge           Charge          ....    0
 Multiplicity           Mult            ....    1
 Number of Electrons    NEL             ....   56
Dispersion correction           -0.027075566
FINAL SINGLE POINT ENERGY      -309.411732932265
Dispersion correction            ... done
Dispersion correction           -0.027052216
FINAL SINGLE POINT ENERGY      -309.414769714052
Dispersion correction            ... done
Dispersion correction           -0.027044785
FINAL SINGLE POINT ENERGY      -309.414847270541
Dispersion correction            ... done
Dispersion correction           -0.027039412
FINAL SINGLE POINT ENERGY      -309.414868555910
Dispersion correction            ... done
Dispersion correction           -0.027035631
FINAL SINGLE POINT ENERGY      -309.414878261547
Dispersion correction            ... done
                    ***********************HURRAY********************

CARTESIAN COORDINATES (ANGSTROEM)
---------------------------------
  C      1.227895    0.276190    0.014419
  C      0.680997   -0.969078   -0.002851
  C     -0.769710   -0.834344   -0.002893
  C     -1.110441    0.489815    0.014413
  C      0.134247    1.325805    0.027221
  C     -2.561147    0.624555    0.014021
  C     -3.108046   -0.620710   -0.003476
  C     -2.014399   -1.670325   -0.016240
  H      2.291379    0.520293    0.018409
  H      1.234597   -1.909494   -0.015160
  H      0.207037    1.975498    0.919426
  H      0.209196    1.999508   -0.846893
  H     -3.114748    1.564970    0.026339
  H     -4.171528   -0.864814   -0.007507
  H     -2.086823   -2.319355   -0.908972
  H     -2.089714   -2.344675    0.857326

 Multiplicity           Mult            ....    1
 Number of Electrons    NEL             ....   56
 Basis Dimension        Dim             ....  152

ORBITAL ENERGIES
----------------

  NO   OCC          E(Eh)            E(eV)
   0   2.0000     -10.195043      -277.4212
   1   2.0000     -10.195017      -277.4205
   2   2.0000     -10.186246      -277.1819
   3   2.0000     -10.186206      -277.1808
   4   2.0000     -10.181921      -277.0642
   5   2.0000     -10.181919      -277.0641
   6   2.0000     -10.174790      -276.8701
   7   2.0000     -10.174264      -276.8558
   8   2.0000      -0.869633       -23.6639
   9   2.0000      -0.800039       -21.7702
  10   2.0000      -0.714464       -19.4415
  11   2.0000      -0.667936       -18.1755
  12   2.0000      -0.664946       -18.0941
  13   2.0000      -0.553921       -15.0730
  14   2.0000      -0.544334       -14.8121
  15   2.0000      -0.500104       -13.6085
  16   2.0000      -0.488643       -13.2966
  17   2.0000      -0.446515       -12.1503
  18   2.0000      -0.432483       -11.7685
  19   2.0000      -0.421387       -11.4665
  20   2.0000      -0.379489       -10.3264
  21   2.0000      -0.374147       -10.1811
  22   2.0000      -0.365164        -9.9366
  23   2.0000      -0.346903        -9.4397
  24   2.0000      -0.342563        -9.3216
  25   2.0000      -0.299466        -8.1489
  26   2.0000      -0.279589        -7.6080
  27   2.0000      -0.191797        -5.2191
  28   0.0000      -0.033523        -0.9122
  29   0.0000       0.026466         0.7202
  30   0.0000       0.077493         2.1087
  31   0.0000       0.083208         2.2642
  32   0.0000       0.090291         2.4569

MULLIKEN ATOMIC CHARGES
-----------------------
   0 C :   -0.114870
   1 C :    0.034701
   2 C :   -0.125743
   3 C :   -0.125753
   4 C :    0.186459
   5 C :    0.034697
   6 C :   -0.114866
   7 C :    0.186470
   8 H :   -0.012443
   9 H :   -0.030676
  10 H :    0.030985
  11 H :    0.031591
  12 H :   -0.030679
  13 H :   -0.012444
  14 H :    0.030981
  15 H :    0.031592
Sum of atomic charges:   -0.0000000

LOEWDIN ATOMIC CHARGES
----------------------
   0 C :   -0.040387
   1 C :   -0.030601
   2 C :   -0.044456
   3 C :   -0.044457
   4 C :   -0.023332
   5 C :   -0.030601
   6 C :   -0.040387
   7 C :   -0.023332
   8 H :    0.017943
   9 H :    0.021311
  10 H :    0.049721
  11 H :    0.049801
  12 H :    0.021311
  13 H :    0.017943
  14 H :    0.049749
  15 H :    0.049773

  Mayer bond orders larger than 0.100000
B(  0-C ,  1-C ) :   1.7188 B(  0-C ,  4-C ) :   1.0386 B(  0-C ,  8-H ) :   0.9849
B(  1-C ,  2-C ) :   1.0984 B(  1-C ,  9-H ) :   1.0076 B(  2-C ,  3-C ) :   1.7068
B(  2-C ,  7-C ) :   1.0400 B(  3-C ,  4-C ) :   1.0400 B(  3-C ,  5-C ) :   1.0984
B(  4-C , 10-H ) :   0.8893 B(  4-C , 11-H ) :   0.8897 B(  5-C ,  6-C ) :   1.7188
B(  5-C , 12-H ) :   1.0076 B(  6-C ,  7-C ) :   1.0386 B(  6-C , 13-H ) :   0.9849
B(  7-C , 14-H ) :   0.8892 B(  7-C , 15-H ) :   0.8897

Dispersion correction           -0.027034958
FINAL SINGLE POINT ENERGY      -309.414880077755

DIPOLE MOMENT
-------------
                                X             Y             Z
Electronic contribution:     -0.00000      -0.00002       0.00117
Nuclear contribution   :     -0.00000       0.00002      -0.00142
                        -----------------------------------------
Total Dipole Moment    :     -0.00000       0.00000      -0.00026
                        -----------------------------------------
Magnitude (a.u.)       :      0.00026
Magnitude (Debye)      :      0.00066

Rotational constants in cm-1:     0.161106     0.066786     0.048060
Rotational constants in MHz :  4829.847782  2002.182739  1440.812173

                             ****ORCA TERMINATED NORMALLY****
TOTAL RUN TIME: 0 days 0 hours 3 minutes 27 seconds 555 msec
