                         Program Version 4.2.0 -  RELEASE  -
|  1> # ORCA input file
|  2> # SCF done        -16.732091192188          0.000315810533
|  3> ! B3LYP/G D3BJ Opt RIJCOSX def2-SVP def2/J
|  4> * xyz 0 1
|  5>    C        1.43914        -0.74477        -0.01991
|  6>    C        1.44693         0.73424        -0.02133
|  7>    C        0.19431         1.18792         0.01759
|  8>    C       -0.72595         0.00622         0.04522
|  9>    O       -1.92916         0.01259         0.07921
| 10>    C        0.18182        -1.18515         0.01992
| 11>    H        2.33914        -1.33287        -0.04714
| 12>    H        2.35307         1.31278        -0.04970
| 13>    H       -0.15541         2.20201         0.02829
| 14>    H       -0.17856        -2.19548         0.03263
| 15> *
| 16>
| 17>                          ****END OF INPUT****
 Total Charge           Charge          ....    0
 Multiplicity           Mult            ....    1
 Number of Electrons    NEL             ....   42
Dispersion correction           -0.014788413
FINAL SINGLE POINT ENERGY      -267.922236902923
Dispersion correction            ... done
Dispersion correction           -0.014742726
FINAL SINGLE POINT ENERGY      -267.923981504873
Dispersion correction            ... done
Dispersion correction           -0.014739099
FINAL SINGLE POINT ENERGY      -267.924021591660
Dispersion correction            ... done
Dispersion correction           -0.014738724
FINAL SINGLE POINT ENERGY      -267.924021459894
Dispersion correction            ... done
Dispersion correction           -0.014739123
FINAL SINGLE POINT ENERGY      -267.924025418328
Dispersion correction            ... done
                    ***********************HURRAY********************

CARTESIAN COORDINATES (ANGSTROEM)
---------------------------------
  C      1.444306   -0.756090   -0.019179
  C      1.452222    0.745557   -0.020629
  C      0.191001    1.207047    0.018797
  C     -0.726690    0.006218    0.045637
  O     -1.934859    0.012485    0.076658
  C      0.178286   -1.204194    0.021087
  H      2.352546   -1.359238   -0.049115
  H      2.366843    1.338961   -0.051810
  H     -0.167397    2.234978    0.029470
  H     -0.190929   -2.228233    0.033865

 Multiplicity           Mult            ....    1
 Number of Electrons    NEL             ....   42
 Basis Dimension        Dim             ....  104

ORBITAL ENERGIES
----------------

  NO   OCC          E(Eh)            E(eV)
   0   2.0000     -19.144889      -520.9589
   1   2.0000     -10.283103      -279.8175
   2   2.0000     -10.220861      -278.1238
   3   2.0000     -10.220826      -278.1228
   4   2.0000     -10.200467      -277.5688
   5   2.0000     -10.200444      -277.5682
   6   2.0000      -1.045370       -28.4460
   7   2.0000      -0.865384       -23.5483
   8   2.0000      -0.728072       -19.8118
   9   2.0000      -0.666196       -18.1281
  10   2.0000      -0.561725       -15.2853
  11   2.0000      -0.545388       -14.8408
  12   2.0000      -0.502070       -13.6620
  13   2.0000      -0.432768       -11.7762
  14   2.0000      -0.428077       -11.6486
  15   2.0000      -0.427144       -11.6232
  16   2.0000      -0.426683       -11.6106
  17   2.0000      -0.392674       -10.6852
  18   2.0000      -0.338504        -9.2112
  19   2.0000      -0.264865        -7.2074
  20   2.0000      -0.251878        -6.8539
  21   0.0000      -0.108823        -2.9612
  22   0.0000       0.046198         1.2571
  23   0.0000       0.065906         1.7934
  24   0.0000       0.075210         2.0466
  25   0.0000       0.104561         2.8453

MULLIKEN ATOMIC CHARGES
-----------------------
   0 C :    0.029561
   1 C :    0.030052
   2 C :   -0.029644
   3 C :    0.128217
   4 O :   -0.148578
   5 C :   -0.028979
   6 H :    0.006965
   7 H :    0.006803
   8 H :    0.002909
   9 H :    0.002695
Sum of atomic charges:   -0.0000000

LOEWDIN ATOMIC CHARGES
----------------------
   0 C :    0.006543
   1 C :    0.006628
   2 C :   -0.058594
   3 C :    0.083542
   4 O :   -0.101605
   5 C :   -0.058484
   6 H :    0.028879
   7 H :    0.028852
   8 H :    0.032143
   9 H :    0.032097

  Mayer bond orders larger than 0.100000
B(  0-C ,  1-C ) :   1.0076 B(  0-C ,  5-C ) :   1.7444 B(  0-C ,  6-H ) :   0.9921
B(  1-C ,  2-C ) :   1.7445 B(  1-C ,  7-H ) :   0.9921 B(  2-C ,  3-C ) :   0.9576
B(  2-C ,  8-H ) :   1.0046 B(  3-C ,  4-O ) :   2.1432 B(  3-C ,  5-C ) :   0.9575
B(  5-C ,  9-H ) :   1.0046

Dispersion correction           -0.014739230
FINAL SINGLE POINT ENERGY      -267.924025513468

DIPOLE MOMENT
-------------
                                X             Y             Z
Electronic contribution:     -2.71883       0.01438       0.08245
Nuclear contribution   :      3.87760      -0.02044      -0.11588
                        -----------------------------------------
Total Dipole Moment    :      1.15877      -0.00606      -0.03342
                        -----------------------------------------
Magnitude (a.u.)       :      1.15927
Magnitude (Debye)      :      2.94662

Rotational constants in cm-1:     0.271155     0.131035     0.088344
Rotational constants in MHz :  8129.028705  3928.333351  2648.477299

                             ****ORCA TERMINATED NORMALLY****
TOTAL RUN TIME: 0 days 0 hours 2 minutes 1 seconds 226 msec
