                         Program Version 4.2.0 -  RELEASE  -
|  1> # ORCA input file
|  2> # SCF done        -31.525859406177          0.000533809066
|  3> ! B3LYP/G D3BJ Opt RIJCOSX def2-SVP def2/J
|  4> * xyz 0 1
|  5>    C        1.53079         1.22322        -0.24544
|  6>    S        2.68823        -0.00923        -0.57024
|  7>    C        1.51866        -1.23968        -0.28337
|  8>    C        0.31173        -0.71937         0.05287
|  9>    C        0.32012         0.70325         0.07646
| 10>    C       -0.94622         1.43022         0.39644
| 11>    C       -2.07516         0.77648        -0.36897
| 12>    O       -2.87185         1.38212        -1.03234
| 13>    C       -2.14914        -0.76179        -0.25997
| 14>    O       -3.12303        -1.35297        -0.64100
| 15>    C       -0.95332        -1.44740         0.36536
| 16>    H        1.81985         2.25272        -0.31204
| 17>    H        1.79881        -2.26918        -0.38163
| 18>    H       -0.88833         2.48901         0.14350
| 19>    H       -1.16572         1.33699         1.46593
| 20>    H       -0.92014        -2.49020         0.04674
| 21>    H       -1.12414        -1.43760         1.44939
| 22> *
| 23>
| 24>                          ****END OF INPUT****
 Total Charge           Charge          ....    0
 Multiplicity           Mult            ....    1
 Number of Electrons    NEL             ....   86
Dispersion correction           -0.037359787
FINAL SINGLE POINT ENERGY      -856.662188518535
Dispersion correction            ... done
Dispersion correction           -0.037176137
FINAL SINGLE POINT ENERGY      -856.664349681893
Dispersion correction            ... done
Dispersion correction           -0.037129562
FINAL SINGLE POINT ENERGY      -856.664498500476
Dispersion correction            ... done
FINAL SINGLE POINT ENERGY      -856.664564876829
FINAL SINGLE POINT ENERGY      -856.664604124051
FINAL SINGLE POINT ENERGY      -856.664640927694
FINAL SINGLE POINT ENERGY      -856.664669763304
FINAL SINGLE POINT ENERGY      -856.664704451790
FINAL SINGLE POINT ENERGY      -856.664722153984
FINAL SINGLE POINT ENERGY      -856.664732505327
FINAL SINGLE POINT ENERGY      -856.664750642171
FINAL SINGLE POINT ENERGY      -856.664785231887
FINAL SINGLE POINT ENERGY      -856.664823674429
FINAL SINGLE POINT ENERGY      -856.664830812490
FINAL SINGLE POINT ENERGY      -856.664844090956
Dispersion correction            ... done
Dispersion correction           -0.037042792
FINAL SINGLE POINT ENERGY      -856.664861028187
Dispersion correction            ... done
Dispersion correction           -0.037034685
FINAL SINGLE POINT ENERGY      -856.664866020584
Dispersion correction            ... done
                    ***********************HURRAY********************

CARTESIAN COORDINATES (ANGSTROEM)
---------------------------------
  C      1.565950    1.221641   -0.244711
  S      2.726185   -0.028324   -0.535034
  C      1.548802   -1.262930   -0.249459
  C      0.323548   -0.731082    0.064720
  C      0.333395    0.705838    0.067316
  C     -0.934151    1.462434    0.356868
  C     -2.132647    0.787154   -0.298475
  O     -3.054305    1.387295   -0.786453
  C     -2.143241   -0.777716   -0.301714
  O     -3.072732   -1.363749   -0.792095
  C     -0.954240   -1.471193    0.351361
  H      1.856332    2.268074   -0.326760
  H      1.824441   -2.312940   -0.335981
  H     -0.897618    2.508846    0.025392
  H     -1.133121    1.471643    1.448190
  H     -0.931663   -2.516680    0.015987
  H     -1.153795   -1.481720    1.442539

 Multiplicity           Mult            ....    1
 Number of Electrons    NEL             ....   86
 Basis Dimension        Dim             ....  188

ORBITAL ENERGIES
----------------

  NO   OCC          E(Eh)            E(eV)
   0   2.0000     -88.886657     -2418.7289
   1   2.0000     -19.151896      -521.1496
   2   2.0000     -19.151775      -521.1463
   3   2.0000     -10.292131      -280.0631
   4   2.0000     -10.292056      -280.0611
   5   2.0000     -10.224994      -278.2362
   6   2.0000     -10.224935      -278.2346
   7   2.0000     -10.221122      -278.1309
   8   2.0000     -10.221020      -278.1281
   9   2.0000     -10.215499      -277.9779
  10   2.0000     -10.215297      -277.9724
  11   2.0000      -7.981811      -217.1961
  12   2.0000      -5.950007      -161.9079
  13   2.0000      -5.945699      -161.7907
  14   2.0000      -5.943182      -161.7222
  15   2.0000      -1.070147       -29.1202
  16   2.0000      -1.043449       -28.3937
  17   2.0000      -0.900213       -24.4960
  18   2.0000      -0.819834       -22.3088
  19   2.0000      -0.779272       -21.2051
  20   2.0000      -0.715554       -19.4712
  21   2.0000      -0.706673       -19.2295
  22   2.0000      -0.636618       -17.3233
  23   2.0000      -0.582788       -15.8585
  24   2.0000      -0.555638       -15.1197
  25   2.0000      -0.523611       -14.2482
  26   2.0000      -0.500416       -13.6170
  27   2.0000      -0.497795       -13.5457
  28   2.0000      -0.480559       -13.0767
  29   2.0000      -0.452082       -12.3018
  30   2.0000      -0.447694       -12.1824
  31   2.0000      -0.437691       -11.9102
  32   2.0000      -0.428012       -11.6468
  33   2.0000      -0.415030       -11.2936
  34   2.0000      -0.409765       -11.1503
  35   2.0000      -0.390591       -10.6285
  36   2.0000      -0.375513       -10.2182
  37   2.0000      -0.367829       -10.0091
  38   2.0000      -0.358340        -9.7509
  39   2.0000      -0.308580        -8.3969
  40   2.0000      -0.271044        -7.3755
  41   2.0000      -0.252613        -6.8739
  42   2.0000      -0.243309        -6.6208
  43   0.0000      -0.093966        -2.5569
  44   0.0000      -0.029800        -0.8109
  45   0.0000       0.016880         0.4593
  46   0.0000       0.035042         0.9536
  47   0.0000       0.048577         1.3219

MULLIKEN ATOMIC CHARGES
-----------------------
   0 C :   -0.145089
   1 S :    0.109310
   2 C :   -0.145196
   3 C :   -0.064742
   4 C :   -0.064530
   5 C :    0.229729
   6 C :   -0.024248
   7 O :   -0.133963
   8 C :   -0.024535
   9 O :   -0.133912
  10 C :    0.229972
  11 H :    0.023244
  12 H :    0.023344
  13 H :    0.014509
  14 H :    0.045937
  15 H :    0.014391
  16 H :    0.045779
Sum of atomic charges:   -0.0000000

LOEWDIN ATOMIC CHARGES
----------------------
   0 C :   -0.193752
   1 S :    0.439303
   2 C :   -0.193898
   3 C :   -0.073467
   4 C :   -0.073475
   5 C :   -0.047058
   6 C :    0.055692
   7 O :   -0.086878
   8 C :    0.055709
   9 O :   -0.086921
  10 C :   -0.047054
  11 H :    0.026737
  12 H :    0.026766
  13 H :    0.044627
  14 H :    0.054550
  15 H :    0.044595
  16 H :    0.054524

  Mayer bond orders larger than 0.100000
B(  0-C ,  1-S ) :   1.1710 B(  0-C ,  4-C ) :   1.5705 B(  0-C , 11-H ) :   0.9662
B(  1-S ,  2-C ) :   1.1711 B(  2-C ,  3-C ) :   1.5705 B(  2-C , 12-H ) :   0.9661
B(  3-C ,  4-C ) :   1.2695 B(  3-C , 10-C ) :   1.0189 B(  4-C ,  5-C ) :   1.0187
B(  5-C ,  6-C ) :   0.9749 B(  5-C , 13-H ) :   0.8964 B(  5-C , 14-H ) :   0.8812
B(  6-C ,  7-O ) :   2.2214 B(  6-C ,  8-C ) :   0.7948 B(  8-C ,  9-O ) :   2.2218
B(  8-C , 10-C ) :   0.9749 B( 10-C , 15-H ) :   0.8963 B( 10-C , 16-H ) :   0.8811

Dispersion correction           -0.037039209
FINAL SINGLE POINT ENERGY      -856.664867113146

DIPOLE MOMENT
-------------
                                X             Y             Z
Electronic contribution:      0.61037       0.00022      -2.70648
Nuclear contribution   :      0.77019      -0.01079       3.58365
                        -----------------------------------------
Total Dipole Moment    :      1.38056      -0.01057       0.87717
                        -----------------------------------------
Magnitude (a.u.)       :      1.63569
Magnitude (Debye)      :      4.15760

Rotational constants in cm-1:     0.072381     0.022141     0.017997
Rotational constants in MHz :  2169.923720   663.768423   539.525061

                             ****ORCA TERMINATED NORMALLY****
TOTAL RUN TIME: 0 days 0 hours 17 minutes 39 seconds 964 msec
