                         Program Version 4.2.0 -  RELEASE  -
|  1> # ORCA input file
|  2> # SCF done        -38.722213125108          0.000306996027
|  3> ! B3LYP/G D3BJ Opt RIJCOSX def2-SVP def2/J
|  4> * xyz 0 1
|  5>    C        0.33343         1.25859        -0.52334
|  6>    S       -1.29272         1.04733         0.00867
|  7>    C       -0.85265        -0.24210         1.03778
|  8>    C        0.47886        -0.51092         0.95451
|  9>    C        1.17789         0.36163         0.05554
| 10>    O        2.50555         0.20227        -0.10467
| 11>    C        3.17334         1.11640        -0.95682
| 12>    C        4.65506         0.78463        -0.91974
| 13>    O        1.10391        -1.52399         1.63208
| 14>    N        2.13990        -1.12617         2.52902
| 15>    O        2.74081        -2.03973         2.96257
| 16>    O        2.24592         0.03301         2.72471
| 17>    H        0.55248         2.02985        -1.23186
| 18>    H       -1.58507        -0.75524         1.62643
| 19>    H        2.99596         2.14084        -0.60423
| 20>    H        2.77765         1.02253        -1.97729
| 21>    H        5.03386         0.89430         0.09273
| 22>    H        5.19899         1.45393        -1.57960
| 23>    H        4.81380        -0.24131        -1.24067
| 24> *
| 25>
| 26>                          ****END OF INPUT****
 Total Charge           Charge          ....    0
 Multiplicity           Mult            ....    1
 Number of Electrons    NEL             ....   98
Dispersion correction           -0.034321922
FINAL SINGLE POINT ENERGY      -986.007606771254
Dispersion correction            ... done
Dispersion correction           -0.033889343
FINAL SINGLE POINT ENERGY      -986.010475626573
Dispersion correction            ... done
Dispersion correction           -0.034030678
FINAL SINGLE POINT ENERGY      -986.003179554963
Dispersion correction            ... done
FINAL SINGLE POINT ENERGY      -986.011330371201
FINAL SINGLE POINT ENERGY      -986.011441897379
FINAL SINGLE POINT ENERGY      -986.011467228145
FINAL SINGLE POINT ENERGY      -986.011529857143
FINAL SINGLE POINT ENERGY      -986.011545786599
Dispersion correction            ... done
Dispersion correction           -0.033920957
FINAL SINGLE POINT ENERGY      -986.011543507331
Dispersion correction            ... done
Dispersion correction           -0.033921495
FINAL SINGLE POINT ENERGY      -986.011542594522
Dispersion correction            ... done
                    ***********************HURRAY********************

CARTESIAN COORDINATES (ANGSTROEM)
---------------------------------
  C      0.384180    1.286532   -0.511748
  S     -1.256041    1.048016    0.021892
  C     -0.807489   -0.276491    1.026329
  C      0.536255   -0.537392    0.936248
  C      1.234652    0.367111    0.057637
  O      2.560449    0.230502   -0.101894
  C      3.194943    1.138323   -0.993947
  C      4.672835    0.822334   -1.040557
  O      1.150147   -1.584826    1.559823
  N      1.997552   -1.175645    2.721900
  O      2.551024   -2.110337    3.203956
  O      1.998104   -0.014586    2.998302
  H      0.615870    2.088209   -1.207207
  H     -1.538271   -0.821142    1.619643
  H      3.020617    2.172880   -0.642665
  H      2.733854    1.039475   -1.995035
  H      5.125494    0.926606   -0.043272
  H      5.184329    1.512304   -1.727804
  H      4.838466   -0.206025   -1.395781

 Multiplicity           Mult            ....    1
 Number of Electrons    NEL             ....   98
 Basis Dimension        Dim             ....  207

ORBITAL ENERGIES
----------------

  NO   OCC          E(Eh)            E(eV)
   0   2.0000     -88.887483     -2418.7514
   1   2.0000     -19.210949      -522.7565
   2   2.0000     -19.204804      -522.5893
   3   2.0000     -19.201182      -522.4907
   4   2.0000     -19.179107      -521.8900
   5   2.0000     -14.615693      -397.7132
   6   2.0000     -10.262931      -279.2686
   7   2.0000     -10.256955      -279.1059
   8   2.0000     -10.256297      -279.0880
   9   2.0000     -10.228181      -278.3230
  10   2.0000     -10.216883      -278.0155
  11   2.0000     -10.195923      -277.4452
  12   2.0000      -7.982237      -217.2077
  13   2.0000      -5.950443      -161.9198
  14   2.0000      -5.946496      -161.8124
  15   2.0000      -5.943276      -161.7247
  16   2.0000      -1.281441       -34.8698
  17   2.0000      -1.111197       -30.2372
  18   2.0000      -1.080821       -29.4106
  19   2.0000      -1.061403       -28.8823
  20   2.0000      -0.887910       -24.1613
  21   2.0000      -0.785378       -21.3712
  22   2.0000      -0.749846       -20.4044
  23   2.0000      -0.723289       -19.6817
  24   2.0000      -0.673272       -18.3207
  25   2.0000      -0.646972       -17.6050
  26   2.0000      -0.591639       -16.0993
  27   2.0000      -0.588807       -16.0222
  28   2.0000      -0.573749       -15.6125
  29   2.0000      -0.566389       -15.4122
  30   2.0000      -0.544869       -14.8266
  31   2.0000      -0.517217       -14.0742
  32   2.0000      -0.499594       -13.5946
  33   2.0000      -0.477382       -12.9902
  34   2.0000      -0.462497       -12.5852
  35   2.0000      -0.428804       -11.6683
  36   2.0000      -0.419276       -11.4091
  37   2.0000      -0.405135       -11.0243
  38   2.0000      -0.403674       -10.9845
  39   2.0000      -0.384420       -10.4606
  40   2.0000      -0.377779       -10.2799
  41   2.0000      -0.358841        -9.7645
  42   2.0000      -0.355863        -9.6835
  43   2.0000      -0.348895        -9.4939
  44   2.0000      -0.335396        -9.1266
  45   2.0000      -0.331091        -9.0094
  46   2.0000      -0.328211        -8.9311
  47   2.0000      -0.254503        -6.9254
  48   2.0000      -0.234249        -6.3743
  49   0.0000      -0.068287        -1.8582
  50   0.0000      -0.037547        -1.0217
  51   0.0000       0.012802         0.3484
  52   0.0000       0.035415         0.9637
  53   0.0000       0.052730         1.4349

MULLIKEN ATOMIC CHARGES
-----------------------
   0 C :   -0.223698
   1 S :    0.115636
   2 C :   -0.117528
   3 C :    0.181039
   4 C :    0.225650
   5 O :   -0.305454
   6 C :    0.151291
   7 C :    0.018383
   8 O :   -0.244343
   9 N :    0.374290
  10 O :   -0.166336
  11 O :   -0.168182
  12 H :    0.028957
  13 H :    0.028931
  14 H :    0.013272
  15 H :    0.012740
  16 H :    0.029874
  17 H :    0.017894
  18 H :    0.027585
Sum of atomic charges:   -0.0000000

LOEWDIN ATOMIC CHARGES
----------------------
   0 C :   -0.256318
   1 S :    0.441472
   2 C :   -0.185187
   3 C :   -0.053833
   4 C :    0.001337
   5 O :   -0.093519
   6 C :    0.089061
   7 C :   -0.057728
   8 O :   -0.105054
   9 N :    0.325535
  10 O :   -0.139356
  11 O :   -0.146478
  12 H :    0.024508
  13 H :    0.033780
  14 H :    0.013130
  15 H :    0.012683
  16 H :    0.031670
  17 H :    0.032888
  18 H :    0.031409

  Mayer bond orders larger than 0.100000
B(  0-C ,  1-S ) :   1.1061 B(  0-C ,  4-C ) :   1.4801 B(  0-C , 12-H ) :   0.9678
B(  1-S ,  2-C ) :   1.1844 B(  2-C ,  3-C ) :   1.5315 B(  2-C , 13-H ) :   0.9688
B(  3-C ,  4-C ) :   1.2016 B(  3-C ,  8-O ) :   1.0703 B(  4-C ,  5-O ) :   1.1919
B(  5-O ,  6-C ) :   0.9327 B(  6-C ,  7-C ) :   1.1106 B(  6-C , 14-H ) :   0.9448
B(  6-C , 15-H ) :   0.9456 B(  7-C , 16-H ) :   0.9673 B(  7-C , 17-H ) :   0.9569
B(  7-C , 18-H ) :   0.9668 B(  8-O ,  9-N ) :   0.7980 B(  8-O , 11-O ) :   0.1073
B(  9-N , 10-O ) :   1.6869 B(  9-N , 11-O ) :   1.6311 B( 10-O , 11-O ) :   0.2624

Dispersion correction           -0.033922465
FINAL SINGLE POINT ENERGY      -986.011541166507

DIPOLE MOMENT
-------------
                                X             Y             Z
Electronic contribution:    -10.28691      -5.31279       9.20335
Nuclear contribution   :     10.16521       6.14381     -10.15349
                        -----------------------------------------
Total Dipole Moment    :     -0.12170       0.83102      -0.95014
                        -----------------------------------------
Magnitude (a.u.)       :      1.26814
Magnitude (Debye)      :      3.22335

Rotational constants in cm-1:     0.028327     0.025366     0.014550
Rotational constants in MHz :   849.231886   760.458917   436.188185

                             ****ORCA TERMINATED NORMALLY****
TOTAL RUN TIME: 0 days 0 hours 12 minutes 15 seconds 708 msec
