                         Program Version 4.2.0 -  RELEASE  -
|  1> # ORCA input file
|  2> # SCF done        -31.604379967108          0.000800664875
|  3> ! B3LYP/G D3BJ Opt RIJCOSX def2-SVP def2/J
|  4> * xyz 0 1
|  5>    C        0.12475         1.28496         0.45392
|  6>    S       -0.99678        -0.00807         0.48374
|  7>    C        0.19966        -1.13853        -0.07897
|  8>    C        1.40093        -0.49836        -0.27587
|  9>    C        1.36613         0.89927         0.03175
| 10>    C        2.52741         1.75407        -0.13529
| 11>    C        2.66824         2.97233         0.37226
| 12>    O        2.54199        -1.12762        -0.71399
| 13>    C        3.42435        -1.49655         0.32921
| 14>    C       -0.17473        -2.51787        -0.27104
| 15>    C        0.56512        -3.43508        -0.88715
| 16>    H       -0.20510         2.26751         0.72488
| 17>    H        3.32012         1.31456        -0.72780
| 18>    H        1.90618         3.43203         0.97807
| 19>    H        3.55897         3.55201         0.20274
| 20>    H        4.30762        -1.91222        -0.15242
| 21>    H        2.96920        -2.25423         0.97727
| 22>    H        3.70964        -0.63142         0.93771
| 23>    H       -1.14882        -2.77766         0.12433
| 24>    H        1.52414        -3.19677        -1.31133
| 25>    H        0.22080        -4.44947        -0.99033
| 26> *
| 27>
| 28>                          ****END OF INPUT****
 Total Charge           Charge          ....    0
 Multiplicity           Mult            ....    1
 Number of Electrons    NEL             ....   88
Dispersion correction           -0.041767578
FINAL SINGLE POINT ENERGY      -821.945361453328
Dispersion correction            ... done
Dispersion correction           -0.041464175
FINAL SINGLE POINT ENERGY      -821.948365298703
Dispersion correction            ... done
Dispersion correction           -0.041448633
FINAL SINGLE POINT ENERGY      -821.948452877447
Dispersion correction            ... done
FINAL SINGLE POINT ENERGY      -821.948441124112
FINAL SINGLE POINT ENERGY      -821.948446446566
Dispersion correction            ... done
Dispersion correction           -0.041441736
FINAL SINGLE POINT ENERGY      -821.948457049936
Dispersion correction            ... done
Dispersion correction           -0.041438340
FINAL SINGLE POINT ENERGY      -821.948458004512
Dispersion correction            ... done
                    ***********************HURRAY********************

CARTESIAN COORDINATES (ANGSTROEM)
---------------------------------
  C      0.093037    1.319126    0.434623
  S     -1.002395   -0.008192    0.482272
  C      0.215615   -1.133566   -0.061675
  C      1.411443   -0.463344   -0.267871
  C      1.359266    0.944975    0.027517
  C      2.527970    1.816036   -0.119002
  C      2.663636    3.054441    0.378153
  O      2.550802   -1.072221   -0.710840
  C      3.396698   -1.586556    0.311348
  C     -0.131407   -2.534125   -0.246179
  C      0.601494   -3.459055   -0.888839
  H     -0.252924    2.318666    0.691575
  H      3.349573    1.373996   -0.692171
  H      1.877638    3.529202    0.973197
  H      3.570182    3.637998    0.201649
  H      4.241760   -2.077219   -0.190917
  H      2.862573   -2.323705    0.934515
  H      3.776311   -0.775884    0.957812
  H     -1.093696   -2.833909    0.183890
  H      1.554678   -3.207715   -1.356188
  H      0.237568   -4.486059   -0.971178

 Multiplicity           Mult            ....    1
 Number of Electrons    NEL             ....   88
 Basis Dimension        Dim             ....  208

ORBITAL ENERGIES
----------------

  NO   OCC          E(Eh)            E(eV)
   0   2.0000     -88.877071     -2418.4681
   1   2.0000     -19.158057      -521.3172
   2   2.0000     -10.243823      -278.7486
   3   2.0000     -10.243119      -278.7294
   4   2.0000     -10.215040      -277.9654
   5   2.0000     -10.214972      -277.9635
   6   2.0000     -10.203258      -277.6448
   7   2.0000     -10.200039      -277.5572
   8   2.0000     -10.197877      -277.4983
   9   2.0000     -10.188916      -277.2545
  10   2.0000     -10.185438      -277.1599
  11   2.0000      -7.972130      -216.9327
  12   2.0000      -5.940067      -161.6374
  13   2.0000      -5.936300      -161.5349
  14   2.0000      -5.933511      -161.4590
  15   2.0000      -1.051703       -28.6183
  16   2.0000      -0.882364       -24.0104
  17   2.0000      -0.795998       -21.6602
  18   2.0000      -0.769153       -20.9297
  19   2.0000      -0.736361       -20.0374
  20   2.0000      -0.701830       -19.0978
  21   2.0000      -0.675489       -18.3810
  22   2.0000      -0.608729       -16.5644
  23   2.0000      -0.599258       -16.3066
  24   2.0000      -0.544935       -14.8284
  25   2.0000      -0.539474       -14.6798
  26   2.0000      -0.498206       -13.5569
  27   2.0000      -0.471165       -12.8211
  28   2.0000      -0.465600       -12.6696
  29   2.0000      -0.458897       -12.4872
  30   2.0000      -0.453664       -12.3448
  31   2.0000      -0.441697       -12.0192
  32   2.0000      -0.410110       -11.1597
  33   2.0000      -0.392796       -10.6885
  34   2.0000      -0.390186       -10.6175
  35   2.0000      -0.377416       -10.2700
  36   2.0000      -0.366112        -9.9624
  37   2.0000      -0.350778        -9.5452
  38   2.0000      -0.343990        -9.3604
  39   2.0000      -0.320732        -8.7276
  40   2.0000      -0.288742        -7.8571
  41   2.0000      -0.280646        -7.6368
  42   2.0000      -0.232779        -6.3342
  43   2.0000      -0.214171        -5.8279
  44   0.0000      -0.048894        -1.3305
  45   0.0000      -0.022635        -0.6159
  46   0.0000       0.030760         0.8370
  47   0.0000       0.059249         1.6122
  48   0.0000       0.067830         1.8458

MULLIKEN ATOMIC CHARGES
-----------------------
   0 C :   -0.133882
   1 S :    0.114438
   2 C :   -0.137450
   3 C :    0.130496
   4 C :    0.066993
   5 C :   -0.011876
   6 C :   -0.025166
   7 O :   -0.351462
   8 C :    0.211703
   9 C :    0.015182
  10 C :   -0.030190
  11 H :    0.019937
  12 H :   -0.002586
  13 H :    0.012059
  14 H :    0.023818
  15 H :    0.028456
  16 H :    0.019411
  17 H :    0.013935
  18 H :   -0.016242
  19 H :    0.032484
  20 H :    0.019943
Sum of atomic charges:   -0.0000000

LOEWDIN ATOMIC CHARGES
----------------------
   0 C :   -0.184461
   1 S :    0.442710
   2 C :   -0.204059
   3 C :    0.010765
   4 C :   -0.080456
   5 C :   -0.022568
   6 C :   -0.049710
   7 O :   -0.128454
   8 C :    0.087822
   9 C :   -0.044517
  10 C :   -0.050560
  11 H :    0.023737
  12 H :    0.030490
  13 H :    0.019850
  14 H :    0.025881
  15 H :    0.022707
  16 H :    0.013554
  17 H :    0.011224
  18 H :    0.026630
  19 H :    0.024893
  20 H :    0.024523

  Mayer bond orders larger than 0.100000
B(  0-C ,  1-S ) :   1.1676 B(  0-C ,  4-C ) :   1.4889 B(  0-C , 11-H ) :   0.9590
B(  1-S ,  2-C ) :   1.1202 B(  2-C ,  3-C ) :   1.4814 B(  2-C ,  9-C ) :   1.1036
B(  3-C ,  4-C ) :   1.2260 B(  3-C ,  7-O ) :   1.1269 B(  4-C ,  5-C ) :   1.0808
B(  5-C ,  6-C ) :   1.9298 B(  5-C , 12-H ) :   0.9537 B(  6-C , 13-H ) :   0.9476
B(  6-C , 14-H ) :   0.9459 B(  7-O ,  8-C ) :   0.9262 B(  8-C , 15-H ) :   0.9805
B(  8-C , 16-H ) :   0.9670 B(  8-C , 17-H ) :   0.9671 B(  9-C , 10-C ) :   1.9274
B(  9-C , 18-H ) :   0.9446 B( 10-C , 19-H ) :   0.9445 B( 10-C , 20-H ) :   0.9404

Dispersion correction           -0.041437770
FINAL SINGLE POINT ENERGY      -821.948457176688

DIPOLE MOMENT
-------------
                                X             Y             Z
Electronic contribution:     -8.85990       1.87174      -0.22057
Nuclear contribution   :      9.09933      -1.92196       0.68278
                        -----------------------------------------
Total Dipole Moment    :      0.23942      -0.05023       0.46221
                        -----------------------------------------
Magnitude (a.u.)       :      0.52296
Magnitude (Debye)      :      1.32926

Rotational constants in cm-1:     0.045075     0.028010     0.018032
Rotational constants in MHz :  1351.305895   839.718763   540.584970

                             ****ORCA TERMINATED NORMALLY****
TOTAL RUN TIME: 0 days 0 hours 8 minutes 32 seconds 767 msec
