                         Program Version 4.2.0 -  RELEASE  -
|  1> # ORCA input file
|  2> # SCF done        -28.787512330036          0.000359053442
|  3> ! B3LYP/G D3BJ Opt RIJCOSX def2-SVP def2/J
|  4> * xyz 0 1
|  5>    C        1.31738        -1.21567        -0.13241
|  6>    S        1.82412         0.41082        -0.10975
|  7>    C        0.20506         0.96466         0.02393
|  8>    C       -0.69750        -0.06170         0.05193
|  9>    C       -0.04228        -1.32835        -0.03962
| 10>    N       -0.72262        -2.58412        -0.03430
| 11>    O       -0.03474        -3.57918        -0.12383
| 12>    O       -1.92892        -2.56703         0.05842
| 13>    C       -2.09103         0.13953         0.15749
| 14>    N       -3.20812         0.37285         0.24528
| 15>    H        2.01833        -2.02377        -0.21037
| 16>    H       -0.00703         2.01438         0.07626
| 17> *
| 18>
| 19>                          ****END OF INPUT****
 Total Charge           Charge          ....    0
 Multiplicity           Mult            ....    1
 Number of Electrons    NEL             ....   78
Dispersion correction           -0.026369404
FINAL SINGLE POINT ENERGY      -849.316385135870
Dispersion correction            ... done
Dispersion correction           -0.026187485
FINAL SINGLE POINT ENERGY      -849.318947914856
Dispersion correction            ... done
Dispersion correction           -0.026162766
FINAL SINGLE POINT ENERGY      -849.318845626040
Dispersion correction            ... done
FINAL SINGLE POINT ENERGY      -849.319074530211
FINAL SINGLE POINT ENERGY      -849.319076046723
FINAL SINGLE POINT ENERGY      -849.319095999003
FINAL SINGLE POINT ENERGY      -849.319101175035
Dispersion correction            ... done
Dispersion correction           -0.026162620
FINAL SINGLE POINT ENERGY      -849.319099342353
Dispersion correction            ... done
Dispersion correction           -0.026163768
FINAL SINGLE POINT ENERGY      -849.319098048840
Dispersion correction            ... done
                    ***********************HURRAY********************

CARTESIAN COORDINATES (ANGSTROEM)
---------------------------------
  C      1.329456   -1.226357   -0.126361
  S      1.827105    0.418390   -0.117000
  C      0.201131    0.978111    0.014753
  C     -0.708115   -0.059195    0.050574
  C     -0.034385   -1.328008   -0.035982
  N     -0.710582   -2.620900   -0.043876
  O     -0.006560   -3.616618   -0.092764
  O     -1.928135   -2.611145   -0.005962
  C     -2.112482    0.168661    0.175673
  N     -3.233132    0.448243    0.282912
  H      2.034286   -2.050723   -0.203360
  H     -0.025937    2.041960    0.064424

 Multiplicity           Mult            ....    1
 Number of Electrons    NEL             ....   78
 Basis Dimension        Dim             ....  154

ORBITAL ENERGIES
----------------

  NO   OCC          E(Eh)            E(eV)
   0   2.0000     -88.936543     -2420.0864
   1   2.0000     -19.182110      -521.9717
   2   2.0000     -19.179976      -521.9137
   3   2.0000     -14.583286      -396.8314
   4   2.0000     -14.342573      -390.2812
   5   2.0000     -10.284756      -279.8624
   6   2.0000     -10.276288      -279.6320
   7   2.0000     -10.273397      -279.5533
   8   2.0000     -10.272967      -279.5417
   9   2.0000     -10.245710      -278.7999
  10   2.0000      -8.031647      -218.5522
  11   2.0000      -5.999592      -163.2572
  12   2.0000      -5.995338      -163.1415
  13   2.0000      -5.993333      -163.0869
  14   2.0000      -1.244220       -33.8569
  15   2.0000      -1.070435       -29.1280
  16   2.0000      -0.950210       -25.8565
  17   2.0000      -0.908651       -24.7257
  18   2.0000      -0.834118       -22.6975
  19   2.0000      -0.801834       -21.8190
  20   2.0000      -0.712863       -19.3980
  21   2.0000      -0.649183       -17.6652
  22   2.0000      -0.620884       -16.8951
  23   2.0000      -0.577451       -15.7132
  24   2.0000      -0.563584       -15.3359
  25   2.0000      -0.530132       -14.4256
  26   2.0000      -0.517141       -14.0721
  27   2.0000      -0.483137       -13.1468
  28   2.0000      -0.461794       -12.5661
  29   2.0000      -0.448752       -12.2112
  30   2.0000      -0.420788       -11.4502
  31   2.0000      -0.378783       -10.3072
  32   2.0000      -0.372464       -10.1353
  33   2.0000      -0.354694        -9.6517
  34   2.0000      -0.329975        -8.9791
  35   2.0000      -0.326737        -8.8910
  36   2.0000      -0.312791        -8.5115
  37   2.0000      -0.310984        -8.4623
  38   2.0000      -0.293320        -7.9816
  39   0.0000      -0.108942        -2.9645
  40   0.0000      -0.079357        -2.1594
  41   0.0000      -0.017474        -0.4755
  42   0.0000      -0.001732        -0.0471
  43   0.0000       0.034603         0.9416

MULLIKEN ATOMIC CHARGES
-----------------------
   0 C :   -0.118347
   1 S :    0.178008
   2 C :   -0.069165
   3 C :   -0.102572
   4 C :    0.236032
   5 N :    0.236556
   6 O :   -0.239832
   7 O :   -0.214536
   8 C :   -0.132417
   9 N :    0.111375
  10 H :    0.058180
  11 H :    0.056718
Sum of atomic charges:    0.0000000

LOEWDIN ATOMIC CHARGES
----------------------
   0 C :   -0.150562
   1 S :    0.507502
   2 C :   -0.142198
   3 C :   -0.089323
   4 C :   -0.047083
   5 N :    0.275779
   6 O :   -0.201980
   7 O :   -0.174839
   8 C :   -0.031250
   9 N :   -0.038173
  10 H :    0.047845
  11 H :    0.044280

  Mayer bond orders larger than 0.100000
B(  0-C ,  1-S ) :   1.2013 B(  0-C ,  4-C ) :   1.5109 B(  0-C , 10-H ) :   0.9475
B(  1-S ,  2-C ) :   1.1752 B(  2-C ,  3-C ) :   1.5391 B(  2-C , 11-H ) :   0.9684
B(  3-C ,  4-C ) :   1.2483 B(  3-C ,  8-C ) :   1.1292 B(  4-C ,  5-N ) :   0.8842
B(  5-N ,  6-O ) :   1.5231 B(  5-N ,  7-O ) :   1.5254 B(  6-O ,  7-O ) :   0.2918
B(  8-C ,  9-N ) :   3.0002

Dispersion correction           -0.026163412
FINAL SINGLE POINT ENERGY      -849.319097783805

DIPOLE MOMENT
-------------
                                X             Y             Z
Electronic contribution:     -0.06706      -0.43213      -0.01649
Nuclear contribution   :      2.28925       1.52034      -0.11268
                        -----------------------------------------
Total Dipole Moment    :      2.22219       1.08822      -0.12917
                        -----------------------------------------
Magnitude (a.u.)       :      2.47771
Magnitude (Debye)      :      6.29783

Rotational constants in cm-1:     0.051177     0.038935     0.022117
Rotational constants in MHz :  1534.235355  1167.227285   663.045551

                             ****ORCA TERMINATED NORMALLY****
TOTAL RUN TIME: 0 days 0 hours 5 minutes 47 seconds 188 msec
