                         Program Version 4.2.0 -  RELEASE  -
|  1> # ORCA input file
|  2> # SCF done        -37.104085060541          0.000353144957
|  3> ! B3LYP/G D3BJ Opt RIJCOSX def2-SVP def2/J
|  4> * xyz 0 1
|  5>    C       -0.87539         0.54575         0.75440
|  6>    S       -1.04598        -0.96999         1.57355
|  7>    C       -0.06365        -1.72487         0.39879
|  8>    C        0.37095        -0.83503        -0.57688
|  9>    C       -0.10083         0.47154        -0.36466
| 10>    C        1.21521        -1.55778        -1.56469
| 11>    O        1.76769        -1.11859        -2.54307
| 12>    C        1.21724        -2.95934        -1.05544
| 13>    C        0.45426        -3.02726         0.10717
| 14>    S        0.40209        -4.60324         0.75401
| 15>    C        1.41459        -5.19835        -0.54846
| 16>    C        1.76107        -4.19125        -1.42506
| 17>    C        1.75525        -6.59384        -0.56855
| 18>    C        2.48834        -7.19266        -1.50543
| 19>    H       -1.36838         1.40541         1.16248
| 20>    H        0.11730         1.30876        -1.00154
| 21>    H        2.37827        -4.34187        -2.29075
| 22>    H        1.36439        -7.17178         0.25892
| 23>    H        2.89460        -6.65767        -2.34563
| 24>    H        2.70286        -8.24518        -1.45609
| 25> *
| 26>
| 27>                          ****END OF INPUT****
 Total Charge           Charge          ....    0
 Multiplicity           Mult            ....    1
 Number of Electrons    NEL             ....  112
Dispersion correction           -0.050833455
FINAL SINGLE POINT ENERGY     -1293.799002863946
Dispersion correction            ... done
Dispersion correction           -0.050686435
FINAL SINGLE POINT ENERGY     -1293.802640644535
Dispersion correction            ... done
Dispersion correction           -0.050655825
FINAL SINGLE POINT ENERGY     -1293.802721019313
Dispersion correction            ... done
FINAL SINGLE POINT ENERGY     -1293.802784036282
FINAL SINGLE POINT ENERGY     -1293.802763673874
Dispersion correction            ... done
Dispersion correction           -0.050663023
FINAL SINGLE POINT ENERGY     -1293.802788330007
Dispersion correction            ... done
Dispersion correction           -0.050659858
FINAL SINGLE POINT ENERGY     -1293.802788373420
Dispersion correction            ... done
                    ***********************HURRAY********************

CARTESIAN COORDINATES (ANGSTROEM)
---------------------------------
  C     -0.842986    0.610751    0.811096
  S     -1.038968   -0.938950    1.597579
  C     -0.101811   -1.707487    0.385156
  C      0.334976   -0.807155   -0.580868
  C     -0.088117    0.523667   -0.338567
  C      1.164432   -1.549423   -1.595867
  O      1.709198   -1.107507   -2.580576
  C      1.159458   -2.976687   -1.097401
  C      0.400865   -3.039625    0.068947
  S      0.353010   -4.625109    0.711216
  C      1.375484   -5.234233   -0.591052
  C      1.713964   -4.215463   -1.475739
  C      1.750369   -6.638515   -0.585939
  C      2.584334   -7.231260   -1.457654
  H     -1.307683    1.490242    1.253275
  H      0.154305    1.375277   -0.974657
  H      2.337106   -4.368555   -2.356379
  H      1.308315   -7.244926    0.212584
  H      3.062035   -6.678683   -2.270588
  H      2.821597   -8.293601   -1.371495

 Multiplicity           Mult            ....    1
 Number of Electrons    NEL             ....  112
 Basis Dimension        Dim             ....  234

ORBITAL ENERGIES
----------------

  NO   OCC          E(Eh)            E(eV)
   0   2.0000     -88.899637     -2419.0821
   1   2.0000     -88.898379     -2419.0479
   2   2.0000     -19.137816      -520.7664
   3   2.0000     -10.288886      -279.9748
   4   2.0000     -10.241057      -278.6733
   5   2.0000     -10.240111      -278.6476
   6   2.0000     -10.233072      -278.4560
   7   2.0000     -10.227652      -278.3086
   8   2.0000     -10.213783      -277.9312
   9   2.0000     -10.213396      -277.9206
  10   2.0000     -10.211966      -277.8817
  11   2.0000     -10.202433      -277.6223
  12   2.0000     -10.200903      -277.5807
  13   2.0000     -10.197657      -277.4924
  14   2.0000      -7.993799      -217.5223
  15   2.0000      -7.992650      -217.4911
  16   2.0000      -5.961886      -162.2312
  17   2.0000      -5.960606      -162.1963
  18   2.0000      -5.957723      -162.1179
  19   2.0000      -5.956721      -162.0906
  20   2.0000      -5.955413      -162.0550
  21   2.0000      -5.954188      -162.0217
  22   2.0000      -1.040837       -28.3226
  23   2.0000      -0.921059       -25.0633
  24   2.0000      -0.888920       -24.1887
  25   2.0000      -0.819672       -22.3044
  26   2.0000      -0.779978       -21.2243
  27   2.0000      -0.755791       -20.5661
  28   2.0000      -0.748074       -20.3561
  29   2.0000      -0.693115       -18.8606
  30   2.0000      -0.646630       -17.5957
  31   2.0000      -0.622591       -16.9416
  32   2.0000      -0.578184       -15.7332
  33   2.0000      -0.550923       -14.9914
  34   2.0000      -0.548884       -14.9359
  35   2.0000      -0.527773       -14.3614
  36   2.0000      -0.498387       -13.5618
  37   2.0000      -0.474876       -12.9220
  38   2.0000      -0.454205       -12.3596
  39   2.0000      -0.449214       -12.2237
  40   2.0000      -0.447753       -12.1840
  41   2.0000      -0.434137       -11.8135
  42   2.0000      -0.415970       -11.3191
  43   2.0000      -0.406267       -11.0551
  44   2.0000      -0.394956       -10.7473
  45   2.0000      -0.389408       -10.5963
  46   2.0000      -0.388520       -10.5722
  47   2.0000      -0.375230       -10.2105
  48   2.0000      -0.370119       -10.0715
  49   2.0000      -0.365882        -9.9562
  50   2.0000      -0.325552        -8.8587
  51   2.0000      -0.279091        -7.5945
  52   2.0000      -0.274406        -7.4670
  53   2.0000      -0.269857        -7.3432
  54   2.0000      -0.263985        -7.1834
  55   2.0000      -0.207276        -5.6403
  56   0.0000      -0.099435        -2.7058
  57   0.0000      -0.050570        -1.3761
  58   0.0000      -0.008888        -0.2418
  59   0.0000       0.009383         0.2553
  60   0.0000       0.033928         0.9232

MULLIKEN ATOMIC CHARGES
-----------------------
   0 C :   -0.090960
   1 S :    0.156881
   2 C :   -0.105138
   3 C :   -0.065694
   4 C :    0.040214
   5 C :    0.199905
   6 O :   -0.130726
   7 C :   -0.058771
   8 C :   -0.086044
   9 S :    0.160417
  10 C :   -0.106941
  11 C :    0.007488
  12 C :    0.037561
  13 C :   -0.030176
  14 H :    0.033669
  15 H :    0.002133
  16 H :   -0.006310
  17 H :   -0.008405
  18 H :    0.021187
  19 H :    0.029708
Sum of atomic charges:   -0.0000000

LOEWDIN ATOMIC CHARGES
----------------------
   0 C :   -0.184806
   1 S :    0.456545
   2 C :   -0.185732
   3 C :   -0.103062
   4 C :   -0.032945
   5 C :    0.091382
   6 O :   -0.120387
   7 C :   -0.094962
   8 C :   -0.188702
   9 S :    0.460086
  10 C :   -0.171189
  11 C :   -0.024753
  12 C :   -0.045835
  13 C :   -0.044502
  14 H :    0.026888
  15 H :    0.040869
  16 H :    0.038847
  17 H :    0.029283
  18 H :    0.023762
  19 H :    0.029212

  Mayer bond orders larger than 0.100000
B(  0-C ,  1-S ) :   1.1407 B(  0-C ,  4-C ) :   1.5282 B(  0-C , 14-H ) :   0.9651
B(  1-S ,  2-C ) :   1.1415 B(  2-C ,  3-C ) :   1.4731 B(  2-C ,  8-C ) :   1.1206
B(  3-C ,  4-C ) :   1.2901 B(  3-C ,  5-C ) :   0.9242 B(  4-C , 15-H ) :   0.9947
B(  5-C ,  6-O ) :   2.2644 B(  5-C ,  7-C ) :   0.9123 B(  7-C ,  8-C ) :   1.4648
B(  7-C , 11-C ) :   1.3016 B(  8-C ,  9-S ) :   1.1339 B(  9-S , 10-C ) :   1.1023
B( 10-C , 11-C ) :   1.4657 B( 10-C , 12-C ) :   1.1130 B( 11-C , 16-H ) :   0.9951
B( 12-C , 13-C ) :   1.9241 B( 12-C , 17-H ) :   0.9477 B( 13-C , 18-H ) :   0.9506
B( 13-C , 19-H ) :   0.9441

Dispersion correction           -0.050658576
FINAL SINGLE POINT ENERGY     -1293.802786148952

DIPOLE MOMENT
-------------
                                X             Y             Z
Electronic contribution:     -5.06970       6.26416       4.79692
Nuclear contribution   :      4.64511      -6.56191      -3.98247
                        -----------------------------------------
Total Dipole Moment    :     -0.42459      -0.29775       0.81445
                        -----------------------------------------
Magnitude (a.u.)       :      0.96553
Magnitude (Debye)      :      2.45419

Rotational constants in cm-1:     0.041425     0.011964     0.009287
Rotational constants in MHz :  1241.894055   358.682440   278.420306

                             ****ORCA TERMINATED NORMALLY****
TOTAL RUN TIME: 0 days 0 hours 10 minutes 38 seconds 369 msec
