                         Program Version 4.2.0 -  RELEASE  -
|  1> # ORCA input file
|  2> # SCF done        -42.304612345617          0.000598461533
|  3> ! B3LYP/G D3BJ Opt RIJCOSX def2-SVP def2/J
|  4> * xyz 0 1
|  5>    C       -1.73465         1.09742         0.62973
|  6>    S       -2.92415        -0.14429         0.76238
|  7>    C       -0.49257         0.55828         0.60606
|  8>    C        0.91536         1.03940         0.44795
|  9>    N        1.13778         1.47802        -0.91257
| 10>    C        2.46798         2.01854        -1.13613
| 11>    C        2.62530         2.44150        -2.58786
| 12>    O        1.70889        -0.10249         0.72621
| 13>    C        0.95830        -1.30734         0.64087
| 14>    O        1.35900        -2.16837         1.65242
| 15>    C       -0.47748        -0.85182         0.69084
| 16>    C       -1.71921        -1.41540         0.78262
| 17>    C       -2.15029        -2.78581         0.87484
| 18>    C       -1.33465        -3.82890         0.99813
| 19>    H       -2.03942         2.12329         0.58258
| 20>    H        1.20697         1.81100         1.19185
| 21>    H        0.42991         2.15916        -1.16994
| 22>    H        3.17495         1.22204        -0.89321
| 23>    H        2.67730         2.87368        -0.46808
| 24>    H        2.41353         1.60143        -3.24321
| 25>    H        3.64004         2.78539        -2.76923
| 26>    H        1.93635         3.24936        -2.82762
| 27>    H        1.17741        -1.83486        -0.30111
| 28>    H        1.39731        -1.67339         2.48059
| 29>    H       -3.22279        -2.92534         0.83954
| 30>    H       -0.26711        -3.71083         1.05773
| 31>    H       -1.72122        -4.83146         1.05504
| 32> *
| 33>
| 34>                          ****END OF INPUT****
 Total Charge           Charge          ....    0
 Multiplicity           Mult            ....    1
 Number of Electrons    NEL             ....  112
Dispersion correction           -0.052692442
FINAL SINGLE POINT ENERGY      -991.737679470668
Dispersion correction            ... done
Dispersion correction           -0.052284282
FINAL SINGLE POINT ENERGY      -991.740822248991
Dispersion correction            ... done
Dispersion correction           -0.052269137
FINAL SINGLE POINT ENERGY      -991.741255558947
Dispersion correction            ... done
FINAL SINGLE POINT ENERGY      -991.741510490475
FINAL SINGLE POINT ENERGY      -991.741573117083
FINAL SINGLE POINT ENERGY      -991.741607683992
FINAL SINGLE POINT ENERGY      -991.741607913533
Dispersion correction            ... done
Dispersion correction           -0.052356262
FINAL SINGLE POINT ENERGY      -991.741616520490
Dispersion correction            ... done
Dispersion correction           -0.052354352
FINAL SINGLE POINT ENERGY      -991.741611448303
Dispersion correction            ... done
                    ***********************HURRAY********************

CARTESIAN COORDINATES (ANGSTROEM)
---------------------------------
  C     -1.712544    1.119191    0.655492
  S     -2.906276   -0.133789    0.777991
  C     -0.457655    0.570644    0.631562
  C      0.963355    1.047968    0.464278
  N      1.200714    1.447111   -0.903137
  C      2.486391    2.081089   -1.154284
  C      2.610559    2.478016   -2.619477
  O      1.741071   -0.103266    0.797516
  C      0.994875   -1.317201    0.659451
  O      1.382212   -2.223012    1.640822
  C     -0.442555   -0.843804    0.715127
  C     -1.700879   -1.412362    0.791719
  C     -2.158118   -2.793215    0.868234
  C     -1.379060   -3.875485    1.026989
  H     -2.020511    2.162458    0.602100
  H      1.261688    1.830447    1.194098
  H      0.427766    2.014687   -1.246391
  H      3.270351    1.356125   -0.883950
  H      2.656332    2.970734   -0.505791
  H      2.474097    1.598858   -3.267741
  H      3.593101    2.927797   -2.831273
  H      1.842259    3.220136   -2.896471
  H      1.238218   -1.808801   -0.299238
  H      1.143802   -1.843112    2.500391
  H     -3.241733   -2.930269    0.778561
  H     -0.297366   -3.791036    1.157482
  H     -1.827256   -4.871696    1.056362

 Multiplicity           Mult            ....    1
 Number of Electrons    NEL             ....  112
 Basis Dimension        Dim             ....  265

ORBITAL ENERGIES
----------------

  NO   OCC          E(Eh)            E(eV)
   0   2.0000     -88.881601     -2418.5913
   1   2.0000     -19.144936      -520.9602
   2   2.0000     -19.135117      -520.6930
   3   2.0000     -14.314206      -389.5093
   4   2.0000     -10.291539      -280.0470
   5   2.0000     -10.271602      -279.5045
   6   2.0000     -10.229762      -278.3660
   7   2.0000     -10.223434      -278.1938
   8   2.0000     -10.208687      -277.7925
   9   2.0000     -10.206572      -277.7349
  10   2.0000     -10.201045      -277.5846
  11   2.0000     -10.195016      -277.4205
  12   2.0000     -10.189605      -277.2733
  13   2.0000     -10.182483      -277.0795
  14   2.0000      -7.976397      -217.0488
  15   2.0000      -5.944500      -161.7581
  16   2.0000      -5.940408      -161.6467
  17   2.0000      -5.937816      -161.5762
  18   2.0000      -1.063864       -28.9492
  19   2.0000      -1.004215       -27.3261
  20   2.0000      -0.897456       -24.4210
  21   2.0000      -0.888162       -24.1681
  22   2.0000      -0.789169       -21.4744
  23   2.0000      -0.761511       -20.7218
  24   2.0000      -0.746435       -20.3115
  25   2.0000      -0.713503       -19.4154
  26   2.0000      -0.682945       -18.5839
  27   2.0000      -0.626303       -17.0426
  28   2.0000      -0.609481       -16.5848
  29   2.0000      -0.598577       -16.2881
  30   2.0000      -0.578667       -15.7463
  31   2.0000      -0.552972       -15.0471
  32   2.0000      -0.515136       -14.0176
  33   2.0000      -0.507196       -13.8015
  34   2.0000      -0.487626       -13.2690
  35   2.0000      -0.467818       -12.7300
  36   2.0000      -0.465016       -12.6537
  37   2.0000      -0.461297       -12.5525
  38   2.0000      -0.446221       -12.1423
  39   2.0000      -0.433213       -11.7883
  40   2.0000      -0.410959       -11.1828
  41   2.0000      -0.398270       -10.8375
  42   2.0000      -0.392358       -10.6766
  43   2.0000      -0.380132       -10.3439
  44   2.0000      -0.375308       -10.2126
  45   2.0000      -0.367531       -10.0010
  46   2.0000      -0.361907        -9.8480
  47   2.0000      -0.354597        -9.6491
  48   2.0000      -0.346582        -9.4310
  49   2.0000      -0.328026        -8.9260
  50   2.0000      -0.308599        -8.3974
  51   2.0000      -0.303808        -8.2670
  52   2.0000      -0.273493        -7.4421
  53   2.0000      -0.259394        -7.0585
  54   2.0000      -0.234880        -6.3914
  55   2.0000      -0.225271        -6.1299
  56   0.0000      -0.054315        -1.4780
  57   0.0000       0.014258         0.3880
  58   0.0000       0.018965         0.5161
  59   0.0000       0.053681         1.4607
  60   0.0000       0.062515         1.7011

MULLIKEN ATOMIC CHARGES
-----------------------
   0 C :   -0.170389
   1 S :    0.107934
   2 C :    0.007963
   3 C :    0.334711
   4 N :   -0.268115
   5 C :    0.114682
   6 C :   -0.000916
   7 O :   -0.376958
   8 C :    0.457257
   9 O :   -0.258830
  10 C :   -0.104440
  11 C :   -0.167536
  12 C :    0.031336
  13 C :   -0.040157
  14 H :    0.018975
  15 H :   -0.021040
  16 H :    0.095602
  17 H :    0.011353
  18 H :   -0.024315
  19 H :    0.022672
  20 H :    0.011692
  21 H :    0.004300
  22 H :    0.002551
  23 H :    0.165540
  24 H :   -0.012186
  25 H :    0.036246
  26 H :    0.022069
Sum of atomic charges:    0.0000000

LOEWDIN ATOMIC CHARGES
----------------------
   0 C :   -0.199993
   1 S :    0.435634
   2 C :   -0.071904
   3 C :    0.118289
   4 N :   -0.112339
   5 C :    0.023821
   6 C :   -0.060355
   7 O :   -0.179132
   8 C :    0.150457
   9 O :   -0.096007
  10 C :   -0.093104
  11 C :   -0.167336
  12 C :   -0.050563
  13 C :   -0.038597
  14 H :    0.024263
  15 H :   -0.000376
  16 H :    0.055938
  17 H :    0.021319
  18 H :   -0.003779
  19 H :    0.026680
  20 H :    0.026730
  21 H :    0.017916
  22 H :    0.015904
  23 H :    0.078840
  24 H :    0.027318
  25 H :    0.023998
  26 H :    0.026378

  Mayer bond orders larger than 0.100000
B(  0-C ,  1-S ) :   1.1416 B(  0-C ,  2-C ) :   1.5166 B(  0-C , 14-H ) :   0.9772
B(  1-S , 11-C ) :   1.1373 B(  2-C ,  3-C ) :   0.9563 B(  2-C , 10-C ) :   1.3468
B(  3-C ,  4-N ) :   1.0354 B(  3-C ,  7-O ) :   1.0211 B(  3-C , 15-H ) :   0.8909
B(  4-N ,  5-C ) :   1.0051 B(  4-N , 16-H ) :   0.9370 B(  5-C ,  6-C ) :   1.1015
B(  5-C , 17-H ) :   0.9449 B(  5-C , 18-H ) :   0.9302 B(  6-C , 19-H ) :   0.9674
B(  6-C , 20-H ) :   0.9630 B(  6-C , 21-H ) :   0.9700 B(  7-O ,  8-C ) :   0.9955
B(  8-C ,  9-O ) :   1.0905 B(  8-C , 10-C ) :   0.9571 B(  8-C , 22-H ) :   0.9024
B(  9-O , 23-H ) :   0.9641 B( 10-C , 11-C ) :   1.4980 B( 11-C , 12-C ) :   1.1117
B( 12-C , 13-C ) :   1.9201 B( 12-C , 24-H ) :   0.9469 B( 13-C , 25-H ) :   0.9370
B( 13-C , 26-H ) :   0.9419

Dispersion correction           -0.052353698
FINAL SINGLE POINT ENERGY      -991.741606302361

DIPOLE MOMENT
-------------
                                X             Y             Z
Electronic contribution:    -12.08979      -4.97208       8.46309
Nuclear contribution   :     11.47070       5.74292      -8.45361
                        -----------------------------------------
Total Dipole Moment    :     -0.61910       0.77084       0.00948
                        -----------------------------------------
Magnitude (a.u.)       :      0.98872
Magnitude (Debye)      :      2.51313

Rotational constants in cm-1:     0.032679     0.013287     0.010497
Rotational constants in MHz :   979.678797   398.343403   314.698767

                             ****ORCA TERMINATED NORMALLY****
TOTAL RUN TIME: 0 days 0 hours 18 minutes 2 seconds 389 msec
