                         Program Version 4.2.0 -  RELEASE  -
|  1> # ORCA input file
|  2> # SCF done        -35.419928567039          0.000991474113
|  3> ! B3LYP/G D3BJ Opt RIJCOSX def2-SVP def2/J
|  4> * xyz 0 1
|  5>    C        2.50102         0.92571         0.01663
|  6>    C        3.12587        -0.27996        -0.02369
|  7>    S        2.05041        -1.64183        -0.06978
|  8>    C        0.69422        -0.57526        -0.03554
|  9>    C        1.09935         0.76849         0.01077
| 10>    N       -0.00030         1.58559         0.05369
| 11>    C        0.00396         3.02356         0.02028
| 12>    C        0.00653         3.55689        -1.41182
| 13>    C       -1.10456         0.77508         0.00446
| 14>    C       -0.70725        -0.57108        -0.03956
| 15>    S       -2.06959        -1.62946        -0.08170
| 16>    C       -3.13712        -0.26118        -0.04177
| 17>    C       -2.50527         0.94072         0.00231
| 18>    H        3.02059         1.86645         0.04647
| 19>    H        4.18097        -0.46884        -0.03058
| 20>    H        0.89211         3.37584         0.55237
| 21>    H       -0.88283         3.38119         0.55113
| 22>    H        0.88826         3.20542        -1.94246
| 23>    H        0.01013         4.64360        -1.40592
| 24>    H       -0.87688         3.21127        -1.94351
| 25>    H       -4.19328        -0.44373        -0.05488
| 26>    H       -3.01931         1.88459         0.02923
| 27> *
| 28>
| 29>                          ****END OF INPUT****
 Total Charge           Charge          ....    0
 Multiplicity           Mult            ....    1
 Number of Electrons    NEL             ....  108
Dispersion correction           -0.051488152
FINAL SINGLE POINT ENERGY     -1237.105338509987
Dispersion correction            ... done
Dispersion correction           -0.051305320
FINAL SINGLE POINT ENERGY     -1237.108809902789
Dispersion correction            ... done
Dispersion correction           -0.051294532
FINAL SINGLE POINT ENERGY     -1237.108986148375
Dispersion correction            ... done
FINAL SINGLE POINT ENERGY     -1237.109020388608
Dispersion correction            ... done
Dispersion correction           -0.051313665
FINAL SINGLE POINT ENERGY     -1237.109023445305
Dispersion correction            ... done
Dispersion correction           -0.051321665
FINAL SINGLE POINT ENERGY     -1237.109023831852
Dispersion correction            ... done
                    ***********************HURRAY********************

CARTESIAN COORDINATES (ANGSTROEM)
---------------------------------
  C      2.523451    0.933835    0.033380
  C      3.162320   -0.281007   -0.036778
  S      2.072784   -1.647309   -0.106198
  C      0.701170   -0.585567   -0.043486
  C      1.109391    0.760056    0.034030
  N     -0.003815    1.582679    0.095443
  C      0.000166    3.030465    0.013106
  C      0.017904    3.548722   -1.424647
  C     -1.120261    0.764719    0.030077
  C     -0.717302   -0.582619   -0.045801
  S     -2.093022   -1.638906   -0.111324
  C     -3.177154   -0.268217   -0.045282
  C     -2.533625    0.944085    0.025859
  H      3.047927    1.887787    0.083750
  H      4.235201   -0.466643   -0.051008
  H      0.874997    3.399643    0.571779
  H     -0.885402    3.403106    0.552034
  H      0.912942    3.191954   -1.957044
  H      0.020312    4.650317   -1.445376
  H     -0.865639    3.195454   -1.978215
  H     -4.250728   -0.449553   -0.062620
  H     -3.054588    1.900057    0.074450

 Multiplicity           Mult            ....    1
 Number of Electrons    NEL             ....  108
 Basis Dimension        Dim             ....  235

ORBITAL ENERGIES
----------------

  NO   OCC          E(Eh)            E(eV)
   0   2.0000     -88.867837     -2418.2168
   1   2.0000     -88.867768     -2418.2149
   2   2.0000     -14.374951      -391.1623
   3   2.0000     -10.241827      -278.6943
   4   2.0000     -10.217617      -278.0355
   5   2.0000     -10.217536      -278.0333
   6   2.0000     -10.209651      -277.8187
   7   2.0000     -10.209633      -277.8182
   8   2.0000     -10.203907      -277.6624
   9   2.0000     -10.203670      -277.6560
  10   2.0000     -10.197180      -277.4794
  11   2.0000     -10.197147      -277.4785
  12   2.0000     -10.195391      -277.4307
  13   2.0000      -7.961838      -216.6526
  14   2.0000      -7.961783      -216.6511
  15   2.0000      -5.930368      -161.3735
  16   2.0000      -5.930342      -161.3728
  17   2.0000      -5.926319      -161.2633
  18   2.0000      -5.926293      -161.2626
  19   2.0000      -5.922482      -161.1589
  20   2.0000      -5.922455      -161.1582
  21   2.0000      -0.984735       -26.7960
  22   2.0000      -0.866998       -23.5922
  23   2.0000      -0.862037       -23.4572
  24   2.0000      -0.791161       -21.5286
  25   2.0000      -0.744550       -20.2602
  26   2.0000      -0.734597       -19.9894
  27   2.0000      -0.705692       -19.2029
  28   2.0000      -0.682857       -18.5815
  29   2.0000      -0.637541       -17.3484
  30   2.0000      -0.592247       -16.1159
  31   2.0000      -0.572522       -15.5791
  32   2.0000      -0.544802       -14.8248
  33   2.0000      -0.534063       -14.5326
  34   2.0000      -0.504177       -13.7193
  35   2.0000      -0.470460       -12.8019
  36   2.0000      -0.459082       -12.4922
  37   2.0000      -0.457001       -12.4356
  38   2.0000      -0.447253       -12.1704
  39   2.0000      -0.417621       -11.3640
  40   2.0000      -0.412285       -11.2188
  41   2.0000      -0.402804       -10.9609
  42   2.0000      -0.394594       -10.7374
  43   2.0000      -0.381192       -10.3728
  44   2.0000      -0.370122       -10.0715
  45   2.0000      -0.368146       -10.0178
  46   2.0000      -0.362816        -9.8727
  47   2.0000      -0.348760        -9.4902
  48   2.0000      -0.335628        -9.1329
  49   2.0000      -0.323106        -8.7922
  50   2.0000      -0.273482        -7.4418
  51   2.0000      -0.253505        -6.8982
  52   2.0000      -0.206959        -5.6316
  53   2.0000      -0.193447        -5.2639
  54   0.0000      -0.027876        -0.7586
  55   0.0000       0.020989         0.5711
  56   0.0000       0.037128         1.0103
  57   0.0000       0.046695         1.2706
  58   0.0000       0.056285         1.5316

MULLIKEN ATOMIC CHARGES
-----------------------
   0 C :    0.002836
   1 C :   -0.109747
   2 S :    0.115416
   3 C :   -0.126215
   4 C :    0.101582
   5 N :   -0.196373
   6 C :    0.120198
   7 C :   -0.011630
   8 C :    0.101892
   9 C :   -0.126660
  10 S :    0.115358
  11 C :   -0.109882
  12 C :    0.003001
  13 H :   -0.025360
  14 H :    0.027944
  15 H :    0.018067
  16 H :    0.017760
  17 H :    0.027466
  18 H :    0.023777
  19 H :    0.027997
  20 H :    0.027989
  21 H :   -0.025414
Sum of atomic charges:   -0.0000000

LOEWDIN ATOMIC CHARGES
----------------------
   0 C :   -0.086427
   1 C :   -0.187266
   2 S :    0.401303
   3 C :   -0.227705
   4 C :   -0.024882
   5 N :    0.022737
   6 C :    0.045846
   7 C :   -0.063504
   8 C :   -0.024789
   9 C :   -0.227798
  10 S :    0.401245
  11 C :   -0.187281
  12 C :   -0.086401
  13 H :    0.028625
  14 H :    0.023365
  15 H :    0.026962
  16 H :    0.026985
  17 H :    0.028852
  18 H :    0.029112
  19 H :    0.029054
  20 H :    0.023369
  21 H :    0.028600

  Mayer bond orders larger than 0.100000
B(  0-C ,  1-C ) :   1.5359 B(  0-C ,  4-C ) :   1.2249 B(  0-C , 13-H ) :   1.0031
B(  1-C ,  2-S ) :   1.1443 B(  1-C , 14-H ) :   0.9618 B(  2-S ,  3-C ) :   1.0439
B(  3-C ,  4-C ) :   1.3981 B(  3-C ,  9-C ) :   1.3899 B(  4-C ,  5-N ) :   1.1318
B(  5-N ,  6-C ) :   0.9782 B(  5-N ,  8-C ) :   1.1315 B(  6-C ,  7-C ) :   1.1032
B(  6-C , 15-H ) :   0.9471 B(  6-C , 16-H ) :   0.9473 B(  7-C , 17-H ) :   0.9670
B(  7-C , 18-H ) :   0.9641 B(  7-C , 19-H ) :   0.9670 B(  8-C ,  9-C ) :   1.3980
B(  8-C , 12-C ) :   1.2247 B(  9-C , 10-S ) :   1.0439 B( 10-S , 11-C ) :   1.1443
B( 11-C , 12-C ) :   1.5361 B( 11-C , 20-H ) :   0.9618 B( 12-C , 21-H ) :   1.0031

Dispersion correction           -0.051333512
FINAL SINGLE POINT ENERGY     -1237.109015517644

DIPOLE MOMENT
-------------
                                X             Y             Z
Electronic contribution:     -0.07378     -16.82759       2.78494
Nuclear contribution   :      0.07692      18.03966      -2.83541
                        -----------------------------------------
Total Dipole Moment    :      0.00314       1.21206      -0.05046
                        -----------------------------------------
Magnitude (a.u.)       :      1.21312
Magnitude (Debye)      :      3.08350

Rotational constants in cm-1:     0.027455     0.021067     0.012392
Rotational constants in MHz :   823.084087   631.559266   371.497244

                             ****ORCA TERMINATED NORMALLY****
TOTAL RUN TIME: 0 days 0 hours 9 minutes 59 seconds 956 msec
