                         Program Version 4.2.0 -  RELEASE  -
|  1> # ORCA input file
|  2> # SCF done        -15.181947271113          0.000232888839
|  3> ! B3LYP/G D3BJ Opt RIJCOSX def2-SVP def2/J
|  4> * xyz 0 1
|  5>    C       -0.28241        -1.04337        -0.01039
|  6>    O       -1.13536        -0.00524        -0.00910
|  7>    C       -0.29744         1.04504        -0.00187
|  8>    N        0.93855         0.68326         0.00108
|  9>    N        0.94824        -0.66388        -0.00442
| 10>    H       -0.65282        -2.04687        -0.01579
| 11>    H       -0.68224         2.04312         0.00090
| 12> *
| 13>
| 14>                          ****END OF INPUT****
 Total Charge           Charge          ....    0
 Multiplicity           Mult            ....    1
 Number of Electrons    NEL             ....   36
Dispersion correction           -0.007802796
FINAL SINGLE POINT ENERGY      -261.902816932525
Dispersion correction            ... done
Dispersion correction           -0.007899889
FINAL SINGLE POINT ENERGY      -261.904577340433
Dispersion correction            ... done
Dispersion correction           -0.007911144
FINAL SINGLE POINT ENERGY      -261.904812322548
Dispersion correction            ... done
Dispersion correction           -0.007911932
FINAL SINGLE POINT ENERGY      -261.904884294834
Dispersion correction            ... done
Dispersion correction           -0.007910321
FINAL SINGLE POINT ENERGY      -261.904888604326
Dispersion correction            ... done
                    ***********************HURRAY********************

CARTESIAN COORDINATES (ANGSTROEM)
---------------------------------
  C     -0.270654   -1.053090   -0.010246
  O     -1.128163   -0.005125   -0.009057
  C     -0.285778    1.054994   -0.001776
  N      0.956513    0.705644    0.001197
  N      0.966448   -0.686128   -0.004438
  H     -0.686059   -2.058285   -0.016066
  H     -0.715787    2.054049    0.000796

 Multiplicity           Mult            ....    1
 Number of Electrons    NEL             ....   36
 Basis Dimension        Dim             ....   80

ORBITAL ENERGIES
----------------

  NO   OCC          E(Eh)            E(eV)
   0   2.0000     -19.243762      -523.6494
   1   2.0000     -14.363176      -390.8419
   2   2.0000     -14.363054      -390.8386
   3   2.0000     -10.295010      -280.1415
   4   2.0000     -10.294982      -280.1407
   5   2.0000      -1.173763       -31.9397
   6   2.0000      -0.989370       -26.9221
   7   2.0000      -0.842023       -22.9126
   8   2.0000      -0.679169       -18.4811
   9   2.0000      -0.637090       -17.3361
  10   2.0000      -0.561422       -15.2771
  11   2.0000      -0.514098       -13.9893
  12   2.0000      -0.489531       -13.3208
  13   2.0000      -0.452167       -12.3041
  14   2.0000      -0.363135        -9.8814
  15   2.0000      -0.338381        -9.2078
  16   2.0000      -0.304118        -8.2755
  17   2.0000      -0.287451        -7.8219
  18   0.0000      -0.027373        -0.7449
  19   0.0000       0.014591         0.3971
  20   0.0000       0.074136         2.0173
  21   0.0000       0.079143         2.1536
  22   0.0000       0.145318         3.9543

MULLIKEN ATOMIC CHARGES
-----------------------
   0 C :    0.163475
   1 O :   -0.201882
   2 C :    0.163737
   3 N :   -0.108680
   4 N :   -0.108498
   5 H :    0.045980
   6 H :    0.045868
Sum of atomic charges:   -0.0000000

LOEWDIN ATOMIC CHARGES
----------------------
   0 C :    0.048551
   1 O :   -0.001947
   2 C :    0.048621
   3 N :   -0.080623
   4 N :   -0.080553
   5 H :    0.032983
   6 H :    0.032967

  Mayer bond orders larger than 0.100000
B(  0-C ,  1-O ) :   1.1324 B(  0-C ,  4-N ) :   1.7652 B(  0-C ,  5-H ) :   0.9822
B(  1-O ,  2-C ) :   1.1325 B(  2-C ,  3-N ) :   1.7650 B(  2-C ,  6-H ) :   0.9822
B(  3-N ,  4-N ) :   1.1407

Dispersion correction           -0.007909696
FINAL SINGLE POINT ENERGY      -261.904888698676

DIPOLE MOMENT
-------------
                                X             Y             Z
Electronic contribution:      0.11722       0.00095       0.00059
Nuclear contribution   :     -1.34270      -0.00964      -0.00497
                        -----------------------------------------
Total Dipole Moment    :     -1.22548      -0.00869      -0.00438
                        -----------------------------------------
Magnitude (a.u.)       :      1.22551
Magnitude (Debye)      :      3.11501

Rotational constants in cm-1:     0.345577     0.343303     0.172218
Rotational constants in MHz : 10360.146960 10291.968005  5162.972479

                             ****ORCA TERMINATED NORMALLY****
TOTAL RUN TIME: 0 days 0 hours 0 minutes 58 seconds 957 msec
