                         Program Version 4.2.0 -  RELEASE  -
|  1> # ORCA input file
|  2> # SCF done        -45.198900640154          0.000551751371
|  3> ! B3LYP/G D3BJ Opt RIJCOSX def2-SVP def2/J
|  4> * xyz 0 1
|  5>    C        1.40905        -0.71811        -0.80489
|  6>    S        2.55917         0.30613        -0.04812
|  7>    C        1.29060         1.24060         0.70542
|  8>    C        0.05524         0.73454         0.38932
|  9>    C        0.12878        -0.38206        -0.49257
| 10>    C       -1.08999        -1.02283        -1.10045
| 11>    O       -1.38502        -0.45673        -2.37423
| 12>    C       -0.49771        -0.79899        -3.40241
| 13>    C       -2.31491        -0.77529        -0.22262
| 14>    C       -2.41590         0.70767         0.11914
| 15>    C       -1.25649         1.11027         1.03022
| 16>    O       -1.43684         0.39452         2.25006
| 17>    C       -0.63407         0.81458         3.31760
| 18>    C        1.70712         2.38469         1.49133
| 19>    C        1.07294         3.54758         1.57957
| 20>    H        1.75500        -1.51923        -1.42837
| 21>    H       -0.91467        -2.10540        -1.22573
| 22>    H       -0.92102        -0.38952        -4.31803
| 23>    H       -0.40443        -1.88841        -3.50057
| 24>    H        0.49925        -0.37117        -3.24472
| 25>    H       -2.22946        -1.35147         0.69846
| 26>    H       -3.20194        -1.09517        -0.76949
| 27>    H       -3.35245         0.90603         0.64008
| 28>    H       -2.38164         1.29523        -0.79821
| 29>    H       -1.29711         2.18711         1.24600
| 30>    H       -0.95890         0.23981         4.18336
| 31>    H       -0.76369         1.88528         3.51840
| 32>    H        0.42918         0.62124         3.13455
| 33>    H        2.66148         2.26119         1.98940
| 34>    H        0.15405         3.74662         1.05628
| 35>    H        1.46905         4.35238         2.17415
| 36> *
| 37>
| 38>                          ****END OF INPUT****
 Total Charge           Charge          ....    0
 Multiplicity           Mult            ....    1
 Number of Electrons    NEL             ....  120
Dispersion correction           -0.066443977
FINAL SINGLE POINT ENERGY     -1014.995195600446
Dispersion correction            ... done
Dispersion correction           -0.065194665
FINAL SINGLE POINT ENERGY     -1014.997928708954
Dispersion correction            ... done
Dispersion correction           -0.065466901
FINAL SINGLE POINT ENERGY     -1014.998350339842
Dispersion correction            ... done
FINAL SINGLE POINT ENERGY     -1014.998389462313
FINAL SINGLE POINT ENERGY     -1014.998309718928
FINAL SINGLE POINT ENERGY     -1014.998269693540
FINAL SINGLE POINT ENERGY     -1014.998202070454
Dispersion correction            ... done
Dispersion correction           -0.065295145
FINAL SINGLE POINT ENERGY     -1014.998190496608
Dispersion correction            ... done
Dispersion correction           -0.065290513
FINAL SINGLE POINT ENERGY     -1014.998177724045
Dispersion correction            ... done
                    ***********************HURRAY********************

CARTESIAN COORDINATES (ANGSTROEM)
---------------------------------
  C      1.470821   -0.762306   -0.777043
  S      2.612391    0.275350   -0.001728
  C      1.337417    1.232371    0.726163
  C      0.090917    0.721827    0.398910
  C      0.174923   -0.406241   -0.493376
  C     -1.057689   -1.020402   -1.125429
  O     -1.359504   -0.391448   -2.370726
  C     -0.573143   -0.775113   -3.462046
  C     -2.283759   -0.808269   -0.242572
  C     -2.409360    0.665912    0.152459
  C     -1.239809    1.087533    1.039901
  O     -1.414235    0.373758    2.262659
  C     -0.699442    0.847978    3.370203
  C      1.738841    2.403129    1.508572
  C      1.112308    3.588435    1.535121
  H      1.815673   -1.578014   -1.410874
  H     -0.884229   -2.100095   -1.300973
  H     -0.984265   -0.277296   -4.352257
  H     -0.608471   -1.872448   -3.625470
  H      0.486657   -0.471551   -3.354035
  H     -2.191874   -1.420300    0.666548
  H     -3.170303   -1.146032   -0.799740
  H     -3.339197    0.843279    0.714045
  H     -2.431594    1.288655   -0.754068
  H     -1.293450    2.169421    1.249562
  H     -1.050120    0.283513    4.246634
  H     -0.881352    1.927465    3.544096
  H      0.392739    0.699104    3.270985
  H      2.663155    2.290641    2.087770
  H      0.219864    3.785687    0.936775
  H      1.490760    4.406547    2.152866

 Multiplicity           Mult            ....    1
 Number of Electrons    NEL             ....  120
 Basis Dimension        Dim             ....  294

ORBITAL ENERGIES
----------------

  NO   OCC          E(Eh)            E(eV)
   0   2.0000     -88.871696     -2418.3218
   1   2.0000     -19.130629      -520.5709
   2   2.0000     -19.129266      -520.5338
   3   2.0000     -10.238395      -278.6009
   4   2.0000     -10.237780      -278.5842
   5   2.0000     -10.228978      -278.3446
   6   2.0000     -10.225232      -278.2427
   7   2.0000     -10.218745      -278.0662
   8   2.0000     -10.211582      -277.8713
   9   2.0000     -10.207820      -277.7689
  10   2.0000     -10.194443      -277.4049
  11   2.0000     -10.192606      -277.3549
  12   2.0000     -10.191459      -277.3237
  13   2.0000     -10.177179      -276.9351
  14   2.0000     -10.176586      -276.9190
  15   2.0000      -7.966956      -216.7919
  16   2.0000      -5.934963      -161.4985
  17   2.0000      -5.930984      -161.3903
  18   2.0000      -5.928368      -161.3191
  19   2.0000      -1.023534       -27.8518
  20   2.0000      -1.020557       -27.7708
  21   2.0000      -0.881867       -23.9968
  22   2.0000      -0.809379       -22.0243
  23   2.0000      -0.785825       -21.3834
  24   2.0000      -0.746865       -20.3232
  25   2.0000      -0.728604       -19.8263
  26   2.0000      -0.700359       -19.0577
  27   2.0000      -0.675320       -18.3764
  28   2.0000      -0.647592       -17.6219
  29   2.0000      -0.609287       -16.5795
  30   2.0000      -0.604525       -16.4500
  31   2.0000      -0.577200       -15.7064
  32   2.0000      -0.550108       -14.9692
  33   2.0000      -0.520741       -14.1701
  34   2.0000      -0.502384       -13.6706
  35   2.0000      -0.489030       -13.3072
  36   2.0000      -0.487974       -13.2784
  37   2.0000      -0.463667       -12.6170
  38   2.0000      -0.456844       -12.4314
  39   2.0000      -0.454198       -12.3594
  40   2.0000      -0.452885       -12.3236
  41   2.0000      -0.432966       -11.7816
  42   2.0000      -0.410348       -11.1661
  43   2.0000      -0.408749       -11.1226
  44   2.0000      -0.405745       -11.0409
  45   2.0000      -0.397062       -10.8046
  46   2.0000      -0.385355       -10.4860
  47   2.0000      -0.380296       -10.3484
  48   2.0000      -0.367836       -10.0093
  49   2.0000      -0.355035        -9.6610
  50   2.0000      -0.346362        -9.4250
  51   2.0000      -0.343870        -9.3572
  52   2.0000      -0.324156        -8.8207
  53   2.0000      -0.308973        -8.4076
  54   2.0000      -0.307642        -8.3714
  55   2.0000      -0.295024        -8.0280
  56   2.0000      -0.261994        -7.1292
  57   2.0000      -0.256624        -6.9831
  58   2.0000      -0.244265        -6.6468
  59   2.0000      -0.224060        -6.0970
  60   0.0000      -0.043908        -1.1948
  61   0.0000       0.009602         0.2613
  62   0.0000       0.035850         0.9755
  63   0.0000       0.047901         1.3035
  64   0.0000       0.064703         1.7607

MULLIKEN ATOMIC CHARGES
-----------------------
   0 C :   -0.127887
   1 S :    0.097628
   2 C :   -0.170501
   3 C :   -0.004905
   4 C :   -0.040922
   5 C :    0.230333
   6 O :   -0.388237
   7 C :    0.197131
   8 C :    0.074930
   9 C :    0.070515
  10 C :    0.232660
  11 O :   -0.390019
  12 C :    0.201393
  13 C :   -0.004772
  14 C :   -0.021042
  15 H :    0.016004
  16 H :   -0.027238
  17 H :    0.016571
  18 H :   -0.009499
  19 H :    0.000995
  20 H :    0.011161
  21 H :   -0.007041
  22 H :   -0.007650
  23 H :    0.009134
  24 H :   -0.031445
  25 H :    0.013070
  26 H :   -0.008398
  27 H :    0.010685
  28 H :    0.002722
  29 H :    0.029486
  30 H :    0.025140
Sum of atomic charges:   -0.0000000

LOEWDIN ATOMIC CHARGES
----------------------
   0 C :   -0.193789
   1 S :    0.423455
   2 C :   -0.179188
   3 C :   -0.066045
   4 C :   -0.068532
   5 C :    0.079881
   6 O :   -0.167898
   7 C :    0.064597
   8 C :   -0.027440
   9 C :   -0.026735
  10 C :    0.080728
  11 O :   -0.165744
  12 C :    0.067119
  13 C :   -0.044808
  14 C :   -0.044491
  15 H :    0.021955
  16 H :    0.008475
  17 H :    0.020423
  18 H :    0.000662
  19 H :    0.002336
  20 H :    0.027453
  21 H :    0.024017
  22 H :    0.024081
  23 H :    0.026539
  24 H :    0.007782
  25 H :    0.018493
  26 H :    0.002619
  27 H :    0.005766
  28 H :    0.028849
  29 H :    0.022900
  30 H :    0.026540

  Mayer bond orders larger than 0.100000
B(  0-C ,  1-S ) :   1.1449 B(  0-C ,  4-C ) :   1.5529 B(  0-C , 15-H ) :   0.9624
B(  1-S ,  2-C ) :   1.1250 B(  2-C ,  3-C ) :   1.5343 B(  2-C , 13-C ) :   1.0554
B(  3-C ,  4-C ) :   1.2825 B(  3-C , 10-C ) :   0.9936 B(  4-C ,  5-C ) :   0.9837
B(  5-C ,  6-O ) :   0.9892 B(  5-C ,  8-C ) :   1.0689 B(  5-C , 16-H ) :   0.9057
B(  6-O ,  7-C ) :   1.0033 B(  7-C , 17-H ) :   0.9765 B(  7-C , 18-H ) :   0.9592
B(  7-C , 19-H ) :   0.9574 B(  8-C ,  9-C ) :   1.0657 B(  8-C , 20-H ) :   0.9265
B(  8-C , 21-H ) :   0.9221 B(  9-C , 10-C ) :   1.0632 B(  9-C , 22-H ) :   0.9228
B(  9-C , 23-H ) :   0.9287 B( 10-C , 11-O ) :   0.9992 B( 10-C , 24-H ) :   0.9026
B( 11-O , 12-C ) :   0.9988 B( 12-C , 25-H ) :   0.9748 B( 12-C , 26-H ) :   0.9600
B( 12-C , 27-H ) :   0.9599 B( 13-C , 14-C ) :   1.9588 B( 13-C , 28-H ) :   0.9433
B( 14-C , 29-H ) :   0.9508 B( 14-C , 30-H ) :   0.9434

Dispersion correction           -0.065292252
FINAL SINGLE POINT ENERGY     -1014.998179603077

DIPOLE MOMENT
-------------
                                X             Y             Z
Electronic contribution:      9.72898      -1.62383      -0.84261
Nuclear contribution   :     -9.37596       1.66168       0.85211
                        -----------------------------------------
Total Dipole Moment    :      0.35302       0.03785       0.00949
                        -----------------------------------------
Magnitude (a.u.)       :      0.35517
Magnitude (Debye)      :      0.90276

Rotational constants in cm-1:     0.023291     0.016435     0.011628
Rotational constants in MHz :   698.253268   492.702457   348.599950

                             ****ORCA TERMINATED NORMALLY****
TOTAL RUN TIME: 0 days 0 hours 22 minutes 59 seconds 271 msec
