                         Program Version 4.2.0 -  RELEASE  -
|  1> # ORCA input file
|  2> # SCF done        -36.991091507373          0.000471124000
|  3> ! B3LYP/G D3BJ Opt RIJCOSX def2-SVP def2/J
|  4> * xyz 0 1
|  5>    N       -2.53786         1.05720         0.28069
|  6>    C       -3.35407        -0.12817         0.15114
|  7>    N       -2.41724        -1.23303         0.31582
|  8>    C       -1.22725        -0.84233        -0.43042
|  9>    C        0.03964        -1.38389         0.22892
| 10>    C        1.26861        -0.74807        -0.40592
| 11>    C        1.20578         0.82360        -0.38919
| 12>    C       -0.07261         1.34490         0.25306
| 13>    C       -1.29253         0.71634        -0.40830
| 14>    N        2.41363         1.25495         0.30836
| 15>    C        3.31319         0.11636         0.18447
| 16>    N        2.51266        -1.09715         0.27357
| 17>    H       -2.33953         1.21219         1.26529
| 18>    H       -3.82302        -0.11234        -0.84961
| 19>    H       -4.13629        -0.16687         0.91109
| 20>    H       -2.79511        -2.12313         0.01677
| 21>    H       -1.25583        -1.18948        -1.47664
| 22>    H        0.08393        -2.46800         0.11279
| 23>    H        0.00218        -1.16956         1.29894
| 24>    H        1.35489        -1.09045        -1.44444
| 25>    H        1.27115         1.19599        -1.41833
| 26>    H       -0.12087         2.43043         0.15559
| 27>    H       -0.07468         1.10532         1.32050
| 28>    H       -1.37308         1.08796        -1.43728
| 29>    H        2.20008         1.41870         1.28949
| 30>    H        4.10748         0.13902         0.92916
| 31>    H        3.75521         0.15077        -0.81858
| 32>    H        2.31843        -1.31250         1.24898
| 33> *
| 34>
| 35>                          ****END OF INPUT****
 Total Charge           Charge          ....    0
 Multiplicity           Mult            ....    1
 Number of Electrons    NEL             ....   92
Dispersion correction           -0.053276753
FINAL SINGLE POINT ENERGY      -533.120470105227
Dispersion correction            ... done
Dispersion correction           -0.052826138
FINAL SINGLE POINT ENERGY      -533.122273277945
Dispersion correction            ... done
Dispersion correction           -0.052765481
FINAL SINGLE POINT ENERGY      -533.122448338303
Dispersion correction            ... done
Dispersion correction           -0.052773061
FINAL SINGLE POINT ENERGY      -533.122498739080
Dispersion correction            ... done
Dispersion correction           -0.052786912
FINAL SINGLE POINT ENERGY      -533.122515361746
Dispersion correction            ... done
                    ***********************HURRAY********************

CARTESIAN COORDINATES (ANGSTROEM)
---------------------------------
  N     -2.546691    1.060588    0.305096
  C     -3.372959   -0.122780    0.174203
  N     -2.437626   -1.242179    0.309123
  C     -1.235714   -0.852853   -0.429949
  C      0.044735   -1.407992    0.195316
  C      1.285704   -0.758665   -0.411009
  C      1.215260    0.826454   -0.405493
  C     -0.067576    1.358505    0.227234
  C     -1.303464    0.719511   -0.399920
  N      2.430185    1.271421    0.286895
  C      3.329254    0.119132    0.205952
  N      2.524822   -1.098196    0.296709
  H     -2.332120    1.186856    1.294496
  H     -3.880084   -0.099600   -0.815583
  H     -4.156395   -0.152642    0.948770
  H     -2.821061   -2.127715   -0.015464
  H     -1.272962   -1.177680   -1.490632
  H      0.089429   -2.502195    0.067915
  H      0.005305   -1.212421    1.280562
  H      1.378330   -1.091760   -1.460006
  H      1.257638    1.177567   -1.451634
  H     -0.118558    2.454508    0.130341
  H     -0.055102    1.125626    1.308525
  H     -1.385012    1.078683   -1.440381
  H      2.205727    1.441000    1.268308
  H      4.106050    0.154606    0.984268
  H      3.835436    0.135071   -0.775626
  H      2.304337   -1.274088    1.277906

 Multiplicity           Mult            ....    1
 Number of Electrons    NEL             ....   92
 Basis Dimension        Dim             ....  248

ORBITAL ENERGIES
----------------

  NO   OCC          E(Eh)            E(eV)
   0   2.0000     -14.309611      -389.3843
   1   2.0000     -14.307911      -389.3381
   2   2.0000     -14.305488      -389.2721
   3   2.0000     -14.304918      -389.2566
   4   2.0000     -10.231876      -278.4235
   5   2.0000     -10.226809      -278.2856
   6   2.0000     -10.212957      -277.9087
   7   2.0000     -10.211735      -277.8754
   8   2.0000     -10.207987      -277.7734
   9   2.0000     -10.206438      -277.7313
  10   2.0000     -10.190832      -277.3066
  11   2.0000     -10.183035      -277.0945
  12   2.0000      -0.952729       -25.9251
  13   2.0000      -0.945171       -25.7194
  14   2.0000      -0.846463       -23.0334
  15   2.0000      -0.837489       -22.7892
  16   2.0000      -0.803788       -21.8722
  17   2.0000      -0.719182       -19.5699
  18   2.0000      -0.714631       -19.4461
  19   2.0000      -0.630835       -17.1659
  20   2.0000      -0.622384       -16.9359
  21   2.0000      -0.609266       -16.5790
  22   2.0000      -0.582894       -15.8614
  23   2.0000      -0.535142       -14.5619
  24   2.0000      -0.521964       -14.2034
  25   2.0000      -0.507810       -13.8182
  26   2.0000      -0.500038       -13.6067
  27   2.0000      -0.477749       -13.0002
  28   2.0000      -0.455722       -12.4008
  29   2.0000      -0.442313       -12.0360
  30   2.0000      -0.435115       -11.8401
  31   2.0000      -0.427576       -11.6349
  32   2.0000      -0.407655       -11.0929
  33   2.0000      -0.396821       -10.7981
  34   2.0000      -0.391671       -10.6579
  35   2.0000      -0.378147       -10.2899
  36   2.0000      -0.370949       -10.0940
  37   2.0000      -0.361825        -9.8458
  38   2.0000      -0.343945        -9.3592
  39   2.0000      -0.339702        -9.2437
  40   2.0000      -0.322405        -8.7731
  41   2.0000      -0.317928        -8.6513
  42   2.0000      -0.244000        -6.6396
  43   2.0000      -0.237677        -6.4675
  44   2.0000      -0.226633        -6.1670
  45   2.0000      -0.223650        -6.0858
  46   0.0000       0.037526         1.0211
  47   0.0000       0.043551         1.1851
  48   0.0000       0.057752         1.5715
  49   0.0000       0.073479         1.9995
  50   0.0000       0.086452         2.3525

MULLIKEN ATOMIC CHARGES
-----------------------
   0 N :   -0.215645
   1 C :    0.223340
   2 N :   -0.271498
   3 C :    0.010068
   4 C :    0.220611
   5 C :   -0.028713
   6 C :   -0.017684
   7 C :    0.179692
   8 C :   -0.027905
   9 N :   -0.214740
  10 C :    0.183972
  11 N :   -0.215561
  12 H :    0.091963
  13 H :   -0.018503
  14 H :    0.005755
  15 H :    0.093392
  16 H :   -0.033489
  17 H :    0.006209
  18 H :   -0.052984
  19 H :   -0.021817
  20 H :   -0.019529
  21 H :    0.025556
  22 H :   -0.054354
  23 H :   -0.016816
  24 H :    0.079987
  25 H :    0.008858
  26 H :   -0.000655
  27 H :    0.080490
Sum of atomic charges:   -0.0000000

LOEWDIN ATOMIC CHARGES
----------------------
   0 N :   -0.102053
   1 C :    0.073797
   2 N :   -0.128966
   3 C :    0.012953
   4 C :   -0.038302
   5 C :    0.007881
   6 C :    0.010023
   7 C :   -0.034248
   8 C :    0.021831
   9 N :   -0.116941
  10 C :    0.064678
  11 N :   -0.116500
  12 H :    0.052041
  13 H :   -0.006047
  14 H :    0.012512
  15 H :    0.053688
  16 H :   -0.001108
  17 H :    0.025305
  18 H :    0.012745
  19 H :    0.011846
  20 H :    0.013009
  21 H :    0.031661
  22 H :    0.010160
  23 H :    0.015015
  24 H :    0.044369
  25 H :    0.014731
  26 H :    0.011123
  27 H :    0.044796

  Mayer bond orders larger than 0.100000
B(  0-N ,  1-C ) :   1.0826 B(  0-N ,  8-C ) :   1.0997 B(  0-N , 12-H ) :   0.9359
B(  1-C ,  2-N ) :   1.0111 B(  1-C , 13-H ) :   0.9367 B(  1-C , 14-H ) :   0.9547
B(  2-N ,  3-C ) :   1.0509 B(  2-N , 15-H ) :   0.9387 B(  3-C ,  4-C ) :   1.0960
B(  3-C ,  8-C ) :   0.9576 B(  3-C , 16-H ) :   0.8998 B(  4-C ,  5-C ) :   1.0977
B(  4-C , 17-H ) :   0.9292 B(  4-C , 18-H ) :   0.8386 B(  5-C ,  6-C ) :   0.9351
B(  5-C , 11-N ) :   1.0948 B(  5-C , 19-H ) :   0.8936 B(  6-C ,  7-C ) :   1.1064
B(  6-C ,  9-N ) :   1.0982 B(  6-C , 20-H ) :   0.8956 B(  7-C ,  8-C ) :   1.1103
B(  7-C , 21-H ) :   0.9335 B(  7-C , 22-H ) :   0.8385 B(  8-C , 23-H ) :   0.8970
B(  9-N , 10-C ) :   1.0528 B(  9-N , 24-H ) :   0.9378 B( 10-C , 11-N ) :   1.0550
B( 10-C , 25-H ) :   0.9582 B( 10-C , 26-H ) :   0.9439 B( 11-N , 27-H ) :   0.9375

Dispersion correction           -0.052796101
FINAL SINGLE POINT ENERGY      -533.122529448635

DIPOLE MOMENT
-------------
                                X             Y             Z
Electronic contribution:      0.17302       0.25316       0.00257
Nuclear contribution   :     -0.56265      -0.61209       0.35579
                        -----------------------------------------
Total Dipole Moment    :     -0.38962      -0.35893       0.35836
                        -----------------------------------------
Magnitude (a.u.)       :      0.63957
Magnitude (Debye)      :      1.62567

Rotational constants in cm-1:     0.077572     0.020476     0.017362
Rotational constants in MHz :  2325.550894   613.854678   520.495436

                             ****ORCA TERMINATED NORMALLY****
TOTAL RUN TIME: 0 days 0 hours 8 minutes 42 seconds 33 msec
