                         Program Version 4.2.0 -  RELEASE  -
|  1> # ORCA input file
|  2> # SCF done        -33.950662051625          0.000755818563
|  3> ! B3LYP/G D3BJ Opt RIJCOSX def2-SVP def2/J
|  4> * xyz 0 1
|  5>    C       -1.19324         1.32174        -0.01013
|  6>    C        0.02753         0.73742        -0.01064
|  7>    C       -0.00489        -0.70280        -0.00287
|  8>    C       -1.31443        -1.28031         0.00398
|  9>    O       -1.70883        -2.40737         0.01131
| 10>    S       -2.48132         0.17445         0.00030
| 11>    C        1.28793        -1.14357        -0.00431
| 12>    N        2.14734        -0.08728        -0.01272
| 13>    C        1.42564         1.14843        -0.01698
| 14>    O        1.92834         2.24323        -0.02443
| 15>    C        3.53312        -0.23993        -0.01634
| 16>    C        4.42098         0.74256        -0.02457
| 17>    H       -1.42138         2.37104        -0.01494
| 18>    H        1.65392        -2.15488        -0.00007
| 19>    H        3.83554        -1.27986        -0.01124
| 20>    H        4.13316         1.77738        -0.02880
| 21>    H        5.47179         0.51699        -0.02587
| 22> *
| 23>
| 24>                          ****END OF INPUT****
 Total Charge           Charge          ....    0
 Multiplicity           Mult            ....    1
 Number of Electrons    NEL             ....   92
Dispersion correction           -0.037244103
FINAL SINGLE POINT ENERGY      -910.766822173174
Dispersion correction            ... done
Dispersion correction           -0.037130133
FINAL SINGLE POINT ENERGY      -910.769805523074
Dispersion correction            ... done
Dispersion correction           -0.037131377
FINAL SINGLE POINT ENERGY      -910.770061589710
Dispersion correction            ... done
FINAL SINGLE POINT ENERGY      -910.770134733928
FINAL SINGLE POINT ENERGY      -910.770131935729
Dispersion correction            ... done
Dispersion correction           -0.037146144
FINAL SINGLE POINT ENERGY      -910.770145376728
Dispersion correction            ... done
Dispersion correction           -0.037145067
FINAL SINGLE POINT ENERGY      -910.770145464163
Dispersion correction            ... done
                    ***********************HURRAY********************

CARTESIAN COORDINATES (ANGSTROEM)
---------------------------------
  C     -1.215210    1.327352   -0.006784
  C      0.007713    0.731913   -0.014920
  C     -0.016888   -0.709055   -0.005899
  C     -1.341334   -1.303973    0.007406
  O     -1.720786   -2.440323    0.015610
  S     -2.533674    0.183016    0.010649
  C      1.278077   -1.155103   -0.009002
  N      2.152306   -0.087898   -0.019503
  C      1.416161    1.164380   -0.027929
  O      1.931003    2.255742   -0.042699
  C      3.549991   -0.227955   -0.017723
  C      4.453705    0.757596   -0.016660
  H     -1.418463    2.399977   -0.009834
  H      1.659019   -2.175929   -0.003072
  H      3.859954   -1.277010   -0.015733
  H      4.168627    1.808352   -0.018445
  H      5.510999    0.486159   -0.013782

 Multiplicity           Mult            ....    1
 Number of Electrons    NEL             ....   92
 Basis Dimension        Dim             ....  197

ORBITAL ENERGIES
----------------

  NO   OCC          E(Eh)            E(eV)
   0   2.0000     -88.875315     -2418.4203
   1   2.0000     -19.151626      -521.1422
   2   2.0000     -19.143910      -520.9323
   3   2.0000     -14.413810      -392.2197
   4   2.0000     -10.323054      -280.9046
   5   2.0000     -10.314574      -280.6738
   6   2.0000     -10.281004      -279.7603
   7   2.0000     -10.257797      -279.1289
   8   2.0000     -10.251605      -278.9604
   9   2.0000     -10.218902      -278.0705
  10   2.0000     -10.216844      -278.0144
  11   2.0000     -10.198655      -277.5195
  12   2.0000      -7.971256      -216.9089
  13   2.0000      -5.939367      -161.6184
  14   2.0000      -5.935686      -161.5182
  15   2.0000      -5.931785      -161.4121
  16   2.0000      -1.068387       -29.0723
  17   2.0000      -1.061451       -28.8835
  18   2.0000      -0.998331       -27.1660
  19   2.0000      -0.885451       -24.0944
  20   2.0000      -0.816902       -22.2290
  21   2.0000      -0.751702       -20.4548
  22   2.0000      -0.745628       -20.2896
  23   2.0000      -0.690818       -18.7981
  24   2.0000      -0.664243       -18.0750
  25   2.0000      -0.595478       -16.2038
  26   2.0000      -0.565795       -15.3961
  27   2.0000      -0.552135       -15.0244
  28   2.0000      -0.526700       -14.3322
  29   2.0000      -0.497157       -13.5283
  30   2.0000      -0.487107       -13.2548
  31   2.0000      -0.482245       -13.1226
  32   2.0000      -0.456125       -12.4118
  33   2.0000      -0.447185       -12.1685
  34   2.0000      -0.445611       -12.1257
  35   2.0000      -0.434906       -11.8344
  36   2.0000      -0.426144       -11.5960
  37   2.0000      -0.401900       -10.9362
  38   2.0000      -0.386828       -10.5261
  39   2.0000      -0.377211       -10.2644
  40   2.0000      -0.361786        -9.8447
  41   2.0000      -0.312970        -8.5164
  42   2.0000      -0.291403        -7.9295
  43   2.0000      -0.279584        -7.6079
  44   2.0000      -0.256581        -6.9819
  45   2.0000      -0.230680        -6.2771
  46   0.0000      -0.108193        -2.9441
  47   0.0000      -0.054020        -1.4700
  48   0.0000       0.004242         0.1154
  49   0.0000       0.005471         0.1489
  50   0.0000       0.047297         1.2870

MULLIKEN ATOMIC CHARGES
-----------------------
   0 C :   -0.089235
   1 C :   -0.001105
   2 C :    0.039178
   3 C :    0.041357
   4 O :   -0.143231
   5 S :    0.008591
   6 C :    0.089050
   7 N :   -0.221988
   8 C :    0.231422
   9 O :   -0.164178
  10 C :    0.056807
  11 C :   -0.032748
  12 H :    0.050445
  13 H :    0.030668
  14 H :    0.011693
  15 H :    0.063367
  16 H :    0.029908
Sum of atomic charges:   -0.0000000

LOEWDIN ATOMIC CHARGES
----------------------
   0 C :   -0.094647
   1 C :   -0.115740
   2 C :   -0.143941
   3 C :   -0.025748
   4 O :   -0.130540
   5 S :    0.302296
   6 C :    0.109562
   7 N :    0.011595
   8 C :    0.102002
   9 O :   -0.144892
  10 C :    0.015333
  11 C :   -0.062750
  12 H :    0.040271
  13 H :    0.039841
  14 H :    0.028466
  15 H :    0.035506
  16 H :    0.033385

  Mayer bond orders larger than 0.100000
B(  0-C ,  1-C ) :   1.5687 B(  0-C ,  5-S ) :   1.1394 B(  0-C , 12-H ) :   0.9590
B(  1-C ,  2-C ) :   1.1671 B(  1-C ,  8-C ) :   0.9685 B(  2-C ,  3-C ) :   0.9480
B(  2-C ,  6-C ) :   1.4474 B(  3-C ,  4-O ) :   2.1754 B(  3-C ,  5-S ) :   0.9273
B(  4-O ,  5-S ) :   0.1270 B(  6-C ,  7-N ) :   1.1709 B(  6-C , 13-H ) :   0.9875
B(  7-N ,  8-C ) :   0.9494 B(  7-N , 10-C ) :   1.0210 B(  8-C ,  9-O ) :   2.1433
B( 10-C , 11-C ) :   1.9370 B( 10-C , 14-H ) :   0.9628 B( 11-C , 15-H ) :   0.9407
B( 11-C , 16-H ) :   0.9398

Dispersion correction           -0.037144709
FINAL SINGLE POINT ENERGY      -910.770147692325

DIPOLE MOMENT
-------------
                                X             Y             Z
Electronic contribution:    -10.50850      -1.04037       0.02298
Nuclear contribution   :     11.34293       0.89513      -0.01793
                        -----------------------------------------
Total Dipole Moment    :      0.83444      -0.14524       0.00505
                        -----------------------------------------
Magnitude (a.u.)       :      0.84700
Magnitude (Debye)      :      2.15290

Rotational constants in cm-1:     0.066751     0.018125     0.014255
Rotational constants in MHz :  2001.137256   543.377166   427.346509

                             ****ORCA TERMINATED NORMALLY****
TOTAL RUN TIME: 0 days 0 hours 9 minutes 42 seconds 759 msec
