                         Program Version 4.2.0 -  RELEASE  -
|  1> # ORCA input file
|  2> # SCF done        -32.523076429074          0.000664125083
|  3> ! B3LYP/G D3BJ Opt RIJCOSX def2-SVP def2/J
|  4> * xyz 0 1
|  5>    C       -1.46886        -1.26675         0.12056
|  6>    S       -2.74697        -0.13368         0.20929
|  7>    C       -1.65605         1.18604         0.16649
|  8>    C       -0.36070         0.76724         0.08764
|  9>    C       -0.25305        -0.64734         0.06239
| 10>    O        0.90392        -1.36290        -0.00643
| 11>    C        2.13269        -0.83606        -0.09033
| 12>    O        3.07975        -1.56684        -0.14580
| 13>    C        2.37675         0.67515        -0.11443
| 14>    O        3.49144         1.10221        -0.21306
| 15>    S        1.03615         1.83123         0.01653
| 16>    H       -1.65771        -2.32015         0.11589
| 17>    H       -2.01308         2.19436         0.19947
| 18> *
| 19>
| 20>                          ****END OF INPUT****
 Total Charge           Charge          ....    0
 Multiplicity           Mult            ....    1
 Number of Electrons    NEL             ....   94
Dispersion correction           -0.033054429
FINAL SINGLE POINT ENERGY     -1251.338060395449
Dispersion correction            ... done
Dispersion correction           -0.032977666
FINAL SINGLE POINT ENERGY     -1251.339650819772
Dispersion correction            ... done
Dispersion correction           -0.032953527
FINAL SINGLE POINT ENERGY     -1251.339804860368
Dispersion correction            ... done
FINAL SINGLE POINT ENERGY     -1251.339458004034
FINAL SINGLE POINT ENERGY     -1251.339858624211
Dispersion correction            ... done
Dispersion correction           -0.032956109
FINAL SINGLE POINT ENERGY     -1251.339848589729
Dispersion correction            ... done
Dispersion correction           -0.032954464
FINAL SINGLE POINT ENERGY     -1251.339869633428
Dispersion correction            ... done
                    ***********************HURRAY********************

CARTESIAN COORDINATES (ANGSTROEM)
---------------------------------
  C     -1.478303   -1.280263    0.120024
  S     -2.763911   -0.134512    0.212062
  C     -1.667344    1.199017    0.168071
  C     -0.360597    0.776242    0.088276
  C     -0.260581   -0.650257    0.060746
  O      0.904480   -1.362221   -0.009982
  C      2.157389   -0.849452   -0.088051
  O      3.097596   -1.581058   -0.133808
  C      2.388231    0.687256   -0.119207
  O      3.508380    1.099163   -0.228688
  S      1.036341    1.847036    0.026664
  H     -1.664416   -2.351922    0.109919
  H     -2.032986    2.223481    0.202185

 Multiplicity           Mult            ....    1
 Number of Electrons    NEL             ....   94
 Basis Dimension        Dim             ....  172

ORBITAL ENERGIES
----------------

  NO   OCC          E(Eh)            E(eV)
   0   2.0000     -88.909445     -2419.3490
   1   2.0000     -88.901689     -2419.1380
   2   2.0000     -19.228673      -523.2388
   3   2.0000     -19.167679      -521.5791
   4   2.0000     -19.157487      -521.3017
   5   2.0000     -10.355817      -281.7961
   6   2.0000     -10.331221      -281.1268
   7   2.0000     -10.293663      -280.1048
   8   2.0000     -10.257708      -279.1264
   9   2.0000     -10.248089      -278.8647
  10   2.0000     -10.241863      -278.6953
  11   2.0000      -8.004169      -217.8045
  12   2.0000      -7.997539      -217.6241
  13   2.0000      -5.972305      -162.5147
  14   2.0000      -5.968235      -162.4039
  15   2.0000      -5.965993      -162.3429
  16   2.0000      -5.965463      -162.3285
  17   2.0000      -5.962086      -162.2366
  18   2.0000      -5.957476      -162.1112
  19   2.0000      -1.143935       -31.1281
  20   2.0000      -1.084019       -29.4977
  21   2.0000      -1.053952       -28.6795
  22   2.0000      -0.920666       -25.0526
  23   2.0000      -0.840407       -22.8686
  24   2.0000      -0.780182       -21.2298
  25   2.0000      -0.743095       -20.2206
  26   2.0000      -0.686889       -18.6912
  27   2.0000      -0.655086       -17.8258
  28   2.0000      -0.611708       -16.6454
  29   2.0000      -0.573790       -15.6136
  30   2.0000      -0.513505       -13.9732
  31   2.0000      -0.510015       -13.8782
  32   2.0000      -0.506876       -13.7928
  33   2.0000      -0.474117       -12.9014
  34   2.0000      -0.462679       -12.5901
  35   2.0000      -0.444666       -12.1000
  36   2.0000      -0.439806       -11.9677
  37   2.0000      -0.426642       -11.6095
  38   2.0000      -0.424644       -11.5552
  39   2.0000      -0.395736       -10.7685
  40   2.0000      -0.380355       -10.3500
  41   2.0000      -0.370772       -10.0892
  42   2.0000      -0.336106        -9.1459
  43   2.0000      -0.328293        -8.9333
  44   2.0000      -0.288101        -7.8396
  45   2.0000      -0.263844        -7.1796
  46   2.0000      -0.255077        -6.9410
  47   0.0000      -0.096348        -2.6218
  48   0.0000      -0.049151        -1.3375
  49   0.0000      -0.000106        -0.0029
  50   0.0000       0.004668         0.1270
  51   0.0000       0.011785         0.3207

MULLIKEN ATOMIC CHARGES
-----------------------
   0 C :   -0.133621
   1 S :    0.141574
   2 C :   -0.127870
   3 C :   -0.053005
   4 C :    0.214716
   5 O :   -0.214946
   6 C :    0.219708
   7 O :   -0.116608
   8 C :   -0.006619
   9 O :   -0.132041
  10 S :    0.128230
  11 H :    0.041272
  12 H :    0.039209
Sum of atomic charges:   -0.0000000

LOEWDIN ATOMIC CHARGES
----------------------
   0 C :   -0.204835
   1 S :    0.470762
   2 C :   -0.205432
   3 C :   -0.231728
   4 C :   -0.004659
   5 O :   -0.031925
   6 C :    0.052005
   7 O :   -0.086929
   8 C :   -0.113057
   9 O :   -0.099059
  10 S :    0.383028
  11 H :    0.039048
  12 H :    0.032781

  Mayer bond orders larger than 0.100000
B(  0-C ,  1-S ) :   1.1625 B(  0-C ,  4-C ) :   1.5510 B(  0-C , 11-H ) :   0.9648
B(  1-S ,  2-C ) :   1.1902 B(  2-C ,  3-C ) :   1.5329 B(  2-C , 12-H ) :   0.9675
B(  3-C ,  4-C ) :   1.2411 B(  3-C , 10-S ) :   0.9706 B(  4-C ,  5-O ) :   1.0443
B(  5-O ,  6-C ) :   1.0720 B(  6-C ,  7-O ) :   2.2155 B(  6-C ,  8-C ) :   0.7881
B(  8-C ,  9-O ) :   2.1300 B(  8-C , 10-S ) :   1.0414 B(  9-O , 10-S ) :   0.1555

Dispersion correction           -0.032955107
FINAL SINGLE POINT ENERGY     -1251.339869910985

DIPOLE MOMENT
-------------
                                X             Y             Z
Electronic contribution:      2.03452       0.83203      -0.09920
Nuclear contribution   :     -4.01205      -0.43605       0.23267
                        -----------------------------------------
Total Dipole Moment    :     -1.97753       0.39598       0.13347
                        -----------------------------------------
Magnitude (a.u.)       :      2.02120
Magnitude (Debye)      :      5.13748

Rotational constants in cm-1:     0.062599     0.020710     0.015565
Rotational constants in MHz :  1876.659704   620.880425   466.632996

                             ****ORCA TERMINATED NORMALLY****
TOTAL RUN TIME: 0 days 0 hours 5 minutes 13 seconds 33 msec
