                         Program Version 4.2.0 -  RELEASE  -
|  1> # ORCA input file
|  2> # SCF done        -48.890394195723          0.000610206393
|  3> ! B3LYP/G D3BJ Opt RIJCOSX def2-SVP def2/J
|  4> * xyz 0 1
|  5>    N       -3.27677        -0.11407         0.35049
|  6>    N       -2.65464         1.07846        -0.09525
|  7>    C       -1.32475         0.72684        -0.62224
|  8>    C       -0.18857         1.44357         0.11433
|  9>    C       -0.21863         1.23760         1.63165
| 10>    C        1.14148         1.02930        -0.54830
| 11>    C        1.21987        -0.49887        -0.90129
| 12>    N        2.52496        -0.99298        -0.49270
| 13>    S        2.94212        -0.09538         0.90508
| 14>    N        2.27455         1.37375         0.30013
| 15>    C        0.15319        -1.36432        -0.21398
| 16>    C        0.29525        -2.79231        -0.74507
| 17>    C       -1.24939        -0.81377        -0.47079
| 18>    N       -2.20507        -1.00494         0.61866
| 19>    C       -2.50952        -2.21428         1.19926
| 20>    C       -3.69345        -2.54127         1.70419
| 21>    H       -3.83404        -0.47581        -0.43974
| 22>    H       -2.55490         1.68443         0.71533
| 23>    H       -1.29067         1.00673        -1.68391
| 24>    H       -0.29952         2.51880        -0.07011
| 25>    H       -0.52141         0.23245         1.90465
| 26>    H       -0.91460         1.93490         2.09370
| 27>    H        0.76751         1.43604         2.04016
| 28>    H        1.22392         1.59491        -1.48529
| 29>    H        1.11877        -0.62513        -1.98490
| 30>    H        3.22786        -0.88536        -1.21862
| 31>    H        2.97912         1.90935        -0.19563
| 32>    H        0.36505        -1.36453         0.85721
| 33>    H        0.13837        -2.81270        -1.82261
| 34>    H       -0.42459        -3.46296        -0.28584
| 35>    H        1.29665        -3.15808        -0.53549
| 36>    H       -1.64338        -1.27241        -1.39880
| 37>    H       -1.65912        -2.87317         1.28723
| 38>    H       -4.53490        -1.87585         1.64634
| 39>    H       -3.82981        -3.47248         2.22115
| 40> *
| 41>
| 42>                          ****END OF INPUT****
 Total Charge           Charge          ....    0
 Multiplicity           Mult            ....    1
 Number of Electrons    NEL             ....  130
Dispersion correction           -0.081266758
FINAL SINGLE POINT ENERGY     -1063.796643891431
Dispersion correction            ... done
Dispersion correction           -0.079860665
FINAL SINGLE POINT ENERGY     -1063.801543535195
Dispersion correction            ... done
Dispersion correction           -0.079817967
FINAL SINGLE POINT ENERGY     -1063.802261839799
Dispersion correction            ... done
FINAL SINGLE POINT ENERGY     -1063.802613850948
FINAL SINGLE POINT ENERGY     -1063.802687643986
FINAL SINGLE POINT ENERGY     -1063.802720378578
FINAL SINGLE POINT ENERGY     -1063.802739793113
FINAL SINGLE POINT ENERGY     -1063.802730250400
FINAL SINGLE POINT ENERGY     -1063.802702214229
FINAL SINGLE POINT ENERGY     -1063.802596861940
FINAL SINGLE POINT ENERGY     -1063.802460834697
FINAL SINGLE POINT ENERGY     -1063.802509918163
FINAL SINGLE POINT ENERGY     -1063.802521546412
FINAL SINGLE POINT ENERGY     -1063.802490309778
FINAL SINGLE POINT ENERGY     -1063.802574537068
FINAL SINGLE POINT ENERGY     -1063.802664188924
FINAL SINGLE POINT ENERGY     -1063.802709314833
Dispersion correction            ... done
Dispersion correction           -0.079070406
FINAL SINGLE POINT ENERGY     -1063.802741898723
Dispersion correction            ... done
Dispersion correction           -0.079081746
FINAL SINGLE POINT ENERGY     -1063.802753231637
Dispersion correction            ... done
                    ***********************HURRAY********************

CARTESIAN COORDINATES (ANGSTROEM)
---------------------------------
  N     -3.212429   -0.243916    0.872344
  N     -2.407524    0.901895    0.910362
  C     -1.389972    0.742433   -0.138913
  C     -0.097281    1.542621    0.127712
  C      0.296635    1.696047    1.603409
  C      1.020215    0.994703   -0.793920
  C      1.198047   -0.588695   -0.751251
  N      2.588499   -0.902191   -0.379154
  S      3.200146    0.480917    0.460799
  N      2.324581    1.617525   -0.518145
  C      0.171874   -1.290071    0.150965
  C      0.349175   -2.804265    0.109694
  C     -1.213965   -0.805559   -0.295525
  N     -2.329086   -1.319334    0.504081
  C     -2.945754   -2.527380    0.245572
  C     -4.203590   -2.866263    0.586787
  H     -3.881983   -0.124558    0.097715
  H     -1.962543    0.915950    1.826411
  H     -1.826357    1.118295   -1.080125
  H     -0.287318    2.567818   -0.226610
  H      0.468815    0.747907    2.128919
  H     -0.475662    2.261632    2.146226
  H      1.224888    2.277445    1.668036
  H      0.741893    1.276334   -1.822386
  H      1.048034   -0.978182   -1.772573
  H      3.148430   -1.062408   -1.216955
  H      2.832817    1.773000   -1.389665
  H      0.328756   -0.964078    1.188949
  H      0.142726   -3.205750   -0.897827
  H     -0.319971   -3.304905    0.821839
  H      1.384897   -3.060736    0.372864
  H     -1.338892   -1.081128   -1.363581
  H     -2.307049   -3.238322   -0.282154
  H     -4.856781   -2.185689    1.133816
  H     -4.573330   -3.864632    0.351289

 Multiplicity           Mult            ....    1
 Number of Electrons    NEL             ....  130
 Basis Dimension        Dim             ....  323

ORBITAL ENERGIES
----------------

  NO   OCC          E(Eh)            E(eV)
   0   2.0000     -88.878375     -2418.5035
   1   2.0000     -14.366668      -390.9369
   2   2.0000     -14.355368      -390.6294
   3   2.0000     -14.346854      -390.3978
   4   2.0000     -14.345576      -390.3630
   5   2.0000     -14.341779      -390.2596
   6   2.0000     -10.235438      -278.5204
   7   2.0000     -10.231650      -278.4174
   8   2.0000     -10.225298      -278.2445
   9   2.0000     -10.222669      -278.1730
  10   2.0000     -10.211271      -277.8628
  11   2.0000     -10.202690      -277.6293
  12   2.0000     -10.192878      -277.3623
  13   2.0000     -10.180954      -277.0379
  14   2.0000     -10.177707      -276.9495
  15   2.0000     -10.157016      -276.3865
  16   2.0000      -7.969658      -216.8654
  17   2.0000      -5.941516      -161.6769
  18   2.0000      -5.935463      -161.5122
  19   2.0000      -5.925743      -161.2477
  20   2.0000      -1.032769       -28.1031
  21   2.0000      -0.963617       -26.2213
  22   2.0000      -0.893570       -24.3153
  23   2.0000      -0.870759       -23.6946
  24   2.0000      -0.841824       -22.9072
  25   2.0000      -0.774720       -21.0812
  26   2.0000      -0.761154       -20.7120
  27   2.0000      -0.733857       -19.9693
  28   2.0000      -0.715349       -19.4656
  29   2.0000      -0.675380       -18.3780
  30   2.0000      -0.658292       -17.9130
  31   2.0000      -0.638816       -17.3831
  32   2.0000      -0.611605       -16.6426
  33   2.0000      -0.586126       -15.9493
  34   2.0000      -0.579086       -15.7577
  35   2.0000      -0.547083       -14.8869
  36   2.0000      -0.533405       -14.5147
  37   2.0000      -0.506567       -13.7844
  38   2.0000      -0.503479       -13.7003
  39   2.0000      -0.493827       -13.4377
  40   2.0000      -0.488469       -13.2919
  41   2.0000      -0.469200       -12.7676
  42   2.0000      -0.458566       -12.4782
  43   2.0000      -0.450716       -12.2646
  44   2.0000      -0.429448       -11.6859
  45   2.0000      -0.422497       -11.4967
  46   2.0000      -0.412281       -11.2187
  47   2.0000      -0.407786       -11.0964
  48   2.0000      -0.403211       -10.9719
  49   2.0000      -0.392459       -10.6794
  50   2.0000      -0.375910       -10.2290
  51   2.0000      -0.372342       -10.1320
  52   2.0000      -0.369268       -10.0483
  53   2.0000      -0.360927        -9.8213
  54   2.0000      -0.355784        -9.6814
  55   2.0000      -0.344634        -9.3780
  56   2.0000      -0.332084        -9.0365
  57   2.0000      -0.323969        -8.8157
  58   2.0000      -0.312471        -8.5028
  59   2.0000      -0.296051        -8.0560
  60   2.0000      -0.263783        -7.1779
  61   2.0000      -0.259040        -7.0488
  62   2.0000      -0.252137        -6.8610
  63   2.0000      -0.226945        -6.1755
  64   2.0000      -0.190622        -5.1871
  65   0.0000       0.009119         0.2481
  66   0.0000       0.012007         0.3267
  67   0.0000       0.027012         0.7350
  68   0.0000       0.054222         1.4755
  69   0.0000       0.061606         1.6764

MULLIKEN ATOMIC CHARGES
-----------------------
   0 N :   -0.039030
   1 N :   -0.145302
   2 C :    0.034079
   3 C :    0.047539
   4 C :    0.019545
   5 C :    0.047003
   6 C :   -0.003497
   7 N :   -0.299472
   8 S :    0.194832
   9 N :   -0.305141
  10 C :    0.118403
  11 C :    0.078514
  12 C :    0.078804
  13 N :   -0.243887
  14 C :    0.063511
  15 C :   -0.086656
  16 H :    0.104991
  17 H :    0.115417
  18 H :   -0.018107
  19 H :   -0.007522
  20 H :    0.018623
  21 H :    0.018002
  22 H :    0.025399
  23 H :   -0.012641
  24 H :   -0.022162
  25 H :    0.123581
  26 H :    0.122382
  27 H :   -0.045552
  28 H :   -0.011603
  29 H :    0.024675
  30 H :    0.013927
  31 H :   -0.033956
  32 H :   -0.000545
  33 H :    0.022150
  34 H :    0.003696
Sum of atomic charges:   -0.0000000

LOEWDIN ATOMIC CHARGES
----------------------
   0 N :    0.004350
   1 N :   -0.053936
   2 C :    0.012665
   3 C :   -0.030243
   4 C :   -0.060162
   5 C :   -0.000942
   6 C :   -0.002475
   7 N :   -0.224488
   8 S :    0.347373
   9 N :   -0.224099
  10 C :   -0.037503
  11 C :   -0.047601
  12 C :    0.019101
  13 N :   -0.041798
  14 C :    0.000491
  15 C :   -0.147549
  16 H :    0.042990
  17 H :    0.051924
  18 H :    0.014087
  19 H :    0.031783
  20 H :    0.016445
  21 H :    0.023797
  22 H :    0.028115
  23 H :    0.018934
  24 H :    0.014048
  25 H :    0.044787
  26 H :    0.045360
  27 H :    0.022366
  28 H :    0.014097
  29 H :    0.026292
  30 H :    0.025942
  31 H :    0.001685
  32 H :    0.022903
  33 H :    0.020234
  34 H :    0.021026

  Mayer bond orders larger than 0.100000
B(  0-N ,  1-N ) :   1.0597 B(  0-N , 13-N ) :   0.9647 B(  0-N , 16-H ) :   0.9245
B(  1-N ,  2-C ) :   1.0508 B(  1-N , 17-H ) :   0.9298 B(  2-C ,  3-C ) :   1.0303
B(  2-C , 12-C ) :   0.9932 B(  2-C , 18-H ) :   0.8938 B(  3-C ,  4-C ) :   1.0829
B(  3-C ,  5-C ) :   1.0358 B(  3-C , 19-H ) :   0.8928 B(  4-C , 20-H ) :   0.9611
B(  4-C , 21-H ) :   0.9465 B(  4-C , 22-H ) :   0.9403 B(  5-C ,  6-C ) :   0.9650
B(  5-C ,  9-N ) :   1.0499 B(  5-C , 23-H ) :   0.9054 B(  6-C ,  7-N ) :   1.0497
B(  6-C , 10-C ) :   1.0213 B(  6-C , 24-H ) :   0.9014 B(  7-N ,  8-S ) :   0.9852
B(  7-N , 25-H ) :   0.9364 B(  8-S ,  9-N ) :   0.9774 B(  9-N , 26-H ) :   0.9388
B( 10-C , 11-C ) :   1.0927 B( 10-C , 12-C ) :   1.0594 B( 10-C , 27-H ) :   0.8247
B( 11-C , 28-H ) :   0.9515 B( 11-C , 29-H ) :   0.9529 B( 11-C , 30-H ) :   0.9488
B( 12-C , 13-N ) :   0.9574 B( 12-C , 31-H ) :   0.8854 B( 13-N , 14-C ) :   1.1124
B( 14-C , 15-C ) :   1.8735 B( 14-C , 32-H ) :   0.9549 B( 15-C , 33-H ) :   0.9474
B( 15-C , 34-H ) :   0.9419

Dispersion correction           -0.079081456
FINAL SINGLE POINT ENERGY     -1063.802763616072

DIPOLE MOMENT
-------------
                                X             Y             Z
Electronic contribution:      8.41382       4.95945       0.41848
Nuclear contribution   :     -7.57774      -4.72047      -1.82836
                        -----------------------------------------
Total Dipole Moment    :      0.83608       0.23898      -1.40989
                        -----------------------------------------
Magnitude (a.u.)       :      1.65648
Magnitude (Debye)      :      4.21043

Rotational constants in cm-1:     0.032584     0.011068     0.009101
Rotational constants in MHz :   976.838716   331.810385   272.842056

                             ****ORCA TERMINATED NORMALLY****
TOTAL RUN TIME: 0 days 1 hours 25 minutes 53 seconds 27 msec
