                         Program Version 4.2.0 -  RELEASE  -
|  1> # ORCA input file
|  2> # SCF done        -38.928909458511          0.000583942066
|  3> ! B3LYP/G D3BJ Opt RIJCOSX def2-SVP def2/J
|  4> * xyz 0 1
|  5>    C        1.55912         1.18757        -0.10340
|  6>    S        2.79943         0.00258        -0.18880
|  7>    C        1.62841        -1.25336        -0.29268
|  8>    C        0.35546        -0.78077        -0.26349
|  9>    C        0.31665         0.63817        -0.15575
| 10>    C       -0.96320         1.41340        -0.05745
| 11>    C       -1.17026         1.86781         1.37895
| 12>    O       -1.02289         1.19155         2.36135
| 13>    O       -1.57957         3.14194         1.41496
| 14>    C       -1.85122         3.67931         2.70270
| 15>    C       -2.15896         0.54217        -0.47824
| 16>    C       -2.08276        -0.83228         0.17924
| 17>    C       -0.88676        -1.60765        -0.36766
| 18>    H        1.82269         2.22334        -0.01898
| 19>    H        1.95509        -2.27131        -0.36920
| 20>    H       -0.91994         2.31365        -0.67787
| 21>    H       -2.30280         4.65377         2.53813
| 22>    H       -0.92575         3.77780         3.27276
| 23>    H       -2.53228         3.02499         3.24972
| 24>    H       -2.14390         0.42961        -1.56482
| 25>    H       -3.08722         1.04748        -0.20375
| 26>    H       -3.00251        -1.38809        -0.01191
| 27>    H       -1.97299        -0.70992         1.25778
| 28>    H       -1.06156        -1.85419        -1.42077
| 29>    H       -0.75766        -2.54723         0.17247
| 30> *
| 31>
| 32>                          ****END OF INPUT****
 Total Charge           Charge          ....    0
 Multiplicity           Mult            ....    1
 Number of Electrons    NEL             ....  104
Dispersion correction           -0.051461283
FINAL SINGLE POINT ENERGY      -936.481687384572
Dispersion correction            ... done
Dispersion correction           -0.050933026
FINAL SINGLE POINT ENERGY      -936.484561173451
Dispersion correction            ... done
Dispersion correction           -0.050874152
FINAL SINGLE POINT ENERGY      -936.484684379681
Dispersion correction            ... done
FINAL SINGLE POINT ENERGY      -936.484607173509
FINAL SINGLE POINT ENERGY      -936.484660454048
FINAL SINGLE POINT ENERGY      -936.484674375688
FINAL SINGLE POINT ENERGY      -936.484682783440
Dispersion correction            ... done
Dispersion correction           -0.050805575
FINAL SINGLE POINT ENERGY      -936.484677855119
Dispersion correction            ... done
Dispersion correction           -0.050787977
FINAL SINGLE POINT ENERGY      -936.484678431638
Dispersion correction            ... done
                    ***********************HURRAY********************

CARTESIAN COORDINATES (ANGSTROEM)
---------------------------------
  C      1.561264    1.234259   -0.168910
  S      2.821750    0.056545   -0.234648
  C      1.674016   -1.237296   -0.262862
  C      0.376961   -0.782096   -0.227444
  C      0.315079    0.653164   -0.161030
  C     -0.991511    1.406231   -0.040116
  C     -1.210928    1.875365    1.393727
  O     -1.154527    1.180940    2.378978
  O     -1.519971    3.187554    1.440130
  C     -1.787633    3.714810    2.740678
  C     -2.185249    0.524064   -0.484059
  C     -2.126710   -0.885612    0.112307
  C     -0.862361   -1.636517   -0.327776
  H      1.803759    2.294870   -0.117188
  H      2.016402   -2.269654   -0.322338
  H     -0.962270    2.308908   -0.665678
  H     -2.127128    4.747100    2.591383
  H     -0.878297    3.694891    3.360307
  H     -2.563297    3.123613    3.248986
  H     -2.171682    0.463315   -1.585973
  H     -3.127096    1.024687   -0.206316
  H     -3.015956   -1.455990   -0.201550
  H     -2.151120   -0.812924    1.210578
  H     -0.980822   -1.960782   -1.378321
  H     -0.738054   -2.559107    0.260426

 Multiplicity           Mult            ....    1
 Number of Electrons    NEL             ....  104
 Basis Dimension        Dim             ....  246

ORBITAL ENERGIES
----------------

  NO   OCC          E(Eh)            E(eV)
   0   2.0000     -88.867655     -2418.2118
   1   2.0000     -19.180023      -521.9149
   2   2.0000     -19.120895      -520.3060
   3   2.0000     -10.309739      -280.5423
   4   2.0000     -10.246054      -278.8093
   5   2.0000     -10.207534      -277.7611
   6   2.0000     -10.204766      -277.6858
   7   2.0000     -10.201452      -277.5956
   8   2.0000     -10.196063      -277.4490
   9   2.0000     -10.193196      -277.3710
  10   2.0000     -10.189739      -277.2769
  11   2.0000     -10.189626      -277.2738
  12   2.0000     -10.183316      -277.1021
  13   2.0000      -7.962650      -216.6747
  14   2.0000      -5.930700      -161.3826
  15   2.0000      -5.926596      -161.2709
  16   2.0000      -5.924245      -161.2069
  17   2.0000      -1.096922       -29.8488
  18   2.0000      -1.005462       -27.3600
  19   2.0000      -0.878311       -23.9001
  20   2.0000      -0.818591       -22.2750
  21   2.0000      -0.771580       -20.9958
  22   2.0000      -0.727128       -19.7862
  23   2.0000      -0.724945       -19.7267
  24   2.0000      -0.689229       -18.7549
  25   2.0000      -0.637580       -17.3494
  26   2.0000      -0.587565       -15.9885
  27   2.0000      -0.571327       -15.5466
  28   2.0000      -0.560063       -15.2401
  29   2.0000      -0.528004       -14.3677
  30   2.0000      -0.499193       -13.5837
  31   2.0000      -0.486988       -13.2516
  32   2.0000      -0.483270       -13.1504
  33   2.0000      -0.467073       -12.7097
  34   2.0000      -0.454286       -12.3618
  35   2.0000      -0.429155       -11.6779
  36   2.0000      -0.426474       -11.6049
  37   2.0000      -0.413466       -11.2510
  38   2.0000      -0.400299       -10.8927
  39   2.0000      -0.397878       -10.8268
  40   2.0000      -0.396010       -10.7760
  41   2.0000      -0.380286       -10.3481
  42   2.0000      -0.368420       -10.0252
  43   2.0000      -0.354660        -9.6508
  44   2.0000      -0.340181        -9.2568
  45   2.0000      -0.336941        -9.1686
  46   2.0000      -0.329860        -8.9759
  47   2.0000      -0.323425        -8.8008
  48   2.0000      -0.307373        -8.3641
  49   2.0000      -0.275358        -7.4929
  50   2.0000      -0.239529        -6.5179
  51   2.0000      -0.229035        -6.2324
  52   0.0000      -0.016823        -0.4578
  53   0.0000       0.005541         0.1508
  54   0.0000       0.051976         1.4143
  55   0.0000       0.054021         1.4700
  56   0.0000       0.058756         1.5988

MULLIKEN ATOMIC CHARGES
-----------------------
   0 C :   -0.145882
   1 S :    0.095967
   2 C :   -0.142430
   3 C :   -0.029329
   4 C :    0.008277
   5 C :    0.055010
   6 C :    0.173144
   7 O :   -0.228525
   8 O :   -0.307019
   9 C :    0.188089
  10 C :    0.035498
  11 C :    0.014155
  12 C :    0.136163
  13 H :    0.012341
  14 H :    0.008604
  15 H :   -0.000933
  16 H :    0.029253
  17 H :    0.031828
  18 H :    0.029835
  19 H :    0.009363
  20 H :   -0.000701
  21 H :   -0.006748
  22 H :    0.028378
  23 H :    0.005682
  24 H :   -0.000021
Sum of atomic charges:    0.0000000

LOEWDIN ATOMIC CHARGES
----------------------
   0 C :   -0.199153
   1 S :    0.428765
   2 C :   -0.202186
   3 C :   -0.059372
   4 C :   -0.060176
   5 C :   -0.044217
   6 C :    0.093976
   7 O :   -0.176458
   8 O :   -0.100449
   9 C :    0.082850
  10 C :   -0.012862
  11 C :   -0.032384
  12 C :   -0.021325
  13 H :    0.021863
  14 H :    0.021014
  15 H :    0.035871
  16 H :    0.023444
  17 H :    0.022626
  18 H :    0.021030
  19 H :    0.024662
  20 H :    0.023699
  21 H :    0.022218
  22 H :    0.027046
  23 H :    0.029028
  24 H :    0.030488

  Mayer bond orders larger than 0.100000
B(  0-C ,  1-S ) :   1.1686 B(  0-C ,  4-C ) :   1.5397 B(  0-C , 13-H ) :   0.9644
B(  1-S ,  2-C ) :   1.1601 B(  2-C ,  3-C ) :   1.5519 B(  2-C , 14-H ) :   0.9649
B(  3-C ,  4-C ) :   1.3042 B(  3-C , 12-C ) :   1.0433 B(  4-C ,  5-C ) :   0.9904
B(  5-C ,  6-C ) :   0.9182 B(  5-C , 10-C ) :   1.0627 B(  5-C , 15-H ) :   0.8851
B(  6-C ,  7-O ) :   2.0607 B(  6-C ,  8-O ) :   1.1898 B(  8-O ,  9-C ) :   0.9246
B(  9-C , 16-H ) :   0.9782 B(  9-C , 17-H ) :   0.9757 B(  9-C , 18-H ) :   0.9710
B( 10-C , 11-C ) :   1.0736 B( 10-C , 19-H ) :   0.9410 B( 10-C , 20-H ) :   0.9308
B( 11-C , 12-C ) :   1.0941 B( 11-C , 21-H ) :   0.9291 B( 11-C , 22-H ) :   0.9361
B( 12-C , 23-H ) :   0.9170 B( 12-C , 24-H ) :   0.9166

Dispersion correction           -0.050786907
FINAL SINGLE POINT ENERGY      -936.484681659315

DIPOLE MOMENT
-------------
                                X             Y             Z
Electronic contribution:     11.91304       0.24832      -0.94635
Nuclear contribution   :    -12.36111       0.16671       0.66899
                        -----------------------------------------
Total Dipole Moment    :     -0.44807       0.41503      -0.27736
                        -----------------------------------------
Magnitude (a.u.)       :      0.67078
Magnitude (Debye)      :      1.70499

Rotational constants in cm-1:     0.036830     0.017445     0.013388
Rotational constants in MHz :  1104.149353   522.993480   401.360838

                             ****ORCA TERMINATED NORMALLY****
TOTAL RUN TIME: 0 days 0 hours 15 minutes 52 seconds 950 msec
