                         Program Version 4.2.0 -  RELEASE  -
|  1> # ORCA input file
|  2> # SCF done        -36.008721303234          0.000802659443
|  3> ! B3LYP/G D3BJ Opt RIJCOSX def2-SVP def2/J
|  4> * xyz 0 1
|  5>    C       -1.49620         1.26926        -0.07112
|  6>    S       -2.66328         0.02965        -0.09635
|  7>    C       -1.46843        -1.22513        -0.00697
|  8>    C       -0.18980        -0.67409         0.00741
|  9>    C       -0.21662         0.76368        -0.01860
| 10>    C        0.99332         1.49452         0.00354
| 11>    C        2.17954         0.82540         0.02345
| 12>    S        3.73750         1.68527         0.05703
| 13>    C        2.22166        -0.60243        -0.00231
| 14>    O        3.40200        -1.27120        -0.02485
| 15>    C        1.06148        -1.32649        -0.01092
| 16>    C       -1.93608        -2.58281         0.05627
| 17>    C       -1.27792        -3.63420         0.54162
| 18>    H       -1.80111         2.29627        -0.09180
| 19>    H        0.95475         2.57409        -0.00152
| 20>    H        3.21464         2.90543         0.07129
| 21>    H        4.14235        -0.65128        -0.01835
| 22>    H        1.13094        -2.39888        -0.06033
| 23>    H       -2.95072        -2.71727        -0.29877
| 24>    H       -0.29390        -3.55883         0.96626
| 25>    H       -1.72946        -4.61094         0.54761
| 26> *
| 27>
| 28>                          ****END OF INPUT****
 Total Charge           Charge          ....    0
 Multiplicity           Mult            ....    1
 Number of Electrons    NEL             ....  108
Dispersion correction           -0.051395239
FINAL SINGLE POINT ENERGY     -1256.945703075349
Dispersion correction            ... done
Dispersion correction           -0.051140172
FINAL SINGLE POINT ENERGY     -1256.948955770294
Dispersion correction            ... done
Dispersion correction           -0.051068634
FINAL SINGLE POINT ENERGY     -1256.949177770317
Dispersion correction            ... done
FINAL SINGLE POINT ENERGY     -1256.949616899256
FINAL SINGLE POINT ENERGY     -1256.949899561957
FINAL SINGLE POINT ENERGY     -1256.949594615704
FINAL SINGLE POINT ENERGY     -1256.948395214144
FINAL SINGLE POINT ENERGY     -1256.949698912948
FINAL SINGLE POINT ENERGY     -1256.949120329737
FINAL SINGLE POINT ENERGY     -1256.949838247456
FINAL SINGLE POINT ENERGY     -1256.955864928076
FINAL SINGLE POINT ENERGY     -1256.955860948266
FINAL SINGLE POINT ENERGY     -1256.955809896715
FINAL SINGLE POINT ENERGY     -1256.955513069844
FINAL SINGLE POINT ENERGY     -1256.955484412377
FINAL SINGLE POINT ENERGY     -1256.955174774184
FINAL SINGLE POINT ENERGY     -1256.955162374012
Dispersion correction            ... done
Dispersion correction           -0.051153119
FINAL SINGLE POINT ENERGY     -1256.955358382755
Dispersion correction            ... done
Dispersion correction           -0.051157293
FINAL SINGLE POINT ENERGY     -1256.955287497783
Dispersion correction            ... done
                    ***********************HURRAY********************

CARTESIAN COORDINATES (ANGSTROEM)
---------------------------------
  C     -1.608033    1.290468    0.036358
  S     -2.727475    0.008666   -0.077824
  C     -1.503770   -1.225245   -0.016623
  C     -0.229294   -0.635289    0.056576
  C     -0.299935    0.815136    0.103871
  C      0.903861    1.573605    0.195053
  C      2.116841    0.931141    0.170580
  S      3.653665    1.842042    0.357340
  C      2.193653   -0.509746    0.056959
  O      3.391317   -1.117754   -0.040928
  C      1.044673   -1.268052    0.029740
  C     -1.919916   -2.615661   -0.020900
  C     -1.231054   -3.674548    0.442699
  H     -1.941901    2.326205    0.049203
  H      0.865894    2.661578    0.278603
  H      3.917832    2.027679   -0.960541
  H      4.076968   -0.437654    0.104096
  H      1.142955   -2.348698   -0.055565
  H     -2.919778   -2.798714   -0.431829
  H     -0.255213   -3.576593    0.920227
  H     -1.656630   -4.678545    0.375497

 Multiplicity           Mult            ....    1
 Number of Electrons    NEL             ....  108
 Basis Dimension        Dim             ....  230

ORBITAL ENERGIES
----------------

  NO   OCC          E(Eh)            E(eV)
   0   2.0000     -88.886637     -2418.7284
   1   2.0000     -88.867606     -2418.2105
   2   2.0000     -19.162106      -521.4274
   3   2.0000     -10.257225      -279.1133
   4   2.0000     -10.228726      -278.3378
   5   2.0000     -10.219886      -278.0972
   6   2.0000     -10.216956      -278.0175
   7   2.0000     -10.212947      -277.9084
   8   2.0000     -10.206193      -277.7246
   9   2.0000     -10.205251      -277.6990
  10   2.0000     -10.203019      -277.6383
  11   2.0000     -10.186664      -277.1932
  12   2.0000     -10.186081      -277.1774
  13   2.0000      -7.981355      -217.1837
  14   2.0000      -7.961254      -216.6367
  15   2.0000      -5.949002      -161.8806
  16   2.0000      -5.945045      -161.7729
  17   2.0000      -5.943636      -161.7346
  18   2.0000      -5.930120      -161.3668
  19   2.0000      -5.926754      -161.2752
  20   2.0000      -5.920615      -161.1081
  21   2.0000      -1.054946       -28.7065
  22   2.0000      -0.896720       -24.4010
  23   2.0000      -0.842523       -22.9262
  24   2.0000      -0.788591       -21.4587
  25   2.0000      -0.783159       -21.3108
  26   2.0000      -0.744323       -20.2541
  27   2.0000      -0.714587       -19.4449
  28   2.0000      -0.689948       -18.7744
  29   2.0000      -0.618474       -16.8295
  30   2.0000      -0.612912       -16.6782
  31   2.0000      -0.582293       -15.8450
  32   2.0000      -0.570801       -15.5323
  33   2.0000      -0.516054       -14.0426
  34   2.0000      -0.501717       -13.6524
  35   2.0000      -0.482239       -13.1224
  36   2.0000      -0.465924       -12.6784
  37   2.0000      -0.457321       -12.4443
  38   2.0000      -0.443923       -12.0798
  39   2.0000      -0.430401       -11.7118
  40   2.0000      -0.414113       -11.2686
  41   2.0000      -0.403371       -10.9763
  42   2.0000      -0.394284       -10.7290
  43   2.0000      -0.389888       -10.6094
  44   2.0000      -0.374787       -10.1985
  45   2.0000      -0.367057        -9.9881
  46   2.0000      -0.353524        -9.6199
  47   2.0000      -0.338494        -9.2109
  48   2.0000      -0.326309        -8.8793
  49   2.0000      -0.303582        -8.2609
  50   2.0000      -0.272846        -7.4245
  51   2.0000      -0.268879        -7.3166
  52   2.0000      -0.241946        -6.5837
  53   2.0000      -0.193859        -5.2752
  54   0.0000      -0.071453        -1.9443
  55   0.0000      -0.022190        -0.6038
  56   0.0000       0.016431         0.4471
  57   0.0000       0.029408         0.8002
  58   0.0000       0.032554         0.8858

MULLIKEN ATOMIC CHARGES
-----------------------
   0 C :   -0.121448
   1 S :    0.144403
   2 C :   -0.183281
   3 C :    0.161625
   4 C :    0.082690
   5 C :   -0.003645
   6 C :   -0.154296
   7 S :   -0.018257
   8 C :    0.172950
   9 O :   -0.178278
  10 C :   -0.112584
  11 C :    0.025162
  12 C :   -0.043556
  13 H :    0.018706
  14 H :   -0.029092
  15 H :    0.073830
  16 H :    0.155111
  17 H :   -0.029599
  18 H :   -0.010568
  19 H :    0.027897
  20 H :    0.022229
Sum of atomic charges:    0.0000000

LOEWDIN ATOMIC CHARGES
----------------------
   0 C :   -0.202680
   1 S :    0.484086
   2 C :   -0.201451
   3 C :   -0.032136
   4 C :   -0.060705
   5 C :   -0.011113
   6 C :   -0.204621
   7 S :    0.213198
   8 C :    0.034860
   9 O :   -0.050431
  10 C :   -0.065472
  11 C :   -0.044106
  12 C :   -0.058449
  13 H :    0.025837
  14 H :    0.030998
  15 H :   -0.016662
  16 H :    0.050023
  17 H :    0.032802
  18 H :    0.027425
  19 H :    0.022979
  20 H :    0.025617

  Mayer bond orders larger than 0.100000
B(  0-C ,  1-S ) :   1.2101 B(  0-C ,  2-C ) :   0.1128 B(  0-C ,  4-C ) :   1.3790
B(  0-C , 13-H ) :   0.9670 B(  1-S ,  2-C ) :   1.1505 B(  2-C ,  3-C ) :   1.3579
B(  2-C , 11-C ) :   1.1205 B(  3-C ,  4-C ) :   1.1908 B(  3-C , 10-C ) :   1.1790
B(  4-C ,  5-C ) :   1.1717 B(  5-C ,  6-C ) :   1.5520 B(  5-C , 10-C ) :   0.1032
B(  5-C , 14-H ) :   0.9947 B(  6-C ,  7-S ) :   1.0062 B(  6-C ,  8-C ) :   1.1493
B(  7-S , 15-H ) :   0.9429 B(  7-S , 16-H ) :   0.1257 B(  8-C ,  9-O ) :   1.2595
B(  8-C , 10-C ) :   1.4820 B(  9-O , 16-H ) :   0.9189 B( 10-C , 17-H ) :   0.9972
B( 11-C , 12-C ) :   1.9093 B( 11-C , 18-H ) :   0.9430 B( 12-C , 19-H ) :   0.9516
B( 12-C , 20-H ) :   0.9436

Dispersion correction           -0.051158947
FINAL SINGLE POINT ENERGY     -1256.955283604590

DIPOLE MOMENT
-------------
                                X             Y             Z
Electronic contribution:     -0.18872       6.08740       0.22232
Nuclear contribution   :      0.15883      -5.42302      -0.50766
                        -----------------------------------------
Total Dipole Moment    :     -0.02990       0.66438      -0.28535
                        -----------------------------------------
Magnitude (a.u.)       :      0.72368
Magnitude (Debye)      :      1.83945

Rotational constants in cm-1:     0.039898     0.013324     0.010067
Rotational constants in MHz :  1196.118434   399.450180   301.786691

                             ****ORCA TERMINATED NORMALLY****
TOTAL RUN TIME: 0 days 0 hours 58 minutes 21 seconds 10 msec
