                         Program Version 4.2.0 -  RELEASE  -
|  1> # ORCA input file
|  2> # SCF done        -23.364041315858          0.000364554051
|  3> ! B3LYP/G D3BJ Opt RIJCOSX def2-SVP def2/J
|  4> * xyz 0 1
|  5>    C       -0.38871         0.82647         0.07145
|  6>    O       -1.07343        -0.33011        -0.07778
|  7>    C       -0.16908        -1.31426        -0.13344
|  8>    C        1.09617        -0.82792        -0.02498
|  9>    C        0.96029         0.58474         0.11102
| 10>    N        1.95019         1.52767         0.25284
| 11>    C        3.30011         1.28523         0.29215
| 12>    C        4.22210         2.23187         0.43151
| 13>    H       -0.95429         1.73348         0.13597
| 14>    H       -0.53478        -2.31510        -0.25137
| 15>    H        2.00059        -1.39924        -0.03986
| 16>    H        1.65314         2.48816         0.33595
| 17>    H        3.57320         0.24531         0.19968
| 18>    H        3.95827         3.27160         0.52410
| 19>    H        5.26691         1.99003         0.45626
| 20> *
| 21>
| 22>                          ****END OF INPUT****
 Total Charge           Charge          ....    0
 Multiplicity           Mult            ....    1
 Number of Electrons    NEL             ....   58
Dispersion correction           -0.022190803
FINAL SINGLE POINT ENERGY      -362.529681907432
Dispersion correction            ... done
Dispersion correction           -0.022156919
FINAL SINGLE POINT ENERGY      -362.531920254936
Dispersion correction            ... done
Dispersion correction           -0.022158037
FINAL SINGLE POINT ENERGY      -362.532026120092
Dispersion correction            ... done
FINAL SINGLE POINT ENERGY      -362.532057063176
Dispersion correction            ... done
Dispersion correction           -0.022164943
FINAL SINGLE POINT ENERGY      -362.532060874952
Dispersion correction            ... done
Dispersion correction           -0.022164390
FINAL SINGLE POINT ENERGY      -362.532055955809
Dispersion correction            ... done
                    ***********************HURRAY********************

CARTESIAN COORDINATES (ANGSTROEM)
---------------------------------
  C     -0.414662    0.829633    0.067851
  O     -1.083019   -0.351381   -0.092519
  C     -0.162045   -1.334249   -0.141378
  C      1.101344   -0.826459   -0.023015
  C      0.940025    0.598609    0.117060
  N      1.937283    1.548443    0.266690
  C      3.294122    1.306652    0.304163
  C      4.255374    2.237164    0.422055
  H     -1.019412    1.727948    0.140416
  H     -0.539751   -2.345861   -0.267378
  H      2.027327   -1.393882   -0.036144
  H      1.638582    2.512345    0.352680
  H      3.562035    0.250272    0.224742
  H      4.020745    3.303151    0.503678
  H      5.302731    1.935544    0.444598

 Multiplicity           Mult            ....    1
 Number of Electrons    NEL             ....   58
 Basis Dimension        Dim             ....  147

ORBITAL ENERGIES
----------------

  NO   OCC          E(Eh)            E(eV)
   0   2.0000     -19.197891      -522.4012
   1   2.0000     -14.361005      -390.7828
   2   2.0000     -10.239991      -278.6443
   3   2.0000     -10.230379      -278.3828
   4   2.0000     -10.226217      -278.2695
   5   2.0000     -10.225940      -278.2620
   6   2.0000     -10.189661      -277.2748
   7   2.0000     -10.167335      -276.6672
   8   2.0000      -1.101429       -29.9714
   9   2.0000      -0.944749       -25.7079
  10   2.0000      -0.793744       -21.5989
  11   2.0000      -0.750261       -20.4156
  12   2.0000      -0.719212       -19.5708
  13   2.0000      -0.620402       -16.8820
  14   2.0000      -0.599150       -16.3037
  15   2.0000      -0.562670       -15.3110
  16   2.0000      -0.554430       -15.0868
  17   2.0000      -0.485246       -13.2042
  18   2.0000      -0.473343       -12.8803
  19   2.0000      -0.456867       -12.4320
  20   2.0000      -0.439565       -11.9612
  21   2.0000      -0.418699       -11.3934
  22   2.0000      -0.406828       -11.0703
  23   2.0000      -0.388331       -10.5670
  24   2.0000      -0.373630       -10.1670
  25   2.0000      -0.369772       -10.0620
  26   2.0000      -0.282246        -7.6803
  27   2.0000      -0.244927        -6.6648
  28   2.0000      -0.189354        -5.1526
  29   0.0000       0.009678         0.2634
  30   0.0000       0.022942         0.6243
  31   0.0000       0.054937         1.4949
  32   0.0000       0.073299         1.9946
  33   0.0000       0.089120         2.4251

MULLIKEN ATOMIC CHARGES
-----------------------
   0 C :    0.022607
   1 O :   -0.207593
   2 C :    0.146118
   3 C :   -0.081585
   4 C :    0.108906
   5 N :   -0.064477
   6 C :    0.049123
   7 C :   -0.086740
   8 H :   -0.013606
   9 H :    0.009954
  10 H :   -0.015324
  11 H :    0.109585
  12 H :    0.005724
  13 H :    0.000881
  14 H :    0.016426
Sum of atomic charges:   -0.0000000

LOEWDIN ATOMIC CHARGES
----------------------
   0 C :   -0.031421
   1 O :    0.001677
   2 C :    0.038703
   3 C :   -0.101268
   4 C :   -0.019311
   5 N :    0.014330
   6 C :    0.024858
   7 C :   -0.149408
   8 H :    0.016718
   9 H :    0.022795
  10 H :    0.028554
  11 H :    0.085016
  12 H :    0.026979
  13 H :    0.015795
  14 H :    0.025982

  Mayer bond orders larger than 0.100000
B(  0-C ,  1-O ) :   1.0980 B(  0-C ,  4-C ) :   1.4793 B(  0-C ,  8-H ) :   1.0163
B(  1-O ,  2-C ) :   1.1675 B(  2-C ,  3-C ) :   1.5270 B(  2-C ,  9-H ) :   0.9949
B(  3-C ,  4-C ) :   1.2191 B(  3-C , 10-H ) :   1.0079 B(  4-C ,  5-N ) :   1.1135
B(  5-N ,  6-C ) :   1.1442 B(  5-N , 11-H ) :   0.9303 B(  6-C ,  7-C ) :   1.8785
B(  6-C , 12-H ) :   0.9612 B(  7-C , 13-H ) :   0.9576 B(  7-C , 14-H ) :   0.9480

Dispersion correction           -0.022163655
FINAL SINGLE POINT ENERGY      -362.532054886511

DIPOLE MOMENT
-------------
                                X             Y             Z
Electronic contribution:     -6.02021      -2.19924      -0.50021
Nuclear contribution   :      6.02002       2.24984       0.51798
                        -----------------------------------------
Total Dipole Moment    :     -0.00018       0.05060       0.01777
                        -----------------------------------------
Magnitude (a.u.)       :      0.05363
Magnitude (Debye)      :      0.13631

Rotational constants in cm-1:     0.258115     0.037456     0.032711
Rotational constants in MHz :  7738.102194  1122.917463   980.650050

                             ****ORCA TERMINATED NORMALLY****
TOTAL RUN TIME: 0 days 0 hours 3 minutes 9 seconds 431 msec
