                         Program Version 4.2.0 -  RELEASE  -
|  1> # ORCA input file
|  2> # SCF done        -35.021648783640          0.000721726035
|  3> ! B3LYP/G D3BJ Opt RIJCOSX def2-SVP def2/J
|  4> * xyz 0 1
|  5>    C        1.36648         1.27466        -0.05903
|  6>    S        2.58912         0.05409        -0.06145
|  7>    C        0.13398         0.71218        -0.02099
|  8>    C       -1.27773         1.13855         0.00337
|  9>    O       -1.76103         2.24064        -0.00657
| 10>    N       -2.00251        -0.04874         0.05364
| 11>    C       -3.45005        -0.08183         0.06028
| 12>    C       -4.00855        -0.12674        -1.35761
| 13>    C       -1.22404        -1.20265         0.05326
| 14>    O       -1.65634        -2.32514         0.09071
| 15>    C        0.16667        -0.71347         0.00938
| 16>    C        1.42368        -1.22000        -0.00590
| 17>    H        1.64150         2.30994        -0.08704
| 18>    H       -3.79477         0.81725         0.57656
| 19>    H       -3.75381        -0.97151         0.61700
| 20>    H       -3.69496         0.75428        -1.91307
| 21>    H       -5.09410        -0.15115        -1.32446
| 22>    H       -3.65393        -1.01645        -1.87310
| 23>    H        1.74587        -2.24184         0.00988
| 24> *
| 25>
| 26>                          ****END OF INPUT****
 Total Charge           Charge          ....    0
 Multiplicity           Mult            ....    1
 Number of Electrons    NEL             ....   94
Dispersion correction           -0.039568866
FINAL SINGLE POINT ENERGY      -912.029209627802
Dispersion correction            ... done
Dispersion correction           -0.039390799
FINAL SINGLE POINT ENERGY      -912.031364526631
Dispersion correction            ... done
Dispersion correction           -0.039355654
FINAL SINGLE POINT ENERGY      -912.031474723963
Dispersion correction            ... done
FINAL SINGLE POINT ENERGY      -912.031504346110
FINAL SINGLE POINT ENERGY      -912.031449010067
FINAL SINGLE POINT ENERGY      -912.031459405809
FINAL SINGLE POINT ENERGY      -912.031442929918
FINAL SINGLE POINT ENERGY      -912.031412487245
FINAL SINGLE POINT ENERGY      -912.031390288987
FINAL SINGLE POINT ENERGY      -912.031357997604
FINAL SINGLE POINT ENERGY      -912.031357373756
Dispersion correction            ... done
Dispersion correction           -0.039412424
FINAL SINGLE POINT ENERGY      -912.031384276653
Dispersion correction            ... done
Dispersion correction           -0.039400645
FINAL SINGLE POINT ENERGY      -912.031409935446
Dispersion correction            ... done
                    ***********************HURRAY********************

CARTESIAN COORDINATES (ANGSTROEM)
---------------------------------
  C      1.368973    1.285455   -0.109358
  S      2.605032    0.061707   -0.112626
  C      0.137162    0.700338   -0.019407
  C     -1.289805    1.122967   -0.003362
  O     -1.779153    2.224609   -0.078429
  N     -2.019418   -0.077702    0.105886
  C     -3.472038   -0.119535    0.057616
  C     -4.004618   -0.058343   -1.372988
  C     -1.212481   -1.234125    0.141863
  O     -1.621627   -2.367520    0.224303
  C      0.182945   -0.721916    0.055193
  C      1.449627   -1.232553    0.012762
  H      1.629949    2.340250   -0.178450
  H     -3.846758    0.730179    0.646663
  H     -3.779885   -1.051448    0.552603
  H     -3.709072    0.885094   -1.856967
  H     -5.104422   -0.117323   -1.378246
  H     -3.615052   -0.897498   -1.969143
  H      1.776119   -2.270566    0.046947

 Multiplicity           Mult            ....    1
 Number of Electrons    NEL             ....   94
 Basis Dimension        Dim             ....  207

ORBITAL ENERGIES
----------------

  NO   OCC          E(Eh)            E(eV)
   0   2.0000     -88.906131     -2419.2588
   1   2.0000     -19.133283      -520.6431
   2   2.0000     -19.132960      -520.6343
   3   2.0000     -14.378285      -391.2530
   4   2.0000     -10.314790      -280.6797
   5   2.0000     -10.314214      -280.6640
   6   2.0000     -10.247831      -278.8577
   7   2.0000     -10.247570      -278.8506
   8   2.0000     -10.231699      -278.4187
   9   2.0000     -10.219315      -278.0817
  10   2.0000     -10.219059      -278.0747
  11   2.0000     -10.188619      -277.2464
  12   2.0000      -8.000844      -217.7140
  13   2.0000      -5.968981      -162.4242
  14   2.0000      -5.964554      -162.3038
  15   2.0000      -5.962494      -162.2477
  16   2.0000      -1.064910       -28.9777
  17   2.0000      -1.045988       -28.4628
  18   2.0000      -0.957037       -26.0423
  19   2.0000      -0.907316       -24.6893
  20   2.0000      -0.807546       -21.9744
  21   2.0000      -0.753825       -20.5126
  22   2.0000      -0.742477       -20.2038
  23   2.0000      -0.663149       -18.0452
  24   2.0000      -0.661864       -18.0102
  25   2.0000      -0.594890       -16.1878
  26   2.0000      -0.588187       -16.0054
  27   2.0000      -0.569366       -15.4932
  28   2.0000      -0.496357       -13.5066
  29   2.0000      -0.492908       -13.4127
  30   2.0000      -0.476820       -12.9749
  31   2.0000      -0.465909       -12.6780
  32   2.0000      -0.448851       -12.2139
  33   2.0000      -0.434188       -11.8148
  34   2.0000      -0.432009       -11.7556
  35   2.0000      -0.420184       -11.4338
  36   2.0000      -0.416250       -11.3267
  37   2.0000      -0.406489       -11.0611
  38   2.0000      -0.391605       -10.6561
  39   2.0000      -0.382387       -10.4053
  40   2.0000      -0.379352       -10.3227
  41   2.0000      -0.358434        -9.7535
  42   2.0000      -0.294273        -8.0076
  43   2.0000      -0.291486        -7.9317
  44   2.0000      -0.275788        -7.5046
  45   2.0000      -0.273684        -7.4473
  46   2.0000      -0.272120        -7.4048
  47   0.0000      -0.070184        -1.9098
  48   0.0000      -0.061477        -1.6729
  49   0.0000       0.014378         0.3912
  50   0.0000       0.062660         1.7051
  51   0.0000       0.066685         1.8146

MULLIKEN ATOMIC CHARGES
-----------------------
   0 C :   -0.131662
   1 S :    0.126760
   2 C :    0.015938
   3 C :    0.219036
   4 O :   -0.175597
   5 N :   -0.331879
   6 C :    0.156423
   7 C :   -0.027872
   8 C :    0.218709
   9 O :   -0.172855
  10 C :    0.009331
  11 C :   -0.128260
  12 H :    0.045132
  13 H :    0.024096
  14 H :    0.025844
  15 H :    0.031316
  16 H :    0.026844
  17 H :    0.024672
  18 H :    0.044022
Sum of atomic charges:   -0.0000000

LOEWDIN ATOMIC CHARGES
----------------------
   0 C :   -0.148758
   1 S :    0.462572
   2 C :   -0.095604
   3 C :    0.089349
   4 O :   -0.161903
   5 N :   -0.040868
   6 C :    0.046323
   7 C :   -0.061343
   8 C :    0.089128
   9 O :   -0.160652
  10 C :   -0.095757
  11 C :   -0.147929
  12 H :    0.038407
  13 H :    0.030540
  14 H :    0.030825
  15 H :    0.028797
  16 H :    0.031409
  17 H :    0.027261
  18 H :    0.038204

  Mayer bond orders larger than 0.100000
B(  0-C ,  1-S ) :   1.1736 B(  0-C ,  2-C ) :   1.5451 B(  0-C , 12-H ) :   0.9663
B(  1-S , 11-C ) :   1.1737 B(  2-C ,  3-C ) :   0.8993 B(  2-C , 10-C ) :   1.2668
B(  3-C ,  4-O ) :   2.1754 B(  3-C ,  5-N ) :   1.0430 B(  5-N ,  6-C ) :   0.9281
B(  5-N ,  8-C ) :   1.0419 B(  6-C ,  7-C ) :   1.1239 B(  6-C , 13-H ) :   0.9392
B(  6-C , 14-H ) :   0.9377 B(  7-C , 15-H ) :   0.9679 B(  7-C , 16-H ) :   0.9674
B(  7-C , 17-H ) :   0.9677 B(  8-C ,  9-O ) :   2.1809 B(  8-C , 10-C ) :   0.8971
B( 10-C , 11-C ) :   1.5470 B( 11-C , 18-H ) :   0.9663

Dispersion correction           -0.039398066
FINAL SINGLE POINT ENERGY      -912.031413386071

DIPOLE MOMENT
-------------
                                X             Y             Z
Electronic contribution:     12.94676       0.21329       3.08080
Nuclear contribution   :    -12.19740      -0.18518      -3.19182
                        -----------------------------------------
Total Dipole Moment    :      0.74936       0.02811      -0.11102
                        -----------------------------------------
Magnitude (a.u.)       :      0.75806
Magnitude (Debye)      :      1.92684

Rotational constants in cm-1:     0.056932     0.019651     0.015362
Rotational constants in MHz :  1706.769102   589.111535   460.529851

                             ****ORCA TERMINATED NORMALLY****
TOTAL RUN TIME: 0 days 0 hours 14 minutes 4 seconds 343 msec
