                         Program Version 4.2.0 -  RELEASE  -
|  1> # ORCA input file
|  2> # SCF done        -34.384801329502          0.000521084800
|  3> ! B3LYP/G D3BJ Opt RIJCOSX def2-SVP def2/J
|  4> * xyz 0 1
|  5>    C       -0.42062         0.88562         0.75180
|  6>    O       -1.22105        -0.19534         0.81159
|  7>    C       -0.53340        -1.24453         0.29626
|  8>    C        0.72455        -0.82849        -0.09833
|  9>    C        0.79099         0.56600         0.20323
| 10>    O        1.86807         1.37100        -0.02878
| 11>    C        1.71159         2.71466         0.35781
| 12>    O        1.64096        -1.66327        -0.64858
| 13>    C        2.86607        -1.09381        -1.05606
| 14>    C       -1.11619        -2.55583         0.21701
| 15>    C       -2.34730        -2.86076         0.61856
| 16>    H       -0.82140         1.80575         1.12553
| 17>    H        2.64667         3.21041         0.10401
| 18>    H        1.53105         2.79859         1.43421
| 19>    H        0.88579         3.18880        -0.18140
| 20>    H        3.44466        -1.91466        -1.47696
| 21>    H        3.40528        -0.65800        -0.21121
| 22>    H        2.71441        -0.32274        -1.81574
| 23>    H       -0.45650        -3.29785        -0.20898
| 24>    H       -2.99712        -2.11341         1.04072
| 25>    H       -2.73597        -3.86005         0.53707
| 26> *
| 27>
| 28>                          ****END OF INPUT****
 Total Charge           Charge          ....    0
 Multiplicity           Mult            ....    1
 Number of Electrons    NEL             ....   82
Dispersion correction           -0.032418780
FINAL SINGLE POINT ENERGY      -536.099195069387
Dispersion correction            ... done
Dispersion correction           -0.032291184
FINAL SINGLE POINT ENERGY      -536.101254857354
Dispersion correction            ... done
Dispersion correction           -0.032307543
FINAL SINGLE POINT ENERGY      -536.101386178617
Dispersion correction            ... done
FINAL SINGLE POINT ENERGY      -536.101398854406
Dispersion correction            ... done
Dispersion correction           -0.032303674
FINAL SINGLE POINT ENERGY      -536.101401692137
Dispersion correction            ... done
Dispersion correction           -0.032301360
FINAL SINGLE POINT ENERGY      -536.101401426503
Dispersion correction            ... done
                    ***********************HURRAY********************

CARTESIAN COORDINATES (ANGSTROEM)
---------------------------------
  C     -0.426230    0.891960    0.771586
  O     -1.209685   -0.213855    0.825260
  C     -0.514028   -1.263252    0.296699
  C      0.740989   -0.830341   -0.093500
  C      0.791529    0.579147    0.214447
  O      1.853985    1.381145   -0.027855
  C      1.702954    2.732019    0.348979
  O      1.663165   -1.651251   -0.638153
  C      2.904522   -1.111988   -1.061617
  C     -1.132876   -2.560279    0.210237
  C     -2.376170   -2.860616    0.625429
  H     -0.851718    1.812287    1.156923
  H      2.629831    3.251483    0.072696
  H      1.540003    2.828606    1.438257
  H      0.853809    3.202453   -0.178707
  H      3.468113   -1.947638   -1.498134
  H      3.469825   -0.685201   -0.217700
  H      2.770184   -0.324873   -1.821021
  H     -0.497565   -3.325257   -0.244465
  H     -3.021323   -2.102927    1.076405
  H     -2.778771   -3.869531    0.515995

 Multiplicity           Mult            ....    1
 Number of Electrons    NEL             ....   82
 Basis Dimension        Dim             ....  204

ORBITAL ENERGIES
----------------

  NO   OCC          E(Eh)            E(eV)
   0   2.0000     -19.191000      -522.2137
   1   2.0000     -19.174875      -521.7749
   2   2.0000     -19.163986      -521.4786
   3   2.0000     -10.253933      -279.0237
   4   2.0000     -10.247152      -278.8392
   5   2.0000     -10.242656      -278.7168
   6   2.0000     -10.240467      -278.6573
   7   2.0000     -10.233614      -278.4708
   8   2.0000     -10.228240      -278.3245
   9   2.0000     -10.188210      -277.2353
  10   2.0000     -10.174070      -276.8505
  11   2.0000      -1.099319       -29.9140
  12   2.0000      -1.069422       -29.1005
  13   2.0000      -1.053089       -28.6560
  14   2.0000      -0.797004       -21.6876
  15   2.0000      -0.784853       -21.3569
  16   2.0000      -0.728202       -19.8154
  17   2.0000      -0.706573       -19.2268
  18   2.0000      -0.687980       -18.7209
  19   2.0000      -0.607495       -16.5308
  20   2.0000      -0.587815       -15.9953
  21   2.0000      -0.561089       -15.2680
  22   2.0000      -0.528432       -14.3794
  23   2.0000      -0.502056       -13.6617
  24   2.0000      -0.488808       -13.3011
  25   2.0000      -0.483559       -13.1583
  26   2.0000      -0.464251       -12.6329
  27   2.0000      -0.447640       -12.1809
  28   2.0000      -0.445766       -12.1299
  29   2.0000      -0.443968       -12.0810
  30   2.0000      -0.433223       -11.7886
  31   2.0000      -0.419730       -11.4214
  32   2.0000      -0.375261       -10.2114
  33   2.0000      -0.364783        -9.9262
  34   2.0000      -0.356497        -9.7008
  35   2.0000      -0.353062        -9.6073
  36   2.0000      -0.341573        -9.2947
  37   2.0000      -0.320537        -8.7223
  38   2.0000      -0.290959        -7.9174
  39   2.0000      -0.226500        -6.1634
  40   2.0000      -0.194560        -5.2942
  41   0.0000      -0.023377        -0.6361
  42   0.0000       0.055666         1.5147
  43   0.0000       0.063794         1.7359
  44   0.0000       0.064478         1.7545
  45   0.0000       0.089390         2.4324

MULLIKEN ATOMIC CHARGES
-----------------------
   0 C :    0.000836
   1 O :   -0.223047
   2 C :    0.064900
   3 C :    0.127161
   4 C :    0.154074
   5 O :   -0.320637
   6 C :    0.189472
   7 O :   -0.313713
   8 C :    0.200966
   9 C :   -0.021788
  10 C :   -0.018374
  11 H :   -0.008246
  12 H :    0.033844
  13 H :    0.017565
  14 H :    0.017567
  15 H :    0.028894
  16 H :    0.020912
  17 H :    0.020797
  18 H :   -0.004607
  19 H :    0.019937
  20 H :    0.013485
Sum of atomic charges:   -0.0000000

LOEWDIN ATOMIC CHARGES
----------------------
   0 C :   -0.023099
   1 O :   -0.002852
   2 C :   -0.007741
   3 C :   -0.006445
   4 C :   -0.028357
   5 O :   -0.104019
   6 C :    0.083531
   7 O :   -0.104385
   8 C :    0.085788
   9 C :   -0.036869
  10 C :   -0.061164
  11 H :    0.018947
  12 H :    0.026292
  13 H :    0.013034
  14 H :    0.012944
  15 H :    0.023174
  16 H :    0.014556
  17 H :    0.014314
  18 H :    0.037059
  19 H :    0.022883
  20 H :    0.022408

  Mayer bond orders larger than 0.100000
B(  0-C ,  1-O ) :   1.1055 B(  0-C ,  4-C ) :   1.4168 B(  0-C , 11-H ) :   1.0191
B(  1-O ,  2-C ) :   1.1147 B(  2-C ,  3-C ) :   1.4278 B(  2-C ,  9-C ) :   1.1622
B(  3-C ,  4-C ) :   1.2006 B(  3-C ,  7-O ) :   1.1816 B(  4-C ,  5-O ) :   1.1149
B(  5-O ,  6-C ) :   0.9658 B(  6-C , 12-H ) :   0.9797 B(  6-C , 13-H ) :   0.9629
B(  6-C , 14-H ) :   0.9620 B(  7-O ,  8-C ) :   0.9437 B(  8-C , 15-H ) :   0.9784
B(  8-C , 16-H ) :   0.9699 B(  8-C , 17-H ) :   0.9694 B(  9-C , 10-C ) :   1.8802
B(  9-C , 18-H ) :   0.9517 B( 10-C , 19-H ) :   0.9510 B( 10-C , 20-H ) :   0.9424

Dispersion correction           -0.032300608
FINAL SINGLE POINT ENERGY      -536.101403805969

DIPOLE MOMENT
-------------
                                X             Y             Z
Electronic contribution:     -2.45838      -1.69004       0.76721
Nuclear contribution   :      3.18157       2.69742      -0.85396
                        -----------------------------------------
Total Dipole Moment    :      0.72318       1.00738      -0.08675
                        -----------------------------------------
Magnitude (a.u.)       :      1.24311
Magnitude (Debye)      :      3.15974

Rotational constants in cm-1:     0.060090     0.027552     0.019030
Rotational constants in MHz :  1801.461015   825.989882   570.508205

                             ****ORCA TERMINATED NORMALLY****
TOTAL RUN TIME: 0 days 0 hours 6 minutes 22 seconds 621 msec
