                         Program Version 4.2.0 -  RELEASE  -
|  1> # ORCA input file
|  2> # SCF done        -28.124477792238          0.000870937534
|  3> ! B3LYP/G D3BJ Opt RIJCOSX def2-SVP def2/J
|  4> * xyz 0 1
|  5>    N        1.34668         1.14218         0.21215
|  6>    C        0.03528         0.71391         0.06944
|  7>    C       -1.19171         1.27492         0.03037
|  8>    S       -2.41421         0.03778        -0.04612
|  9>    C       -1.23209        -1.23919        -0.03357
| 10>    C        0.01352        -0.71589         0.02999
| 11>    N        1.31350        -1.16815         0.04310
| 12>    C        2.20816        -0.02239         0.06602
| 13>    C        1.73792        -2.46794         0.00002
| 14>    C        3.00623        -2.86895        -0.02703
| 15>    H        1.63333         1.98661        -0.25781
| 16>    H       -1.48296         2.30413         0.04166
| 17>    H       -1.55876        -2.25670        -0.07785
| 18>    H        2.81594         0.01042        -0.85598
| 19>    H        2.89235        -0.09060         0.92674
| 20>    H        0.92322        -3.17793        -0.01036
| 21>    H        3.83418        -2.18387        -0.01792
| 22>    H        3.24414        -3.91486        -0.05661
| 23> *
| 24>
| 25>                          ****END OF INPUT****
 Total Charge           Charge          ....    0
 Multiplicity           Mult            ....    1
 Number of Electrons    NEL             ....   80
Dispersion correction           -0.035551505
FINAL SINGLE POINT ENERGY      -778.847096029367
Dispersion correction            ... done
Dispersion correction           -0.035463693
FINAL SINGLE POINT ENERGY      -778.850004137703
Dispersion correction            ... done
Dispersion correction           -0.035464051
FINAL SINGLE POINT ENERGY      -778.850134774967
Dispersion correction            ... done
FINAL SINGLE POINT ENERGY      -778.850168581603
FINAL SINGLE POINT ENERGY      -778.850193877112
FINAL SINGLE POINT ENERGY      -778.850204230924
FINAL SINGLE POINT ENERGY      -778.850203952047
FINAL SINGLE POINT ENERGY      -778.850196023386
Dispersion correction            ... done
Dispersion correction           -0.035477095
FINAL SINGLE POINT ENERGY      -778.850189310439
Dispersion correction            ... done
Dispersion correction           -0.035477519
FINAL SINGLE POINT ENERGY      -778.850185082426
Dispersion correction            ... done
                    ***********************HURRAY********************

CARTESIAN COORDINATES (ANGSTROEM)
---------------------------------
  N      1.349815    1.135271    0.260389
  C      0.024087    0.721478    0.096894
  C     -1.213906    1.293855    0.010698
  S     -2.446018    0.053356   -0.118921
  C     -1.263169   -1.237976   -0.059090
  C     -0.006582   -0.710855    0.049302
  N      1.308089   -1.167715    0.111195
  C      2.220881   -0.026282    0.070132
  C      1.746149   -2.469397    0.049445
  C      3.029302   -2.868220   -0.041410
  H      1.642331    1.990223   -0.198146
  H     -1.496023    2.344141    0.029050
  H     -1.578461   -2.276171   -0.125604
  H      2.764931   -0.001127   -0.900225
  H      2.978881   -0.116089    0.871401
  H      0.934434   -3.201445    0.089182
  H      3.864777   -2.167627   -0.090930
  H      3.265204   -3.931941   -0.067121

 Multiplicity           Mult            ....    1
 Number of Electrons    NEL             ....   80
 Basis Dimension        Dim             ....  184

ORBITAL ENERGIES
----------------

  NO   OCC          E(Eh)            E(eV)
   0   2.0000     -88.858509     -2417.9629
   1   2.0000     -14.369862      -391.0238
   2   2.0000     -14.349360      -390.4659
   3   2.0000     -10.269274      -279.4412
   4   2.0000     -10.228914      -278.3429
   5   2.0000     -10.224992      -278.2362
   6   2.0000     -10.223310      -278.1904
   7   2.0000     -10.201309      -277.5917
   8   2.0000     -10.199490      -277.5422
   9   2.0000     -10.173365      -276.8313
  10   2.0000      -7.952774      -216.4060
  11   2.0000      -5.921564      -161.1339
  12   2.0000      -5.917280      -161.0174
  13   2.0000      -5.913166      -160.9054
  14   2.0000      -1.000592       -27.2275
  15   2.0000      -0.903723       -24.5916
  16   2.0000      -0.857876       -23.3440
  17   2.0000      -0.760085       -20.6830
  18   2.0000      -0.729202       -19.8426
  19   2.0000      -0.703447       -19.1418
  20   2.0000      -0.665625       -18.1126
  21   2.0000      -0.613170       -16.6852
  22   2.0000      -0.569925       -15.5084
  23   2.0000      -0.548709       -14.9311
  24   2.0000      -0.528449       -14.3798
  25   2.0000      -0.495615       -13.4864
  26   2.0000      -0.472745       -12.8640
  27   2.0000      -0.467673       -12.7260
  28   2.0000      -0.450719       -12.2647
  29   2.0000      -0.426246       -11.5987
  30   2.0000      -0.394064       -10.7230
  31   2.0000      -0.391178       -10.6445
  32   2.0000      -0.389098       -10.5879
  33   2.0000      -0.374128       -10.1805
  34   2.0000      -0.357611        -9.7311
  35   2.0000      -0.339185        -9.2297
  36   2.0000      -0.299653        -8.1540
  37   2.0000      -0.259571        -7.0633
  38   2.0000      -0.210458        -5.7269
  39   2.0000      -0.182084        -4.9548
  40   0.0000      -0.008740        -0.2378
  41   0.0000       0.035852         0.9756
  42   0.0000       0.037006         1.0070
  43   0.0000       0.051634         1.4050
  44   0.0000       0.068997         1.8775

MULLIKEN ATOMIC CHARGES
-----------------------
   0 N :   -0.200590
   1 C :    0.157529
   2 C :   -0.224880
   3 S :    0.056651
   4 C :   -0.219971
   5 C :    0.199115
   6 N :   -0.259429
   7 C :    0.289868
   8 C :    0.092244
   9 C :   -0.102490
  10 H :    0.121961
  11 H :    0.004995
  12 H :    0.008782
  13 H :    0.009314
  14 H :    0.026061
  15 H :    0.009284
  16 H :    0.013748
  17 H :    0.017809
Sum of atomic charges:    0.0000000

LOEWDIN ATOMIC CHARGES
----------------------
   0 N :   -0.058553
   1 C :   -0.025678
   2 C :   -0.243192
   3 S :    0.386716
   4 C :   -0.242093
   5 C :   -0.020910
   6 N :   -0.020354
   7 C :    0.130815
   8 C :    0.024148
   9 C :   -0.143676
  10 H :    0.076039
  11 H :    0.020819
  12 H :    0.021088
  13 H :    0.004604
  14 H :    0.015813
  15 H :    0.029923
  16 H :    0.017432
  17 H :    0.027058

  Mayer bond orders larger than 0.100000
B(  0-N ,  1-C ) :   1.1096 B(  0-N ,  7-C ) :   1.0202 B(  0-N , 10-H ) :   0.9351
B(  1-C ,  2-C ) :   1.5225 B(  1-C ,  5-C ) :   1.2404 B(  2-C ,  3-S ) :   1.0915
B(  2-C , 11-H ) :   0.9882 B(  3-S ,  4-C ) :   1.0908 B(  4-C ,  5-C ) :   1.5189
B(  4-C , 12-H ) :   0.9840 B(  5-C ,  6-N ) :   1.0517 B(  6-N ,  7-C ) :   0.9761
B(  6-N ,  8-C ) :   1.1193 B(  7-C , 13-H ) :   0.9379 B(  7-C , 14-H ) :   0.9418
B(  8-C ,  9-C ) :   1.8609 B(  8-C , 15-H ) :   0.9625 B(  9-C , 16-H ) :   0.9540
B(  9-C , 17-H ) :   0.9483

Dispersion correction           -0.035478278
FINAL SINGLE POINT ENERGY      -778.850182829853

DIPOLE MOMENT
-------------
                                X             Y             Z
Electronic contribution:     -9.76426       3.84975       0.22515
Nuclear contribution   :     10.42846      -3.47376      -0.51564
                        -----------------------------------------
Total Dipole Moment    :      0.66420       0.37598      -0.29049
                        -----------------------------------------
Magnitude (a.u.)       :      0.81664
Magnitude (Debye)      :      2.07575

Rotational constants in cm-1:     0.087847     0.027268     0.020932
Rotational constants in MHz :  2633.588779   817.471376   627.516175

                             ****ORCA TERMINATED NORMALLY****
TOTAL RUN TIME: 0 days 0 hours 8 minutes 27 seconds 396 msec
