                         Program Version 4.2.0 -  RELEASE  -
|  1> # ORCA input file
|  2> # SCF done        -46.611463701295          0.000596766969
|  3> ! B3LYP/G D3BJ Opt RIJCOSX def2-SVP def2/J
|  4> * xyz 0 1
|  5>    C        1.60300        -1.21775        -0.22049
|  6>    S        2.74979         0.04888        -0.26489
|  7>    C        1.50490         1.24843        -0.03390
|  8>    C        0.26521         0.66009         0.04559
|  9>    C        0.33172        -0.75424        -0.05758
| 10>    C       -0.88247        -1.64188        -0.01137
| 11>    C       -1.07099        -2.30447        -1.37587
| 12>    F       -0.08552        -3.17845        -1.64282
| 13>    F       -2.21385        -3.00942        -1.44749
| 14>    F       -1.09467        -1.44512        -2.40209
| 15>    C       -2.13348        -0.86467         0.41480
| 16>    C       -2.20069         0.50151        -0.26052
| 17>    C       -1.03815         1.37661         0.20238
| 18>    C        1.92079         2.62766         0.02898
| 19>    C        1.24316         3.64841         0.54654
| 20>    H        1.92812        -2.23405        -0.32199
| 21>    H       -0.71021        -2.47559         0.68079
| 22>    H       -2.09553        -0.72650         1.49745
| 23>    H       -3.02408        -1.45081         0.18211
| 24>    H       -3.14464         0.98580        -0.00583
| 25>    H       -2.16569         0.38774        -1.34413
| 26>    H       -1.18026         1.63543         1.25713
| 27>    H       -1.01684         2.30546        -0.37087
| 28>    H        2.90971         2.80562        -0.37482
| 29>    H        0.27938         3.53968         1.00836
| 30>    H        1.65843         4.64132         0.53954
| 31> *
| 32>
| 33>                          ****END OF INPUT****
 Total Charge           Charge          ....    0
 Multiplicity           Mult            ....    1
 Number of Electrons    NEL             ....  120
Dispersion correction           -0.056702924
FINAL SINGLE POINT ENERGY     -1122.919204680139
Dispersion correction            ... done
Dispersion correction           -0.056120169
FINAL SINGLE POINT ENERGY     -1122.922502658834
Dispersion correction            ... done
Dispersion correction           -0.055963814
FINAL SINGLE POINT ENERGY     -1122.922517700895
Dispersion correction            ... done
FINAL SINGLE POINT ENERGY     -1122.922452653975
FINAL SINGLE POINT ENERGY     -1122.922416070508
FINAL SINGLE POINT ENERGY     -1122.922469502135
Dispersion correction            ... done
Dispersion correction           -0.055971423
FINAL SINGLE POINT ENERGY     -1122.922525544635
Dispersion correction            ... done
Dispersion correction           -0.055959972
FINAL SINGLE POINT ENERGY     -1122.922522558355
Dispersion correction            ... done
                    ***********************HURRAY********************

CARTESIAN COORDINATES (ANGSTROEM)
---------------------------------
  C      1.633671   -1.216047   -0.271379
  S      2.776232    0.068207   -0.286820
  C      1.530474    1.268808   -0.038526
  C      0.278510    0.669874    0.029301
  C      0.344507   -0.759146   -0.102128
  C     -0.887124   -1.643942   -0.055150
  C     -1.089215   -2.411455   -1.362607
  F     -0.089232   -3.292475   -1.566897
  F     -2.229717   -3.129583   -1.338194
  F     -1.148196   -1.613173   -2.442087
  C     -2.150605   -0.859806    0.358668
  C     -2.217019    0.539242   -0.253466
  C     -1.029334    1.394863    0.198522
  C      1.944202    2.660849    0.066950
  C      1.255990    3.692471    0.587299
  H      1.960014   -2.245027   -0.407000
  H     -0.721158   -2.446080    0.682243
  H     -2.145746   -0.770292    1.457697
  H     -3.041171   -1.447983    0.096595
  H     -3.157312    1.028556    0.046767
  H     -2.226648    0.464801   -1.352977
  H     -1.164852    1.668511    1.262060
  H     -1.003025    2.346237   -0.354844
  H      2.950816    2.866901   -0.315595
  H      0.265410    3.583243    1.030105
  H      1.697668    4.692137    0.600471

 Multiplicity           Mult            ....    1
 Number of Electrons    NEL             ....  120
 Basis Dimension        Dim             ....  269

ORBITAL ENERGIES
----------------

  NO   OCC          E(Eh)            E(eV)
   0   2.0000     -88.875465     -2418.4244
   1   2.0000     -24.717576      -672.5994
   2   2.0000     -24.717170      -672.5884
   3   2.0000     -24.717092      -672.5863
   4   2.0000     -10.428289      -283.7682
   5   2.0000     -10.224567      -278.2246
   6   2.0000     -10.217486      -278.0319
   7   2.0000     -10.214606      -277.9536
   8   2.0000     -10.207094      -277.7491
   9   2.0000     -10.205195      -277.6975
  10   2.0000     -10.202221      -277.6165
  11   2.0000     -10.201183      -277.5883
  12   2.0000     -10.198142      -277.5056
  13   2.0000     -10.194135      -277.3965
  14   2.0000     -10.192246      -277.3451
  15   2.0000      -7.970655      -216.8926
  16   2.0000      -5.938577      -161.5969
  17   2.0000      -5.934712      -161.4917
  18   2.0000      -5.932156      -161.4222
  19   2.0000      -1.295591       -35.2548
  20   2.0000      -1.203795       -32.7569
  21   2.0000      -1.202612       -32.7247
  22   2.0000      -0.891912       -24.2702
  23   2.0000      -0.835272       -22.7289
  24   2.0000      -0.793890       -21.6028
  25   2.0000      -0.771216       -20.9858
  26   2.0000      -0.738083       -20.0842
  27   2.0000      -0.705738       -19.2041
  28   2.0000      -0.685431       -18.6515
  29   2.0000      -0.641883       -17.4665
  30   2.0000      -0.615850       -16.7581
  31   2.0000      -0.593039       -16.1374
  32   2.0000      -0.590905       -16.0794
  33   2.0000      -0.586902       -15.9704
  34   2.0000      -0.576876       -15.6976
  35   2.0000      -0.531461       -14.4618
  36   2.0000      -0.512271       -13.9396
  37   2.0000      -0.488019       -13.2797
  38   2.0000      -0.472171       -12.8484
  39   2.0000      -0.469400       -12.7730
  40   2.0000      -0.466397       -12.6913
  41   2.0000      -0.460353       -12.5269
  42   2.0000      -0.438697       -11.9375
  43   2.0000      -0.437234       -11.8977
  44   2.0000      -0.431757       -11.7487
  45   2.0000      -0.420977       -11.4554
  46   2.0000      -0.412341       -11.2204
  47   2.0000      -0.410847       -11.1797
  48   2.0000      -0.408137       -11.1060
  49   2.0000      -0.402470       -10.9518
  50   2.0000      -0.389526       -10.5995
  51   2.0000      -0.373631       -10.1670
  52   2.0000      -0.364396        -9.9157
  53   2.0000      -0.349340        -9.5060
  54   2.0000      -0.343263        -9.3406
  55   2.0000      -0.337890        -9.1945
  56   2.0000      -0.330719        -8.9993
  57   2.0000      -0.302519        -8.2319
  58   2.0000      -0.251076        -6.8321
  59   2.0000      -0.220864        -6.0100
  60   0.0000      -0.047148        -1.2830
  61   0.0000       0.012107         0.3294
  62   0.0000       0.031729         0.8634
  63   0.0000       0.046914         1.2766
  64   0.0000       0.064116         1.7447

MULLIKEN ATOMIC CHARGES
-----------------------
   0 C :   -0.119464
   1 S :    0.112167
   2 C :   -0.171929
   3 C :   -0.026954
   4 C :   -0.024399
   5 C :   -0.055497
   6 C :    0.506736
   7 F :   -0.174947
   8 F :   -0.176290
   9 F :   -0.170890
  10 C :    0.038930
  11 C :    0.035953
  12 C :    0.098045
  13 C :    0.031719
  14 C :   -0.040253
  15 H :    0.020916
  16 H :    0.025662
  17 H :    0.006418
  18 H :    0.013093
  19 H :   -0.003889
  20 H :    0.015892
  21 H :    0.015589
  22 H :    0.014294
  23 H :   -0.009584
  24 H :    0.015035
  25 H :    0.023646
Sum of atomic charges:    0.0000000

LOEWDIN ATOMIC CHARGES
----------------------
   0 C :   -0.190413
   1 S :    0.440658
   2 C :   -0.184973
   3 C :   -0.050859
   4 C :   -0.070611
   5 C :   -0.058218
   6 C :    0.174034
   7 F :   -0.067811
   8 F :   -0.067725
   9 F :   -0.062168
  10 C :   -0.021796
  11 C :   -0.029210
  12 C :   -0.024722
  13 C :   -0.040312
  14 C :   -0.056149
  15 H :    0.023586
  16 H :    0.046519
  17 H :    0.027461
  18 H :    0.026095
  19 H :    0.024816
  20 H :    0.023296
  21 H :    0.029294
  22 H :    0.033134
  23 H :    0.028473
  24 H :    0.020766
  25 H :    0.026834

  Mayer bond orders larger than 0.100000
B(  0-C ,  1-S ) :   1.1698 B(  0-C ,  4-C ) :   1.5302 B(  0-C , 15-H ) :   0.9624
B(  1-S ,  2-C ) :   1.1270 B(  2-C ,  3-C ) :   1.5073 B(  2-C , 13-C ) :   1.1065
B(  3-C ,  4-C ) :   1.3079 B(  3-C , 12-C ) :   1.0741 B(  4-C ,  5-C ) :   0.9564
B(  5-C ,  6-C ) :   0.9814 B(  5-C , 10-C ) :   1.0583 B(  5-C , 16-H ) :   0.8830
B(  6-C ,  7-F ) :   1.1210 B(  6-C ,  8-F ) :   1.1200 B(  6-C ,  9-F ) :   1.1345
B( 10-C , 11-C ) :   1.0782 B( 10-C , 17-H ) :   0.9305 B( 10-C , 18-H ) :   0.9297
B( 11-C , 12-C ) :   1.0837 B( 11-C , 19-H ) :   0.9285 B( 11-C , 20-H ) :   0.9402
B( 12-C , 21-H ) :   0.9043 B( 12-C , 22-H ) :   0.9072 B( 13-C , 14-C ) :   1.9195
B( 13-C , 23-H ) :   0.9418 B( 14-C , 24-H ) :   0.9506 B( 14-C , 25-H ) :   0.9413

Dispersion correction           -0.055954697
FINAL SINGLE POINT ENERGY     -1122.922506105303

DIPOLE MOMENT
-------------
                                X             Y             Z
Electronic contribution:      3.24881     -19.41098     -10.69251
Nuclear contribution   :     -3.43043      19.83456      11.35885
                        -----------------------------------------
Total Dipole Moment    :     -0.18162       0.42358       0.66635
                        -----------------------------------------
Magnitude (a.u.)       :      0.81020
Magnitude (Debye)      :      2.05936

Rotational constants in cm-1:     0.032060     0.012740     0.009998
Rotational constants in MHz :   961.133418   381.937506   299.730482

                             ****ORCA TERMINATED NORMALLY****
TOTAL RUN TIME: 0 days 0 hours 15 minutes 48 seconds 535 msec
