                         Program Version 4.2.0 -  RELEASE  -
|  1> # ORCA input file
|  2> # SCF done        -23.097759764116          0.000750637362
|  3> ! B3LYP/G D3BJ Opt RIJCOSX def2-SVP def2/J
|  4> * xyz 0 1
|  5>    C        0.08918        -0.94717        -0.32845
|  6>    O        1.33128        -0.43773        -0.29328
|  7>    C        1.22201         0.87021         0.04387
|  8>    C       -0.10275         1.18567         0.22295
|  9>    C       -0.84223         0.00225        -0.01984
| 10>    C       -2.32028        -0.15767         0.05386
| 11>    C        2.43213         1.64453         0.14910
| 12>    C        2.48673         2.93719         0.45424
| 13>    H       -0.00968        -1.98405        -0.58299
| 14>    H       -0.50430         2.14053         0.49353
| 15>    H       -2.81222         0.54296        -0.62056
| 16>    H       -2.67320         0.04674         1.06430
| 17>    H       -2.60664        -1.17011        -0.21968
| 18>    H        3.33694         1.08408        -0.04543
| 19>    H        1.59900         3.51281         0.65006
| 20>    H        3.42466         3.45943         0.51783
| 21> *
| 22>
| 23>                          ****END OF INPUT****
 Total Charge           Charge          ....    0
 Multiplicity           Mult            ....    1
 Number of Electrons    NEL             ....   58
Dispersion correction           -0.023712639
FINAL SINGLE POINT ENERGY      -346.517422230465
Dispersion correction            ... done
Dispersion correction           -0.023636171
FINAL SINGLE POINT ENERGY      -346.519700190279
Dispersion correction            ... done
Dispersion correction           -0.023612634
FINAL SINGLE POINT ENERGY      -346.519828887882
Dispersion correction            ... done
Dispersion correction           -0.023595993
FINAL SINGLE POINT ENERGY      -346.519883073679
Dispersion correction            ... done
Dispersion correction           -0.023595216
FINAL SINGLE POINT ENERGY      -346.519885702286
Dispersion correction            ... done
                    ***********************HURRAY********************

CARTESIAN COORDINATES (ANGSTROEM)
---------------------------------
  C      0.082156   -0.947979   -0.330667
  O      1.327494   -0.417355   -0.287986
  C      1.209347    0.898855    0.061300
  C     -0.122212    1.196926    0.238513
  C     -0.861448   -0.004865   -0.016803
  C     -2.343851   -0.187964    0.047258
  C      2.441165    1.655877    0.156598
  C      2.541996    2.962186    0.449819
  H      0.012992   -1.995932   -0.610841
  H     -0.532112    2.162396    0.527280
  H     -2.864141    0.490736   -0.646708
  H     -2.730469    0.027975    1.057300
  H     -2.630696   -1.217186   -0.214730
  H      3.344599    1.071457   -0.044118
  H      1.661310    3.578687    0.651702
  H      3.514501    3.455855    0.501594

 Multiplicity           Mult            ....    1
 Number of Electrons    NEL             ....   58
 Basis Dimension        Dim             ....  152

ORBITAL ENERGIES
----------------

  NO   OCC          E(Eh)            E(eV)
   0   2.0000     -19.195730      -522.3424
   1   2.0000     -10.238090      -278.5926
   2   2.0000     -10.231789      -278.4211
   3   2.0000     -10.199671      -277.5471
   4   2.0000     -10.193258      -277.3727
   5   2.0000     -10.191496      -277.3247
   6   2.0000     -10.188828      -277.2521
   7   2.0000     -10.183297      -277.1016
   8   2.0000      -1.099990       -29.9323
   9   2.0000      -0.805411       -21.9163
  10   2.0000      -0.792957       -21.5775
  11   2.0000      -0.722487       -19.6599
  12   2.0000      -0.696347       -18.9486
  13   2.0000      -0.606773       -16.5111
  14   2.0000      -0.579569       -15.7709
  15   2.0000      -0.536973       -14.6118
  16   2.0000      -0.507278       -13.8037
  17   2.0000      -0.466465       -12.6932
  18   2.0000      -0.458533       -12.4773
  19   2.0000      -0.427290       -11.6271
  20   2.0000      -0.419535       -11.4161
  21   2.0000      -0.412891       -11.2353
  22   2.0000      -0.405765       -11.0414
  23   2.0000      -0.384663       -10.4672
  24   2.0000      -0.368740       -10.0339
  25   2.0000      -0.351556        -9.5663
  26   2.0000      -0.307919        -8.3789
  27   2.0000      -0.268129        -7.2962
  28   2.0000      -0.210476        -5.7274
  29   0.0000      -0.033851        -0.9211
  30   0.0000       0.041825         1.1381
  31   0.0000       0.067718         1.8427
  32   0.0000       0.080767         2.1978
  33   0.0000       0.086114         2.3433

MULLIKEN ATOMIC CHARGES
-----------------------
   0 C :    0.077716
   1 O :   -0.215840
   2 C :    0.159785
   3 C :   -0.090869
   4 C :   -0.073997
   5 C :    0.114295
   6 C :    0.008010
   7 C :   -0.032601
   8 H :   -0.004713
   9 H :   -0.027874
  10 H :    0.022537
  11 H :    0.020181
  12 H :    0.003813
  13 H :   -0.002122
  14 H :    0.017234
  15 H :    0.024444
Sum of atomic charges:    0.0000000

LOEWDIN ATOMIC CHARGES
----------------------
   0 C :    0.019938
   1 O :   -0.000364
   2 C :    0.022642
   3 C :   -0.067890
   4 C :   -0.073277
   5 C :   -0.043060
   6 C :   -0.035453
   7 C :   -0.050240
   8 H :    0.019616
   9 H :    0.026143
  10 H :    0.033809
  11 H :    0.033473
  12 H :    0.030247
  13 H :    0.035740
  14 H :    0.022074
  15 H :    0.026602

  Mayer bond orders larger than 0.100000
B(  0-C ,  1-O ) :   1.1324 B(  0-C ,  4-C ) :   1.5332 B(  0-C ,  8-H ) :   1.0029
B(  1-O ,  2-C ) :   1.1177 B(  2-C ,  3-C ) :   1.5040 B(  2-C ,  6-C ) :   1.1053
B(  3-C ,  4-C ) :   1.2371 B(  3-C ,  9-H ) :   1.0040 B(  4-C ,  5-C ) :   1.0861
B(  5-C , 10-H ) :   0.9508 B(  5-C , 11-H ) :   0.9513 B(  5-C , 12-H ) :   0.9550
B(  6-C ,  7-C ) :   1.9171 B(  6-C , 13-H ) :   0.9488 B(  7-C , 14-H ) :   0.9501
B(  7-C , 15-H ) :   0.9463

Dispersion correction           -0.023595575
FINAL SINGLE POINT ENERGY      -346.519885488886

DIPOLE MOMENT
-------------
                                X             Y             Z
Electronic contribution:      3.72288      -2.34955      -0.83907
Nuclear contribution   :     -4.11343       2.37805       0.87031
                        -----------------------------------------
Total Dipole Moment    :     -0.39055       0.02850       0.03124
                        -----------------------------------------
Magnitude (a.u.)       :      0.39283
Magnitude (Debye)      :      0.99850

Rotational constants in cm-1:     0.180345     0.044309     0.035811
Rotational constants in MHz :  5406.593903  1328.361418  1073.572033

                             ****ORCA TERMINATED NORMALLY****
TOTAL RUN TIME: 0 days 0 hours 3 minutes 1 seconds 856 msec
