                         Program Version 4.2.0 -  RELEASE  -
|  1> # ORCA input file
|  2> # SCF done        -19.484917043632          0.000622583671
|  3> ! B3LYP/G D3BJ Opt RIJCOSX def2-SVP def2/J
|  4> * xyz 0 1
|  5>    N       -1.14065        -0.01003         0.07311
|  6>    C       -0.36277        -1.13406         0.05293
|  7>    S       -0.94116        -2.66865         0.06656
|  8>    C        1.00814        -0.67864         0.01699
|  9>    C        1.00416         0.67129         0.01782
| 10>    C       -0.36940         1.11858         0.05421
| 11>    S       -0.95682         2.64973         0.06965
| 12>    H       -2.14938        -0.01301         0.09887
| 13>    H        1.84845        -1.34502        -0.00551
| 14>    H        1.84054         1.34263        -0.00385
| 15> *
| 16>
| 17>                          ****END OF INPUT****
 Total Charge           Charge          ....    0
 Multiplicity           Mult            ....    1
 Number of Electrons    NEL             ....   66
Dispersion correction           -0.021848773
FINAL SINGLE POINT ENERGY     -1005.003598328190
Dispersion correction            ... done
Dispersion correction           -0.021782982
FINAL SINGLE POINT ENERGY     -1005.005504721082
Dispersion correction            ... done
Dispersion correction           -0.021766491
FINAL SINGLE POINT ENERGY     -1005.005669305176
Dispersion correction            ... done
FINAL SINGLE POINT ENERGY     -1005.005699676030
Dispersion correction            ... done
Dispersion correction           -0.021775748
FINAL SINGLE POINT ENERGY     -1005.005706959261
Dispersion correction            ... done
Dispersion correction           -0.021779013
FINAL SINGLE POINT ENERGY     -1005.005709869516
Dispersion correction            ... done
                    ***********************HURRAY********************

CARTESIAN COORDINATES (ANGSTROEM)
---------------------------------
  N     -1.148623   -0.010038    0.072692
  C     -0.379020   -1.156213    0.052453
  S     -0.937615   -2.699527    0.065662
  C      1.016446   -0.679993    0.017388
  C      1.012454    0.672699    0.018197
  C     -0.385820    1.140741    0.053794
  S     -0.953459    2.680736    0.068781
  H     -2.162449   -0.013200    0.101504
  H      1.863580   -1.362771   -0.005684
  H      1.855617    1.360386   -0.004007

 Multiplicity           Mult            ....    1
 Number of Electrons    NEL             ....   66
 Basis Dimension        Dim             ....  121

ORBITAL ENERGIES
----------------

  NO   OCC          E(Eh)            E(eV)
   0   2.0000     -88.833179     -2417.2737
   1   2.0000     -88.833161     -2417.2732
   2   2.0000     -14.401772      -391.8921
   3   2.0000     -10.294278      -280.1215
   4   2.0000     -10.294242      -280.1206
   5   2.0000     -10.234138      -278.4851
   6   2.0000     -10.233545      -278.4689
   7   2.0000      -7.929159      -215.7634
   8   2.0000      -7.929145      -215.7630
   9   2.0000      -5.897191      -160.4707
  10   2.0000      -5.897183      -160.4705
  11   2.0000      -5.895992      -160.4381
  12   2.0000      -5.895988      -160.4380
  13   2.0000      -5.887609      -160.2100
  14   2.0000      -5.887604      -160.2099
  15   2.0000      -1.013504       -27.5788
  16   2.0000      -0.818647       -22.2765
  17   2.0000      -0.818626       -22.2759
  18   2.0000      -0.749378       -20.3916
  19   2.0000      -0.644216       -17.5300
  20   2.0000      -0.629407       -17.1270
  21   2.0000      -0.602501       -16.3949
  22   2.0000      -0.494768       -13.4633
  23   2.0000      -0.478564       -13.0224
  24   2.0000      -0.463119       -12.6021
  25   2.0000      -0.442350       -12.0370
  26   2.0000      -0.406793       -11.0694
  27   2.0000      -0.390864       -10.6360
  28   2.0000      -0.334069        -9.0905
  29   2.0000      -0.307835        -8.3766
  30   2.0000      -0.254091        -6.9142
  31   2.0000      -0.247975        -6.7477
  32   2.0000      -0.236925        -6.4471
  33   0.0000      -0.135161        -3.6779
  34   0.0000      -0.002227        -0.0606
  35   0.0000       0.027089         0.7371
  36   0.0000       0.047249         1.2857
  37   0.0000       0.083658         2.2764

MULLIKEN ATOMIC CHARGES
-----------------------
   0 N :   -0.044059
   1 C :    0.019123
   2 S :   -0.119392
   3 C :    0.044291
   4 C :    0.044174
   5 C :    0.019359
   6 S :   -0.119375
   7 H :    0.129002
   8 H :    0.013414
   9 H :    0.013463
Sum of atomic charges:   -0.0000000

LOEWDIN ATOMIC CHARGES
----------------------
   0 N :    0.036560
   1 C :   -0.126883
   2 S :    0.037725
   3 C :   -0.014853
   4 C :   -0.014838
   5 C :   -0.126868
   6 S :    0.037753
   7 H :    0.091178
   8 H :    0.040111
   9 H :    0.040115

  Mayer bond orders larger than 0.100000
B(  0-N ,  1-C ) :   1.1463 B(  0-N ,  5-C ) :   1.1461 B(  0-N ,  7-H ) :   0.9252
B(  1-C ,  2-S ) :   1.6530 B(  1-C ,  3-C ) :   1.0464 B(  2-S ,  6-S ) :   0.1613
B(  3-C ,  4-C ) :   1.6645 B(  3-C ,  8-H ) :   1.0076 B(  4-C ,  5-C ) :   1.0464
B(  4-C ,  9-H ) :   1.0075 B(  5-C ,  6-S ) :   1.6530

Dispersion correction           -0.021779559
FINAL SINGLE POINT ENERGY     -1005.005711128513

DIPOLE MOMENT
-------------
                                X             Y             Z
Electronic contribution:     -2.38746      -0.00675       0.06052
Nuclear contribution   :      2.79095       0.00794      -0.06967
                        -----------------------------------------
Total Dipole Moment    :      0.40349       0.00119      -0.00915
                        -----------------------------------------
Magnitude (a.u.)       :      0.40359
Magnitude (Debye)      :      1.02585

Rotational constants in cm-1:     0.191672     0.033026     0.028172
Rotational constants in MHz :  5746.175852   990.086170   844.564762

                             ****ORCA TERMINATED NORMALLY****
TOTAL RUN TIME: 0 days 0 hours 2 minutes 32 seconds 569 msec
