                         Program Version 4.2.0 -  RELEASE  -
|  1> # ORCA input file
|  2> # SCF done        -29.540105493600          0.000414559002
|  3> ! B3LYP/G D3BJ Opt RIJCOSX def2-SVP def2/J
|  4> * xyz 0 1
|  5>    C        1.56364         1.21161         0.04627
|  6>    S        2.76166        -0.01937        -0.05875
|  7>    C        1.54842        -1.23506        -0.06858
|  8>    C        0.29484        -0.71509         0.00947
|  9>    C        0.30205         0.70790         0.07224
| 10>    C       -0.95729         1.50866         0.18285
| 11>    C       -2.14788         0.69272        -0.31640
| 12>    C       -2.17445        -0.67090         0.36960
| 13>    C       -0.96955        -1.53087        -0.03955
| 14>    O       -1.14940        -2.11438        -1.31713
| 15>    H        1.86578         2.23941         0.08330
| 16>    H        1.82805        -2.26716        -0.13724
| 17>    H       -0.86227         2.44040        -0.37908
| 18>    H       -1.11781         1.77354         1.23318
| 19>    H       -2.07745         0.56401        -1.39987
| 20>    H       -3.07510         1.22984        -0.10917
| 21>    H       -3.08463        -1.21231         0.10642
| 22>    H       -2.15870        -0.53200         1.45193
| 23>    H       -0.88477        -2.39163         0.63372
| 24>    H       -1.18023        -1.40850        -1.97331
| 25> *
| 26>
| 27>                          ****END OF INPUT****
 Total Charge           Charge          ....    0
 Multiplicity           Mult            ....    1
 Number of Electrons    NEL             ....   82
Dispersion correction           -0.040498382
FINAL SINGLE POINT ENERGY      -783.925666046597
Dispersion correction            ... done
Dispersion correction           -0.040257972
FINAL SINGLE POINT ENERGY      -783.928028181002
Dispersion correction            ... done
Dispersion correction           -0.040206589
FINAL SINGLE POINT ENERGY      -783.928192353646
Dispersion correction            ... done
FINAL SINGLE POINT ENERGY      -783.928212263635
FINAL SINGLE POINT ENERGY      -783.928185714484
FINAL SINGLE POINT ENERGY      -783.928138329530
FINAL SINGLE POINT ENERGY      -783.928027197836
FINAL SINGLE POINT ENERGY      -783.928063036777
Dispersion correction            ... done
Dispersion correction           -0.040225509
FINAL SINGLE POINT ENERGY      -783.928118357147
Dispersion correction            ... done
Dispersion correction           -0.040231809
FINAL SINGLE POINT ENERGY      -783.928102533402
Dispersion correction            ... done
                    ***********************HURRAY********************

CARTESIAN COORDINATES (ANGSTROEM)
---------------------------------
  C      1.580785    1.218859   -0.025765
  S      2.763616   -0.037355   -0.155396
  C      1.547151   -1.258236   -0.084669
  C      0.285928   -0.720570    0.037726
  C      0.303972    0.718375    0.073477
  C     -0.963262    1.520938    0.220239
  C     -2.181080    0.729975   -0.276330
  C     -2.220971   -0.670024    0.341861
  C     -0.992597   -1.526536   -0.016444
  O     -1.131637   -2.144386   -1.295519
  H      1.891239    2.262793   -0.022821
  H      1.814543   -2.311398   -0.158038
  H     -0.871500    2.480886   -0.310907
  H     -1.113288    1.772843    1.286617
  H     -2.146387    0.643861   -1.377100
  H     -3.104814    1.278868   -0.031959
  H     -3.111491   -1.222488    0.004246
  H     -2.287767   -0.579468    1.441013
  H     -0.934112   -2.366434    0.695105
  H     -0.803418   -1.519682   -1.955435

 Multiplicity           Mult            ....    1
 Number of Electrons    NEL             ....   82
 Basis Dimension        Dim             ....  194

ORBITAL ENERGIES
----------------

  NO   OCC          E(Eh)            E(eV)
   0   2.0000     -88.873342     -2418.3666
   1   2.0000     -19.123514      -520.3773
   2   2.0000     -10.236995      -278.5628
   3   2.0000     -10.209686      -277.8197
   4   2.0000     -10.207125      -277.7500
   5   2.0000     -10.195848      -277.4431
   6   2.0000     -10.195195      -277.4254
   7   2.0000     -10.190798      -277.3057
   8   2.0000     -10.190481      -277.2971
   9   2.0000     -10.182853      -277.0895
  10   2.0000      -7.968370      -216.8304
  11   2.0000      -5.936381      -161.5371
  12   2.0000      -5.932242      -161.4245
  13   2.0000      -5.930056      -161.3650
  14   2.0000      -1.003525       -27.3073
  15   2.0000      -0.879962       -23.9450
  16   2.0000      -0.808851       -22.0100
  17   2.0000      -0.747762       -20.3476
  18   2.0000      -0.729417       -19.8485
  19   2.0000      -0.690922       -18.8009
  20   2.0000      -0.628194       -17.0940
  21   2.0000      -0.583047       -15.8655
  22   2.0000      -0.570917       -15.5354
  23   2.0000      -0.532188       -14.4816
  24   2.0000      -0.507495       -13.8096
  25   2.0000      -0.464511       -12.6400
  26   2.0000      -0.458320       -12.4715
  27   2.0000      -0.433043       -11.7837
  28   2.0000      -0.430036       -11.7019
  29   2.0000      -0.412739       -11.2312
  30   2.0000      -0.402874       -10.9628
  31   2.0000      -0.401759       -10.9324
  32   2.0000      -0.368295       -10.0218
  33   2.0000      -0.354987        -9.6597
  34   2.0000      -0.350108        -9.5269
  35   2.0000      -0.341001        -9.2791
  36   2.0000      -0.336767        -9.1639
  37   2.0000      -0.313617        -8.5339
  38   2.0000      -0.272490        -7.4148
  39   2.0000      -0.246002        -6.6941
  40   2.0000      -0.233907        -6.3649
  41   0.0000      -0.022766        -0.6195
  42   0.0000       0.042378         1.1532
  43   0.0000       0.049653         1.3511
  44   0.0000       0.049982         1.3601
  45   0.0000       0.073780         2.0077

MULLIKEN ATOMIC CHARGES
-----------------------
   0 C :   -0.145902
   1 S :    0.101012
   2 C :   -0.121915
   3 C :   -0.081271
   4 C :   -0.043567
   5 C :    0.152840
   6 C :   -0.015582
   7 C :    0.057588
   8 C :    0.236566
   9 O :   -0.308130
  10 H :    0.010174
  11 H :    0.020154
  12 H :   -0.006474
  13 H :    0.009755
  14 H :   -0.001456
  15 H :   -0.002320
  16 H :   -0.001677
  17 H :   -0.004637
  18 H :   -0.012408
  19 H :    0.157250
Sum of atomic charges:   -0.0000000

LOEWDIN ATOMIC CHARGES
----------------------
   0 C :   -0.206221
   1 S :    0.431929
   2 C :   -0.189244
   3 C :   -0.093878
   4 C :   -0.066270
   5 C :   -0.022645
   6 C :   -0.032798
   7 C :   -0.042566
   8 C :    0.073064
   9 O :   -0.136483
  10 H :    0.021407
  11 H :    0.025913
  12 H :    0.027747
  13 H :    0.031249
  14 H :    0.016378
  15 H :    0.023657
  16 H :    0.026272
  17 H :    0.022046
  18 H :    0.022834
  19 H :    0.067609

  Mayer bond orders larger than 0.100000
B(  0-C ,  1-S ) :   1.1588 B(  0-C ,  4-C ) :   1.5475 B(  0-C , 10-H ) :   0.9647
B(  1-S ,  2-C ) :   1.1787 B(  2-C ,  3-C ) :   1.5358 B(  2-C , 11-H ) :   0.9646
B(  3-C ,  4-C ) :   1.2958 B(  3-C ,  8-C ) :   1.0014 B(  4-C ,  5-C ) :   1.0426
B(  5-C ,  6-C ) :   1.0880 B(  5-C , 12-H ) :   0.9174 B(  5-C , 13-H ) :   0.9124
B(  6-C ,  7-C ) :   1.0690 B(  6-C , 14-H ) :   0.9433 B(  6-C , 15-H ) :   0.9324
B(  7-C ,  8-C ) :   1.0417 B(  7-C , 16-H ) :   0.9226 B(  7-C , 17-H ) :   0.9280
B(  8-C ,  9-O ) :   1.0525 B(  8-C , 18-H ) :   0.9000 B(  9-O , 19-H ) :   0.9793

Dispersion correction           -0.040234506
FINAL SINGLE POINT ENERGY      -783.928098614213

DIPOLE MOMENT
-------------
                                X             Y             Z
Electronic contribution:     11.77446      -1.88284      -0.87263
Nuclear contribution   :    -11.80703       2.50229       0.97338
                        -----------------------------------------
Total Dipole Moment    :     -0.03258       0.61945       0.10075
                        -----------------------------------------
Magnitude (a.u.)       :      0.62844
Magnitude (Debye)      :      1.59736

Rotational constants in cm-1:     0.068551     0.031535     0.023289
Rotational constants in MHz :  2055.115631   945.403508   698.187779

                             ****ORCA TERMINATED NORMALLY****
TOTAL RUN TIME: 0 days 0 hours 12 minutes 32 seconds 838 msec
