                         Program Version 4.2.0 -  RELEASE  -
|  1> # ORCA input file
|  2> # SCF done        -14.645030678627          0.000428383430
|  3> ! B3LYP/G D3BJ Opt RIJCOSX def2-SVP def2/J
|  4> * xyz 0 1
|  5>    C       -0.20611         1.08485        -0.00462
|  6>    O       -1.06874         0.05607        -0.01136
|  7>    C       -0.33744        -1.06986        -0.00436
|  8>    C        0.99089        -0.77933         0.00620
|  9>    C        1.07712         0.63515         0.00444
| 10>    H       -0.61954         2.07392        -0.00821
| 11>    H       -0.86793        -2.00140        -0.00793
| 12>    H        1.80461        -1.47506         0.01332
| 13>    H        1.96931         1.22691         0.01014
| 14> *
| 15>
| 16>                          ****END OF INPUT****
 Total Charge           Charge          ....    0
 Multiplicity           Mult            ....    1
 Number of Electrons    NEL             ....   36
Dispersion correction           -0.011002509
FINAL SINGLE POINT ENERGY      -229.865769068612
Dispersion correction            ... done
Dispersion correction           -0.011047476
FINAL SINGLE POINT ENERGY      -229.867292965304
Dispersion correction            ... done
Dispersion correction           -0.011055592
FINAL SINGLE POINT ENERGY      -229.867365952289
Dispersion correction            ... done
FINAL SINGLE POINT ENERGY      -229.867395254864
Dispersion correction            ... done
Dispersion correction           -0.011059004
FINAL SINGLE POINT ENERGY      -229.867397115685
Dispersion correction            ... done
Dispersion correction           -0.011058218
FINAL SINGLE POINT ENERGY      -229.867398174104
Dispersion correction            ... done
                    ***********************HURRAY********************

CARTESIAN COORDINATES (ANGSTROEM)
---------------------------------
  C     -0.201752    1.099343   -0.005188
  O     -1.069500    0.055930   -0.010709
  C     -0.335090   -1.085030   -0.004244
  C      0.998428   -0.789303    0.005426
  C      1.086160    0.644231    0.004893
  H     -0.647037    2.090854   -0.009249
  H     -0.897277   -2.014851   -0.007500
  H      1.820002   -1.501701    0.012648
  H      1.988236    1.251778    0.011543

 Multiplicity           Mult            ....    1
 Number of Electrons    NEL             ....   36
 Basis Dimension        Dim             ....   90

ORBITAL ENERGIES
----------------

  NO   OCC          E(Eh)            E(eV)
   0   2.0000     -19.200317      -522.4672
   1   2.0000     -10.235928      -278.5338
   2   2.0000     -10.235882      -278.5325
   3   2.0000     -10.188065      -277.2313
   4   2.0000     -10.187837      -277.2251
   5   2.0000      -1.103244       -30.0208
   6   2.0000      -0.790386       -21.5075
   7   2.0000      -0.739739       -20.1293
   8   2.0000      -0.597051       -16.2466
   9   2.0000      -0.562643       -15.3103
  10   2.0000      -0.539990       -14.6939
  11   2.0000      -0.453803       -12.3486
  12   2.0000      -0.446767       -12.1571
  13   2.0000      -0.411488       -11.1972
  14   2.0000      -0.400656       -10.9024
  15   2.0000      -0.372631       -10.1398
  16   2.0000      -0.282597        -7.6899
  17   2.0000      -0.234016        -6.3679
  18   0.0000       0.008311         0.2262
  19   0.0000       0.063670         1.7325
  20   0.0000       0.079386         2.1602
  21   0.0000       0.109380         2.9764
  22   0.0000       0.110571         3.0088

MULLIKEN ATOMIC CHARGES
-----------------------
   0 C :    0.124460
   1 O :   -0.212447
   2 C :    0.125528
   3 C :   -0.026787
   4 C :   -0.024749
   5 H :    0.009655
   6 H :    0.009218
   7 H :   -0.001699
   8 H :   -0.003178
Sum of atomic charges:   -0.0000000

LOEWDIN ATOMIC CHARGES
----------------------
   0 C :    0.027025
   1 O :    0.001256
   2 C :    0.027065
   3 C :   -0.079425
   4 C :   -0.079021
   5 H :    0.021706
   6 H :    0.021584
   7 H :    0.030003
   8 H :    0.029807

  Mayer bond orders larger than 0.100000
B(  0-C ,  1-O ) :   1.1403 B(  0-C ,  2-C ) :   0.1002 B(  0-C ,  4-C ) :   1.5623
B(  0-C ,  5-H ) :   1.0000 B(  1-O ,  2-C ) :   1.1409 B(  2-C ,  3-C ) :   1.5614
B(  2-C ,  6-H ) :   1.0004 B(  3-C ,  4-C ) :   1.2217 B(  3-C ,  7-H ) :   1.0019
B(  4-C ,  8-H ) :   1.0026

Dispersion correction           -0.011058047
FINAL SINGLE POINT ENERGY      -229.867397781699

DIPOLE MOMENT
-------------
                                X             Y             Z
Electronic contribution:     -1.68628       0.10338      -0.01323
Nuclear contribution   :      1.89999      -0.11524       0.01530
                        -----------------------------------------
Total Dipole Moment    :      0.21371      -0.01186       0.00207
                        -----------------------------------------
Magnitude (a.u.)       :      0.21405
Magnitude (Debye)      :      0.54407

Rotational constants in cm-1:     0.315024     0.308544     0.155875
Rotational constants in MHz :  9444.185686  9249.921776  4673.022219

                             ****ORCA TERMINATED NORMALLY****
TOTAL RUN TIME: 0 days 0 hours 1 minutes 6 seconds 577 msec
