                         Program Version 4.2.0 -  RELEASE  -
|  1> # ORCA input file
|  2> # SCF done        -50.793722506621          0.000180381672
|  3> ! B3LYP/G D3BJ Opt RIJCOSX def2-SVP def2/J
|  4> * xyz 0 1
|  5>    C        0.22191         1.28146         0.23937
|  6>    S       -0.88079        -0.01727         0.25325
|  7>    C        0.39248        -1.17769         0.06879
|  8>    C        1.61891        -0.54703         0.00211
|  9>    C        1.51508         0.86674         0.10083
| 10>    C        2.65039         1.84630         0.06372
| 11>    F        2.19943         3.10669         0.18235
| 12>    F        3.52435         1.66879         1.06246
| 13>    F        3.33700         1.80385        -1.08514
| 14>    C        2.88394        -1.33334        -0.15713
| 15>    F        3.05360        -2.21100         0.85200
| 16>    F        2.87141        -2.07209        -1.28471
| 17>    F        3.98785        -0.59405        -0.20307
| 18>    C        0.12195        -2.59168         0.00289
| 19>    C       -1.09732        -3.11598         0.08378
| 20>    H       -0.12471         2.29145         0.33346
| 21>    H        0.98223        -3.23344        -0.11913
| 22>    H       -1.97275        -2.49893         0.20625
| 23>    H       -1.25345        -4.17807         0.03013
| 24> *
| 25>
| 26>                          ****END OF INPUT****
 Total Charge           Charge          ....    0
 Multiplicity           Mult            ....    1
 Number of Electrons    NEL             ....  122
Dispersion correction           -0.039280114
FINAL SINGLE POINT ENERGY     -1303.737057819519
Dispersion correction            ... done
Dispersion correction           -0.039061551
FINAL SINGLE POINT ENERGY     -1303.739416303063
Dispersion correction            ... done
Dispersion correction           -0.039038081
FINAL SINGLE POINT ENERGY     -1303.739471702210
Dispersion correction            ... done
FINAL SINGLE POINT ENERGY     -1303.739357416244
FINAL SINGLE POINT ENERGY     -1303.739278512108
FINAL SINGLE POINT ENERGY     -1303.739228614566
FINAL SINGLE POINT ENERGY     -1303.739270830675
Dispersion correction            ... done
Dispersion correction           -0.039038705
FINAL SINGLE POINT ENERGY     -1303.739314067574
Dispersion correction            ... done
Dispersion correction           -0.039037669
FINAL SINGLE POINT ENERGY     -1303.739316142820
Dispersion correction            ... done
                    ***********************HURRAY********************

CARTESIAN COORDINATES (ANGSTROEM)
---------------------------------
  C      0.249439    1.297282    0.316310
  S     -0.858254   -0.011894    0.390974
  C      0.407572   -1.181639    0.143087
  C      1.641834   -0.553436    0.034385
  C      1.542253    0.878187    0.118932
  C      2.653058    1.891152    0.014786
  F      2.139674    3.135492   -0.003007
  F      3.497370    1.829202    1.054886
  F      3.370604    1.744838   -1.108552
  C      2.899926   -1.364761   -0.159858
  F      3.019054   -2.301413    0.804946
  F      2.885885   -2.029552   -1.332014
  F      4.010855   -0.622358   -0.128956
  C      0.107217   -2.604069    0.045665
  C     -1.123704   -3.137399    0.025235
  H     -0.092249    2.324021    0.423675
  H      0.975471   -3.260845   -0.031527
  H     -2.026442   -2.522044    0.082920
  H     -1.268052   -4.216054   -0.059677

 Multiplicity           Mult            ....    1
 Number of Electrons    NEL             ....  122
 Basis Dimension        Dim             ....  234

ORBITAL ENERGIES
----------------

  NO   OCC          E(Eh)            E(eV)
   0   2.0000     -88.908024     -2419.3103
   1   2.0000     -24.729178      -672.9151
   2   2.0000     -24.725670      -672.8197
   3   2.0000     -24.724390      -672.7848
   4   2.0000     -24.723962      -672.7732
   5   2.0000     -24.721043      -672.6938
   6   2.0000     -24.720544      -672.6802
   7   2.0000     -10.448498      -284.3181
   8   2.0000     -10.445595      -284.2391
   9   2.0000     -10.256159      -279.0843
  10   2.0000     -10.248933      -278.8877
  11   2.0000     -10.240102      -278.6473
  12   2.0000     -10.239887      -278.6415
  13   2.0000     -10.225349      -278.2459
  14   2.0000     -10.215281      -277.9719
  15   2.0000      -8.003309      -217.7811
  16   2.0000      -5.971248      -162.4859
  17   2.0000      -5.967238      -162.3768
  18   2.0000      -5.964771      -162.3097
  19   2.0000      -1.307445       -35.5774
  20   2.0000      -1.303241       -35.4630
  21   2.0000      -1.217000       -33.1163
  22   2.0000      -1.210788       -32.9472
  23   2.0000      -1.209753       -32.9191
  24   2.0000      -1.209329       -32.9075
  25   2.0000      -0.923951       -25.1420
  26   2.0000      -0.819983       -22.3129
  27   2.0000      -0.801264       -21.8035
  28   2.0000      -0.766708       -20.8632
  29   2.0000      -0.701949       -19.1010
  30   2.0000      -0.693733       -18.8774
  31   2.0000      -0.641965       -17.4688
  32   2.0000      -0.624793       -17.0015
  33   2.0000      -0.617571       -16.8050
  34   2.0000      -0.599777       -16.3208
  35   2.0000      -0.599236       -16.3060
  36   2.0000      -0.597032       -16.2461
  37   2.0000      -0.595750       -16.2112
  38   2.0000      -0.548861       -14.9353
  39   2.0000      -0.525080       -14.2881
  40   2.0000      -0.489242       -13.3130
  41   2.0000      -0.479896       -13.0586
  42   2.0000      -0.477988       -13.0067
  43   2.0000      -0.473436       -12.8829
  44   2.0000      -0.472369       -12.8538
  45   2.0000      -0.455775       -12.4023
  46   2.0000      -0.449970       -12.2443
  47   2.0000      -0.447579       -12.1793
  48   2.0000      -0.440818       -11.9953
  49   2.0000      -0.434376       -11.8200
  50   2.0000      -0.424590       -11.5537
  51   2.0000      -0.417943       -11.3728
  52   2.0000      -0.415777       -11.3139
  53   2.0000      -0.412834       -11.2338
  54   2.0000      -0.410604       -11.1731
  55   2.0000      -0.397538       -10.8176
  56   2.0000      -0.392772       -10.6879
  57   2.0000      -0.366635        -9.9766
  58   2.0000      -0.333178        -9.0662
  59   2.0000      -0.293163        -7.9774
  60   2.0000      -0.252747        -6.8776
  61   0.0000      -0.080498        -2.1905
  62   0.0000      -0.016850        -0.4585
  63   0.0000       0.007379         0.2008
  64   0.0000       0.035374         0.9626
  65   0.0000       0.060496         1.6462

MULLIKEN ATOMIC CHARGES
-----------------------
   0 C :   -0.092486
   1 S :    0.149103
   2 C :   -0.154334
   3 C :   -0.039548
   4 C :   -0.116812
   5 C :    0.566807
   6 F :   -0.171578
   7 F :   -0.163927
   8 F :   -0.165279
   9 C :    0.547301
  10 F :   -0.176251
  11 F :   -0.171465
  12 F :   -0.150578
  13 C :    0.032263
  14 C :   -0.029596
  15 H :    0.047116
  16 H :    0.019894
  17 H :    0.028797
  18 H :    0.040574
Sum of atomic charges:   -0.0000000

LOEWDIN ATOMIC CHARGES
----------------------
   0 C :   -0.161915
   1 S :    0.477785
   2 C :   -0.148117
   3 C :   -0.107611
   4 C :   -0.109719
   5 C :    0.167859
   6 F :   -0.062055
   7 F :   -0.058124
   8 F :   -0.057141
   9 C :    0.175524
  10 F :   -0.066118
  11 F :   -0.064715
  12 F :   -0.043866
  13 C :   -0.040339
  14 C :   -0.029724
  15 H :    0.035992
  16 H :    0.036994
  17 H :    0.020677
  18 H :    0.034612

  Mayer bond orders larger than 0.100000
B(  0-C ,  1-S ) :   1.1758 B(  0-C ,  4-C ) :   1.5699 B(  0-C , 15-H ) :   0.9642
B(  1-S ,  2-C ) :   1.1468 B(  2-C ,  3-C ) :   1.5053 B(  2-C , 13-C ) :   1.1386
B(  3-C ,  4-C ) :   1.2897 B(  3-C ,  9-C ) :   0.9446 B(  4-C ,  5-C ) :   0.9498
B(  5-C ,  6-F ) :   1.1351 B(  5-C ,  7-F ) :   1.1596 B(  5-C ,  8-F ) :   1.1488
B(  9-C , 10-F ) :   1.1189 B(  9-C , 11-F ) :   1.1415 B(  9-C , 12-F ) :   1.1483
B( 13-C , 14-C ) :   1.9011 B( 13-C , 16-H ) :   0.9405 B( 14-C , 17-H ) :   0.9546
B( 14-C , 18-H ) :   0.9452

Dispersion correction           -0.039038545
FINAL SINGLE POINT ENERGY     -1303.739297605065

DIPOLE MOMENT
-------------
                                X             Y             Z
Electronic contribution:     15.13602       8.78958      -0.94164
Nuclear contribution   :    -16.56307      -9.06663       1.08259
                        -----------------------------------------
Total Dipole Moment    :     -1.42705      -0.27705       0.14094
                        -----------------------------------------
Magnitude (a.u.)       :      1.46052
Magnitude (Debye)      :      3.71234

Rotational constants in cm-1:     0.024854     0.015755     0.010743
Rotational constants in MHz :   745.089323   472.319788   322.068372

                             ****ORCA TERMINATED NORMALLY****
TOTAL RUN TIME: 0 days 0 hours 17 minutes 36 seconds 738 msec
