                         Program Version 4.2.0 -  RELEASE  -
|  1> # ORCA input file
|  2> # SCF done        -16.894294471805          0.000345268360
|  3> ! B3LYP/G D3BJ Opt RIJCOSX def2-SVP def2/J
|  4> * xyz 0 1
|  5>    C        0.00350         1.26487         0.01005
|  6>    N       -1.17283         0.65157         0.01070
|  7>    N       -1.17581        -0.64564         0.01477
|  8>    C       -0.00230        -1.26433         0.01799
|  9>    N        1.17403        -0.65105         0.01268
| 10>    N        1.17701         0.64617         0.00860
| 11>    H        0.00598         2.34485         0.00878
| 12>    H       -0.00478        -2.34430         0.02356
| 13> *
| 14>
| 15>                          ****END OF INPUT****
 Total Charge           Charge          ....    0
 Multiplicity           Mult            ....    1
 Number of Electrons    NEL             ....   42
Dispersion correction           -0.012238149
FINAL SINGLE POINT ENERGY      -296.105016744979
Dispersion correction            ... done
Dispersion correction           -0.012212867
FINAL SINGLE POINT ENERGY      -296.106520781741
Dispersion correction            ... done
Dispersion correction           -0.012209778
FINAL SINGLE POINT ENERGY      -296.106615436154
Dispersion correction            ... done
Dispersion correction           -0.012210001
FINAL SINGLE POINT ENERGY      -296.106622757768
Dispersion correction            ... done
                    ***********************HURRAY********************

CARTESIAN COORDINATES (ANGSTROEM)
---------------------------------
  C      0.003500    1.268333    0.009565
  N     -1.187425    0.661909    0.012073
  N     -1.190423   -0.655874    0.016106
  C     -0.002298   -1.267797    0.017424
  N      1.188624   -0.661377    0.013985
  N      1.191622    0.656406    0.009952
  H      0.006019    2.362889    0.006508
  H     -0.004819   -2.362350    0.021517

 Multiplicity           Mult            ....    1
 Number of Electrons    NEL             ....   42
 Basis Dimension        Dim             ....   94

ORBITAL ENERGIES
----------------

  NO   OCC          E(Eh)            E(eV)
   0   2.0000     -14.407895      -392.0588
   1   2.0000     -14.407866      -392.0580
   2   2.0000     -14.407833      -392.0571
   3   2.0000     -14.407811      -392.0565
   4   2.0000     -10.292729      -280.0794
   5   2.0000     -10.292646      -280.0771
   6   2.0000      -1.105065       -30.0703
   7   2.0000      -1.015744       -27.6398
   8   2.0000      -0.894374       -24.3372
   9   2.0000      -0.764315       -20.7981
  10   2.0000      -0.726352       -19.7650
  11   2.0000      -0.609366       -16.5817
  12   2.0000      -0.548883       -14.9359
  13   2.0000      -0.516047       -14.0423
  14   2.0000      -0.502222       -13.6662
  15   2.0000      -0.398291       -10.8380
  16   2.0000      -0.379085       -10.3154
  17   2.0000      -0.363045        -9.8789
  18   2.0000      -0.355268        -9.6673
  19   2.0000      -0.334188        -9.0937
  20   2.0000      -0.249489        -6.7889
  21   0.0000      -0.119210        -3.2439
  22   0.0000      -0.078993        -2.1495
  23   0.0000       0.070008         1.9050
  24   0.0000       0.081355         2.2138
  25   0.0000       0.084990         2.3127

MULLIKEN ATOMIC CHARGES
-----------------------
   0 C :    0.069782
   1 N :   -0.060775
   2 N :   -0.060885
   3 C :    0.069784
   4 N :   -0.060778
   5 N :   -0.060891
   6 H :    0.051883
   7 H :    0.051881
Sum of atomic charges:   -0.0000000

LOEWDIN ATOMIC CHARGES
----------------------
   0 C :    0.011489
   1 N :   -0.023951
   2 N :   -0.023967
   3 C :    0.011489
   4 N :   -0.023956
   5 N :   -0.023971
   6 H :    0.036433
   7 H :    0.036433

  Mayer bond orders larger than 0.100000
B(  0-C ,  1-N ) :   1.4929 B(  0-C ,  5-N ) :   1.4929 B(  0-C ,  6-H ) :   0.9743
B(  1-N ,  2-N ) :   1.3362 B(  1-N ,  4-N ) :   0.1089 B(  2-N ,  3-C ) :   1.4929
B(  2-N ,  5-N ) :   0.1089 B(  3-C ,  4-N ) :   1.4929 B(  3-C ,  7-H ) :   0.9743
B(  4-N ,  5-N ) :   1.3362

Dispersion correction           -0.012210279
FINAL SINGLE POINT ENERGY      -296.106622348863

DIPOLE MOMENT
-------------
                                X             Y             Z
Electronic contribution:     -0.00002      -0.00000      -0.00050
Nuclear contribution   :      0.00000       0.00001       0.00154
                        -----------------------------------------
Total Dipole Moment    :     -0.00002       0.00001       0.00104
                        -----------------------------------------
Magnitude (a.u.)       :      0.00104
Magnitude (Debye)      :      0.00264

Rotational constants in cm-1:     0.227176     0.212639     0.109834
Rotational constants in MHz :  6810.551910  6374.757087  3292.726547

                             ****ORCA TERMINATED NORMALLY****
TOTAL RUN TIME: 0 days 0 hours 1 minutes 0 seconds 179 msec
