                         Program Version 4.2.0 -  RELEASE  -
|  1> # ORCA input file
|  2> # SCF done        -21.960572518599          0.000196732088
|  3> ! B3LYP/G D3BJ Opt RIJCOSX def2-SVP def2/J
|  4> * xyz 0 1
|  5>    C       -1.11418        -0.05188         0.00209
|  6>    O       -0.32664         1.04419         0.00095
|  7>    C        0.94755         0.62711         0.00019
|  8>    C        1.00094        -0.73648         0.00077
|  9>    C       -0.35404        -1.18518         0.00197
| 10>    O       -0.80031        -2.46045         0.00285
| 11>    S        2.41397        -1.79015         0.00022
| 12>    H       -2.17446         0.08815         0.00278
| 13>    H        1.72086         1.36896        -0.00089
| 14>    H       -0.04322        -3.05950         0.00246
| 15>    H        3.30359        -0.80532        -0.00696
| 16> *
| 17>
| 18>                          ****END OF INPUT****
 Total Charge           Charge          ....    0
 Multiplicity           Mult            ....    1
 Number of Electrons    NEL             ....   60
Dispersion correction           -0.018668461
FINAL SINGLE POINT ENERGY      -703.107233379378
Dispersion correction            ... done
Dispersion correction           -0.018680591
FINAL SINGLE POINT ENERGY      -703.108543573909
Dispersion correction            ... done
Dispersion correction           -0.018678919
FINAL SINGLE POINT ENERGY      -703.108690204475
Dispersion correction            ... done
FINAL SINGLE POINT ENERGY      -703.108790663867
FINAL SINGLE POINT ENERGY      -703.109143769600
FINAL SINGLE POINT ENERGY      -703.110297048216
FINAL SINGLE POINT ENERGY      -703.111702576173
FINAL SINGLE POINT ENERGY      -703.113105964694
FINAL SINGLE POINT ENERGY      -703.114377757864
FINAL SINGLE POINT ENERGY      -703.115229737162
FINAL SINGLE POINT ENERGY      -703.115704584677
FINAL SINGLE POINT ENERGY      -703.115959643596
FINAL SINGLE POINT ENERGY      -703.116130121093
Dispersion correction            ... done
Dispersion correction           -0.018771040
FINAL SINGLE POINT ENERGY      -703.116189384798
Dispersion correction            ... done
Dispersion correction           -0.018770014
FINAL SINGLE POINT ENERGY      -703.116192284336
Dispersion correction            ... done
                    ***********************HURRAY********************

CARTESIAN COORDINATES (ANGSTROEM)
---------------------------------
  C     -1.123894   -0.071992   -0.108102
  O     -0.410089    1.091840    0.031701
  C      0.883080    0.776342    0.210301
  C      1.046418   -0.584970    0.186560
  C     -0.272092   -1.139792   -0.017270
  O     -0.572200   -2.449441   -0.100672
  S      2.502251   -1.543442    0.475981
  H     -2.191537    0.023504   -0.275404
  H      1.583351    1.595519    0.350180
  H      0.250269   -2.939412    0.069642
  H      2.878502   -1.718707   -0.816486

 Multiplicity           Mult            ....    1
 Number of Electrons    NEL             ....   60
 Basis Dimension        Dim             ....  122

ORBITAL ENERGIES
----------------

  NO   OCC          E(Eh)            E(eV)
   0   2.0000     -88.866919     -2418.1918
   1   2.0000     -19.208258      -522.6833
   2   2.0000     -19.167850      -521.5837
   3   2.0000     -10.251907      -278.9686
   4   2.0000     -10.250030      -278.9175
   5   2.0000     -10.231176      -278.4045
   6   2.0000     -10.216581      -278.0073
   7   2.0000      -7.960283      -216.6103
   8   2.0000      -5.929355      -161.3460
   9   2.0000      -5.925754      -161.2480
  10   2.0000      -5.919547      -161.0791
  11   2.0000      -1.111594       -30.2480
  12   2.0000      -1.054832       -28.7034
  13   2.0000      -0.820446       -22.3255
  14   2.0000      -0.758052       -20.6276
  15   2.0000      -0.726769       -19.7764
  16   2.0000      -0.612858       -16.6767
  17   2.0000      -0.579858       -15.7788
  18   2.0000      -0.543422       -14.7873
  19   2.0000      -0.502611       -13.6767
  20   2.0000      -0.471535       -12.8311
  21   2.0000      -0.455223       -12.3872
  22   2.0000      -0.437388       -11.9019
  23   2.0000      -0.406408       -11.0589
  24   2.0000      -0.391784       -10.6610
  25   2.0000      -0.369474       -10.0539
  26   2.0000      -0.360542        -9.8109
  27   2.0000      -0.269061        -7.3215
  28   2.0000      -0.265390        -7.2216
  29   2.0000      -0.224183        -6.1003
  30   0.0000      -0.010114        -0.2752
  31   0.0000       0.026503         0.7212
  32   0.0000       0.055028         1.4974
  33   0.0000       0.065085         1.7711
  34   0.0000       0.081984         2.2309

MULLIKEN ATOMIC CHARGES
-----------------------
   0 C :    0.029533
   1 O :   -0.202684
   2 C :    0.102178
   3 C :   -0.141259
   4 C :    0.160162
   5 O :   -0.194439
   6 S :   -0.010971
   7 H :    0.006528
   8 H :    0.013168
   9 H :    0.168773
  10 H :    0.069012
Sum of atomic charges:    0.0000000

LOEWDIN ATOMIC CHARGES
----------------------
   0 C :   -0.019351
   1 O :    0.009749
   2 C :    0.034169
   3 C :   -0.274402
   4 C :   -0.009212
   5 O :   -0.053945
   6 S :    0.204473
   7 H :    0.023977
   8 H :    0.026028
   9 H :    0.077445
  10 H :   -0.018932

  Mayer bond orders larger than 0.100000
B(  0-C ,  1-O ) :   1.0759 B(  0-C ,  2-C ) :   0.1075 B(  0-C ,  4-C ) :   1.5169
B(  0-C ,  7-H ) :   1.0113 B(  1-O ,  2-C ) :   1.1926 B(  2-C ,  3-C ) :   1.5277
B(  2-C ,  8-H ) :   1.0049 B(  3-C ,  4-C ) :   1.2149 B(  3-C ,  6-S ) :   1.0214
B(  4-C ,  5-O ) :   1.2214 B(  5-O ,  9-H ) :   0.9398 B(  6-S , 10-H ) :   0.9424

Dispersion correction           -0.018770472
FINAL SINGLE POINT ENERGY      -703.116196166799

DIPOLE MOMENT
-------------
                                X             Y             Z
Electronic contribution:      0.58901      -0.01762       0.92617
Nuclear contribution   :     -0.09621      -0.03028      -1.18633
                        -----------------------------------------
Total Dipole Moment    :      0.49279      -0.04790      -0.26016
                        -----------------------------------------
Magnitude (a.u.)       :      0.55931
Magnitude (Debye)      :      1.42165

Rotational constants in cm-1:     0.121434     0.066176     0.043218
Rotational constants in MHz :  3640.514689  1983.895830  1295.654320

                             ****ORCA TERMINATED NORMALLY****
TOTAL RUN TIME: 0 days 0 hours 6 minutes 9 seconds 765 msec
