                         Program Version 4.2.0 -  RELEASE  -
|  1> # ORCA input file
|  2> # SCF done        -24.142436455505          0.000479559551
|  3> ! B3LYP/G D3BJ Opt RIJCOSX def2-SVP def2/J
|  4> * xyz 0 1
|  5>    C       -1.56421        -1.12356         0.06273
|  6>    N       -2.31776         0.00037         0.09403
|  7>    C       -1.56410         1.12423         0.06314
|  8>    C       -0.23998         0.72464         0.01023
|  9>    C       -0.24006        -0.72408         0.00997
| 10>    N        0.90661        -1.43184        -0.03625
| 11>    C        1.99287        -0.71003        -0.07949
| 12>    C        1.99294         0.71039        -0.07922
| 13>    N        0.90676         1.43230        -0.03571
| 14>    H       -1.99509        -2.10334         0.07962
| 15>    H       -3.32578         0.00042         0.13464
| 16>    H       -1.99488         2.10405         0.08038
| 17>    H        2.92839        -1.25242        -0.11641
| 18>    H        2.92852         1.25269        -0.11594
| 19> *
| 20>
| 21>                          ****END OF INPUT****
 Total Charge           Charge          ....    0
 Multiplicity           Mult            ....    1
 Number of Electrons    NEL             ....   62
Dispersion correction           -0.025805374
FINAL SINGLE POINT ENERGY      -395.614496615502
Dispersion correction            ... done
Dispersion correction           -0.025842618
FINAL SINGLE POINT ENERGY      -395.616691295139
Dispersion correction            ... done
Dispersion correction           -0.025844338
FINAL SINGLE POINT ENERGY      -395.616791610142
Dispersion correction            ... done
Dispersion correction           -0.025840135
FINAL SINGLE POINT ENERGY      -395.616824665048
Dispersion correction            ... done
Dispersion correction           -0.025836906
FINAL SINGLE POINT ENERGY      -395.616829713717
Dispersion correction            ... done
                    ***********************HURRAY********************

CARTESIAN COORDINATES (ANGSTROEM)
---------------------------------
  C     -1.574732   -1.141321    0.061976
  N     -2.328788    0.000371    0.092986
  C     -1.574616    1.141996    0.062380
  C     -0.241724    0.726818    0.007397
  C     -0.241798   -0.726259    0.007128
  N      0.909599   -1.443412   -0.038610
  C      2.003632   -0.718913   -0.078680
  C      2.003706    0.719270   -0.078407
  N      0.909748    1.443867   -0.038063
  H     -2.018437   -2.132238    0.082711
  H     -3.340704    0.000416    0.138799
  H     -2.018218    2.132952    0.083476
  H      2.963216   -1.248698   -0.115927
  H      2.963344    1.248971   -0.115446

 Multiplicity           Mult            ....    1
 Number of Electrons    NEL             ....   62
 Basis Dimension        Dim             ....  151

ORBITAL ENERGIES
----------------

  NO   OCC          E(Eh)            E(eV)
   0   2.0000     -14.407967      -392.0607
   1   2.0000     -14.330141      -389.9430
   2   2.0000     -14.330018      -389.9396
   3   2.0000     -10.222291      -278.1627
   4   2.0000     -10.222102      -278.1575
   5   2.0000     -10.221623      -278.1445
   6   2.0000     -10.221593      -278.1437
   7   2.0000     -10.212472      -277.8955
   8   2.0000     -10.212268      -277.8900
   9   2.0000      -0.998176       -27.1617
  10   2.0000      -0.953844       -25.9554
  11   2.0000      -0.894646       -24.3446
  12   2.0000      -0.777130       -21.1468
  13   2.0000      -0.733761       -19.9667
  14   2.0000      -0.682326       -18.5670
  15   2.0000      -0.626594       -17.0505
  16   2.0000      -0.580211       -15.7883
  17   2.0000      -0.561365       -15.2755
  18   2.0000      -0.502153       -13.6643
  19   2.0000      -0.491161       -13.3652
  20   2.0000      -0.480274       -13.0689
  21   2.0000      -0.447999       -12.1907
  22   2.0000      -0.444203       -12.0874
  23   2.0000      -0.405375       -11.0308
  24   2.0000      -0.401177       -10.9166
  25   2.0000      -0.390164       -10.6169
  26   2.0000      -0.334774        -9.1097
  27   2.0000      -0.304047        -8.2735
  28   2.0000      -0.259366        -7.0577
  29   2.0000      -0.234857        -6.3908
  30   2.0000      -0.214439        -5.8352
  31   0.0000      -0.062368        -1.6971
  32   0.0000       0.016090         0.4378
  33   0.0000       0.035255         0.9593
  34   0.0000       0.036234         0.9860
  35   0.0000       0.091474         2.4891

MULLIKEN ATOMIC CHARGES
-----------------------
   0 C :   -0.041122
   1 N :   -0.030611
   2 C :   -0.041134
   3 C :    0.031828
   4 C :    0.031821
   5 N :   -0.050368
   6 C :    0.018393
   7 C :    0.018392
   8 N :   -0.050373
   9 H :   -0.007950
  10 H :    0.134703
  11 H :   -0.007949
  12 H :   -0.002815
  13 H :   -0.002815
Sum of atomic charges:   -0.0000000

LOEWDIN ATOMIC CHARGES
----------------------
   0 C :   -0.034830
   1 N :    0.127367
   2 C :   -0.034831
   3 C :   -0.053661
   4 C :   -0.053662
   5 N :   -0.054425
   6 C :   -0.011882
   7 C :   -0.011882
   8 N :   -0.054426
   9 H :    0.023978
  10 H :    0.096018
  11 H :    0.023977
  12 H :    0.019130
  13 H :    0.019130

  Mayer bond orders larger than 0.100000
B(  0-C ,  1-N ) :   1.2456 B(  0-C ,  2-C ) :   0.1447 B(  0-C ,  4-C ) :   1.3121
B(  0-C ,  9-H ) :   1.0005 B(  1-N ,  2-C ) :   1.2456 B(  1-N , 10-H ) :   0.9367
B(  2-C ,  3-C ) :   1.3121 B(  2-C , 11-H ) :   1.0005 B(  3-C ,  4-C ) :   1.2441
B(  3-C ,  8-N ) :   1.3763 B(  4-C ,  5-N ) :   1.3763 B(  5-N ,  6-C ) :   1.6831
B(  6-C ,  7-C ) :   1.1966 B(  6-C , 12-H ) :   0.9643 B(  7-C ,  8-N ) :   1.6831
B(  7-C , 13-H ) :   0.9643

Dispersion correction           -0.025835675
FINAL SINGLE POINT ENERGY      -395.616830574152

DIPOLE MOMENT
-------------
                                X             Y             Z
Electronic contribution:     -0.03244      -0.00000      -0.00929
Nuclear contribution   :     -1.20188       0.00005       0.06583
                        -----------------------------------------
Total Dipole Moment    :     -1.23432       0.00005       0.05654
                        -----------------------------------------
Magnitude (a.u.)       :      1.23562
Magnitude (Debye)      :      3.14068

Rotational constants in cm-1:     0.132624     0.057330     0.040028
Rotational constants in MHz :  3975.964637  1718.723829  1199.994566

                             ****ORCA TERMINATED NORMALLY****
TOTAL RUN TIME: 0 days 0 hours 3 minutes 26 seconds 135 msec
