                         Program Version 4.2.0 -  RELEASE  -
|  1> # ORCA input file
|  2> # SCF done        -21.316906891081          0.000783792758
|  3> ! B3LYP/G D3BJ Opt RIJCOSX def2-SVP def2/J
|  4> * xyz 0 1
|  5>    C        1.75619         0.57876        -1.33063
|  6>    C        2.56102        -0.21148        -0.64026
|  7>    C        2.84621        -1.62970        -1.02316
|  8>    C        3.26738         0.26090         0.60576
|  9>    N        4.69940         0.12858         0.45082
| 10>    C        5.52501         0.01531         1.54354
| 11>    C        6.81848         0.31681         1.56245
| 12>    H        1.24940         0.23905        -2.21768
| 13>    H        1.56158         1.59553        -1.03307
| 14>    H        2.41114        -1.87183        -1.98866
| 15>    H        2.43618        -2.30707        -0.27434
| 16>    H        3.92183        -1.79289        -1.06046
| 17>    H        2.96735        -0.36840         1.45052
| 18>    H        2.97007         1.29712         0.83213
| 19>    H        5.08393         0.66500        -0.31491
| 20>    H        5.04327        -0.41831         2.41082
| 21>    H        7.31311         0.74506         0.70780
| 22>    H        7.42256         0.12381         2.42844
| 23> *
| 24>
| 25>                          ****END OF INPUT****
 Total Charge           Charge          ....    0
 Multiplicity           Mult            ....    1
 Number of Electrons    NEL             ....   54
Dispersion correction           -0.024642353
FINAL SINGLE POINT ENERGY      -289.781493672642
Dispersion correction            ... done
Dispersion correction           -0.024326207
FINAL SINGLE POINT ENERGY      -289.784121177918
Dispersion correction            ... done
Dispersion correction           -0.024290900
FINAL SINGLE POINT ENERGY      -289.784229543584
Dispersion correction            ... done
FINAL SINGLE POINT ENERGY      -289.784268995690
FINAL SINGLE POINT ENERGY      -289.784270524894
FINAL SINGLE POINT ENERGY      -289.784262718413
FINAL SINGLE POINT ENERGY      -289.784246387202
FINAL SINGLE POINT ENERGY      -289.784220873851
Dispersion correction            ... done
Dispersion correction           -0.024306783
FINAL SINGLE POINT ENERGY      -289.784206494991
Dispersion correction            ... done
Dispersion correction           -0.024302958
FINAL SINGLE POINT ENERGY      -289.784206925099
Dispersion correction            ... done
                    ***********************HURRAY********************

CARTESIAN COORDINATES (ANGSTROEM)
---------------------------------
  C      1.776285    0.623229   -1.318405
  C      2.564340   -0.233510   -0.656721
  C      2.757071   -1.663752   -1.081814
  C      3.307322    0.196341    0.588465
  N      4.744442    0.025688    0.442163
  C      5.561341    0.034162    1.559211
  C      6.843444    0.433818    1.623605
  H      1.223392    0.318163   -2.211496
  H      1.651039    1.657437   -0.983787
  H      2.217695   -1.890085   -2.012344
  H      2.392749   -2.350187   -0.297459
  H      3.826474   -1.889772   -1.218913
  H      2.988337   -0.436363    1.436776
  H      3.025780    1.236465    0.848474
  H      5.130611    0.503046   -0.368222
  H      5.070654   -0.371934    2.452333
  H      7.365734    0.850241    0.756782
  H      7.407401    0.323262    2.550462

 Multiplicity           Mult            ....    1
 Number of Electrons    NEL             ....   54
 Basis Dimension        Dim             ....  153

ORBITAL ENERGIES
----------------

  NO   OCC          E(Eh)            E(eV)
   0   2.0000     -14.334724      -390.0677
   1   2.0000     -10.224041      -278.2103
   2   2.0000     -10.213651      -277.9276
   3   2.0000     -10.199097      -277.5315
   4   2.0000     -10.185927      -277.1732
   5   2.0000     -10.183425      -277.1051
   6   2.0000     -10.158601      -276.4296
   7   2.0000      -0.920814       -25.0566
   8   2.0000      -0.801718       -21.8159
   9   2.0000      -0.729366       -19.8471
  10   2.0000      -0.683549       -18.6003
  11   2.0000      -0.659584       -17.9482
  12   2.0000      -0.588004       -16.0004
  13   2.0000      -0.530473       -14.4349
  14   2.0000      -0.490812       -13.3557
  15   2.0000      -0.476641       -12.9701
  16   2.0000      -0.460768       -12.5381
  17   2.0000      -0.440657       -11.9909
  18   2.0000      -0.416481       -11.3330
  19   2.0000      -0.400403       -10.8955
  20   2.0000      -0.388763       -10.5788
  21   2.0000      -0.371788       -10.1169
  22   2.0000      -0.363025        -9.8784
  23   2.0000      -0.354881        -9.6568
  24   2.0000      -0.315076        -8.5737
  25   2.0000      -0.261016        -7.1026
  26   2.0000      -0.200798        -5.4640
  27   0.0000       0.004836         0.1316
  28   0.0000       0.036113         0.9827
  29   0.0000       0.061733         1.6798
  30   0.0000       0.072966         1.9855
  31   0.0000       0.091006         2.4764

MULLIKEN ATOMIC CHARGES
-----------------------
   0 C :   -0.023828
   1 C :   -0.220994
   2 C :    0.106505
   3 C :    0.232226
   4 N :   -0.197148
   5 C :    0.033159
   6 C :   -0.083810
   7 H :    0.007691
   8 H :    0.007088
   9 H :    0.003393
  10 H :    0.012824
  11 H :    0.022146
  12 H :    0.005887
  13 H :   -0.015109
  14 H :    0.107106
  15 H :   -0.003544
  16 H :   -0.004139
  17 H :    0.010548
Sum of atomic charges:    0.0000000

LOEWDIN ATOMIC CHARGES
----------------------
   0 C :   -0.068236
   1 C :   -0.038393
   2 C :   -0.045604
   3 C :    0.047010
   4 N :   -0.046410
   5 C :    0.014418
   6 C :   -0.157589
   7 H :    0.020146
   8 H :    0.019156
   9 H :    0.026084
  10 H :    0.032785
  11 H :    0.031479
  12 H :    0.026687
  13 H :    0.008101
  14 H :    0.071611
  15 H :    0.021510
  16 H :    0.014204
  17 H :    0.023042

  Mayer bond orders larger than 0.100000
B(  0-C ,  1-C ) :   1.9887 B(  0-C ,  7-H ) :   0.9420 B(  0-C ,  8-H ) :   0.9398
B(  1-C ,  2-C ) :   1.0673 B(  1-C ,  3-C ) :   1.0440 B(  2-C ,  9-H ) :   0.9563
B(  2-C , 10-H ) :   0.9458 B(  2-C , 11-H ) :   0.9471 B(  3-C ,  4-N ) :   1.0016
B(  3-C , 12-H ) :   0.9208 B(  3-C , 13-H ) :   0.9235 B(  4-N ,  5-C ) :   1.1640
B(  4-N , 14-H ) :   0.9388 B(  5-C ,  6-C ) :   1.8950 B(  5-C , 15-H ) :   0.9527
B(  6-C , 16-H ) :   0.9551 B(  6-C , 17-H ) :   0.9449

Dispersion correction           -0.024301571
FINAL SINGLE POINT ENERGY      -289.784210916097

DIPOLE MOMENT
-------------
                                X             Y             Z
Electronic contribution:      0.58102       0.98397       0.58474
Nuclear contribution   :     -0.99774      -0.96328      -0.77588
                        -----------------------------------------
Total Dipole Moment    :     -0.41672       0.02069      -0.19115
                        -----------------------------------------
Magnitude (a.u.)       :      0.45894
Magnitude (Debye)      :      1.16652

Rotational constants in cm-1:     0.222745     0.039636     0.036545
Rotational constants in MHz :  6677.739223  1188.254811  1095.581674

                             ****ORCA TERMINATED NORMALLY****
TOTAL RUN TIME: 0 days 0 hours 6 minutes 37 seconds 750 msec
