                         Program Version 4.2.0 -  RELEASE  -
|  1> # ORCA input file
|  2> # SCF done        -24.596389293442          0.000897803675
|  3> ! B3LYP/G D3BJ Opt RIJCOSX def2-SVP def2/J
|  4> * xyz 0 1
|  5>    C        0.29519         1.19583         0.10120
|  6>    C        0.98055        -0.01021        -0.05872
|  7>    N        2.34972        -0.02731        -0.22094
|  8>    C        0.23888        -1.19066        -0.12175
|  9>    C       -1.13493        -1.15832        -0.02953
| 10>    C       -1.82911         0.04314         0.13178
| 11>    C       -1.07839         1.21929         0.19337
| 12>    C       -3.28022         0.01569         0.22760
| 13>    C       -4.09209         1.05405         0.39409
| 14>    H        0.85734         2.11825         0.15099
| 15>    H        2.85057         0.78499         0.10021
| 16>    H        2.81260        -0.90518        -0.04893
| 17>    H        0.75410        -2.13311        -0.24518
| 18>    H       -1.68878        -2.08565        -0.07921
| 19>    H       -1.57581         2.16878         0.31819
| 20>    H       -3.71385        -0.97537         0.14962
| 21>    H       -3.73537         2.06657         0.48183
| 22>    H       -5.15953         0.92607         0.45176
| 23> *
| 24>
| 25>                          ****END OF INPUT****
 Total Charge           Charge          ....    0
 Multiplicity           Mult            ....    1
 Number of Electrons    NEL             ....   64
Dispersion correction           -0.031735335
FINAL SINGLE POINT ENERGY      -364.776480808277
Dispersion correction            ... done
Dispersion correction           -0.031483240
FINAL SINGLE POINT ENERGY      -364.778834071202
Dispersion correction            ... done
Dispersion correction           -0.031450760
FINAL SINGLE POINT ENERGY      -364.778889001466
Dispersion correction            ... done
FINAL SINGLE POINT ENERGY      -364.778901109362
Dispersion correction            ... done
Dispersion correction           -0.031445532
FINAL SINGLE POINT ENERGY      -364.778902298301
Dispersion correction            ... done
Dispersion correction           -0.031449611
FINAL SINGLE POINT ENERGY      -364.778901642860
Dispersion correction            ... done
                    ***********************HURRAY********************

CARTESIAN COORDINATES (ANGSTROEM)
---------------------------------
  C      0.311371    1.204327    0.100914
  C      1.006266   -0.011888   -0.074227
  N      2.380888   -0.027350   -0.236547
  C      0.252891   -1.199500   -0.129120
  C     -1.133851   -1.163240   -0.024804
  C     -1.837052    0.043427    0.141384
  C     -1.072524    1.225587    0.204644
  C     -3.300225    0.021004    0.241287
  C     -4.133935    1.062648    0.381215
  H      0.875702    2.139656    0.155175
  H      2.890168    0.769474    0.126437
  H      2.846996   -0.910577   -0.066550
  H      0.765755   -2.155304   -0.267362
  H     -1.695983   -2.099857   -0.077096
  H     -1.572582    2.185930    0.345953
  H     -3.741345   -0.981809    0.187813
  H     -3.777753    2.094934    0.442076
  H     -5.213917    0.909387    0.445188

 Multiplicity           Mult            ....    1
 Number of Electrons    NEL             ....   64
 Basis Dimension        Dim             ....  171

ORBITAL ENERGIES
----------------

  NO   OCC          E(Eh)            E(eV)
   0   2.0000     -14.339480      -390.1971
   1   2.0000     -10.229018      -278.3457
   2   2.0000     -10.186122      -277.1785
   3   2.0000     -10.186112      -277.1782
   4   2.0000     -10.184240      -277.1273
   5   2.0000     -10.183268      -277.1008
   6   2.0000     -10.181606      -277.0556
   7   2.0000     -10.181185      -277.0441
   8   2.0000     -10.173553      -276.8364
   9   2.0000      -0.914350       -24.8807
  10   2.0000      -0.834606       -22.7108
  11   2.0000      -0.764525       -20.8038
  12   2.0000      -0.735527       -20.0147
  13   2.0000      -0.700228       -19.0542
  14   2.0000      -0.615176       -16.7398
  15   2.0000      -0.602559       -16.3965
  16   2.0000      -0.550176       -14.9710
  17   2.0000      -0.521984       -14.2039
  18   2.0000      -0.513970       -13.9858
  19   2.0000      -0.471386       -12.8271
  20   2.0000      -0.445123       -12.1124
  21   2.0000      -0.435550       -11.8519
  22   2.0000      -0.417621       -11.3640
  23   2.0000      -0.407149       -11.0791
  24   2.0000      -0.389037       -10.5862
  25   2.0000      -0.377588       -10.2747
  26   2.0000      -0.346607        -9.4317
  27   2.0000      -0.333619        -9.0782
  28   2.0000      -0.331786        -9.0284
  29   2.0000      -0.266529        -7.2526
  30   2.0000      -0.253107        -6.8874
  31   2.0000      -0.194358        -5.2888
  32   0.0000      -0.023572        -0.6414
  33   0.0000      -0.003389        -0.0922
  34   0.0000       0.048486         1.3194
  35   0.0000       0.068326         1.8593
  36   0.0000       0.074274         2.0211

MULLIKEN ATOMIC CHARGES
-----------------------
   0 C :   -0.018674
   1 C :    0.064426
   2 N :   -0.077655
   3 C :   -0.021994
   4 C :   -0.029706
   5 C :    0.092516
   6 C :   -0.019534
   7 C :    0.003859
   8 C :   -0.040134
   9 H :   -0.047604
  10 H :    0.108293
  11 H :    0.106565
  12 H :   -0.048034
  13 H :   -0.032048
  14 H :   -0.036732
  15 H :   -0.028434
  16 H :    0.006643
  17 H :    0.018246
Sum of atomic charges:   -0.0000000

LOEWDIN ATOMIC CHARGES
----------------------
   0 C :   -0.063515
   1 C :    0.025000
   2 N :   -0.027901
   3 C :   -0.069664
   4 C :   -0.008173
   5 C :   -0.059939
   6 C :   -0.001119
   7 C :   -0.020189
   8 C :   -0.070274
   9 H :    0.020661
  10 H :    0.070938
  11 H :    0.070686
  12 H :    0.020259
  13 H :    0.024474
  14 H :    0.024637
  15 H :    0.024207
  16 H :    0.016544
  17 H :    0.023368

  Mayer bond orders larger than 0.100000
B(  0-C ,  1-C ) :   1.2990 B(  0-C ,  6-C ) :   1.4276 B(  0-C ,  9-H ) :   0.9842
B(  1-C ,  2-N ) :   1.2195 B(  1-C ,  3-C ) :   1.3226 B(  2-N , 10-H ) :   0.9506
B(  2-N , 11-H ) :   0.9512 B(  3-C ,  4-C ) :   1.3896 B(  3-C , 12-H ) :   0.9851
B(  4-C ,  5-C ) :   1.3300 B(  4-C , 13-H ) :   0.9856 B(  5-C ,  6-C ) :   1.3210
B(  5-C ,  7-C ) :   1.0940 B(  6-C , 14-H ) :   0.9799 B(  7-C ,  8-C ) :   1.9192
B(  7-C , 15-H ) :   0.9600 B(  8-C , 16-H ) :   0.9432 B(  8-C , 17-H ) :   0.9450

Dispersion correction           -0.031451972
FINAL SINGLE POINT ENERGY      -364.778901229610

DIPOLE MOMENT
-------------
                                X             Y             Z
Electronic contribution:      2.37067      -0.81643      -0.37806
Nuclear contribution   :     -1.38816       0.71178       0.63664
                        -----------------------------------------
Total Dipole Moment    :      0.98251      -0.10465       0.25859
                        -----------------------------------------
Magnitude (a.u.)       :      1.02134
Magnitude (Debye)      :      2.59604

Rotational constants in cm-1:     0.166710     0.032783     0.027412
Rotational constants in MHz :  4997.825554   982.821685   821.793187

                             ****ORCA TERMINATED NORMALLY****
TOTAL RUN TIME: 0 days 0 hours 6 minutes 8 seconds 840 msec
