                         Program Version 4.2.0 -  RELEASE  -
|  1> # ORCA input file
|  2> # SCF done        -22.220943787685          0.000287851429
|  3> ! B3LYP/G D3BJ Opt RIJCOSX def2-SVP def2/J
|  4> * xyz 0 1
|  5>    C        0.68288         1.19474         0.00143
|  6>    C        1.40187         0.00738         0.00259
|  7>    C        2.90110         0.00174         0.00524
|  8>    C        0.69532        -1.18876         0.00203
|  9>    C       -0.68718        -1.19736         0.00052
| 10>    C       -1.40619        -0.00994        -0.00050
| 11>    C       -0.69966         1.18615        -0.00012
| 12>    C       -2.90542        -0.00441        -0.00208
| 13>    H        1.21018         2.13856         0.00170
| 14>    H        3.29441         1.01503        -0.00504
| 15>    H        3.28068        -0.52778        -0.86794
| 16>    H        3.27713        -0.50805         0.89172
| 17>    H        1.23640        -2.12471         0.00281
| 18>    H       -1.21454        -2.14113         0.00013
| 19>    H       -1.24064         2.12215        -0.00102
| 20>    H       -3.29864        -1.01776        -0.00078
| 21>    H       -3.28235         0.51378        -0.88325
| 22>    H       -3.28420         0.51680         0.87650
| 23> *
| 24>
| 25>                          ****END OF INPUT****
 Total Charge           Charge          ....    0
 Multiplicity           Mult            ....    1
 Number of Electrons    NEL             ....   58
Dispersion correction           -0.029716471
FINAL SINGLE POINT ENERGY      -310.689294459443
Dispersion correction            ... done
Dispersion correction           -0.029472511
FINAL SINGLE POINT ENERGY      -310.691711172998
Dispersion correction            ... done
Dispersion correction           -0.029434746
FINAL SINGLE POINT ENERGY      -310.691786807217
Dispersion correction            ... done
Dispersion correction           -0.029423273
FINAL SINGLE POINT ENERGY      -310.691800489112
Dispersion correction            ... done
Dispersion correction           -0.029424933
FINAL SINGLE POINT ENERGY      -310.691797937869
Dispersion correction            ... done
                    ***********************HURRAY********************

CARTESIAN COORDINATES (ANGSTROEM)
---------------------------------
  C      0.690591    1.201331    0.002692
  C      1.420443    0.004138    0.002887
  C      2.927198    0.001951    0.004737
  C      0.700403   -1.198894    0.002039
  C     -0.694907   -1.203943    0.000666
  C     -1.424758   -0.006752    0.000089
  C     -0.704719    1.196281    0.001403
  C     -2.931513   -0.004575   -0.002670
  H      1.226289    2.154905    0.003494
  H      3.330822    1.024738   -0.010496
  H      3.330948   -0.532336   -0.871125
  H      3.328718   -0.504884    0.898056
  H      1.242120   -2.149398    0.002126
  H     -1.230609   -2.157514   -0.000403
  H     -1.246432    2.146788    0.001035
  H     -3.335106   -1.027484   -0.001728
  H     -3.332400    0.514467   -0.889127
  H     -3.335937    0.517611    0.880267

 Multiplicity           Mult            ....    1
 Number of Electrons    NEL             ....   58
 Basis Dimension        Dim             ....  162

ORBITAL ENERGIES
----------------

  NO   OCC          E(Eh)            E(eV)
   0   2.0000     -10.189391      -277.2674
   1   2.0000     -10.189356      -277.2665
   2   2.0000     -10.185036      -277.1489
   3   2.0000     -10.185011      -277.1482
   4   2.0000     -10.182950      -277.0922
   5   2.0000     -10.182895      -277.0907
   6   2.0000     -10.182182      -277.0713
   7   2.0000     -10.182125      -277.0697
   8   2.0000      -0.846616       -23.0376
   9   2.0000      -0.775346       -21.0982
  10   2.0000      -0.730927       -19.8895
  11   2.0000      -0.709449       -19.3051
  12   2.0000      -0.644669       -17.5423
  13   2.0000      -0.598056       -16.2739
  14   2.0000      -0.565289       -15.3823
  15   2.0000      -0.487670       -13.2702
  16   2.0000      -0.468374       -12.7451
  17   2.0000      -0.444151       -12.0860
  18   2.0000      -0.420283       -11.4365
  19   2.0000      -0.413236       -11.2447
  20   2.0000      -0.411691       -11.2027
  21   2.0000      -0.396520       -10.7899
  22   2.0000      -0.396106       -10.7786
  23   2.0000      -0.370329       -10.0772
  24   2.0000      -0.341866        -9.3027
  25   2.0000      -0.340446        -9.2640
  26   2.0000      -0.332732        -9.0541
  27   2.0000      -0.250193        -6.8081
  28   2.0000      -0.232925        -6.3382
  29   0.0000      -0.007930        -0.2158
  30   0.0000       0.001497         0.0407
  31   0.0000       0.065892         1.7930
  32   0.0000       0.073123         1.9898
  33   0.0000       0.092236         2.5099

MULLIKEN ATOMIC CHARGES
-----------------------
   0 C :   -0.006287
   1 C :   -0.042024
   2 C :    0.085601
   3 C :   -0.007872
   4 C :   -0.006276
   5 C :   -0.042013
   6 C :   -0.007881
   7 C :    0.085561
   8 H :   -0.036195
   9 H :    0.001307
  10 H :    0.021464
  11 H :    0.021767
  12 H :   -0.037758
  13 H :   -0.036192
  14 H :   -0.037760
  15 H :    0.001301
  16 H :    0.021646
  17 H :    0.021609
Sum of atomic charges:    0.0000000

LOEWDIN ATOMIC CHARGES
----------------------
   0 C :   -0.029930
   1 C :   -0.031842
   2 C :   -0.044930
   3 C :   -0.028281
   4 C :   -0.029931
   5 C :   -0.031841
   6 C :   -0.028277
   7 C :   -0.044937
   8 H :    0.021865
   9 H :    0.025702
  10 H :    0.032517
  11 H :    0.032702
  12 H :    0.022197
  13 H :    0.021864
  14 H :    0.022197
  15 H :    0.025701
  16 H :    0.032631
  17 H :    0.032594

  Mayer bond orders larger than 0.100000
B(  0-C ,  1-C ) :   1.3852 B(  0-C ,  6-C ) :   1.3771 B(  0-C ,  8-H ) :   0.9843
B(  1-C ,  2-C ) :   1.0614 B(  1-C ,  3-C ) :   1.3834 B(  2-C ,  9-H ) :   0.9598
B(  2-C , 10-H ) :   0.9560 B(  2-C , 11-H ) :   0.9557 B(  3-C ,  4-C ) :   1.3771
B(  3-C , 12-H ) :   0.9887 B(  4-C ,  5-C ) :   1.3852 B(  4-C , 13-H ) :   0.9843
B(  5-C ,  6-C ) :   1.3834 B(  5-C ,  7-C ) :   1.0614 B(  6-C , 14-H ) :   0.9887
B(  7-C , 15-H ) :   0.9598 B(  7-C , 16-H ) :   0.9558 B(  7-C , 17-H ) :   0.9559

Dispersion correction           -0.029426925
FINAL SINGLE POINT ENERGY      -310.691796409256

DIPOLE MOMENT
-------------
                                X             Y             Z
Electronic contribution:     -0.00000       0.00004       0.00260
Nuclear contribution   :     -0.00001      -0.00002      -0.00230
                        -----------------------------------------
Total Dipole Moment    :     -0.00001       0.00002       0.00030
                        -----------------------------------------
Magnitude (a.u.)       :      0.00031
Magnitude (Debye)      :      0.00078

Rotational constants in cm-1:     0.178897     0.047538     0.038093
Rotational constants in MHz :  5363.210000  1425.146951  1142.010685

                             ****ORCA TERMINATED NORMALLY****
TOTAL RUN TIME: 0 days 0 hours 3 minutes 44 seconds 224 msec
