                         Program Version 4.2.0 -  RELEASE  -
|  1> # ORCA input file
|  2> # SCF done        -26.683571603303          0.000731036199
|  3> ! B3LYP/G D3BJ Opt RIJCOSX def2-SVP def2/J
|  4> * xyz 0 1
|  5>    C       -1.15728        -1.26392        -0.00577
|  6>    S       -2.37368        -0.04093        -0.00168
|  7>    C       -1.23761         1.24757         0.00197
|  8>    C        0.03942         0.75909         0.00033
|  9>    C        0.06793        -0.67772        -0.00413
| 10>    O        1.33860        -1.13396        -0.00584
| 11>    C        2.12864        -0.00958        -0.00240
| 12>    C        3.52561        -0.15996        -0.00266
| 13>    N        4.66857        -0.25514        -0.00306
| 14>    C        1.40860         1.15304         0.00122
| 15>    H       -1.42479        -2.29950        -0.00891
| 16>    H       -1.58110         2.26125         0.00515
| 17>    H        1.80858         2.14633         0.00426
| 18> *
| 19>
| 20>                          ****END OF INPUT****
 Total Charge           Charge          ....    0
 Multiplicity           Mult            ....    1
 Number of Electrons    NEL             ....   76
Dispersion correction           -0.027228099
FINAL SINGLE POINT ENERGY      -796.276150721575
Dispersion correction            ... done
Dispersion correction           -0.027188651
FINAL SINGLE POINT ENERGY      -796.278362335119
Dispersion correction            ... done
Dispersion correction           -0.027177722
FINAL SINGLE POINT ENERGY      -796.278520176217
Dispersion correction            ... done
FINAL SINGLE POINT ENERGY      -796.278578383180
FINAL SINGLE POINT ENERGY      -796.278584808450
Dispersion correction            ... done
Dispersion correction           -0.027168140
FINAL SINGLE POINT ENERGY      -796.278586724929
Dispersion correction            ... done
Dispersion correction           -0.027168998
FINAL SINGLE POINT ENERGY      -796.278587082834
Dispersion correction            ... done
                    ***********************HURRAY********************

CARTESIAN COORDINATES (ANGSTROEM)
---------------------------------
  C     -1.159173   -1.281044   -0.005600
  S     -2.389214   -0.057055   -0.001572
  C     -1.264507    1.255400    0.001846
  C      0.029818    0.772259    0.000171
  C      0.061507   -0.661618   -0.004211
  O      1.343489   -1.118429   -0.005962
  C      2.137013    0.012740   -0.002382
  C      3.543478   -0.182768   -0.002733
  N      4.698023   -0.310412   -0.003119
  C      1.413044    1.175586    0.001246
  H     -1.413085   -2.337767   -0.008996
  H     -1.623741    2.282366    0.005225
  H      1.834836    2.177312    0.004566

 Multiplicity           Mult            ....    1
 Number of Electrons    NEL             ....   76
 Basis Dimension        Dim             ....  159

ORBITAL ENERGIES
----------------

  NO   OCC          E(Eh)            E(eV)
   0   2.0000     -88.901694     -2419.1381
   1   2.0000     -19.222856      -523.0805
   2   2.0000     -14.346208      -390.3802
   3   2.0000     -10.298033      -280.2237
   4   2.0000     -10.269319      -279.4424
   5   2.0000     -10.244951      -278.7793
   6   2.0000     -10.237819      -278.5852
   7   2.0000     -10.233328      -278.4630
   8   2.0000     -10.233242      -278.4607
   9   2.0000     -10.223392      -278.1926
  10   2.0000      -7.995959      -217.5811
  11   2.0000      -5.964044      -162.2899
  12   2.0000      -5.959792      -162.1742
  13   2.0000      -5.957675      -162.1166
  14   2.0000      -1.128109       -30.6974
  15   2.0000      -0.912597       -24.8330
  16   2.0000      -0.902946       -24.5704
  17   2.0000      -0.827502       -22.5175
  18   2.0000      -0.774028       -21.0624
  19   2.0000      -0.734308       -19.9815
  20   2.0000      -0.670533       -18.2461
  21   2.0000      -0.614261       -16.7149
  22   2.0000      -0.591461       -16.0945
  23   2.0000      -0.541473       -14.7342
  24   2.0000      -0.521823       -14.1995
  25   2.0000      -0.492192       -13.3932
  26   2.0000      -0.480209       -13.0671
  27   2.0000      -0.435809       -11.8590
  28   2.0000      -0.431327       -11.7370
  29   2.0000      -0.398014       -10.8305
  30   2.0000      -0.390551       -10.6274
  31   2.0000      -0.377882       -10.2827
  32   2.0000      -0.370172       -10.0729
  33   2.0000      -0.368809       -10.0358
  34   2.0000      -0.357111        -9.7175
  35   2.0000      -0.319911        -8.7052
  36   2.0000      -0.263425        -7.1682
  37   2.0000      -0.239425        -6.5151
  38   0.0000      -0.079848        -2.1728
  39   0.0000      -0.010203        -0.2776
  40   0.0000      -0.008744        -0.2379
  41   0.0000       0.031068         0.8454
  42   0.0000       0.064068         1.7434

MULLIKEN ATOMIC CHARGES
-----------------------
   0 C :   -0.186405
   1 S :    0.125044
   2 C :   -0.148559
   3 C :    0.097529
   4 C :    0.242932
   5 O :   -0.225480
   6 C :   -0.003394
   7 C :   -0.084252
   8 N :    0.109217
   9 C :    0.000636
  10 H :    0.036639
  11 H :    0.033925
  12 H :    0.002167
Sum of atomic charges:    0.0000000

LOEWDIN ATOMIC CHARGES
----------------------
   0 C :   -0.224116
   1 S :    0.473209
   2 C :   -0.195896
   3 C :   -0.082284
   4 C :    0.017709
   5 O :   -0.019177
   6 C :    0.012156
   7 C :   -0.036015
   8 N :   -0.036872
   9 C :   -0.017895
  10 H :    0.035285
  11 H :    0.030170
  12 H :    0.043726

  Mayer bond orders larger than 0.100000
B(  0-C ,  1-S ) :   1.1487 B(  0-C ,  2-C ) :   0.1194 B(  0-C ,  4-C ) :   1.4880
B(  0-C , 10-H ) :   0.9771 B(  1-S ,  2-C ) :   1.1960 B(  2-C ,  3-C ) :   1.4060
B(  2-C , 11-H ) :   0.9710 B(  3-C ,  4-C ) :   1.2190 B(  3-C ,  9-C ) :   1.0956
B(  4-C ,  5-O ) :   1.0844 B(  5-O ,  6-C ) :   1.1112 B(  6-C ,  7-C ) :   1.0751
B(  6-C ,  9-C ) :   1.5949 B(  7-C ,  8-N ) :   3.0020 B(  9-C , 12-H ) :   1.0142

Dispersion correction           -0.027169454
FINAL SINGLE POINT ENERGY      -796.278587220375

DIPOLE MOMENT
-------------
                                X             Y             Z
Electronic contribution:      0.67542      -1.56261      -0.00486
Nuclear contribution   :     -2.26698       2.14029       0.00687
                        -----------------------------------------
Total Dipole Moment    :     -1.59156       0.57767       0.00201
                        -----------------------------------------
Magnitude (a.u.)       :      1.69315
Magnitude (Debye)      :      4.30365

Rotational constants in cm-1:     0.162328     0.022035     0.019401
Rotational constants in MHz :  4866.480573   660.585884   581.633761

                             ****ORCA TERMINATED NORMALLY****
TOTAL RUN TIME: 0 days 0 hours 5 minutes 12 seconds 859 msec
