                         Program Version 4.2.0 -  RELEASE  -
|  1> # ORCA input file
|  2> # SCF done        -57.182030735975          0.000398316548
|  3> ! B3LYP/G D3BJ Opt RIJCOSX def2-SVP def2/J
|  4> * xyz 0 1
|  5>    C        1.62213         1.21343        -0.05105
|  6>    S        2.81114        -0.01936        -0.00940
|  7>    C        1.60357        -1.23378         0.03675
|  8>    C        0.34695        -0.71038         0.02419
|  9>    C        0.35728         0.70985        -0.03064
| 10>    C       -0.89695         1.53602        -0.00919
| 11>    C       -1.01448         2.21074         1.35917
| 12>    F       -0.03797         3.11243         1.54852
| 13>    F       -2.17099         2.87649         1.50244
| 14>    F       -0.94100         1.35641         2.38937
| 15>    C       -2.13626         0.69284        -0.33455
| 16>    C       -2.13163        -0.65227         0.39035
| 17>    C       -0.92141        -1.51363         0.01073
| 18>    C       -1.08250        -2.14878        -1.37195
| 19>    F       -0.13768        -3.07564        -1.59748
| 20>    F       -2.26190        -2.77365        -1.51316
| 21>    F       -0.99619        -1.27275        -2.38289
| 22>    H        1.92026         2.24220        -0.08123
| 23>    H        1.88519        -2.26729         0.06500
| 24>    H       -0.81584         2.36142        -0.72564
| 25>    H       -2.16415         0.53393        -1.41259
| 26>    H       -3.03451         1.24742        -0.05817
| 27>    H       -3.05029        -1.19205         0.15470
| 28>    H       -2.10649        -0.49348         1.46871
| 29>    H       -0.84021        -2.35972         0.70267
| 30> *
| 31>
| 32>                          ****END OF INPUT****
 Total Charge           Charge          ....    0
 Multiplicity           Mult            ....    1
 Number of Electrons    NEL             ....  138
Dispersion correction           -0.055231251
FINAL SINGLE POINT ENERGY     -1382.364176376302
Dispersion correction            ... done
Dispersion correction           -0.054661026
FINAL SINGLE POINT ENERGY     -1382.367008245513
Dispersion correction            ... done
Dispersion correction           -0.054430352
FINAL SINGLE POINT ENERGY     -1382.366998910352
Dispersion correction            ... done
FINAL SINGLE POINT ENERGY     -1382.366853245451
FINAL SINGLE POINT ENERGY     -1382.366856444015
FINAL SINGLE POINT ENERGY     -1382.366878517882
FINAL SINGLE POINT ENERGY     -1382.366877318819
Dispersion correction            ... done
Dispersion correction           -0.054305473
FINAL SINGLE POINT ENERGY     -1382.366869579521
Dispersion correction            ... done
Dispersion correction           -0.054306150
FINAL SINGLE POINT ENERGY     -1382.366864884450
Dispersion correction            ... done
                    ***********************HURRAY********************

CARTESIAN COORDINATES (ANGSTROEM)
---------------------------------
  C      1.660708    1.234237    0.009007
  S      2.846471   -0.015546   -0.054077
  C      1.632119   -1.238753   -0.071879
  C      0.363049   -0.707821   -0.031634
  C      0.380018    0.731091    0.014147
  C     -0.880961    1.567009    0.063245
  C     -1.039523    2.281461    1.407095
  F     -0.044777    3.169323    1.596234
  F     -2.191761    2.976400    1.464956
  F     -1.034175    1.441583    2.457816
  C     -2.118450    0.734367   -0.321458
  C     -2.139201   -0.652507    0.324212
  C     -0.916262   -1.517560   -0.041926
  C     -1.103468   -2.271978   -1.359287
  F     -0.116807   -3.169396   -1.547116
  F     -2.258381   -2.964927   -1.365196
  F     -1.120784   -1.463387   -2.434496
  H      1.963641    2.278321    0.060118
  H      1.910170   -2.289073   -0.133209
  H     -0.784997    2.398209   -0.653212
  H     -2.124426    0.630496   -1.416567
  H     -3.027293    1.288684   -0.046444
  H     -3.056735   -1.184929    0.035346
  H     -2.161054   -0.547538    1.418744
  H     -0.831050   -2.327366    0.700243

 Multiplicity           Mult            ....    1
 Number of Electrons    NEL             ....  138
 Basis Dimension        Dim             ....  282

ORBITAL ENERGIES
----------------

  NO   OCC          E(Eh)            E(eV)
   0   2.0000     -88.885761     -2418.7045
   1   2.0000     -24.723601      -672.7634
   2   2.0000     -24.723563      -672.7623
   3   2.0000     -24.722540      -672.7345
   4   2.0000     -24.722535      -672.7344
   5   2.0000     -24.722175      -672.7246
   6   2.0000     -24.721876      -672.7164
   7   2.0000     -10.433956      -283.9224
   8   2.0000     -10.433888      -283.9205
   9   2.0000     -10.230834      -278.3951
  10   2.0000     -10.230689      -278.3912
  11   2.0000     -10.221042      -278.1287
  12   2.0000     -10.220908      -278.1251
  13   2.0000     -10.213517      -277.9239
  14   2.0000     -10.213319      -277.9185
  15   2.0000     -10.209087      -277.8034
  16   2.0000     -10.209014      -277.8014
  17   2.0000      -7.980826      -217.1693
  18   2.0000      -5.948789      -161.8748
  19   2.0000      -5.944671      -161.7627
  20   2.0000      -5.942556      -161.7052
  21   2.0000      -1.301117       -35.4052
  22   2.0000      -1.301085       -35.4043
  23   2.0000      -1.209313       -32.9071
  24   2.0000      -1.209244       -32.9052
  25   2.0000      -1.208142       -32.8752
  26   2.0000      -1.208041       -32.8725
  27   2.0000      -0.900823       -24.5126
  28   2.0000      -0.846284       -23.0286
  29   2.0000      -0.814962       -22.1762
  30   2.0000      -0.749104       -20.3842
  31   2.0000      -0.723016       -19.6743
  32   2.0000      -0.722518       -19.6607
  33   2.0000      -0.681499       -18.5445
  34   2.0000      -0.651786       -17.7360
  35   2.0000      -0.619802       -16.8657
  36   2.0000      -0.599326       -16.3085
  37   2.0000      -0.598818       -16.2947
  38   2.0000      -0.596898       -16.2424
  39   2.0000      -0.595151       -16.1949
  40   2.0000      -0.589515       -16.0415
  41   2.0000      -0.569421       -15.4947
  42   2.0000      -0.555889       -15.1265
  43   2.0000      -0.509036       -13.8516
  44   2.0000      -0.496798       -13.5186
  45   2.0000      -0.481047       -13.0899
  46   2.0000      -0.474803       -12.9200
  47   2.0000      -0.473295       -12.8790
  48   2.0000      -0.472943       -12.8694
  49   2.0000      -0.471898       -12.8410
  50   2.0000      -0.447893       -12.1878
  51   2.0000      -0.446442       -12.1483
  52   2.0000      -0.437543       -11.9061
  53   2.0000      -0.432764       -11.7761
  54   2.0000      -0.428574       -11.6621
  55   2.0000      -0.423737       -11.5305
  56   2.0000      -0.415733       -11.3127
  57   2.0000      -0.414466       -11.2782
  58   2.0000      -0.414424       -11.2771
  59   2.0000      -0.411278       -11.1915
  60   2.0000      -0.405588       -11.0366
  61   2.0000      -0.400351       -10.8941
  62   2.0000      -0.371718       -10.1150
  63   2.0000      -0.358525        -9.7560
  64   2.0000      -0.354158        -9.6371
  65   2.0000      -0.350430        -9.5357
  66   2.0000      -0.346743        -9.4353
  67   2.0000      -0.262198        -7.1348
  68   2.0000      -0.249334        -6.7847
  69   0.0000      -0.034826        -0.9477
  70   0.0000       0.026080         0.7097
  71   0.0000       0.039538         1.0759
  72   0.0000       0.053410         1.4533
  73   0.0000       0.067069         1.8250

MULLIKEN ATOMIC CHARGES
-----------------------
   0 C :   -0.133523
   1 S :    0.121249
   2 C :   -0.132728
   3 C :    0.002046
   4 C :    0.001052
   5 C :   -0.064459
   6 C :    0.514940
   7 F :   -0.172605
   8 F :   -0.174130
   9 F :   -0.173544
  10 C :    0.054473
  11 C :    0.053449
  12 C :   -0.062456
  13 C :    0.512298
  14 F :   -0.172328
  15 F :   -0.174278
  16 F :   -0.173524
  17 H :    0.023504
  18 H :    0.024044
  19 H :    0.027718
  20 H :    0.019472
  21 H :    0.015340
  22 H :    0.015305
  23 H :    0.019543
  24 H :    0.029140
Sum of atomic charges:    0.0000000

LOEWDIN ATOMIC CHARGES
----------------------
   0 C :   -0.190298
   1 S :    0.454003
   2 C :   -0.190374
   3 C :   -0.067261
   4 C :   -0.067146
   5 C :   -0.058424
   6 C :    0.173632
   7 F :   -0.065612
   8 F :   -0.066250
   9 F :   -0.063886
  10 C :   -0.021657
  11 C :   -0.021951
  12 C :   -0.058096
  13 C :    0.173842
  14 F :   -0.065235
  15 F :   -0.066106
  16 F :   -0.064178
  17 H :    0.025588
  18 H :    0.025402
  19 H :    0.048592
  20 H :    0.029235
  21 H :    0.029075
  22 H :    0.029152
  23 H :    0.028976
  24 H :    0.048977

  Mayer bond orders larger than 0.100000
B(  0-C ,  1-S ) :   1.1791 B(  0-C ,  4-C ) :   1.5432 B(  0-C , 17-H ) :   0.9619
B(  1-S ,  2-C ) :   1.1795 B(  2-C ,  3-C ) :   1.5443 B(  2-C , 18-H ) :   0.9611
B(  3-C ,  4-C ) :   1.3244 B(  3-C , 12-C ) :   0.9658 B(  4-C ,  5-C ) :   0.9669
B(  5-C ,  6-C ) :   0.9769 B(  5-C , 10-C ) :   1.0544 B(  5-C , 19-H ) :   0.8825
B(  6-C ,  7-F ) :   1.1292 B(  6-C ,  8-F ) :   1.1250 B(  6-C ,  9-F ) :   1.1277
B( 10-C , 11-C ) :   1.0775 B( 10-C , 20-H ) :   0.9318 B( 10-C , 21-H ) :   0.9275
B( 11-C , 12-C ) :   1.0529 B( 11-C , 22-H ) :   0.9274 B( 11-C , 23-H ) :   0.9314
B( 12-C , 13-C ) :   0.9785 B( 12-C , 24-H ) :   0.8828 B( 13-C , 14-F ) :   1.1273
B( 13-C , 15-F ) :   1.1236 B( 13-C , 16-F ) :   1.1292

Dispersion correction           -0.054309663
FINAL SINGLE POINT ENERGY     -1382.366850312954

DIPOLE MOMENT
-------------
                                X             Y             Z
Electronic contribution:      0.80381      -0.21348       0.18585
Nuclear contribution   :     -0.75565       0.23137      -0.20059
                        -----------------------------------------
Total Dipole Moment    :      0.04816       0.01789      -0.01475
                        -----------------------------------------
Magnitude (a.u.)       :      0.05345
Magnitude (Debye)      :      0.13585

Rotational constants in cm-1:     0.019936     0.011118     0.007985
Rotational constants in MHz :   597.662740   333.309753   239.375198

                             ****ORCA TERMINATED NORMALLY****
TOTAL RUN TIME: 0 days 0 hours 20 minutes 18 seconds 168 msec
