                         Program Version 4.2.0 -  RELEASE  -
|  1> # ORCA input file
|  2> # SCF done        -24.370370995368          0.000826905160
|  3> ! B3LYP/G D3BJ Opt RIJCOSX def2-SVP def2/J
|  4> * xyz 0 1
|  5>    C       -1.13858        -0.09816        -0.19378
|  6>    C       -0.28447         0.99938        -0.05691
|  7>    C        0.00224         2.48181         0.01927
|  8>    C        1.50425         2.09637         0.19956
|  9>    C        1.03189         0.67456         0.10203
| 10>    S        1.30984        -1.01076         0.09392
| 11>    C       -0.41864        -1.27427        -0.13225
| 12>    C       -0.87769        -2.63321        -0.22443
| 13>    C       -2.14085        -3.01640        -0.39485
| 14>    H       -2.20363        -0.06572        -0.32857
| 15>    H       -0.43871         2.98901         0.87508
| 16>    H       -0.21488         3.03755        -0.89068
| 17>    H        1.93824         2.37583         1.15844
| 18>    H        2.16179         2.42242        -0.60500
| 19>    H       -0.09879        -3.38156        -0.14538
| 20>    H       -2.94878        -2.31075        -0.47960
| 21>    H       -2.40531        -4.05732        -0.45343
| 22> *
| 23>
| 24>                          ****END OF INPUT****
 Total Charge           Charge          ....    0
 Multiplicity           Mult            ....    1
 Number of Electrons    NEL             ....   72
Dispersion correction           -0.032072406
FINAL SINGLE POINT ENERGY      -707.472972001965
Dispersion correction            ... done
Dispersion correction           -0.031920260
FINAL SINGLE POINT ENERGY      -707.475867825243
Dispersion correction            ... done
Dispersion correction           -0.031899378
FINAL SINGLE POINT ENERGY      -707.475967926765
Dispersion correction            ... done
FINAL SINGLE POINT ENERGY      -707.475982964108
Dispersion correction            ... done
Dispersion correction           -0.031891412
FINAL SINGLE POINT ENERGY      -707.475978439728
Dispersion correction            ... done
Dispersion correction           -0.031892364
FINAL SINGLE POINT ENERGY      -707.475976990484
Dispersion correction            ... done
                    ***********************HURRAY********************

CARTESIAN COORDINATES (ANGSTROEM)
---------------------------------
  C     -1.136821   -0.099798   -0.209763
  C     -0.270307    1.011130   -0.063303
  C      0.004923    2.507594    0.010980
  C      1.529960    2.119904    0.218243
  C      1.046639    0.687266    0.110429
  S      1.314822   -1.011909    0.101253
  C     -0.418981   -1.288957   -0.143729
  C     -0.889849   -2.663464   -0.246752
  C     -2.168319   -3.058817   -0.369994
  H     -2.215039   -0.073403   -0.370432
  H     -0.446818    3.035695    0.865301
  H     -0.197331    3.080066   -0.908381
  H      1.949159    2.415915    1.193349
  H      2.206769    2.464559   -0.579087
  H     -0.109229   -3.431937   -0.217129
  H     -2.997764   -2.347282   -0.400239
  H     -2.423894   -4.117782   -0.447327

 Multiplicity           Mult            ....    1
 Number of Electrons    NEL             ....   72
 Basis Dimension        Dim             ....  170

ORBITAL ENERGIES
----------------

  NO   OCC          E(Eh)            E(eV)
   0   2.0000     -88.873109     -2418.3603
   1   2.0000     -10.216182      -277.9964
   2   2.0000     -10.210544      -277.8430
   3   2.0000     -10.206515      -277.7334
   4   2.0000     -10.201431      -277.5951
   5   2.0000     -10.200575      -277.5717
   6   2.0000     -10.193823      -277.3880
   7   2.0000     -10.186263      -277.1823
   8   2.0000     -10.185077      -277.1500
   9   2.0000      -7.967099      -216.7958
  10   2.0000      -5.935172      -161.5042
  11   2.0000      -5.931377      -161.4010
  12   2.0000      -5.928417      -161.3204
  13   2.0000      -0.893360       -24.3096
  14   2.0000      -0.822651       -22.3855
  15   2.0000      -0.763784       -20.7836
  16   2.0000      -0.726471       -19.7683
  17   2.0000      -0.658910       -17.9298
  18   2.0000      -0.633344       -17.2342
  19   2.0000      -0.594764       -16.1843
  20   2.0000      -0.529133       -14.3984
  21   2.0000      -0.508215       -13.8292
  22   2.0000      -0.485491       -13.2109
  23   2.0000      -0.471759       -12.8372
  24   2.0000      -0.451680       -12.2908
  25   2.0000      -0.426139       -11.5958
  26   2.0000      -0.384485       -10.4624
  27   2.0000      -0.376726       -10.2512
  28   2.0000      -0.375589       -10.2203
  29   2.0000      -0.364028        -9.9057
  30   2.0000      -0.355434        -9.6719
  31   2.0000      -0.347642        -9.4598
  32   2.0000      -0.317362        -8.6359
  33   2.0000      -0.296404        -8.0656
  34   2.0000      -0.250935        -6.8283
  35   2.0000      -0.208457        -5.6724
  36   0.0000      -0.043526        -1.1844
  37   0.0000       0.032247         0.8775
  38   0.0000       0.034503         0.9389
  39   0.0000       0.064389         1.7521
  40   0.0000       0.079385         2.1602

MULLIKEN ATOMIC CHARGES
-----------------------
   0 C :   -0.033169
   1 C :   -0.068698
   2 C :    0.114394
   3 C :    0.078964
   4 C :   -0.165036
   5 S :    0.115970
   6 C :   -0.130549
   7 C :    0.046675
   8 C :   -0.038132
   9 H :   -0.017606
  10 H :    0.015115
  11 H :    0.014935
  12 H :    0.018386
  13 H :    0.022434
  14 H :   -0.010133
  15 H :    0.014316
  16 H :    0.022134
Sum of atomic charges:   -0.0000000

LOEWDIN ATOMIC CHARGES
----------------------
   0 C :   -0.062619
   1 C :   -0.070410
   2 C :   -0.000948
   3 C :   -0.005921
   4 C :   -0.213003
   5 S :    0.412025
   6 C :   -0.167747
   7 C :   -0.042786
   8 C :   -0.055687
   9 H :    0.028808
  10 H :    0.025707
  11 H :    0.025550
  12 H :    0.026255
  13 H :    0.026811
  14 H :    0.027774
  15 H :    0.020397
  16 H :    0.025794

  Mayer bond orders larger than 0.100000
B(  0-C ,  1-C ) :   1.2583 B(  0-C ,  6-C ) :   1.5152 B(  0-C ,  9-H ) :   0.9936
B(  1-C ,  2-C ) :   1.0886 B(  1-C ,  4-C ) :   1.5878 B(  2-C ,  3-C ) :   1.1623
B(  2-C , 10-H ) :   0.8991 B(  2-C , 11-H ) :   0.9006 B(  3-C ,  4-C ) :   1.1311
B(  3-C , 12-H ) :   0.9042 B(  3-C , 13-H ) :   0.9033 B(  4-C ,  5-S ) :   1.0943
B(  5-S ,  6-C ) :   1.1098 B(  6-C ,  7-C ) :   1.1104 B(  7-C ,  8-C ) :   1.9259
B(  7-C , 14-H ) :   0.9493 B(  8-C , 15-H ) :   0.9512 B(  8-C , 16-H ) :   0.9464

Dispersion correction           -0.031892959
FINAL SINGLE POINT ENERGY      -707.475976614436

DIPOLE MOMENT
-------------
                                X             Y             Z
Electronic contribution:      4.54392      -2.83142       0.48362
Nuclear contribution   :     -4.57177       3.23324      -0.48639
                        -----------------------------------------
Total Dipole Moment    :     -0.02786       0.40183      -0.00277
                        -----------------------------------------
Magnitude (a.u.)       :      0.40280
Magnitude (Debye)      :      1.02384

Rotational constants in cm-1:     0.116364     0.032005     0.025348
Rotational constants in MHz :  3488.501258   959.480752   759.923165

                             ****ORCA TERMINATED NORMALLY****
TOTAL RUN TIME: 0 days 0 hours 5 minutes 53 seconds 141 msec
