                         Program Version 4.2.0 -  RELEASE  -
|  1> # ORCA input file
|  2> # SCF done        -41.419462144020          0.000310637235
|  3> ! B3LYP/G D3BJ Opt RIJCOSX def2-SVP def2/J
|  4> * xyz 0 1
|  5>    C        1.56917         0.10251        -0.34872
|  6>    S        1.04743        -1.51191        -0.10097
|  7>    C        2.29423        -1.76989         1.05776
|  8>    C        3.05670        -0.66675         1.23395
|  9>    C        2.65047         0.43264         0.42138
| 10>    C        3.32811         1.71275         0.45309
| 11>    C        3.09464         2.73969        -0.36019
| 12>    C        3.80908         4.04849        -0.27634
| 13>    C        2.87029         5.18584        -0.00917
| 14>    S        1.17902         4.90944         0.25705
| 15>    C        0.88720         6.60582         0.48470
| 16>    C       -0.49500         7.11153         0.72170
| 17>    C       -1.24880         7.29677        -0.59754
| 18>    C        2.03800         7.31553         0.35513
| 19>    C        3.16542         6.50962         0.07635
| 20>    H        1.03566         0.71745        -1.04478
| 21>    H        2.37919        -2.72609         1.53436
| 22>    H        3.88891        -0.61950         1.91405
| 23>    H        4.09410         1.80214         1.21403
| 24>    H        2.34139         2.67163        -1.13239
| 25>    H        4.32776         4.24286        -1.22322
| 26>    H        4.56678         4.01322         0.51313
| 27>    H       -0.43687         8.06838         1.24582
| 28>    H       -1.04174         6.40693         1.35228
| 29>    H       -0.72499         8.00562        -1.23505
| 30>    H       -2.25247         7.67108        -0.41087
| 31>    H       -1.32312         6.34818        -1.12462
| 32>    H        2.08579         8.38537         0.46002
| 33>    H        4.15918         6.90171        -0.05296
| 34> *
| 35>
| 36>                          ****END OF INPUT****
 Total Charge           Charge          ....    0
 Multiplicity           Mult            ....    1
 Number of Electrons    NEL             ....  124
Dispersion correction           -0.061900994
FINAL SINGLE POINT ENERGY     -1299.638640732672
Dispersion correction            ... done
Dispersion correction           -0.061133710
FINAL SINGLE POINT ENERGY     -1299.643322231015
Dispersion correction            ... done
Dispersion correction           -0.060991205
FINAL SINGLE POINT ENERGY     -1299.643365997676
Dispersion correction            ... done
FINAL SINGLE POINT ENERGY     -1299.643300771653
FINAL SINGLE POINT ENERGY     -1299.643366050899
FINAL SINGLE POINT ENERGY     -1299.643358244455
FINAL SINGLE POINT ENERGY     -1299.643335635297
FINAL SINGLE POINT ENERGY     -1299.643323467515
FINAL SINGLE POINT ENERGY     -1299.643328321714
FINAL SINGLE POINT ENERGY     -1299.643347941931
Dispersion correction            ... done
Dispersion correction           -0.060937970
FINAL SINGLE POINT ENERGY     -1299.643360266072
Dispersion correction            ... done
Dispersion correction           -0.060940310
FINAL SINGLE POINT ENERGY     -1299.643361036478
Dispersion correction            ... done
                    ***********************HURRAY********************

CARTESIAN COORDINATES (ANGSTROEM)
---------------------------------
  C      1.682931   -0.119595   -0.433867
  S      1.232714   -1.749264   -0.097244
  C      2.399239   -1.867742    1.175471
  C      3.095759   -0.698637    1.323659
  C      2.692861    0.327615    0.398954
  C      3.306543    1.656185    0.397042
  C      3.060618    2.671930   -0.445991
  C      3.737838    4.007780   -0.343710
  C      2.811204    5.163385   -0.046379
  S      1.100900    4.935638    0.206704
  C      0.838330    6.635574    0.497186
  C     -0.540818    7.189409    0.718210
  C     -1.268694    7.552179   -0.585230
  C      2.025864    7.321825    0.405024
  C      3.142376    6.488641    0.098903
  H      1.172984    0.431874   -1.221490
  H      2.510482   -2.794367    1.735920
  H      3.881943   -0.555699    2.066851
  H      4.048505    1.817670    1.188161
  H      2.322853    2.554868   -1.249191
  H      4.268070    4.229658   -1.289345
  H      4.515361    3.958012    0.437998
  H     -0.449752    8.089138    1.349209
  H     -1.149864    6.472368    1.294309
  H     -0.686138    8.284370   -1.165609
  H     -2.258548    7.988575   -0.374359
  H     -1.411067    6.663525   -1.219731
  H      2.097484    8.400406    0.560820
  H      4.165550    6.855738   -0.004293

 Multiplicity           Mult            ....    1
 Number of Electrons    NEL             ....  124
 Basis Dimension        Dim             ....  288

ORBITAL ENERGIES
----------------

  NO   OCC          E(Eh)            E(eV)
   0   2.0000     -88.875729     -2418.4315
   1   2.0000     -88.862098     -2418.0606
   2   2.0000     -10.212409      -277.8938
   3   2.0000     -10.210171      -277.8329
   4   2.0000     -10.207353      -277.7562
   5   2.0000     -10.204178      -277.6698
   6   2.0000     -10.204066      -277.6668
   7   2.0000     -10.198920      -277.5267
   8   2.0000     -10.197541      -277.4892
   9   2.0000     -10.195137      -277.4238
  10   2.0000     -10.193996      -277.3927
  11   2.0000     -10.193288      -277.3735
  12   2.0000     -10.182365      -277.0762
  13   2.0000     -10.181413      -277.0503
  14   2.0000     -10.180617      -277.0287
  15   2.0000      -7.970780      -216.8959
  16   2.0000      -7.956836      -216.5165
  17   2.0000      -5.938763      -161.6020
  18   2.0000      -5.934665      -161.4905
  19   2.0000      -5.932466      -161.4306
  20   2.0000      -5.924823      -161.2226
  21   2.0000      -5.920959      -161.1175
  22   2.0000      -5.918278      -161.0445
  23   2.0000      -0.879620       -23.9357
  24   2.0000      -0.871665       -23.7192
  25   2.0000      -0.805870       -21.9288
  26   2.0000      -0.776385       -21.1265
  27   2.0000      -0.749183       -20.3863
  28   2.0000      -0.723735       -19.6938
  29   2.0000      -0.719226       -19.5711
  30   2.0000      -0.700188       -19.0531
  31   2.0000      -0.660828       -17.9821
  32   2.0000      -0.615630       -16.7522
  33   2.0000      -0.586642       -15.9634
  34   2.0000      -0.557059       -15.1584
  35   2.0000      -0.540124       -14.6975
  36   2.0000      -0.534495       -14.5443
  37   2.0000      -0.523067       -14.2334
  38   2.0000      -0.506874       -13.7927
  39   2.0000      -0.482605       -13.1324
  40   2.0000      -0.445266       -12.1163
  41   2.0000      -0.443926       -12.0798
  42   2.0000      -0.439307       -11.9541
  43   2.0000      -0.423342       -11.5197
  44   2.0000      -0.412837       -11.2339
  45   2.0000      -0.401903       -10.9363
  46   2.0000      -0.393125       -10.6975
  47   2.0000      -0.389068       -10.5871
  48   2.0000      -0.388576       -10.5737
  49   2.0000      -0.379519       -10.3272
  50   2.0000      -0.371977       -10.1220
  51   2.0000      -0.366984        -9.9861
  52   2.0000      -0.350724        -9.5437
  53   2.0000      -0.347915        -9.4672
  54   2.0000      -0.342599        -9.3226
  55   2.0000      -0.339558        -9.2398
  56   2.0000      -0.328902        -8.9499
  57   2.0000      -0.301025        -8.1913
  58   2.0000      -0.249242        -6.7822
  59   2.0000      -0.246009        -6.6943
  60   2.0000      -0.221334        -6.0228
  61   2.0000      -0.215935        -5.8759
  62   0.0000      -0.039835        -1.0840
  63   0.0000      -0.008549        -0.2326
  64   0.0000       0.007733         0.2104
  65   0.0000       0.041334         1.1248
  66   0.0000       0.045157         1.2288

MULLIKEN ATOMIC CHARGES
-----------------------
   0 C :   -0.136269
   1 S :    0.103217
   2 C :   -0.087027
   3 C :    0.013991
   4 C :    0.075703
   5 C :    0.030365
   6 C :   -0.100497
   7 C :    0.200399
   8 C :   -0.201438
   9 S :    0.096196
  10 C :   -0.191749
  11 C :    0.081050
  12 C :    0.019642
  13 C :    0.027613
  14 C :    0.023553
  15 H :    0.024580
  16 H :    0.029275
  17 H :   -0.011552
  18 H :   -0.024438
  19 H :   -0.002818
  20 H :    0.019558
  21 H :    0.018178
  22 H :    0.007652
  23 H :    0.006211
  24 H :    0.012886
  25 H :    0.011425
  26 H :    0.011955
  27 H :   -0.027392
  28 H :   -0.030269
Sum of atomic charges:   -0.0000000

LOEWDIN ATOMIC CHARGES
----------------------
   0 C :   -0.192528
   1 S :    0.436910
   2 C :   -0.193104
   3 C :   -0.060751
   4 C :   -0.068746
   5 C :   -0.027663
   6 C :   -0.036658
   7 C :   -0.032318
   8 C :   -0.183758
   9 S :    0.414538
  10 C :   -0.183046
  11 C :   -0.043713
  12 C :   -0.051263
  13 C :   -0.075100
  14 C :   -0.078059
  15 H :    0.023400
  16 H :    0.025540
  17 H :    0.029011
  18 H :    0.025930
  19 H :    0.019608
  20 H :    0.040863
  21 H :    0.036877
  22 H :    0.032236
  23 H :    0.026775
  24 H :    0.023151
  25 H :    0.021963
  26 H :    0.021878
  27 H :    0.024206
  28 H :    0.023824

  Mayer bond orders larger than 0.100000
B(  0-C ,  1-S ) :   1.1715 B(  0-C ,  4-C ) :   1.5220 B(  0-C , 15-H ) :   0.9583
B(  1-S ,  2-C ) :   1.1708 B(  2-C ,  3-C ) :   1.5622 B(  2-C , 16-H ) :   0.9654
B(  3-C ,  4-C ) :   1.2370 B(  3-C , 17-H ) :   0.9939 B(  4-C ,  5-C ) :   1.0852
B(  5-C ,  6-C ) :   1.8352 B(  5-C , 18-H ) :   0.9632 B(  6-C ,  7-C ) :   1.0394
B(  6-C , 19-H ) :   0.9516 B(  7-C ,  8-C ) :   1.0323 B(  7-C , 20-H ) :   0.9060
B(  7-C , 21-H ) :   0.9290 B(  8-C ,  9-S ) :   1.1432 B(  8-C , 10-C ) :   0.1008
B(  8-C , 14-C ) :   1.5868 B(  9-S , 10-C ) :   1.1308 B( 10-C , 11-C ) :   1.0632
B( 10-C , 13-C ) :   1.5854 B( 11-C , 12-C ) :   1.1012 B( 11-C , 22-H ) :   0.9269
B( 11-C , 23-H ) :   0.9264 B( 12-C , 24-H ) :   0.9704 B( 12-C , 25-H ) :   0.9628
B( 12-C , 26-H ) :   0.9681 B( 13-C , 14-C ) :   1.2272 B( 13-C , 27-H ) :   0.9891
B( 14-C , 28-H ) :   0.9916

Dispersion correction           -0.060938143
FINAL SINGLE POINT ENERGY     -1299.643363867548

DIPOLE MOMENT
-------------
                                X             Y             Z
Electronic contribution:      2.15716     -18.08945       0.50900
Nuclear contribution   :     -2.01559      18.19128      -0.45587
                        -----------------------------------------
Total Dipole Moment    :      0.14156       0.10183       0.05313
                        -----------------------------------------
Magnitude (a.u.)       :      0.18230
Magnitude (Debye)      :      0.46336

Rotational constants in cm-1:     0.035969     0.005781     0.005208
Rotational constants in MHz :  1078.332459   173.309983   156.134001

                             ****ORCA TERMINATED NORMALLY****
TOTAL RUN TIME: 0 days 0 hours 27 minutes 42 seconds 718 msec
