                         Program Version 4.2.0 -  RELEASE  -
|  1> # ORCA input file
|  2> # SCF done        -33.380528233497          0.000570229951
|  3> ! B3LYP/G D3BJ Opt RIJCOSX def2-SVP def2/J
|  4> * xyz 0 1
|  5>    C       -0.55152         0.65253         0.07805
|  6>    O       -1.19890        -0.50462         0.16689
|  7>    C       -0.29596        -1.50440        -0.01747
|  8>    C        0.94729        -0.96529        -0.22773
|  9>    C        0.78400         0.44381        -0.16579
| 10>    C        1.80031         1.48858        -0.32106
| 11>    O        1.58363         2.67401        -0.25733
| 12>    O        3.01776         0.96866        -0.54243
| 13>    C        4.06980         1.90717        -0.70202
| 14>    C       -0.77650        -2.86323         0.03783
| 15>    C       -0.01447        -3.94394        -0.09275
| 16>    H       -1.10799         1.56046         0.19996
| 17>    H        1.86391        -1.48564        -0.40602
| 18>    H        4.98427         1.32706        -0.79367
| 19>    H        4.11956         2.57225         0.16269
| 20>    H        3.90731         2.51077        -1.59766
| 21>    H       -1.84198        -2.95221         0.20172
| 22>    H        1.04723        -3.87502        -0.25331
| 23>    H       -0.43302        -4.93314        -0.04215
| 24> *
| 25>
| 26>                          ****END OF INPUT****
 Total Charge           Charge          ....    0
 Multiplicity           Mult            ....    1
 Number of Electrons    NEL             ....   80
Dispersion correction           -0.029887459
FINAL SINGLE POINT ENERGY      -534.945035299594
Dispersion correction            ... done
Dispersion correction           -0.029801140
FINAL SINGLE POINT ENERGY      -534.947166706923
Dispersion correction            ... done
Dispersion correction           -0.029773324
FINAL SINGLE POINT ENERGY      -534.947282178694
Dispersion correction            ... done
FINAL SINGLE POINT ENERGY      -534.947266745762
FINAL SINGLE POINT ENERGY      -534.947261728980
FINAL SINGLE POINT ENERGY      -534.947299953084
FINAL SINGLE POINT ENERGY      -534.947305106877
FINAL SINGLE POINT ENERGY      -534.947306310634
FINAL SINGLE POINT ENERGY      -534.947294083670
FINAL SINGLE POINT ENERGY      -534.947286091287
FINAL SINGLE POINT ENERGY      -534.947267705011
FINAL SINGLE POINT ENERGY      -534.947280922301
Dispersion correction            ... done
Dispersion correction           -0.029759174
FINAL SINGLE POINT ENERGY      -534.947296239487
Dispersion correction            ... done
Dispersion correction           -0.029759035
FINAL SINGLE POINT ENERGY      -534.947300454017
Dispersion correction            ... done
                    ***********************HURRAY********************

CARTESIAN COORDINATES (ANGSTROEM)
---------------------------------
  C     -0.532341    0.652583    0.038467
  O     -1.178943   -0.520872    0.122100
  C     -0.256935   -1.533662   -0.019363
  C      0.989221   -0.981344   -0.190956
  C      0.810609    0.440131   -0.158639
  C      1.806218    1.512757   -0.313817
  O      1.565856    2.696701   -0.246325
  O      3.034646    1.012065   -0.554465
  C      4.081430    1.965364   -0.710450
  C     -0.785928   -2.881485    0.033540
  C     -0.074494   -4.014618   -0.068442
  H     -1.120370    1.560785    0.132012
  H      1.928546   -1.507813   -0.331359
  H      4.976986    1.392511   -0.981408
  H      4.251070    2.517607    0.227322
  H      3.835001    2.693083   -1.497094
  H     -1.870777   -2.928505    0.172467
  H      1.010749   -4.009030   -0.206504
  H     -0.565815   -4.988448   -0.019336

 Multiplicity           Mult            ....    1
 Number of Electrons    NEL             ....   80
 Basis Dimension        Dim             ....  194

ORBITAL ENERGIES
----------------

  NO   OCC          E(Eh)            E(eV)
   0   2.0000     -19.216842      -522.9169
   1   2.0000     -19.179425      -521.8987
   2   2.0000     -19.120001      -520.2817
   3   2.0000     -10.317086      -280.7422
   4   2.0000     -10.257454      -279.1195
   5   2.0000     -10.253420      -279.0097
   6   2.0000     -10.246787      -278.8292
   7   2.0000     -10.209689      -277.8197
   8   2.0000     -10.204086      -277.6673
   9   2.0000     -10.200794      -277.5777
  10   2.0000     -10.198915      -277.5266
  11   2.0000      -1.120952       -30.5027
  12   2.0000      -1.096857       -29.8470
  13   2.0000      -1.005890       -27.3717
  14   2.0000      -0.819025       -22.2868
  15   2.0000      -0.805541       -21.9199
  16   2.0000      -0.736684       -20.0462
  17   2.0000      -0.729157       -19.8414
  18   2.0000      -0.644179       -17.5290
  19   2.0000      -0.609855       -16.5950
  20   2.0000      -0.584731       -15.9114
  21   2.0000      -0.548330       -14.9208
  22   2.0000      -0.534403       -14.5419
  23   2.0000      -0.493396       -13.4260
  24   2.0000      -0.489383       -13.3168
  25   2.0000      -0.472037       -12.8448
  26   2.0000      -0.469739       -12.7822
  27   2.0000      -0.466152       -12.6846
  28   2.0000      -0.433937       -11.8080
  29   2.0000      -0.423746       -11.5307
  30   2.0000      -0.417550       -11.3621
  31   2.0000      -0.402931       -10.9643
  32   2.0000      -0.390251       -10.6193
  33   2.0000      -0.371810       -10.1175
  34   2.0000      -0.360616        -9.8129
  35   2.0000      -0.321213        -8.7407
  36   2.0000      -0.307025        -8.3546
  37   2.0000      -0.292902        -7.9703
  38   2.0000      -0.281583        -7.6623
  39   2.0000      -0.226224        -6.1559
  40   0.0000      -0.045830        -1.2471
  41   0.0000      -0.032270        -0.8781
  42   0.0000       0.070905         1.9294
  43   0.0000       0.073219         1.9924
  44   0.0000       0.073810         2.0085

MULLIKEN ATOMIC CHARGES
-----------------------
   0 C :    0.128029
   1 O :   -0.204929
   2 C :    0.157141
   3 C :   -0.052176
   4 C :   -0.026467
   5 C :    0.196525
   6 O :   -0.220866
   7 O :   -0.310287
   8 C :    0.200470
   9 C :    0.005737
  10 C :   -0.029058
  11 H :    0.023631
  12 H :   -0.010306
  13 H :    0.026682
  14 H :    0.026652
  15 H :    0.031224
  16 H :    0.006524
  17 H :    0.023153
  18 H :    0.028320
Sum of atomic charges:    0.0000000

LOEWDIN ATOMIC CHARGES
----------------------
   0 C :    0.080316
   1 O :    0.014397
   2 C :    0.027035
   3 C :   -0.042085
   4 C :   -0.113672
   5 C :    0.084111
   6 O :   -0.184949
   7 O :   -0.099097
   8 C :    0.085054
   9 C :   -0.037022
  10 C :   -0.040589
  11 H :    0.032862
  12 H :    0.034787
  13 H :    0.023397
  14 H :    0.021365
  15 H :    0.021852
  16 H :    0.038481
  17 H :    0.024674
  18 H :    0.029082

  Mayer bond orders larger than 0.100000
B(  0-C ,  1-O ) :   1.1788 B(  0-C ,  4-C ) :   1.4860 B(  0-C , 11-H ) :   1.0008
B(  1-O ,  2-C ) :   1.0886 B(  2-C ,  3-C ) :   1.5034 B(  2-C ,  9-C ) :   1.1052
B(  3-C ,  4-C ) :   1.2057 B(  3-C , 12-H ) :   1.0111 B(  4-C ,  5-C ) :   0.9509
B(  5-C ,  6-O ) :   2.1062 B(  5-C ,  7-O ) :   1.2205 B(  7-O ,  8-C ) :   0.9241
B(  8-C , 13-H ) :   0.9793 B(  8-C , 14-H ) :   0.9750 B(  8-C , 15-H ) :   0.9720
B(  9-C , 10-C ) :   1.9174 B(  9-C , 16-H ) :   0.9471 B( 10-C , 17-H ) :   0.9533
B( 10-C , 18-H ) :   0.9464

Dispersion correction           -0.029758480
FINAL SINGLE POINT ENERGY      -534.947302307872

DIPOLE MOMENT
-------------
                                X             Y             Z
Electronic contribution:     -4.38333       3.65014       0.77869
Nuclear contribution   :      4.78926      -4.27931      -0.86686
                        -----------------------------------------
Total Dipole Moment    :      0.40593      -0.62917      -0.08817
                        -----------------------------------------
Magnitude (a.u.)       :      0.75393
Magnitude (Debye)      :      1.91633

Rotational constants in cm-1:     0.088476     0.019544     0.016059
Rotational constants in MHz :  2652.431686   585.918894   481.423553

                             ****ORCA TERMINATED NORMALLY****
TOTAL RUN TIME: 0 days 0 hours 13 minutes 20 seconds 190 msec
