                         Program Version 4.2.0 -  RELEASE  -
|  1> # ORCA input file
|  2> # SCF done        -40.306786086779          0.000453468829
|  3> ! B3LYP/G D3BJ Opt RIJCOSX def2-SVP def2/J
|  4> * xyz 0 1
|  5>    C        1.34479         1.22064         0.07869
|  6>    S        2.52713        -0.03224         0.03786
|  7>    C        0.09596         0.69468         0.03404
|  8>    C       -1.29233         1.18875         0.03472
|  9>    O       -1.72184         2.31303         0.07577
| 10>    N       -2.07044         0.03922        -0.03634
| 11>    C       -3.51753         0.06831        -0.03176
| 12>    C       -4.06589         0.08928         1.39071
| 13>    C       -1.34108        -1.14475        -0.07683
| 14>    O       -1.83824        -2.24307        -0.14203
| 15>    C        0.06937        -0.72829        -0.03437
| 16>    C        1.31692        -1.29936        -0.04271
| 17>    C        1.75535        -2.66741        -0.10202
| 18>    C        0.93835        -3.71632        -0.17033
| 19>    H        1.64713         2.24716         0.13212
| 20>    H       -3.86149        -0.82370        -0.56066
| 21>    H       -3.82977         0.96568        -0.57156
| 22>    H       -3.74345        -0.79761         1.93161
| 23>    H       -5.15167         0.10852         1.36575
| 24>    H       -3.71178         0.97352         1.91561
| 25>    H        2.82973        -2.80022        -0.08806
| 26>    H       -0.13184        -3.60159        -0.18656
| 27>    H        1.32778        -4.71872        -0.21291
| 28> *
| 29>
| 30>                          ****END OF INPUT****
 Total Charge           Charge          ....    0
 Multiplicity           Mult            ....    1
 Number of Electrons    NEL             ....  108
Dispersion correction           -0.049693999
FINAL SINGLE POINT ENERGY      -989.388212694397
Dispersion correction            ... done
Dispersion correction           -0.049327853
FINAL SINGLE POINT ENERGY      -989.391063415809
Dispersion correction            ... done
Dispersion correction           -0.049279981
FINAL SINGLE POINT ENERGY      -989.391172042509
Dispersion correction            ... done
FINAL SINGLE POINT ENERGY      -989.391167945084
FINAL SINGLE POINT ENERGY      -989.391175424129
FINAL SINGLE POINT ENERGY      -989.391179641313
FINAL SINGLE POINT ENERGY      -989.391169387814
FINAL SINGLE POINT ENERGY      -989.391148545030
FINAL SINGLE POINT ENERGY      -989.391135020123
FINAL SINGLE POINT ENERGY      -989.391119829786
FINAL SINGLE POINT ENERGY      -989.391125834220
Dispersion correction            ... done
Dispersion correction           -0.049312701
FINAL SINGLE POINT ENERGY      -989.391142536582
Dispersion correction            ... done
Dispersion correction           -0.049309458
FINAL SINGLE POINT ENERGY      -989.391146851774
Dispersion correction            ... done
                    ***********************HURRAY********************

CARTESIAN COORDINATES (ANGSTROEM)
---------------------------------
  C      1.346813    1.234194    0.104650
  S      2.532364   -0.032333    0.075765
  C      0.093791    0.695241    0.023551
  C     -1.306901    1.194837    0.031011
  O     -1.734056    2.321699    0.123118
  N     -2.098009    0.035399   -0.082219
  C     -3.550775    0.062582   -0.023795
  C     -4.072367    0.143102    1.410051
  C     -1.347355   -1.155508   -0.151215
  O     -1.829994   -2.263354   -0.255564
  C      0.071741   -0.725482   -0.071557
  C      1.325380   -1.308303   -0.052114
  C      1.777698   -2.688958   -0.102776
  C      0.977621   -3.765774   -0.176830
  H      1.641046    2.279154    0.185813
  H     -3.906043   -0.850676   -0.521442
  H     -3.888720    0.931607   -0.607080
  H     -3.737335   -0.725854    1.997434
  H     -5.173726    0.157104    1.419603
  H     -3.714038    1.059935    1.901747
  H      2.863601   -2.827829   -0.068806
  H     -0.111261   -3.668617   -0.214437
  H      1.415687   -4.766656   -0.204170

 Multiplicity           Mult            ....    1
 Number of Electrons    NEL             ....  108
 Basis Dimension        Dim             ....  245

ORBITAL ENERGIES
----------------

  NO   OCC          E(Eh)            E(eV)
   0   2.0000     -88.901493     -2419.1326
   1   2.0000     -19.135696      -520.7088
   2   2.0000     -19.131905      -520.6056
   3   2.0000     -14.377818      -391.2403
   4   2.0000     -10.315787      -280.7068
   5   2.0000     -10.312488      -280.6171
   6   2.0000     -10.253140      -279.0021
   7   2.0000     -10.244790      -278.7749
   8   2.0000     -10.231474      -278.4126
   9   2.0000     -10.217644      -278.0362
  10   2.0000     -10.217634      -278.0360
  11   2.0000     -10.215846      -277.9873
  12   2.0000     -10.202307      -277.6189
  13   2.0000     -10.188416      -277.2409
  14   2.0000      -7.996291      -217.5901
  15   2.0000      -5.964347      -162.2981
  16   2.0000      -5.960173      -162.1846
  17   2.0000      -5.957811      -162.1203
  18   2.0000      -1.064648       -28.9705
  19   2.0000      -1.045429       -28.4476
  20   2.0000      -0.956422       -26.0256
  21   2.0000      -0.906860       -24.6769
  22   2.0000      -0.811216       -22.0743
  23   2.0000      -0.797870       -21.7111
  24   2.0000      -0.741683       -20.1822
  25   2.0000      -0.732357       -19.9285
  26   2.0000      -0.664292       -18.0763
  27   2.0000      -0.660696       -17.9785
  28   2.0000      -0.620701       -16.8901
  29   2.0000      -0.593028       -16.1371
  30   2.0000      -0.576963       -15.7000
  31   2.0000      -0.535227       -14.5643
  32   2.0000      -0.496127       -13.5003
  33   2.0000      -0.487625       -13.2689
  34   2.0000      -0.480527       -13.0758
  35   2.0000      -0.474712       -12.9176
  36   2.0000      -0.466938       -12.7060
  37   2.0000      -0.449623       -12.2349
  38   2.0000      -0.434598       -11.8260
  39   2.0000      -0.421572       -11.4716
  40   2.0000      -0.418227       -11.3805
  41   2.0000      -0.409914       -11.1543
  42   2.0000      -0.406266       -11.0551
  43   2.0000      -0.393483       -10.7072
  44   2.0000      -0.383307       -10.4303
  45   2.0000      -0.380655       -10.3581
  46   2.0000      -0.373398       -10.1607
  47   2.0000      -0.358104        -9.7445
  48   2.0000      -0.323825        -8.8117
  49   2.0000      -0.293319        -7.9816
  50   2.0000      -0.290589        -7.9073
  51   2.0000      -0.276150        -7.5144
  52   2.0000      -0.270981        -7.3738
  53   2.0000      -0.243425        -6.6239
  54   0.0000      -0.081612        -2.2208
  55   0.0000      -0.065430        -1.7804
  56   0.0000       0.004344         0.1182
  57   0.0000       0.016676         0.4538
  58   0.0000       0.065273         1.7762

MULLIKEN ATOMIC CHARGES
-----------------------
   0 C :   -0.128536
   1 S :    0.132407
   2 C :    0.014598
   3 C :    0.212884
   4 O :   -0.176910
   5 N :   -0.326118
   6 C :    0.157288
   7 C :   -0.027653
   8 C :    0.223128
   9 O :   -0.190091
  10 C :    0.010624
  11 C :   -0.164394
  12 C :    0.026404
  13 C :   -0.018199
  14 H :    0.042403
  15 H :    0.026114
  16 H :    0.023393
  17 H :    0.024520
  18 H :    0.026722
  19 H :    0.031074
  20 H :   -0.009399
  21 H :    0.061965
  22 H :    0.027775
Sum of atomic charges:   -0.0000000

LOEWDIN ATOMIC CHARGES
----------------------
   0 C :   -0.150400
   1 S :    0.458606
   2 C :   -0.091589
   3 C :    0.088982
   4 O :   -0.163347
   5 N :   -0.038044
   6 C :    0.046490
   7 C :   -0.061481
   8 C :    0.095811
   9 O :   -0.165932
  10 C :   -0.098883
  11 C :   -0.134289
  12 C :   -0.056444
  13 C :   -0.006641
  14 H :    0.038012
  15 H :    0.030642
  16 H :    0.030452
  17 H :    0.027188
  18 H :    0.031359
  19 H :    0.028834
  20 H :    0.028898
  21 H :    0.032307
  22 H :    0.029467

  Mayer bond orders larger than 0.100000
B(  0-C ,  1-S ) :   1.1562 B(  0-C ,  2-C ) :   1.5406 B(  0-C , 14-H ) :   0.9670
B(  1-S , 11-C ) :   1.1411 B(  2-C ,  3-C ) :   0.8942 B(  2-C , 10-C ) :   1.2624
B(  3-C ,  4-O ) :   2.1734 B(  3-C ,  5-N ) :   1.0453 B(  5-N ,  6-C ) :   0.9281
B(  5-N ,  8-C ) :   1.0638 B(  6-C ,  7-C ) :   1.1244 B(  6-C , 15-H ) :   0.9371
B(  6-C , 16-H ) :   0.9391 B(  7-C , 17-H ) :   0.9674 B(  7-C , 18-H ) :   0.9673
B(  7-C , 19-H ) :   0.9681 B(  8-C ,  9-O ) :   2.0742 B(  8-C , 10-C ) :   0.9166
B( 10-C , 11-C ) :   1.4935 B( 11-C , 12-C ) :   1.1214 B( 12-C , 13-C ) :   1.9067
B( 12-C , 20-H ) :   0.9485 B( 13-C , 21-H ) :   0.9300 B( 13-C , 22-H ) :   0.9411

Dispersion correction           -0.049308072
FINAL SINGLE POINT ENERGY      -989.391147760235

DIPOLE MOMENT
-------------
                                X             Y             Z
Electronic contribution:     11.44352       4.25207      -2.93349
Nuclear contribution   :    -10.73781      -4.46807       3.03286
                        -----------------------------------------
Total Dipole Moment    :      0.70571      -0.21600       0.09937
                        -----------------------------------------
Magnitude (a.u.)       :      0.74468
Magnitude (Debye)      :      1.89284

Rotational constants in cm-1:     0.033515     0.016602     0.011537
Rotational constants in MHz :  1004.749146   497.715975   345.878279

                             ****ORCA TERMINATED NORMALLY****
TOTAL RUN TIME: 0 days 0 hours 21 minutes 48 seconds 406 msec
