                         Program Version 4.2.0 -  RELEASE  -
|  1> # ORCA input file
|  2> # SCF done        -26.714985249252          0.000777498740
|  3> ! B3LYP/G D3BJ Opt RIJCOSX def2-SVP def2/J
|  4> * xyz 0 1
|  5>    C        0.60943         1.46357        -0.01109
|  6>    C       -0.72720         1.11230        -0.14205
|  7>    N       -1.16382        -0.12885        -0.12063
|  8>    C       -0.28074        -1.11868         0.03493
|  9>    C        1.08885        -0.86340         0.17436
| 10>    C        1.53542         0.44393         0.15088
| 11>    C       -0.78217        -2.47875         0.05618
| 12>    C       -2.08062        -2.79390        -0.06717
| 13>    C       -2.58180        -4.14179        -0.04435
| 14>    C       -3.87191        -4.44903        -0.16362
| 15>    H        0.91380         2.49830        -0.03478
| 16>    H       -1.49113         1.86934        -0.27046
| 17>    H        1.78162        -1.68247         0.29849
| 18>    H        2.58780         0.66709         0.25701
| 19>    H       -0.03978        -3.25700         0.18116
| 20>    H       -2.79752        -1.99460        -0.19031
| 21>    H       -1.84677        -4.92794         0.07721
| 22>    H       -4.62158        -3.68530        -0.28747
| 23>    H       -4.22095        -5.46711        -0.14438
| 24> *
| 25>
| 26>                          ****END OF INPUT****
 Total Charge           Charge          ....    0
 Multiplicity           Mult            ....    1
 Number of Electrons    NEL             ....   70
Dispersion correction           -0.032926683
FINAL SINGLE POINT ENERGY      -402.836055948430
Dispersion correction            ... done
Dispersion correction           -0.032674866
FINAL SINGLE POINT ENERGY      -402.838729225578
Dispersion correction            ... done
Dispersion correction           -0.032651710
FINAL SINGLE POINT ENERGY      -402.838774234273
Dispersion correction            ... done
Dispersion correction           -0.032647154
FINAL SINGLE POINT ENERGY      -402.838785778939
Dispersion correction            ... done
Dispersion correction           -0.032650035
FINAL SINGLE POINT ENERGY      -402.838788319927
Dispersion correction            ... done
                    ***********************HURRAY********************

CARTESIAN COORDINATES (ANGSTROEM)
---------------------------------
  C      0.637092    1.492523   -0.012351
  C     -0.716921    1.153719   -0.135814
  N     -1.171466   -0.094389   -0.110993
  C     -0.288691   -1.101639    0.038058
  C      1.092474   -0.855926    0.169574
  C      1.558436    0.457034    0.143868
  C     -0.795784   -2.475516    0.061375
  C     -2.099604   -2.807478   -0.059981
  C     -2.596751   -4.168142   -0.041243
  C     -3.893571   -4.499500   -0.172534
  H      0.954994    2.536906   -0.040827
  H     -1.466881    1.943263   -0.265307
  H      1.782432   -1.693229    0.295522
  H      2.625120    0.671643    0.249379
  H     -0.047018   -3.264794    0.189135
  H     -2.821525   -1.993881   -0.185242
  H     -1.851887   -4.962074    0.092203
  H     -4.662496   -3.733011   -0.309027
  H     -4.227023   -5.539799   -0.151885

 Multiplicity           Mult            ....    1
 Number of Electrons    NEL             ....   70
 Basis Dimension        Dim             ....  185

ORBITAL ENERGIES
----------------

  NO   OCC          E(Eh)            E(eV)
   0   2.0000     -14.320008      -389.6672
   1   2.0000     -10.230554      -278.3875
   2   2.0000     -10.225428      -278.2480
   3   2.0000     -10.210996      -277.8553
   4   2.0000     -10.200846      -277.5791
   5   2.0000     -10.199935      -277.5543
   6   2.0000     -10.195263      -277.4272
   7   2.0000     -10.191753      -277.3317
   8   2.0000     -10.190751      -277.3044
   9   2.0000     -10.190244      -277.2906
  10   2.0000      -0.937937       -25.5226
  11   2.0000      -0.808432       -21.9986
  12   2.0000      -0.797569       -21.7030
  13   2.0000      -0.769922       -20.9506
  14   2.0000      -0.718122       -19.5411
  15   2.0000      -0.640996       -17.4424
  16   2.0000      -0.629027       -17.1167
  17   2.0000      -0.581748       -15.8302
  18   2.0000      -0.547983       -14.9114
  19   2.0000      -0.519234       -14.1291
  20   2.0000      -0.494695       -13.4613
  21   2.0000      -0.473134       -12.8746
  22   2.0000      -0.454464       -12.3666
  23   2.0000      -0.443063       -12.0563
  24   2.0000      -0.414001       -11.2655
  25   2.0000      -0.409364       -11.1394
  26   2.0000      -0.399746       -10.8776
  27   2.0000      -0.384909       -10.4739
  28   2.0000      -0.371805       -10.1173
  29   2.0000      -0.349396        -9.5075
  30   2.0000      -0.334302        -9.0968
  31   2.0000      -0.294734        -8.0201
  32   2.0000      -0.282568        -7.6891
  33   2.0000      -0.256770        -6.9871
  34   2.0000      -0.219922        -5.9844
  35   0.0000      -0.063788        -1.7357
  36   0.0000      -0.026201        -0.7130
  37   0.0000       0.013469         0.3665
  38   0.0000       0.059716         1.6250
  39   0.0000       0.074423         2.0251

MULLIKEN ATOMIC CHARGES
-----------------------
   0 C :   -0.007771
   1 C :    0.037269
   2 N :   -0.097150
   3 C :    0.023175
   4 C :   -0.014184
   5 C :    0.064670
   6 C :   -0.008125
   7 C :    0.043645
   8 C :    0.003729
   9 C :   -0.019308
  10 H :   -0.009156
  11 H :    0.002289
  12 H :   -0.019278
  13 H :   -0.005468
  14 H :   -0.029915
  15 H :    0.003061
  16 H :   -0.009378
  17 H :    0.020481
  18 H :    0.021415
Sum of atomic charges:   -0.0000000

LOEWDIN ATOMIC CHARGES
----------------------
   0 C :   -0.051559
   1 C :    0.023236
   2 N :   -0.082663
   3 C :    0.011329
   4 C :   -0.038111
   5 C :    0.002199
   6 C :   -0.040651
   7 C :    0.003490
   8 C :   -0.028987
   9 C :   -0.039681
  10 H :    0.029286
  11 H :    0.020822
  12 H :    0.028303
  13 H :    0.031549
  14 H :    0.023072
  15 H :    0.032427
  16 H :    0.026722
  17 H :    0.024452
  18 H :    0.024765

  Mayer bond orders larger than 0.100000
B(  0-C ,  1-C ) :   1.3539 B(  0-C ,  5-C ) :   1.4023 B(  0-C , 10-H ) :   0.9737
B(  1-C ,  2-N ) :   1.5582 B(  1-C , 11-H ) :   0.9712 B(  2-N ,  3-C ) :   1.4888
B(  3-C ,  4-C ) :   1.3340 B(  3-C ,  6-C ) :   1.0721 B(  4-C ,  5-C ) :   1.4034
B(  4-C , 12-H ) :   0.9731 B(  5-C , 13-H ) :   0.9771 B(  6-C ,  7-C ) :   1.7027
B(  6-C ,  9-C ) :   0.1182 B(  6-C , 14-H ) :   0.9706 B(  7-C ,  8-C ) :   1.1080
B(  7-C , 15-H ) :   0.9610 B(  8-C ,  9-C ) :   1.8758 B(  8-C , 16-H ) :   0.9670
B(  9-C , 17-H ) :   0.9526 B(  9-C , 18-H ) :   0.9492

Dispersion correction           -0.032652125
FINAL SINGLE POINT ENERGY      -402.838789336146

DIPOLE MOMENT
-------------
                                X             Y             Z
Electronic contribution:      2.57439       4.08753       0.06743
Nuclear contribution   :     -1.93731      -4.01177      -0.00355
                        -----------------------------------------
Total Dipole Moment    :      0.63708       0.07575       0.06388
                        -----------------------------------------
Magnitude (a.u.)       :      0.64474
Magnitude (Debye)      :      1.63880

Rotational constants in cm-1:     0.159147     0.020369     0.018058
Rotational constants in MHz :  4771.099605   610.654672   541.368358

                             ****ORCA TERMINATED NORMALLY****
TOTAL RUN TIME: 0 days 0 hours 4 minutes 51 seconds 100 msec
