                         Program Version 4.2.0 -  RELEASE  -
|  1> # ORCA input file
|  2> # SCF done        -40.442062367289          0.000731189573
|  3> ! B3LYP/G D3BJ Opt RIJCOSX def2-SVP def2/J
|  4> * xyz 0 1
|  5>    C       -1.78761         1.37630         0.11931
|  6>    S       -2.88776         0.07896         0.13080
|  7>    C       -1.62263        -1.10864         0.09601
|  8>    C       -0.37679        -0.48848         0.07762
|  9>    C       -0.47848         0.94533         0.08960
| 10>    C        0.69418         1.72900         0.06900
| 11>    C        1.91525         1.11044         0.04162
| 12>    C        3.09793         1.88266         0.01730
| 13>    N        4.04071         2.53442        -0.00321
| 14>    C        2.02544        -0.32445         0.03646
| 15>    O        3.30130        -0.78312         0.01572
| 16>    C        3.51946        -2.17208         0.02037
| 17>    C        0.89904        -1.09883         0.05239
| 18>    C       -1.91134        -2.51181         0.08496
| 19>    C       -3.13256        -3.04446         0.10398
| 20>    H       -2.14677         2.38581         0.13440
| 21>    H        0.62479         2.80635         0.07422
| 22>    H        4.60046        -2.29818         0.00962
| 23>    H        3.08908        -2.64813        -0.86665
| 24>    H        3.10786        -2.63862         0.92131
| 25>    H        0.96298        -2.17441         0.04682
| 26>    H       -1.04432        -3.15947         0.05719
| 27>    H       -4.01585        -2.42837         0.13295
| 28>    H       -3.28343        -4.10876         0.09154
| 29> *
| 30>
| 31>                          ****END OF INPUT****
 Total Charge           Charge          ....    0
 Multiplicity           Mult            ....    1
 Number of Electrons    NEL             ....  112
Dispersion correction           -0.054565816
FINAL SINGLE POINT ENERGY      -990.318714229926
Dispersion correction            ... done
Dispersion correction           -0.054247073
FINAL SINGLE POINT ENERGY      -990.322461851932
Dispersion correction            ... done
Dispersion correction           -0.054187570
FINAL SINGLE POINT ENERGY      -990.322580607712
Dispersion correction            ... done
FINAL SINGLE POINT ENERGY      -990.322599174664
Dispersion correction            ... done
Dispersion correction           -0.054177777
FINAL SINGLE POINT ENERGY      -990.322601662413
Dispersion correction            ... done
Dispersion correction           -0.054180445
FINAL SINGLE POINT ENERGY      -990.322601146519
Dispersion correction            ... done
                    ***********************HURRAY********************

CARTESIAN COORDINATES (ANGSTROEM)
---------------------------------
  C     -1.801451    1.413793    0.116057
  S     -2.903337    0.107096    0.135397
  C     -1.645972   -1.096265    0.105981
  C     -0.387938   -0.476974    0.084261
  C     -0.483136    0.970539    0.089209
  C      0.706347    1.753088    0.067569
  C      1.935004    1.131381    0.042265
  C      3.144532    1.898657    0.021940
  N      4.114038    2.536972    0.004925
  C      2.030041   -0.317553    0.037159
  O      3.293996   -0.780450    0.011317
  C      3.509705   -2.173800    0.011967
  C      0.897476   -1.097739    0.057616
  C     -1.932991   -2.515866    0.100670
  C     -3.142200   -3.104155    0.095831
  H     -2.158220    2.441953    0.125408
  H      0.648724    2.843044    0.071082
  H      4.596332   -2.323369   -0.007672
  H      3.059128   -2.651586   -0.876291
  H      3.092201   -2.644742    0.919977
  H      0.973038   -2.183631    0.053538
  H     -1.043312   -3.154652    0.098989
  H     -4.068896   -2.522939    0.093820
  H     -3.242168   -4.191344    0.092316

 Multiplicity           Mult            ....    1
 Number of Electrons    NEL             ....  112
 Basis Dimension        Dim             ....  259

ORBITAL ENERGIES
----------------

  NO   OCC          E(Eh)            E(eV)
   0   2.0000     -88.896811     -2419.0052
   1   2.0000     -19.185701      -522.0695
   2   2.0000     -14.321138      -389.6980
   3   2.0000     -10.275251      -279.6038
   4   2.0000     -10.260120      -279.1921
   5   2.0000     -10.238610      -278.6067
   6   2.0000     -10.232923      -278.4520
   7   2.0000     -10.228766      -278.3389
   8   2.0000     -10.228352      -278.3276
   9   2.0000     -10.222900      -278.1793
  10   2.0000     -10.219150      -278.0772
  11   2.0000     -10.217906      -278.0433
  12   2.0000     -10.214067      -277.9389
  13   2.0000     -10.206605      -277.7358
  14   2.0000     -10.197715      -277.4939
  15   2.0000      -7.991408      -217.4573
  16   2.0000      -5.959120      -162.1559
  17   2.0000      -5.955093      -162.0463
  18   2.0000      -5.953603      -162.0058
  19   2.0000      -1.084196       -29.5025
  20   2.0000      -0.910208       -24.7680
  21   2.0000      -0.891851       -24.2685
  22   2.0000      -0.851526       -23.1712
  23   2.0000      -0.801113       -21.7994
  24   2.0000      -0.778105       -21.1733
  25   2.0000      -0.765519       -20.8308
  26   2.0000      -0.721993       -19.6464
  27   2.0000      -0.705210       -19.1897
  28   2.0000      -0.649968       -17.6865
  29   2.0000      -0.622457       -16.9379
  30   2.0000      -0.605917       -16.4879
  31   2.0000      -0.569702       -15.5024
  32   2.0000      -0.538030       -14.6405
  33   2.0000      -0.529699       -14.4138
  34   2.0000      -0.525639       -14.3034
  35   2.0000      -0.490665       -13.3517
  36   2.0000      -0.486515       -13.2388
  37   2.0000      -0.469071       -12.7641
  38   2.0000      -0.461235       -12.5508
  39   2.0000      -0.438436       -11.9304
  40   2.0000      -0.431116       -11.7313
  41   2.0000      -0.428847       -11.6695
  42   2.0000      -0.416160       -11.3243
  43   2.0000      -0.394807       -10.7433
  44   2.0000      -0.387092       -10.5333
  45   2.0000      -0.382714       -10.4142
  46   2.0000      -0.359757        -9.7895
  47   2.0000      -0.355349        -9.6695
  48   2.0000      -0.352768        -9.5993
  49   2.0000      -0.348933        -9.4949
  50   2.0000      -0.331392        -9.0176
  51   2.0000      -0.330416        -8.9911
  52   2.0000      -0.314100        -8.5471
  53   2.0000      -0.280129        -7.6227
  54   2.0000      -0.250153        -6.8070
  55   2.0000      -0.207776        -5.6539
  56   0.0000      -0.087060        -2.3690
  57   0.0000      -0.040872        -1.1122
  58   0.0000       0.004189         0.1140
  59   0.0000       0.024560         0.6683
  60   0.0000       0.037522         1.0210

MULLIKEN ATOMIC CHARGES
-----------------------
   0 C :   -0.115379
   1 S :    0.149208
   2 C :   -0.155568
   3 C :    0.162367
   4 C :    0.091135
   5 C :   -0.008806
   6 C :   -0.132152
   7 C :   -0.111693
   8 N :    0.071112
   9 C :    0.262027
  10 O :   -0.292315
  11 C :    0.181386
  12 C :   -0.176459
  13 C :    0.009360
  14 C :   -0.044923
  15 H :    0.025718
  16 H :   -0.011873
  17 H :    0.045706
  18 H :    0.025076
  19 H :    0.024671
  20 H :   -0.035831
  21 H :   -0.009419
  22 H :    0.017908
  23 H :    0.028744
Sum of atomic charges:    0.0000000

LOEWDIN ATOMIC CHARGES
----------------------
   0 C :   -0.185568
   1 S :    0.488276
   2 C :   -0.197950
   3 C :   -0.029577
   4 C :   -0.061617
   5 C :    0.030684
   6 C :   -0.083011
   7 C :   -0.023255
   8 N :   -0.066877
   9 C :    0.065491
  10 O :   -0.077598
  11 C :    0.083196
  12 C :   -0.085323
  13 C :   -0.040799
  14 C :   -0.060143
  15 H :    0.029447
  16 H :    0.041465
  17 H :    0.032806
  18 H :    0.016312
  19 H :    0.016332
  20 H :    0.027995
  21 H :    0.033030
  22 H :    0.018243
  23 H :    0.028439

  Mayer bond orders larger than 0.100000
B(  0-C ,  1-S ) :   1.2123 B(  0-C ,  2-C ) :   0.1025 B(  0-C ,  4-C ) :   1.3810
B(  0-C , 15-H ) :   0.9663 B(  1-S ,  2-C ) :   1.1292 B(  2-C ,  3-C ) :   1.3593
B(  2-C , 13-C ) :   1.1608 B(  3-C ,  4-C ) :   1.1848 B(  3-C , 12-C ) :   1.1612
B(  4-C ,  5-C ) :   1.1496 B(  5-C ,  6-C ) :   1.5525 B(  5-C , 16-H ) :   1.0022
B(  6-C ,  7-C ) :   1.0657 B(  6-C ,  9-C ) :   1.1723 B(  7-C ,  8-N ) :   3.0072
B(  9-C , 10-O ) :   1.2000 B(  9-C , 12-C ) :   1.4460 B( 10-O , 11-C ) :   0.9558
B( 11-C , 17-H ) :   0.9751 B( 11-C , 18-H ) :   0.9645 B( 11-C , 19-H ) :   0.9645
B( 12-C , 20-H ) :   0.9880 B( 13-C , 14-C ) :   1.8907 B( 13-C , 21-H ) :   0.9477
B( 14-C , 22-H ) :   0.9548 B( 14-C , 23-H ) :   0.9459

Dispersion correction           -0.054181134
FINAL SINGLE POINT ENERGY      -990.322601084776

DIPOLE MOMENT
-------------
                                X             Y             Z
Electronic contribution:     -1.10958      10.95529       0.08452
Nuclear contribution   :     -0.18320     -12.26661      -0.06118
                        -----------------------------------------
Total Dipole Moment    :     -1.29278      -1.31132       0.02334
                        -----------------------------------------
Magnitude (a.u.)       :      1.84157
Magnitude (Debye)      :      4.68090

Rotational constants in cm-1:     0.033569     0.011697     0.008689
Rotational constants in MHz :  1006.367995   350.652936   260.484432

                             ****ORCA TERMINATED NORMALLY****
TOTAL RUN TIME: 0 days 0 hours 18 minutes 25 seconds 940 msec
