                         Program Version 4.2.0 -  RELEASE  -
|  1> # ORCA input file
|  2> # SCF done        -48.907980563309          0.000508190477
|  3> ! B3LYP/G D3BJ Opt RIJCOSX def2-SVP def2/J
|  4> * xyz 0 1
|  5>    C       -3.45588        -0.88217        -0.05904
|  6>    C       -2.38154        -1.70981        -0.09599
|  7>    C       -1.13641        -0.98017        -0.07242
|  8>    C       -1.36475         0.41966        -0.04311
|  9>    S       -3.07094         0.79630        -0.02653
| 10>    C       -0.36500         1.37608        -0.01545
| 11>    C       -0.68526         2.83988         0.04021
| 12>    C       -0.73923         3.32997         1.48833
| 13>    C        0.94711         0.89895         0.01140
| 14>    C        1.18096        -0.49485         0.00951
| 15>    C        0.17988        -1.45368        -0.02433
| 16>    C        0.55459        -2.90615        -0.02308
| 17>    C        0.83396        -3.40033        -1.44431
| 18>    S        2.89364        -0.84069         0.07373
| 19>    C        3.25976         0.85011         0.10434
| 20>    C        2.16851         1.63857         0.06671
| 21>    C       -2.55503        -3.15721        -0.18778
| 22>    C       -3.43201        -3.83537         0.53879
| 23>    H       -4.48879        -1.17164        -0.08470
| 24>    H       -1.65489         3.01232        -0.43265
| 25>    H        0.06769         3.40585        -0.51084
| 26>    H       -1.50712         2.79072         2.03813
| 27>    H       -0.97201         4.39166         1.51934
| 28>    H        0.21633         3.16664         1.98206
| 29>    H       -0.23702        -3.49811         0.43647
| 30>    H        1.46167        -3.03133         0.57406
| 31>    H       -0.02771        -3.23801        -2.08870
| 32>    H        1.07036        -4.46173        -1.43630
| 33>    H        1.67839        -2.86146        -1.86768
| 34>    H        4.28949         1.14773         0.14962
| 35>    H        2.21523         2.71242         0.08239
| 36>    H       -1.95350        -3.66762        -0.92713
| 37>    H       -4.03687        -3.35542         1.29048
| 38>    H       -3.56488        -4.89716         0.42088
| 39> *
| 40>
| 41>                          ****END OF INPUT****
 Total Charge           Charge          ....    0
 Multiplicity           Mult            ....    1
 Number of Electrons    NEL             ....  144
Dispersion correction           -0.086071571
FINAL SINGLE POINT ENERGY     -1415.133236861966
Dispersion correction            ... done
Dispersion correction           -0.085260886
FINAL SINGLE POINT ENERGY     -1415.138671224847
Dispersion correction            ... done
Dispersion correction           -0.085128189
FINAL SINGLE POINT ENERGY     -1415.138919378558
Dispersion correction            ... done
FINAL SINGLE POINT ENERGY     -1415.138925920361
FINAL SINGLE POINT ENERGY     -1415.138871317340
FINAL SINGLE POINT ENERGY     -1415.138874117440
Dispersion correction            ... done
Dispersion correction           -0.085160284
FINAL SINGLE POINT ENERGY     -1415.138866636208
Dispersion correction            ... done
Dispersion correction           -0.085158178
FINAL SINGLE POINT ENERGY     -1415.138857445709
Dispersion correction            ... done
                    ***********************HURRAY********************

CARTESIAN COORDINATES (ANGSTROEM)
---------------------------------
  C     -3.450161   -0.850290   -0.073399
  C     -2.374027   -1.698179   -0.090833
  C     -1.105862   -0.970954   -0.072123
  C     -1.326404    0.444149   -0.042971
  S     -3.041212    0.835363   -0.036517
  C     -0.312491    1.404176   -0.008610
  C     -0.631273    2.876753    0.085554
  C     -0.918114    3.328220    1.526650
  C      1.005876    0.911861   -0.000720
  C      1.236001   -0.497126   -0.017890
  C      0.220489   -1.460919   -0.040381
  C      0.583172   -2.928568   -0.061601
  C      0.821537   -3.470572   -1.478596
  S      2.962536   -0.850500    0.009207
  C      3.345096    0.852933    0.047154
  C      2.244599    1.652666    0.039635
  C     -2.571683   -3.156963   -0.139237
  C     -3.474689   -3.815440    0.601469
  H     -4.495522   -1.150609   -0.125216
  H     -1.506545    3.095643   -0.549883
  H      0.196973    3.468088   -0.334445
  H     -1.743833    2.745444    1.961643
  H     -1.200948    4.392592    1.560698
  H     -0.033977    3.182635    2.166463
  H     -0.196925   -3.516119    0.441162
  H      1.497450   -3.071342    0.538572
  H     -0.085478   -3.379084   -2.096470
  H      1.115072   -4.532423   -1.451862
  H      1.621884   -2.909478   -1.983880
  H      4.388115    1.166879    0.073904
  H      2.302390    2.741274    0.064116
  H     -1.965771   -3.720242   -0.856027
  H     -4.077002   -3.297147    1.353260
  H     -3.640542   -4.888771    0.477589

 Multiplicity           Mult            ....    1
 Number of Electrons    NEL             ....  144
 Basis Dimension        Dim             ....  340

ORBITAL ENERGIES
----------------

  NO   OCC          E(Eh)            E(eV)
   0   2.0000     -88.867739     -2418.2141
   1   2.0000     -88.867375     -2418.2042
   2   2.0000     -10.216733      -278.0114
   3   2.0000     -10.214062      -277.9388
   4   2.0000     -10.213947      -277.9356
   5   2.0000     -10.213489      -277.9232
   6   2.0000     -10.202860      -277.6339
   7   2.0000     -10.202015      -277.6109
   8   2.0000     -10.201858      -277.6067
   9   2.0000     -10.200926      -277.5813
  10   2.0000     -10.200699      -277.5751
  11   2.0000     -10.198629      -277.5188
  12   2.0000     -10.196445      -277.4594
  13   2.0000     -10.195896      -277.4444
  14   2.0000     -10.193090      -277.3681
  15   2.0000     -10.189714      -277.2762
  16   2.0000     -10.184218      -277.1266
  17   2.0000     -10.183720      -277.1131
  18   2.0000      -7.962687      -216.6757
  19   2.0000      -7.962098      -216.6597
  20   2.0000      -5.931008      -161.3909
  21   2.0000      -5.930516      -161.3775
  22   2.0000      -5.927102      -161.2846
  23   2.0000      -5.926547      -161.2696
  24   2.0000      -5.923387      -161.1836
  25   2.0000      -5.922713      -161.1652
  26   2.0000      -0.896573       -24.3970
  27   2.0000      -0.870113       -23.6770
  28   2.0000      -0.815098       -22.1799
  29   2.0000      -0.809311       -22.0225
  30   2.0000      -0.779507       -21.2115
  31   2.0000      -0.755710       -20.5639
  32   2.0000      -0.732270       -19.9261
  33   2.0000      -0.720538       -19.6068
  34   2.0000      -0.705775       -19.2051
  35   2.0000      -0.680536       -18.5183
  36   2.0000      -0.642952       -17.4956
  37   2.0000      -0.608024       -16.5452
  38   2.0000      -0.604760       -16.4564
  39   2.0000      -0.590142       -16.0586
  40   2.0000      -0.569917       -15.5082
  41   2.0000      -0.543192       -14.7810
  42   2.0000      -0.526536       -14.3278
  43   2.0000      -0.516540       -14.0558
  44   2.0000      -0.482539       -13.1305
  45   2.0000      -0.466460       -12.6930
  46   2.0000      -0.454865       -12.3775
  47   2.0000      -0.445755       -12.1296
  48   2.0000      -0.442819       -12.0497
  49   2.0000      -0.434530       -11.8242
  50   2.0000      -0.431255       -11.7350
  51   2.0000      -0.416468       -11.3327
  52   2.0000      -0.415146       -11.2967
  53   2.0000      -0.408637       -11.1196
  54   2.0000      -0.389851       -10.6084
  55   2.0000      -0.382099       -10.3975
  56   2.0000      -0.379317       -10.3217
  57   2.0000      -0.377021       -10.2593
  58   2.0000      -0.374328       -10.1860
  59   2.0000      -0.369208       -10.0466
  60   2.0000      -0.360854        -9.8193
  61   2.0000      -0.356848        -9.7103
  62   2.0000      -0.347596        -9.4586
  63   2.0000      -0.345806        -9.4099
  64   2.0000      -0.338145        -9.2014
  65   2.0000      -0.320989        -8.7346
  66   2.0000      -0.304412        -8.2835
  67   2.0000      -0.292629        -7.9629
  68   2.0000      -0.275826        -7.5056
  69   2.0000      -0.243579        -6.6281
  70   2.0000      -0.230925        -6.2838
  71   2.0000      -0.197197        -5.3660
  72   0.0000      -0.047822        -1.3013
  73   0.0000      -0.016710        -0.4547
  74   0.0000      -0.006893        -0.1876
  75   0.0000       0.023929         0.6511
  76   0.0000       0.031788         0.8650

MULLIKEN ATOMIC CHARGES
-----------------------
   0 C :   -0.112436
   1 C :    0.045219
   2 C :    0.125697
   3 C :   -0.141183
   4 S :    0.086750
   5 C :   -0.093144
   6 C :    0.037008
   7 C :    0.024463
   8 C :    0.087266
   9 C :   -0.129444
  10 C :   -0.120362
  11 C :    0.023758
  12 C :    0.028571
  13 S :    0.079991
  14 C :   -0.054463
  15 C :   -0.011454
  16 C :   -0.035820
  17 C :   -0.036173
  18 H :    0.018828
  19 H :    0.008969
  20 H :    0.000931
  21 H :    0.014541
  22 H :    0.014529
  23 H :    0.014501
  24 H :    0.012535
  25 H :    0.004031
  26 H :    0.016757
  27 H :    0.015254
  28 H :    0.011325
  29 H :    0.024443
  30 H :   -0.014180
  31 H :    0.010350
  32 H :    0.020394
  33 H :    0.022548
Sum of atomic charges:   -0.0000000

LOEWDIN ATOMIC CHARGES
----------------------
   0 C :   -0.167292
   1 C :   -0.062928
   2 C :   -0.040984
   3 C :   -0.152145
   4 S :    0.394059
   5 C :   -0.038071
   6 C :   -0.032171
   7 C :   -0.050424
   8 C :   -0.046881
   9 C :   -0.152912
  10 C :   -0.035294
  11 C :   -0.035366
  12 C :   -0.050783
  13 S :    0.384446
  14 C :   -0.167389
  15 C :   -0.066892
  16 C :   -0.022745
  17 C :   -0.050844
  18 H :    0.025135
  19 H :    0.023487
  20 H :    0.025901
  21 H :    0.020593
  22 H :    0.023702
  23 H :    0.024345
  24 H :    0.029971
  25 H :    0.022077
  26 H :    0.020782
  27 H :    0.024595
  28 H :    0.022585
  29 H :    0.025635
  30 H :    0.028886
  31 H :    0.029861
  32 H :    0.022614
  33 H :    0.024449

  Mayer bond orders larger than 0.100000
B(  0-C ,  1-C ) :   1.5935 B(  0-C ,  4-S ) :   1.0987 B(  0-C , 18-H ) :   0.9613
B(  1-C ,  2-C ) :   1.1470 B(  1-C , 16-C ) :   1.0327 B(  2-C ,  3-C ) :   1.2584
B(  2-C , 10-C ) :   1.3458 B(  3-C ,  4-S ) :   1.0566 B(  3-C ,  5-C ) :   1.4349
B(  5-C ,  6-C ) :   1.0856 B(  5-C ,  8-C ) :   1.3465 B(  6-C ,  7-C ) :   1.1080
B(  6-C , 19-H ) :   0.9127 B(  6-C , 20-H ) :   0.9143 B(  7-C , 21-H ) :   0.9652
B(  7-C , 22-H ) :   0.9638 B(  7-C , 23-H ) :   0.9664 B(  8-C ,  9-C ) :   1.2719
B(  8-C , 15-C ) :   1.1700 B(  9-C , 10-C ) :   1.4306 B(  9-C , 13-S ) :   1.0522
B( 10-C , 11-C ) :   1.0838 B( 11-C , 12-C ) :   1.1091 B( 11-C , 24-H ) :   0.9096
B( 11-C , 25-H ) :   0.9061 B( 12-C , 26-H ) :   0.9621 B( 12-C , 27-H ) :   0.9637
B( 12-C , 28-H ) :   0.9597 B( 13-S , 14-C ) :   1.1044 B( 14-C , 15-C ) :   1.6214
B( 14-C , 29-H ) :   0.9636 B( 15-C , 30-H ) :   0.9845 B( 16-C , 17-C ) :   1.9602
B( 16-C , 31-H ) :   0.9413 B( 17-C , 32-H ) :   0.9549 B( 17-C , 33-H ) :   0.9459

Dispersion correction           -0.085157271
FINAL SINGLE POINT ENERGY     -1415.138855998710

DIPOLE MOMENT
-------------
                                X             Y             Z
Electronic contribution:      2.39683       3.72609      -0.96702
Nuclear contribution   :     -2.34496      -3.64820       0.96254
                        -----------------------------------------
Total Dipole Moment    :      0.05187       0.07789      -0.00447
                        -----------------------------------------
Magnitude (a.u.)       :      0.09368
Magnitude (Debye)      :      0.23813

Rotational constants in cm-1:     0.014697     0.011305     0.006707
Rotational constants in MHz :   440.617412   338.911199   201.073524

                             ****ORCA TERMINATED NORMALLY****
TOTAL RUN TIME: 0 days 0 hours 30 minutes 55 seconds 524 msec
