                         Program Version 4.2.0 -  RELEASE  -
|  1> # ORCA input file
|  2> # SCF done        -37.481453956433          0.000869899606
|  3> ! B3LYP/G D3BJ Opt RIJCOSX def2-SVP def2/J
|  4> * xyz 0 1
|  5>    N        0.80716        -1.32907        -0.72191
|  6>    C       -0.39390        -0.70726        -0.33111
|  7>    C       -1.55483        -1.37526        -0.09414
|  8>    S       -2.84623        -0.32927         0.33268
|  9>    C       -1.80439         1.03652         0.23152
| 10>    C       -0.53439         0.71347        -0.15926
| 11>    N        0.47857         1.63069        -0.40782
| 12>    C        1.84881         1.16619        -0.49857
| 13>    C        2.14977         0.18831         0.62729
| 14>    O        2.58144         0.52986         1.69483
| 15>    C        1.85831        -1.25525         0.27779
| 16>    C        0.17297         2.93513        -0.73312
| 17>    C        1.00533         3.91519        -1.07132
| 18>    H        0.63273        -2.29091        -0.99269
| 19>    H       -1.72841        -2.43003        -0.17901
| 20>    H       -2.21189         1.99914         0.46031
| 21>    H        2.50464         2.02787        -0.36985
| 22>    H        2.03790         0.68961        -1.46834
| 23>    H        1.62981        -1.80705         1.20333
| 24>    H        2.77612        -1.67702        -0.14808
| 25>    H       -0.88740         3.13444        -0.72193
| 26>    H        2.07461         3.82326        -1.12550
| 27>    H        0.60756         4.88397        -1.30856
| 28> *
| 29>
| 30>                          ****END OF INPUT****
 Total Charge           Charge          ....    0
 Multiplicity           Mult            ....    1
 Number of Electrons    NEL             ....  102
Dispersion correction           -0.050771364
FINAL SINGLE POINT ENERGY      -931.382766682989
Dispersion correction            ... done
Dispersion correction           -0.050324089
FINAL SINGLE POINT ENERGY      -931.386393188528
Dispersion correction            ... done
Dispersion correction           -0.050169328
FINAL SINGLE POINT ENERGY      -931.386921866240
Dispersion correction            ... done
FINAL SINGLE POINT ENERGY      -931.387294397845
FINAL SINGLE POINT ENERGY      -931.387574770273
FINAL SINGLE POINT ENERGY      -931.387871869243
FINAL SINGLE POINT ENERGY      -931.388212135807
FINAL SINGLE POINT ENERGY      -931.388506702425
FINAL SINGLE POINT ENERGY      -931.388734062510
FINAL SINGLE POINT ENERGY      -931.388868811399
FINAL SINGLE POINT ENERGY      -931.388991225900
FINAL SINGLE POINT ENERGY      -931.389062291993
FINAL SINGLE POINT ENERGY      -931.389090659079
FINAL SINGLE POINT ENERGY      -931.389091804486
FINAL SINGLE POINT ENERGY      -931.389089552524
FINAL SINGLE POINT ENERGY      -931.389084545890
Dispersion correction            ... done
Dispersion correction           -0.049887548
FINAL SINGLE POINT ENERGY      -931.389090968316
Dispersion correction            ... done
Dispersion correction           -0.049887906
FINAL SINGLE POINT ENERGY      -931.389093870980
Dispersion correction            ... done
                    ***********************HURRAY********************

CARTESIAN COORDINATES (ANGSTROEM)
---------------------------------
  N      0.703981   -1.269470   -0.821674
  C     -0.469595   -0.712663   -0.286709
  C     -1.637972   -1.365639    0.024678
  S     -2.867982   -0.270816    0.562415
  C     -1.794316    1.081755    0.430335
  C     -0.560117    0.712355   -0.056975
  N      0.465353    1.592526   -0.436484
  C      1.856922    1.360994   -0.087668
  C      2.183533    0.079871    0.676761
  O      2.811470    0.136476    1.707780
  C      1.848964   -1.281014    0.073268
  C      0.153051    2.795074   -1.052011
  C      0.991133    3.810448   -1.332115
  H      0.544335   -2.180897   -1.239025
  H     -1.847087   -2.430495   -0.063233
  H     -2.130253    2.082777    0.690476
  H      2.228971    2.180276    0.550609
  H      2.471511    1.359608   -1.009692
  H      1.750927   -1.975142    0.930483
  H      2.747321   -1.587801   -0.493515
  H     -0.895713    2.855328   -1.353546
  H      2.045317    3.819540   -1.052064
  H      0.604536    4.679439   -1.865555

 Multiplicity           Mult            ....    1
 Number of Electrons    NEL             ....  102
 Basis Dimension        Dim             ....  236

ORBITAL ENERGIES
----------------

  NO   OCC          E(Eh)            E(eV)
   0   2.0000     -88.875276     -2418.4192
   1   2.0000     -19.140209      -520.8316
   2   2.0000     -14.365484      -390.9047
   3   2.0000     -14.346371      -390.3846
   4   2.0000     -10.290301      -280.0133
   5   2.0000     -10.237703      -278.5821
   6   2.0000     -10.235870      -278.5322
   7   2.0000     -10.232788      -278.4483
   8   2.0000     -10.230060      -278.3741
   9   2.0000     -10.222223      -278.1608
  10   2.0000     -10.212078      -277.8848
  11   2.0000     -10.211347      -277.8649
  12   2.0000     -10.168026      -276.6860
  13   2.0000      -7.970191      -216.8799
  14   2.0000      -5.938410      -161.5923
  15   2.0000      -5.934472      -161.4852
  16   2.0000      -5.931216      -161.3966
  17   2.0000      -1.050219       -28.5779
  18   2.0000      -0.967758       -26.3340
  19   2.0000      -0.931647       -25.3514
  20   2.0000      -0.869362       -23.6566
  21   2.0000      -0.763960       -20.7884
  22   2.0000      -0.756985       -20.5986
  23   2.0000      -0.737889       -20.0790
  24   2.0000      -0.694129       -18.8882
  25   2.0000      -0.682341       -18.5674
  26   2.0000      -0.605530       -16.4773
  27   2.0000      -0.579869       -15.7790
  28   2.0000      -0.576295       -15.6818
  29   2.0000      -0.549579       -14.9548
  30   2.0000      -0.511580       -13.9208
  31   2.0000      -0.495423       -13.4811
  32   2.0000      -0.491308       -13.3692
  33   2.0000      -0.485604       -13.2140
  34   2.0000      -0.471892       -12.8408
  35   2.0000      -0.451234       -12.2787
  36   2.0000      -0.438022       -11.9192
  37   2.0000      -0.423719       -11.5300
  38   2.0000      -0.415652       -11.3105
  39   2.0000      -0.412783       -11.2324
  40   2.0000      -0.400768       -10.9055
  41   2.0000      -0.389005       -10.5854
  42   2.0000      -0.373530       -10.1643
  43   2.0000      -0.367084        -9.9889
  44   2.0000      -0.359252        -9.7757
  45   2.0000      -0.327684        -8.9167
  46   2.0000      -0.291887        -7.9427
  47   2.0000      -0.267695        -7.2843
  48   2.0000      -0.259756        -7.0683
  49   2.0000      -0.225109        -6.1255
  50   2.0000      -0.197839        -5.3835
  51   0.0000      -0.044209        -1.2030
  52   0.0000      -0.015902        -0.4327
  53   0.0000       0.024071         0.6550
  54   0.0000       0.040819         1.1107
  55   0.0000       0.049426         1.3450

MULLIKEN ATOMIC CHARGES
-----------------------
   0 N :   -0.161211
   1 C :    0.061327
   2 C :   -0.176657
   3 S :    0.098572
   4 C :   -0.176051
   5 C :    0.170522
   6 N :   -0.252367
   7 C :    0.246281
   8 C :   -0.095211
   9 O :   -0.178493
  10 C :    0.211904
  11 C :    0.082226
  12 C :   -0.093193
  13 H :    0.111816
  14 H :    0.004389
  15 H :    0.017813
  16 H :    0.022245
  17 H :    0.025685
  18 H :    0.013447
  19 H :    0.034101
  20 H :    0.008504
  21 H :    0.013232
  22 H :    0.011121
Sum of atomic charges:    0.0000000

LOEWDIN ATOMIC CHARGES
----------------------
   0 N :   -0.070161
   1 C :   -0.042596
   2 C :   -0.229898
   3 S :    0.423579
   4 C :   -0.217551
   5 C :   -0.031792
   6 N :   -0.025090
   7 C :    0.029968
   8 C :    0.075247
   9 O :   -0.123313
  10 C :    0.010273
  11 C :    0.025767
  12 C :   -0.148995
  13 H :    0.073117
  14 H :    0.021718
  15 H :    0.025944
  16 H :    0.029893
  17 H :    0.037440
  18 H :    0.022009
  19 H :    0.042712
  20 H :    0.027740
  21 H :    0.017401
  22 H :    0.026586

  Mayer bond orders larger than 0.100000
B(  0-N ,  1-C ) :   1.1307 B(  0-N , 10-C ) :   1.0349 B(  0-N , 13-H ) :   0.9228
B(  1-C ,  2-C ) :   1.5167 B(  1-C ,  5-C ) :   1.2560 B(  2-C ,  3-S ) :   1.1359
B(  2-C , 14-H ) :   0.9709 B(  3-S ,  4-C ) :   1.1434 B(  4-C ,  5-C ) :   1.5085
B(  4-C , 15-H ) :   0.9657 B(  5-C ,  6-N ) :   1.0478 B(  6-N ,  7-C ) :   0.9742
B(  6-N , 11-C ) :   1.1162 B(  7-C ,  8-C ) :   0.9437 B(  7-C , 16-H ) :   0.9191
B(  7-C , 17-H ) :   0.9090 B(  8-C ,  9-O ) :   2.1867 B(  8-C , 10-C ) :   0.9579
B( 10-C , 18-H ) :   0.9144 B( 10-C , 19-H ) :   0.9143 B( 11-C , 12-C ) :   1.8690
B( 11-C , 20-H ) :   0.9534 B( 12-C , 21-H ) :   0.9524 B( 12-C , 22-H ) :   0.9381

Dispersion correction           -0.049888131
FINAL SINGLE POINT ENERGY      -931.389094203913

DIPOLE MOMENT
-------------
                                X             Y             Z
Electronic contribution:     -7.01704      -4.95614       4.07975
Nuclear contribution   :      6.80557       4.17853      -4.76602
                        -----------------------------------------
Total Dipole Moment    :     -0.21147      -0.77761      -0.68627
                        -----------------------------------------
Magnitude (a.u.)       :      1.05847
Magnitude (Debye)      :      2.69042

Rotational constants in cm-1:     0.031019     0.021245     0.014650
Rotational constants in MHz :   929.936505   636.904733   439.207366

                             ****ORCA TERMINATED NORMALLY****
TOTAL RUN TIME: 0 days 0 hours 32 minutes 51 seconds 960 msec
