                         Program Version 4.2.0 -  RELEASE  -
|  1> # ORCA input file
|  2> # SCF done        -22.276749131715          0.000717909618
|  3> ! B3LYP/G D3BJ Opt RIJCOSX def2-SVP def2/J
|  4> * xyz 0 1
|  5>    C       -1.29184        -1.37531        -0.05754
|  6>    C       -2.18093        -0.37630         0.05983
|  7>    C       -1.51157         0.90874         0.03691
|  8>    C       -0.19960         0.68068        -0.13886
|  9>    C        0.06365        -0.78967        -0.29432
| 10>    C        1.26102        -1.05988         0.60922
| 11>    C        2.24751         0.05587         0.27468
| 12>    S        1.25962         1.59835         0.05499
| 13>    H       -1.48950        -2.43034        -0.07708
| 14>    H       -3.24291        -0.48191         0.19623
| 15>    H       -1.99842         1.85534         0.17293
| 16>    H        0.35365        -0.99657        -1.33350
| 17>    H        1.71014        -2.03761         0.43681
| 18>    H        0.95178        -0.99015         1.65329
| 19>    H        2.76456        -0.13883        -0.66602
| 20>    H        2.98021         0.23608         1.05804
| 21> *
| 22>
| 23>                          ****END OF INPUT****
 Total Charge           Charge          ....    0
 Multiplicity           Mult            ....    1
 Number of Electrons    NEL             ....   66
Dispersion correction           -0.031915522
FINAL SINGLE POINT ENERGY      -669.435294071878
Dispersion correction            ... done
Dispersion correction           -0.031726015
FINAL SINGLE POINT ENERGY      -669.437825199762
Dispersion correction            ... done
Dispersion correction           -0.031679117
FINAL SINGLE POINT ENERGY      -669.437950673352
Dispersion correction            ... done
FINAL SINGLE POINT ENERGY      -669.437981298308
Dispersion correction            ... done
Dispersion correction           -0.031653967
FINAL SINGLE POINT ENERGY      -669.437986585271
Dispersion correction            ... done
Dispersion correction           -0.031654087
FINAL SINGLE POINT ENERGY      -669.437986271536
Dispersion correction            ... done
                    ***********************HURRAY********************

CARTESIAN COORDINATES (ANGSTROEM)
---------------------------------
  C     -1.307609   -1.389965   -0.039085
  C     -2.207148   -0.380048    0.048291
  C     -1.529850    0.925022    0.011601
  C     -0.201181    0.692358   -0.127592
  C      0.055733   -0.789946   -0.263028
  C      1.280801   -1.060901    0.614050
  C      2.272796    0.062906    0.268916
  S      1.270544    1.619246    0.093527
  H     -1.534471   -2.456002   -0.071728
  H     -3.287923   -0.505962    0.150076
  H     -2.018026    1.888242    0.159665
  H      0.338807   -0.987839   -1.318762
  H      1.732671   -2.048315    0.428652
  H      0.992462   -1.004161    1.676066
  H      2.783157   -0.136788   -0.686157
  H      3.036607    0.230644    1.041119

 Multiplicity           Mult            ....    1
 Number of Electrons    NEL             ....   66
 Basis Dimension        Dim             ....  156

ORBITAL ENERGIES
----------------

  NO   OCC          E(Eh)            E(eV)
   0   2.0000     -88.846387     -2417.6331
   1   2.0000     -10.223877      -278.2058
   2   2.0000     -10.205766      -277.7130
   3   2.0000     -10.205646      -277.7097
   4   2.0000     -10.201750      -277.6037
   5   2.0000     -10.187257      -277.2094
   6   2.0000     -10.181470      -277.0519
   7   2.0000     -10.179586      -277.0006
   8   2.0000      -7.941418      -216.0970
   9   2.0000      -5.910433      -160.8311
  10   2.0000      -5.906829      -160.7330
  11   2.0000      -5.900380      -160.5575
  12   2.0000      -0.876165       -23.8417
  13   2.0000      -0.805400       -21.9160
  14   2.0000      -0.741774       -20.1847
  15   2.0000      -0.689008       -18.7489
  16   2.0000      -0.666873       -18.1465
  17   2.0000      -0.591797       -16.1036
  18   2.0000      -0.542378       -14.7589
  19   2.0000      -0.523104       -14.2344
  20   2.0000      -0.491361       -13.3706
  21   2.0000      -0.468128       -12.7384
  22   2.0000      -0.441466       -12.0129
  23   2.0000      -0.416635       -11.3372
  24   2.0000      -0.393759       -10.7147
  25   2.0000      -0.380509       -10.3542
  26   2.0000      -0.375126       -10.2077
  27   2.0000      -0.355597        -9.6763
  28   2.0000      -0.341546        -9.2939
  29   2.0000      -0.321582        -8.7507
  30   2.0000      -0.306307        -8.3350
  31   2.0000      -0.269600        -7.3362
  32   2.0000      -0.193548        -5.2667
  33   0.0000      -0.025788        -0.7017
  34   0.0000       0.032043         0.8719
  35   0.0000       0.057279         1.5586
  36   0.0000       0.064825         1.7640
  37   0.0000       0.084898         2.3102

MULLIKEN ATOMIC CHARGES
-----------------------
   0 C :   -0.017709
   1 C :    0.000242
   2 C :   -0.046565
   3 C :   -0.065364
   4 C :   -0.000591
   5 C :    0.075814
   6 C :   -0.067771
   7 S :    0.000825
   8 H :   -0.014764
   9 H :   -0.013006
  10 H :   -0.021043
  11 H :    0.037149
  12 H :    0.010997
  13 H :    0.021342
  14 H :    0.049082
  15 H :    0.051360
Sum of atomic charges:   -0.0000000

LOEWDIN ATOMIC CHARGES
----------------------
   0 C :   -0.055194
   1 C :   -0.021005
   2 C :   -0.078509
   3 C :   -0.160805
   4 C :   -0.035745
   5 C :   -0.024696
   6 C :   -0.112301
   7 S :    0.270931
   8 H :    0.019039
   9 H :    0.021580
  10 H :    0.021451
  11 H :    0.053046
  12 H :    0.026593
  13 H :    0.029770
  14 H :    0.020762
  15 H :    0.025081

  Mayer bond orders larger than 0.100000
B(  0-C ,  1-C ) :   1.7438 B(  0-C ,  4-C ) :   1.0104 B(  0-C ,  8-H ) :   0.9958
B(  1-C ,  2-C ) :   1.0847 B(  1-C ,  9-H ) :   0.9928 B(  2-C ,  3-C ) :   1.7179
B(  2-C , 10-H ) :   1.0082 B(  3-C ,  4-C ) :   1.0229 B(  3-C ,  7-S ) :   1.0453
B(  4-C ,  5-C ) :   1.0359 B(  4-C , 11-H ) :   0.8703 B(  5-C ,  6-C ) :   1.0557
B(  5-C , 12-H ) :   0.9346 B(  5-C , 13-H ) :   0.9387 B(  6-C ,  7-S ) :   0.9858
B(  6-C , 14-H ) :   0.9469 B(  6-C , 15-H ) :   0.9510

Dispersion correction           -0.031654480
FINAL SINGLE POINT ENERGY      -669.437985625631

DIPOLE MOMENT
-------------
                                X             Y             Z
Electronic contribution:     -0.13074       5.60122      -0.62455
Nuclear contribution   :      0.48737      -6.17398       0.65579
                        -----------------------------------------
Total Dipole Moment    :      0.35663      -0.57276       0.03124
                        -----------------------------------------
Magnitude (a.u.)       :      0.67544
Magnitude (Debye)      :      1.71683

Rotational constants in cm-1:     0.115360     0.054430     0.038721
Rotational constants in MHz :  3458.400269  1631.771919  1160.838526

                             ****ORCA TERMINATED NORMALLY****
TOTAL RUN TIME: 0 days 0 hours 5 minutes 52 seconds 960 msec
