                         Program Version 4.2.0 -  RELEASE  -
|  1> # ORCA input file
|  2> # SCF done        -23.583963038087          0.000408649620
|  3> ! B3LYP/G D3BJ Opt RIJCOSX def2-SVP def2/J
|  4> * xyz 0 1
|  5>    C       -0.07351         1.17044        -0.19357
|  6>    S       -1.21428        -0.11923        -0.06851
|  7>    C        0.04673        -1.25063         0.21398
|  8>    C        1.26820        -0.66816         0.20295
|  9>    C        1.21175         0.73681        -0.03789
| 10>    N        2.35317         1.50567        -0.15214
| 11>    C        2.25517         2.94756        -0.09562
| 12>    C        3.64144         3.56919        -0.16728
| 13>    H       -0.43292         2.15913        -0.38928
| 14>    H       -0.19671        -2.28238         0.37062
| 15>    H        2.19018        -1.20149         0.35476
| 16>    H        3.14178         1.13149         0.35724
| 17>    H        1.74119         3.28322         0.82041
| 18>    H        1.65799         3.27450        -0.95295
| 19>    H        4.23877         3.27376         0.69338
| 20>    H        3.56550         4.65293        -0.17670
| 21>    H        4.15070         3.24595        -1.07159
| 22> *
| 23>
| 24>                          ****END OF INPUT****
 Total Charge           Charge          ....    0
 Multiplicity           Mult            ....    1
 Number of Electrons    NEL             ....   68
Dispersion correction           -0.029000018
FINAL SINGLE POINT ENERGY      -686.693258050541
Dispersion correction            ... done
Dispersion correction           -0.028863654
FINAL SINGLE POINT ENERGY      -686.695458233900
Dispersion correction            ... done
Dispersion correction           -0.028855919
FINAL SINGLE POINT ENERGY      -686.695573333445
Dispersion correction            ... done
FINAL SINGLE POINT ENERGY      -686.695563915252
FINAL SINGLE POINT ENERGY      -686.695484222422
FINAL SINGLE POINT ENERGY      -686.695301674412
FINAL SINGLE POINT ENERGY      -686.695348269479
Dispersion correction            ... done
Dispersion correction           -0.028842304
FINAL SINGLE POINT ENERGY      -686.695404866668
Dispersion correction            ... done
Dispersion correction           -0.028841462
FINAL SINGLE POINT ENERGY      -686.695413031832
Dispersion correction            ... done
                    ***********************HURRAY********************

CARTESIAN COORDINATES (ANGSTROEM)
---------------------------------
  C     -0.089287    1.179350   -0.132258
  S     -1.227617   -0.135606   -0.136770
  C      0.030185   -1.289761    0.118547
  C      1.263005   -0.698698    0.187412
  C      1.209110    0.733455    0.036820
  N      2.353630    1.516277    0.014011
  C      2.268411    2.958290   -0.058798
  C      3.650542    3.578889   -0.230397
  H     -0.439337    2.199396   -0.264865
  H     -0.208140   -2.349319    0.199600
  H      2.194330   -1.249954    0.328208
  H      3.121900    1.160508    0.572352
  H      1.756287    3.396336    0.825838
  H      1.638096    3.216405   -0.928409
  H      4.283876    3.403492    0.655892
  H      3.578890    4.667496   -0.376613
  H      4.161270    3.142204   -1.102760

 Multiplicity           Mult            ....    1
 Number of Electrons    NEL             ....   68
 Basis Dimension        Dim             ....  161

ORBITAL ENERGIES
----------------

  NO   OCC          E(Eh)            E(eV)
   0   2.0000     -88.858366     -2417.9591
   1   2.0000     -14.331843      -389.9893
   2   2.0000     -10.221075      -278.1296
   3   2.0000     -10.219365      -278.0831
   4   2.0000     -10.204095      -277.6675
   5   2.0000     -10.190347      -277.2934
   6   2.0000     -10.187873      -277.2261
   7   2.0000     -10.184231      -277.1270
   8   2.0000      -7.953311      -216.4206
   9   2.0000      -5.921598      -161.1349
  10   2.0000      -5.917505      -161.0235
  11   2.0000      -5.914431      -160.9398
  12   2.0000      -0.924216       -25.1492
  13   2.0000      -0.854291       -23.2464
  14   2.0000      -0.755410       -20.5557
  15   2.0000      -0.711979       -19.3739
  16   2.0000      -0.689977       -18.7752
  17   2.0000      -0.623833       -16.9754
  18   2.0000      -0.558399       -15.1948
  19   2.0000      -0.545645       -14.8477
  20   2.0000      -0.516445       -14.0532
  21   2.0000      -0.480990       -13.0884
  22   2.0000      -0.452528       -12.3139
  23   2.0000      -0.436036       -11.8651
  24   2.0000      -0.399666       -10.8755
  25   2.0000      -0.392821       -10.6892
  26   2.0000      -0.382326       -10.4036
  27   2.0000      -0.372051       -10.1240
  28   2.0000      -0.369469       -10.0538
  29   2.0000      -0.358194        -9.7470
  30   2.0000      -0.337878        -9.1941
  31   2.0000      -0.290672        -7.9096
  32   2.0000      -0.235444        -6.4068
  33   2.0000      -0.192223        -5.2306
  34   0.0000      -0.001839        -0.0500
  35   0.0000       0.046373         1.2619
  36   0.0000       0.062334         1.6962
  37   0.0000       0.071030         1.9328
  38   0.0000       0.081839         2.2269

MULLIKEN ATOMIC CHARGES
-----------------------
   0 C :   -0.203631
   1 S :    0.079723
   2 C :   -0.093992
   3 C :    0.018456
   4 C :    0.115650
   5 N :   -0.175669
   6 C :    0.103205
   7 C :   -0.019391
   8 H :    0.003517
   9 H :    0.026382
  10 H :   -0.028881
  11 H :    0.106672
  12 H :   -0.001542
  13 H :    0.012641
  14 H :    0.014144
  15 H :    0.022280
  16 H :    0.020437
Sum of atomic charges:   -0.0000000

LOEWDIN ATOMIC CHARGES
----------------------
   0 C :   -0.266016
   1 S :    0.405118
   2 C :   -0.189176
   3 C :   -0.088930
   4 C :   -0.017345
   5 N :   -0.050562
   6 C :    0.031480
   7 C :   -0.060921
   8 H :    0.016322
   9 H :    0.023780
  10 H :    0.023992
  11 H :    0.069048
  12 H :    0.004603
  13 H :    0.021002
  14 H :    0.021381
  15 H :    0.030636
  16 H :    0.025586

  Mayer bond orders larger than 0.100000
B(  0-C ,  1-S ) :   1.0966 B(  0-C ,  4-C ) :   1.5063 B(  0-C ,  8-H ) :   0.9722
B(  1-S ,  2-C ) :   1.1879 B(  2-C ,  3-C ) :   1.5602 B(  2-C ,  9-H ) :   0.9642
B(  3-C ,  4-C ) :   1.2321 B(  3-C , 10-H ) :   0.9913 B(  4-C ,  5-N ) :   1.1540
B(  5-N ,  6-C ) :   1.0181 B(  5-N , 11-H ) :   0.9301 B(  6-C ,  7-C ) :   1.1040
B(  6-C , 12-H ) :   0.9386 B(  6-C , 13-H ) :   0.9398 B(  7-C , 14-H ) :   0.9685
B(  7-C , 15-H ) :   0.9636 B(  7-C , 16-H ) :   0.9683

Dispersion correction           -0.028841119
FINAL SINGLE POINT ENERGY      -686.695413471127

DIPOLE MOMENT
-------------
                                X             Y             Z
Electronic contribution:    -10.67846      -8.79500      -0.02436
Nuclear contribution   :     11.35218       9.08284       0.26475
                        -----------------------------------------
Total Dipole Moment    :      0.67372       0.28784       0.24039
                        -----------------------------------------
Magnitude (a.u.)       :      0.77107
Magnitude (Debye)      :      1.95989

Rotational constants in cm-1:     0.178374     0.028669     0.024978
Rotational constants in MHz :  5347.506430   859.469147   748.830457

                             ****ORCA TERMINATED NORMALLY****
TOTAL RUN TIME: 0 days 0 hours 6 minutes 37 seconds 764 msec
