                         Program Version 4.2.0 -  RELEASE  -
|  1> # ORCA input file
|  2> # SCF done        -36.237752631103          0.000477404191
|  3> ! B3LYP/G D3BJ Opt RIJCOSX def2-SVP def2/J
|  4> * xyz 0 1
|  5>    C       -2.23984        -1.80071        -0.02370
|  6>    C       -3.36358        -1.05895        -0.02368
|  7>    S       -3.06425         0.64542         0.02803
|  8>    C       -1.33833         0.37926         0.03985
|  9>    C       -1.05309        -1.00778         0.00590
| 10>    C        0.26512        -1.45041        -0.01859
| 11>    C        1.25833        -0.49542        -0.01818
| 12>    C        0.98380         0.89297        -0.00329
| 13>    C        2.19039         1.65702        -0.00089
| 14>    C        3.30077         0.89271        -0.02282
| 15>    S        2.97428        -0.80699        -0.04282
| 16>    C       -0.34431         1.35491         0.02715
| 17>    C       -0.61502         2.78762         0.00744
| 18>    C       -1.64858         3.39335         0.57713
| 19>    H       -2.22470        -2.87550        -0.05019
| 20>    H       -4.38141        -1.39722        -0.04256
| 21>    H        0.49548        -2.50342        -0.04439
| 22>    H        2.21952         2.73108         0.02630
| 23>    H        4.32330         1.21686        -0.02597
| 24>    H        0.12109         3.38056        -0.52022
| 25>    H       -2.38794         2.86206         1.15103
| 26>    H       -1.77707         4.45994         0.50744
| 27> *
| 28>
| 29>                          ****END OF INPUT****
 Total Charge           Charge          ....    0
 Multiplicity           Mult            ....    1
 Number of Electrons    NEL             ....  112
Dispersion correction           -0.058636069
FINAL SINGLE POINT ENERGY     -1257.964088536783
Dispersion correction            ... done
Dispersion correction           -0.058345044
FINAL SINGLE POINT ENERGY     -1257.967999274476
Dispersion correction            ... done
Dispersion correction           -0.058343924
FINAL SINGLE POINT ENERGY     -1257.968124419264
Dispersion correction            ... done
FINAL SINGLE POINT ENERGY     -1257.968190157058
FINAL SINGLE POINT ENERGY     -1257.968217836677
FINAL SINGLE POINT ENERGY     -1257.968210819493
FINAL SINGLE POINT ENERGY     -1257.968182825783
FINAL SINGLE POINT ENERGY     -1257.968069918059
FINAL SINGLE POINT ENERGY     -1257.967797007264
FINAL SINGLE POINT ENERGY     -1257.967797086221
FINAL SINGLE POINT ENERGY     -1257.967575783583
FINAL SINGLE POINT ENERGY     -1257.967845152875
FINAL SINGLE POINT ENERGY     -1257.967882659578
FINAL SINGLE POINT ENERGY     -1257.967981009386
FINAL SINGLE POINT ENERGY     -1257.968055896903
FINAL SINGLE POINT ENERGY     -1257.967989266398
FINAL SINGLE POINT ENERGY     -1257.968056391439
Dispersion correction            ... done
Dispersion correction           -0.058320913
FINAL SINGLE POINT ENERGY     -1257.968061915757
Dispersion correction            ... done
Dispersion correction           -0.058327026
FINAL SINGLE POINT ENERGY     -1257.968052851790
Dispersion correction            ... done
                    ***********************HURRAY********************

CARTESIAN COORDINATES (ANGSTROEM)
---------------------------------
  C     -2.256023   -1.829349    0.027592
  C     -3.379854   -1.096951    0.245378
  S     -3.070206    0.613274    0.404743
  C     -1.342554    0.365949    0.172681
  C     -1.061003   -1.023541   -0.016091
  C      0.261201   -1.455973   -0.188503
  C      1.269714   -0.499728   -0.153592
  C      1.000421    0.888262    0.050742
  C      2.221518    1.658413    0.044489
  C      3.334982    0.897384   -0.143227
  S      2.988795   -0.801766   -0.341243
  C     -0.333785    1.347303    0.210418
  C     -0.587648    2.779665    0.414951
  C     -1.705798    3.459189    0.113755
  H     -2.252280   -2.912657   -0.100777
  H     -4.404124   -1.460734    0.319690
  H      0.482278   -2.514841   -0.337933
  H      2.263638    2.739160    0.176071
  H      4.367650    1.242689   -0.181226
  H      0.243911    3.337965    0.857168
  H     -2.565576    2.996211   -0.373303
  H     -1.781298    4.527438    0.331186

 Multiplicity           Mult            ....    1
 Number of Electrons    NEL             ....  112
 Basis Dimension        Dim             ....  244

ORBITAL ENERGIES
----------------

  NO   OCC          E(Eh)            E(eV)
   0   2.0000     -88.870952     -2418.3015
   1   2.0000     -88.870908     -2418.3004
   2   2.0000     -10.221256      -278.1345
   3   2.0000     -10.220807      -278.1223
   4   2.0000     -10.220446      -278.1125
   5   2.0000     -10.218108      -278.0489
   6   2.0000     -10.211047      -277.8567
   7   2.0000     -10.205294      -277.7002
   8   2.0000     -10.204701      -277.6840
   9   2.0000     -10.203988      -277.6646
  10   2.0000     -10.201542      -277.5981
  11   2.0000     -10.198626      -277.5187
  12   2.0000     -10.197830      -277.4971
  13   2.0000     -10.191760      -277.3319
  14   2.0000      -7.966066      -216.7677
  15   2.0000      -7.965435      -216.7505
  16   2.0000      -5.934515      -161.4864
  17   2.0000      -5.933959      -161.4712
  18   2.0000      -5.930596      -161.3797
  19   2.0000      -5.929778      -161.3575
  20   2.0000      -5.926512      -161.2686
  21   2.0000      -5.926042      -161.2558
  22   2.0000      -0.898723       -24.4555
  23   2.0000      -0.872223       -23.7344
  24   2.0000      -0.813791       -22.1444
  25   2.0000      -0.795161       -21.6374
  26   2.0000      -0.746321       -20.3084
  27   2.0000      -0.735638       -20.0177
  28   2.0000      -0.711873       -19.3711
  29   2.0000      -0.689062       -18.7503
  30   2.0000      -0.631590       -17.1864
  31   2.0000      -0.599555       -16.3147
  32   2.0000      -0.568312       -15.4646
  33   2.0000      -0.554345       -15.0845
  34   2.0000      -0.544747       -14.8233
  35   2.0000      -0.521025       -14.1778
  36   2.0000      -0.485674       -13.2159
  37   2.0000      -0.472330       -12.8528
  38   2.0000      -0.455236       -12.3876
  39   2.0000      -0.439119       -11.9490
  40   2.0000      -0.436120       -11.8674
  41   2.0000      -0.421646       -11.4736
  42   2.0000      -0.412543       -11.2259
  43   2.0000      -0.393534       -10.7086
  44   2.0000      -0.382325       -10.4036
  45   2.0000      -0.379752       -10.3336
  46   2.0000      -0.375842       -10.2272
  47   2.0000      -0.362327        -9.8594
  48   2.0000      -0.350298        -9.5321
  49   2.0000      -0.332701        -9.0533
  50   2.0000      -0.325768        -8.8646
  51   2.0000      -0.308471        -8.3939
  52   2.0000      -0.266375        -7.2484
  53   2.0000      -0.257493        -7.0067
  54   2.0000      -0.234995        -6.3945
  55   2.0000      -0.202580        -5.5125
  56   0.0000      -0.058300        -1.5864
  57   0.0000      -0.026297        -0.7156
  58   0.0000       0.009189         0.2501
  59   0.0000       0.025248         0.6870
  60   0.0000       0.027635         0.7520

MULLIKEN ATOMIC CHARGES
-----------------------
   0 C :    0.014277
   1 C :   -0.054843
   2 S :    0.091952
   3 C :   -0.140223
   4 C :    0.109365
   5 C :   -0.059001
   6 C :   -0.070862
   7 C :    0.042766
   8 C :    0.001749
   9 C :   -0.057164
  10 S :    0.092737
  11 C :    0.073070
  12 C :   -0.067149
  13 C :   -0.024284
  14 H :   -0.015095
  15 H :    0.027462
  16 H :   -0.031406
  17 H :   -0.011375
  18 H :    0.026991
  19 H :   -0.004078
  20 H :    0.029662
  21 H :    0.025448
Sum of atomic charges:    0.0000000

LOEWDIN ATOMIC CHARGES
----------------------
   0 C :   -0.062271
   1 C :   -0.168781
   2 S :    0.403480
   3 C :   -0.148831
   4 C :   -0.045402
   5 C :   -0.036824
   6 C :   -0.156452
   7 C :   -0.040070
   8 C :   -0.065831
   9 C :   -0.164196
  10 S :    0.386683
  11 C :   -0.039946
  12 C :   -0.026179
  13 C :   -0.048783
  14 H :    0.030970
  15 H :    0.026513
  16 H :    0.030079
  17 H :    0.030145
  18 H :    0.026672
  19 H :    0.028703
  20 H :    0.012831
  21 H :    0.027493

  Mayer bond orders larger than 0.100000
B(  0-C ,  1-C ) :   1.6220 B(  0-C ,  4-C ) :   1.1555 B(  0-C , 14-H ) :   0.9913
B(  1-C ,  2-S ) :   1.0996 B(  1-C , 15-H ) :   0.9648 B(  2-S ,  3-C ) :   1.0702
B(  3-C ,  4-C ) :   1.2734 B(  3-C , 11-C ) :   1.3895 B(  4-C ,  5-C ) :   1.3229
B(  5-C ,  6-C ) :   1.3721 B(  5-C , 16-H ) :   0.9958 B(  6-C ,  7-C ) :   1.2736
B(  6-C , 10-S ) :   1.0523 B(  7-C ,  8-C ) :   1.1900 B(  7-C , 11-C ) :   1.3018
B(  8-C ,  9-C ) :   1.6187 B(  8-C , 17-H ) :   0.9812 B(  9-C , 10-S ) :   1.1145
B(  9-C , 18-H ) :   0.9608 B( 11-C , 12-C ) :   1.0888 B( 12-C , 13-C ) :   1.9306
B( 12-C , 19-H ) :   0.9461 B( 13-C , 20-H ) :   0.9434 B( 13-C , 21-H ) :   0.9414

Dispersion correction           -0.058330021
FINAL SINGLE POINT ENERGY     -1257.968043098954

DIPOLE MOMENT
-------------
                                X             Y             Z
Electronic contribution:      2.16660      -5.14645      -0.22588
Nuclear contribution   :     -2.13525       5.13033       0.23029
                        -----------------------------------------
Total Dipole Moment    :      0.03135      -0.01612       0.00441
                        -----------------------------------------
Magnitude (a.u.)       :      0.03553
Magnitude (Debye)      :      0.09030

Rotational constants in cm-1:     0.034381     0.014609     0.010292
Rotational constants in MHz :  1030.723128   437.970281   308.533004

                             ****ORCA TERMINATED NORMALLY****
TOTAL RUN TIME: 0 days 0 hours 38 minutes 16 seconds 676 msec
