                         Program Version 4.2.0 -  RELEASE  -
|  1> # ORCA input file
|  2> # SCF done        -60.760564448725          0.000345352952
|  3> ! B3LYP/G D3BJ Opt RIJCOSX def2-SVP def2/J
|  4> * xyz 0 1
|  5>    C        1.59121        -1.26822        -0.34654
|  6>    C        2.75645        -0.56609        -0.62294
|  7>    C        2.76862         0.81743        -0.66475
|  8>    C        1.60939         1.54581        -0.42447
|  9>    C        0.44792         0.86066        -0.15137
| 10>    C        0.44365        -0.53696        -0.11267
| 11>    N       -0.83664        -0.99155         0.17298
| 12>    C       -1.19792        -2.37143         0.34609
| 13>    C       -1.71021         0.04076         0.34475
| 14>    O       -2.88513        -0.08020         0.61328
| 15>    C       -0.92912         1.34638         0.17446
| 16>    C       -0.98688         2.12695         1.50676
| 17>    C       -0.73028         1.14413         2.65205
| 18>    O        0.26423         0.47771         2.83650
| 19>    N       -1.84672         1.11622         3.43371
| 20>    C       -2.00370         0.23522         4.55781
| 21>    C       -2.82390         1.98228         2.96206
| 22>    C       -4.08071         2.23355         3.47553
| 23>    C       -4.87059         3.16558         2.81630
| 24>    C       -4.41544         3.82133         1.68539
| 25>    C       -3.15024         3.55918         1.17284
| 26>    C       -2.35745         2.63896         1.81918
| 27>    H        1.59003        -2.34614        -0.30887
| 28>    H        3.66988        -1.11238        -0.80537
| 29>    H        3.68977         1.33747        -0.87966
| 30>    H        1.62414         2.62545        -0.45075
| 31>    H       -0.62728        -2.81300         1.16587
| 32>    H       -1.01113        -2.93470        -0.57066
| 33>    H       -2.26140        -2.40351         0.58233
| 34>    H       -1.36866         1.95977        -0.61654
| 35>    H       -0.22617         2.91194         1.49203
| 36>    H       -1.07510        -0.32447         4.66617
| 37>    H       -2.83026        -0.45697         4.38481
| 38>    H       -2.19361         0.80600         5.46917
| 39>    H       -4.44398         1.72127         4.35246
| 40>    H       -5.85971         3.37865         3.19358
| 41>    H       -5.05206         4.53973         1.19167
| 42>    H       -2.80099         4.06767         0.28625
| 43> *
| 44>
| 45>                          ****END OF INPUT****
 Total Charge           Charge          ....    0
 Multiplicity           Mult            ....    1
 Number of Electrons    NEL             ....  154
Dispersion correction           -0.092605236
FINAL SINGLE POINT ENERGY      -954.950021527062
Dispersion correction            ... done
Dispersion correction           -0.090917815
FINAL SINGLE POINT ENERGY      -954.955805229727
Dispersion correction            ... done
Dispersion correction           -0.090531110
FINAL SINGLE POINT ENERGY      -954.956039907325
Dispersion correction            ... done
FINAL SINGLE POINT ENERGY      -954.956095649895
FINAL SINGLE POINT ENERGY      -954.956021800449
FINAL SINGLE POINT ENERGY      -954.956101557416
FINAL SINGLE POINT ENERGY      -954.956294415226
FINAL SINGLE POINT ENERGY      -954.956403053668
Dispersion correction            ... done
Dispersion correction           -0.089445113
FINAL SINGLE POINT ENERGY      -954.956449995098
Dispersion correction            ... done
Dispersion correction           -0.089450434
FINAL SINGLE POINT ENERGY      -954.956445800172
Dispersion correction            ... done
                    ***********************HURRAY********************

CARTESIAN COORDINATES (ANGSTROEM)
---------------------------------
  C      1.728477   -1.249017   -0.673683
  C      2.872544   -0.447766   -0.813650
  C      2.818331    0.932724   -0.607096
  C      1.603847    1.548574   -0.258233
  C      0.467648    0.768054   -0.114114
  C      0.538961   -0.622203   -0.315155
  N     -0.714784   -1.201401   -0.084227
  C     -0.971372   -2.620012   -0.047048
  C     -1.646419   -0.254390    0.306410
  O     -2.784277   -0.482339    0.657752
  C     -0.951180    1.120266    0.252545
  C     -1.125461    1.889677    1.576051
  C     -0.947176    0.966408    2.795026
  O     -0.068835    0.148265    2.964770
  N     -1.996350    1.222031    3.660568
  C     -2.172560    0.536487    4.917323
  C     -2.912885    2.122381    3.101183
  C     -4.108715    2.586795    3.640654
  C     -4.858834    3.495277    2.876906
  C     -4.420030    3.919063    1.620462
  C     -3.210761    3.435547    1.091263
  C     -2.460127    2.539580    1.835856
  H      1.775543   -2.326368   -0.840787
  H      3.818414   -0.917631   -1.093561
  H      3.720989    1.536687   -0.719954
  H      1.562411    2.628193   -0.089307
  H     -0.286370   -3.120045    0.656309
  H     -0.850066   -3.075926   -1.043419
  H     -2.005285   -2.759587    0.294871
  H     -1.431280    1.703563   -0.552055
  H     -0.326664    2.650891    1.632665
  H     -1.304187   -0.119360    5.062380
  H     -3.090638   -0.074316    4.912161
  H     -2.232413    1.256106    5.750570
  H     -4.461208    2.250194    4.616462
  H     -5.800113    3.878121    3.277899
  H     -5.023429    4.622733    1.043018
  H     -2.865736    3.767222    0.108626

 Multiplicity           Mult            ....    1
 Number of Electrons    NEL             ....  154
 Basis Dimension        Dim             ....  388

ORBITAL ENERGIES
----------------

  NO   OCC          E(Eh)            E(eV)
   0   2.0000     -19.111056      -520.0383
   1   2.0000     -19.110270      -520.0169
   2   2.0000     -14.371715      -391.0742
   3   2.0000     -14.370022      -391.0282
   4   2.0000     -10.290031      -280.0060
   5   2.0000     -10.288983      -279.9775
   6   2.0000     -10.231007      -278.3999
   7   2.0000     -10.229611      -278.3619
   8   2.0000     -10.228928      -278.3433
   9   2.0000     -10.226392      -278.2743
  10   2.0000     -10.217394      -278.0294
  11   2.0000     -10.216859      -278.0149
  12   2.0000     -10.196736      -277.4673
  13   2.0000     -10.196387      -277.4578
  14   2.0000     -10.196028      -277.4480
  15   2.0000     -10.194978      -277.4195
  16   2.0000     -10.194517      -277.4069
  17   2.0000     -10.194099      -277.3955
  18   2.0000     -10.193929      -277.3909
  19   2.0000     -10.193487      -277.3789
  20   2.0000     -10.188830      -277.2522
  21   2.0000     -10.188090      -277.2320
  22   2.0000      -1.041576       -28.3427
  23   2.0000      -1.034992       -28.1636
  24   2.0000      -0.961705       -26.1693
  25   2.0000      -0.959596       -26.1119
  26   2.0000      -0.854009       -23.2388
  27   2.0000      -0.845804       -23.0155
  28   2.0000      -0.818771       -22.2799
  29   2.0000      -0.781567       -21.2675
  30   2.0000      -0.746422       -20.3112
  31   2.0000      -0.744823       -20.2677
  32   2.0000      -0.720040       -19.5933
  33   2.0000      -0.708812       -19.2877
  34   2.0000      -0.706998       -19.2384
  35   2.0000      -0.665431       -18.1073
  36   2.0000      -0.613376       -16.6908
  37   2.0000      -0.609991       -16.5987
  38   2.0000      -0.602106       -16.3841
  39   2.0000      -0.588919       -16.0253
  40   2.0000      -0.565874       -15.3982
  41   2.0000      -0.557483       -15.1699
  42   2.0000      -0.527352       -14.3500
  43   2.0000      -0.516118       -14.0443
  44   2.0000      -0.506012       -13.7693
  45   2.0000      -0.495655       -13.4875
  46   2.0000      -0.483266       -13.1503
  47   2.0000      -0.469918       -12.7871
  48   2.0000      -0.461587       -12.5604
  49   2.0000      -0.458098       -12.4655
  50   2.0000      -0.453050       -12.3281
  51   2.0000      -0.445205       -12.1146
  52   2.0000      -0.443276       -12.0621
  53   2.0000      -0.439623       -11.9628
  54   2.0000      -0.435409       -11.8481
  55   2.0000      -0.434765       -11.8305
  56   2.0000      -0.415413       -11.3040
  57   2.0000      -0.407160       -11.0794
  58   2.0000      -0.400305       -10.8928
  59   2.0000      -0.397234       -10.8093
  60   2.0000      -0.392224       -10.6730
  61   2.0000      -0.380299       -10.3485
  62   2.0000      -0.378288       -10.2937
  63   2.0000      -0.371798       -10.1172
  64   2.0000      -0.370110       -10.0712
  65   2.0000      -0.369513       -10.0550
  66   2.0000      -0.364662        -9.9230
  67   2.0000      -0.354763        -9.6536
  68   2.0000      -0.340237        -9.2583
  69   2.0000      -0.307061        -8.3556
  70   2.0000      -0.302938        -8.2434
  71   2.0000      -0.268973        -7.3191
  72   2.0000      -0.267846        -7.2885
  73   2.0000      -0.254822        -6.9341
  74   2.0000      -0.249919        -6.8006
  75   2.0000      -0.218025        -5.9328
  76   2.0000      -0.215950        -5.8763
  77   0.0000      -0.028146        -0.7659
  78   0.0000      -0.012283        -0.3342
  79   0.0000      -0.009182        -0.2499
  80   0.0000      -0.007301        -0.1987
  81   0.0000       0.023692         0.6447

MULLIKEN ATOMIC CHARGES
-----------------------
   0 C :   -0.086993
   1 C :    0.028098
   2 C :    0.027731
   3 C :   -0.058577
   4 C :    0.015020
   5 C :    0.203858
   6 N :   -0.252742
   7 C :    0.131898
   8 C :    0.136175
   9 O :   -0.216778
  10 C :    0.039914
  11 C :    0.029197
  12 C :    0.134790
  13 O :   -0.218302
  14 N :   -0.254849
  15 C :    0.126695
  16 C :    0.193711
  17 C :   -0.076825
  18 C :    0.037269
  19 C :    0.011732
  20 C :   -0.043785
  21 C :    0.018288
  22 H :   -0.038262
  23 H :   -0.019112
  24 H :   -0.021601
  25 H :   -0.031675
  26 H :    0.035968
  27 H :    0.025774
  28 H :    0.045439
  29 H :    0.039404
  30 H :    0.044417
  31 H :    0.050458
  32 H :    0.035306
  33 H :    0.026933
  34 H :   -0.042844
  35 H :   -0.018748
  36 H :   -0.018496
  37 H :   -0.038487
Sum of atomic charges:   -0.0000000

LOEWDIN ATOMIC CHARGES
----------------------
   0 C :   -0.059135
   1 C :   -0.014104
   2 C :   -0.041308
   3 C :   -0.021200
   4 C :   -0.034457
   5 C :    0.039767
   6 N :   -0.013325
   7 C :    0.036594
   8 C :    0.081050
   9 O :   -0.196177
  10 C :   -0.024598
  11 C :   -0.025297
  12 C :    0.080929
  13 O :   -0.195837
  14 N :   -0.014289
  15 C :    0.035548
  16 C :    0.038792
  17 C :   -0.058209
  18 C :   -0.013332
  19 C :   -0.042586
  20 C :   -0.017674
  21 C :   -0.034447
  22 H :    0.026428
  23 H :    0.027121
  24 H :    0.025635
  25 H :    0.024768
  26 H :    0.028223
  27 H :    0.023703
  28 H :    0.037127
  29 H :    0.052171
  30 H :    0.054588
  31 H :    0.037964
  32 H :    0.027610
  33 H :    0.024721
  34 H :    0.025773
  35 H :    0.027283
  36 H :    0.026060
  37 H :    0.024122

  Mayer bond orders larger than 0.100000
B(  0-C ,  1-C ) :   1.3268 B(  0-C ,  5-C ) :   1.3694 B(  0-C , 22-H ) :   0.9976
B(  1-C ,  2-C ) :   1.4117 B(  1-C , 23-H ) :   0.9777 B(  2-C ,  3-C ) :   1.3265
B(  2-C , 24-H ) :   0.9826 B(  3-C ,  4-C ) :   1.4380 B(  3-C , 25-H ) :   0.9929
B(  4-C ,  5-C ) :   1.3519 B(  4-C , 10-C ) :   0.9635 B(  5-C ,  6-N ) :   1.0372
B(  6-N ,  7-C ) :   0.9763 B(  6-N ,  8-C ) :   1.1319 B(  7-C , 26-H ) :   0.9673
B(  7-C , 27-H ) :   0.9691 B(  7-C , 28-H ) :   0.9570 B(  8-C ,  9-O ) :   2.1135
B(  8-C , 10-C ) :   0.9158 B( 10-C , 11-C ) :   1.0348 B( 10-C , 29-H ) :   0.8614
B( 11-C , 12-C ) :   0.9167 B( 11-C , 21-C ) :   0.9663 B( 11-C , 30-H ) :   0.8579
B( 12-C , 13-O ) :   2.1068 B( 12-C , 14-N ) :   1.1321 B( 14-N , 15-C ) :   0.9750
B( 14-N , 16-C ) :   1.0363 B( 15-C , 31-H ) :   0.9582 B( 15-C , 32-H ) :   0.9684
B( 15-C , 33-H ) :   0.9681 B( 16-C , 17-C ) :   1.3669 B( 16-C , 21-C ) :   1.3531
B( 17-C , 18-C ) :   1.3248 B( 17-C , 34-H ) :   0.9958 B( 18-C , 19-C ) :   1.4130
B( 18-C , 35-H ) :   0.9791 B( 19-C , 20-C ) :   1.3275 B( 19-C , 36-H ) :   0.9838
B( 20-C , 21-C ) :   1.4365 B( 20-C , 37-H ) :   0.9920

Dispersion correction           -0.089450042
FINAL SINGLE POINT ENERGY      -954.956438309782

DIPOLE MOMENT
-------------
                                X             Y             Z
Electronic contribution:      0.28686       2.24268      -1.82115
Nuclear contribution   :     -0.19682      -1.97818       1.80794
                        -----------------------------------------
Total Dipole Moment    :      0.09004       0.26450      -0.01321
                        -----------------------------------------
Magnitude (a.u.)       :      0.27972
Magnitude (Debye)      :      0.71099

Rotational constants in cm-1:     0.019462     0.006576     0.006293
Rotational constants in MHz :   583.468816   197.152146   188.644837

                             ****ORCA TERMINATED NORMALLY****
TOTAL RUN TIME: 0 days 0 hours 56 minutes 38 seconds 180 msec
