                         Program Version 4.2.0 -  RELEASE  -
|  1> # ORCA input file
|  2> # SCF done        -42.786020611875          0.000656210020
|  3> ! B3LYP/G D3BJ Opt RIJCOSX def2-SVP def2/J
|  4> * xyz 0 1
|  5>    N       -2.48317         1.12386        -0.55073
|  6>    C       -3.36800         0.04069        -0.06278
|  7>    N       -2.56334        -1.13888         0.26042
|  8>    C       -1.25193        -0.57832         0.51071
|  9>    N       -0.11913        -1.47998         0.51870
| 10>    C        1.01874        -0.81800        -0.08832
| 11>    C        0.99661         0.66019         0.34768
| 12>    N       -0.06029         1.42955        -0.28208
| 13>    C       -1.15651         0.53199        -0.57712
| 14>    N        2.35101         1.04808         0.03483
| 15>    C        3.13104        -0.04719         0.59789
| 16>    N        2.32014        -1.23672         0.37765
| 17>    C        2.91218        -2.38865        -0.08934
| 18>    C        2.31891        -3.38775        -0.73202
| 19>    H       -2.47593         1.90485         0.09657
| 20>    H       -4.10229        -0.20271        -0.83522
| 21>    H       -3.90307         0.35603         0.83871
| 22>    H       -2.51513        -1.75838        -0.54541
| 23>    H       -1.31053        -0.08286         1.49285
| 24>    H       -0.33557        -2.36499         0.07518
| 25>    H        1.00041        -0.87583        -1.19918
| 26>    H        0.81388         0.67382         1.43988
| 27>    H        0.28390         1.88072        -1.12363
| 28>    H       -1.05134         0.03990        -1.56414
| 29>    H        2.60445         1.94338         0.43814
| 30>    H        3.30427         0.07435         1.68431
| 31>    H        4.09860        -0.11155         0.08874
| 32>    H        3.96309        -2.45181         0.16053
| 33>    H        1.27718        -3.38011        -0.99416
| 34>    H        2.87434        -4.26597        -1.00214
| 35> *
| 36>
| 37>                          ****END OF INPUT****
 Total Charge           Charge          ....    0
 Multiplicity           Mult            ....    1
 Number of Electrons    NEL             ....  106
Dispersion correction           -0.059182940
FINAL SINGLE POINT ENERGY      -642.484410295986
Dispersion correction            ... done
Dispersion correction           -0.058719005
FINAL SINGLE POINT ENERGY      -642.487580157455
Dispersion correction            ... done
Dispersion correction           -0.058690598
FINAL SINGLE POINT ENERGY      -642.488069365000
Dispersion correction            ... done
FINAL SINGLE POINT ENERGY      -642.488200836755
FINAL SINGLE POINT ENERGY      -642.488070278993
FINAL SINGLE POINT ENERGY      -642.487785453309
FINAL SINGLE POINT ENERGY      -642.487493518283
FINAL SINGLE POINT ENERGY      -642.487429710623
FINAL SINGLE POINT ENERGY      -642.487399371569
FINAL SINGLE POINT ENERGY      -642.487383084251
FINAL SINGLE POINT ENERGY      -642.487380730186
FINAL SINGLE POINT ENERGY      -642.487384283282
Dispersion correction            ... done
Dispersion correction           -0.058524751
FINAL SINGLE POINT ENERGY      -642.487390932140
Dispersion correction            ... done
Dispersion correction           -0.058525086
FINAL SINGLE POINT ENERGY      -642.487394129161
Dispersion correction            ... done
                    ***********************HURRAY********************

CARTESIAN COORDINATES (ANGSTROEM)
---------------------------------
  N     -2.539154    1.219656   -0.288791
  C     -3.415570    0.050323   -0.032835
  N     -2.569257   -1.158612    0.122420
  C     -1.249123   -0.612716    0.388565
  N     -0.122559   -1.517396    0.215484
  C      1.042433   -0.775864   -0.242619
  C      0.979688    0.655511    0.326867
  N     -0.080195    1.484417   -0.234116
  C     -1.222414    0.636710   -0.524997
  N      2.323097    1.121051    0.071664
  C      3.201973   -0.005103    0.397615
  N      2.341811   -1.181848    0.259662
  C      2.903245   -2.426941    0.094726
  C      2.355408   -3.540626   -0.425167
  H     -2.465040    1.794894    0.550376
  H     -4.122949   -0.120317   -0.861727
  H     -4.012336    0.231733    0.876644
  H     -2.537164   -1.644274   -0.776228
  H     -1.256799   -0.232495    1.429155
  H     -0.351323   -2.288925   -0.404588
  H      1.077582   -0.721625   -1.354999
  H      0.782297    0.540265    1.412109
  H      0.266770    1.939107   -1.077129
  H     -1.195147    0.256797   -1.569873
  H      2.551972    1.946729    0.620730
  H      3.615795    0.050040    1.427685
  H      4.061007   -0.038304   -0.299173
  H      3.930810   -2.476662    0.474024
  H      1.338458   -3.586349   -0.814496
  H      2.939205   -4.461467   -0.444469

 Multiplicity           Mult            ....    1
 Number of Electrons    NEL             ....  106
 Basis Dimension        Dim             ....  276

ORBITAL ENERGIES
----------------

  NO   OCC          E(Eh)            E(eV)
   0   2.0000     -14.339712      -390.2034
   1   2.0000     -14.330367      -389.9491
   2   2.0000     -14.321364      -389.7041
   3   2.0000     -14.320158      -389.6713
   4   2.0000     -14.317940      -389.6109
   5   2.0000     -14.307388      -389.3238
   6   2.0000     -10.255187      -279.0578
   7   2.0000     -10.247797      -278.8567
   8   2.0000     -10.246741      -278.8280
   9   2.0000     -10.236700      -278.5548
  10   2.0000     -10.236399      -278.5466
  11   2.0000     -10.233959      -278.4802
  12   2.0000     -10.215876      -277.9881
  13   2.0000     -10.160638      -276.4850
  14   2.0000      -0.994337       -27.0573
  15   2.0000      -0.964870       -26.2554
  16   2.0000      -0.912969       -24.8431
  17   2.0000      -0.898849       -24.4589
  18   2.0000      -0.871262       -23.7082
  19   2.0000      -0.824323       -22.4310
  20   2.0000      -0.743755       -20.2386
  21   2.0000      -0.731660       -19.9095
  22   2.0000      -0.684010       -18.6129
  23   2.0000      -0.640689       -17.4340
  24   2.0000      -0.638184       -17.3659
  25   2.0000      -0.609183       -16.5767
  26   2.0000      -0.580203       -15.7881
  27   2.0000      -0.558651       -15.2017
  28   2.0000      -0.544554       -14.8181
  29   2.0000      -0.525009       -14.2862
  30   2.0000      -0.505763       -13.7625
  31   2.0000      -0.504925       -13.7397
  32   2.0000      -0.476788       -12.9741
  33   2.0000      -0.467891       -12.7320
  34   2.0000      -0.462379       -12.5820
  35   2.0000      -0.448995       -12.2178
  36   2.0000      -0.437066       -11.8932
  37   2.0000      -0.425695       -11.5837
  38   2.0000      -0.411831       -11.2065
  39   2.0000      -0.407947       -11.1008
  40   2.0000      -0.394538       -10.7359
  41   2.0000      -0.389660       -10.6032
  42   2.0000      -0.384755       -10.4697
  43   2.0000      -0.378488       -10.2992
  44   2.0000      -0.375553       -10.2193
  45   2.0000      -0.357373        -9.7246
  46   2.0000      -0.313862        -8.5406
  47   2.0000      -0.265579        -7.2268
  48   2.0000      -0.252606        -6.8738
  49   2.0000      -0.240552        -6.5458
  50   2.0000      -0.230291        -6.2665
  51   2.0000      -0.221333        -6.0228
  52   2.0000      -0.196139        -5.3372
  53   0.0000       0.027987         0.7616
  54   0.0000       0.041337         1.1248
  55   0.0000       0.045981         1.2512
  56   0.0000       0.060719         1.6522
  57   0.0000       0.070591         1.9209

MULLIKEN ATOMIC CHARGES
-----------------------
   0 N :   -0.220782
   1 C :    0.211682
   2 N :   -0.221670
   3 C :    0.061859
   4 N :   -0.155815
   5 C :    0.204106
   6 C :    0.051522
   7 N :   -0.150942
   8 C :    0.086853
   9 N :   -0.252009
  10 C :    0.304957
  11 N :   -0.314838
  12 C :    0.089595
  13 C :   -0.088754
  14 H :    0.091215
  15 H :    0.004202
  16 H :    0.005797
  17 H :    0.089332
  18 H :   -0.022024
  19 H :    0.102308
  20 H :   -0.026774
  21 H :   -0.000936
  22 H :    0.100200
  23 H :   -0.043816
  24 H :    0.109137
  25 H :   -0.006931
  26 H :    0.001768
  27 H :   -0.005682
  28 H :   -0.013301
  29 H :    0.009744
Sum of atomic charges:   -0.0000000

LOEWDIN ATOMIC CHARGES
----------------------
   0 N :   -0.125430
   1 C :    0.085257
   2 N :   -0.114129
   3 C :    0.038024
   4 N :   -0.093239
   5 C :    0.068507
   6 C :    0.054569
   7 N :   -0.099673
   8 C :    0.031501
   9 N :   -0.107976
  10 C :    0.115504
  11 N :   -0.075605
  12 C :    0.021425
  13 C :   -0.153181
  14 H :    0.049719
  15 H :    0.010848
  16 H :    0.012472
  17 H :    0.046005
  18 H :    0.007352
  19 H :    0.055295
  20 H :   -0.008138
  21 H :    0.003980
  22 H :    0.059335
  23 H :   -0.008609
  24 H :    0.064111
  25 H :   -0.000709
  26 H :    0.006454
  27 H :    0.023073
  28 H :    0.009437
  29 H :    0.023823

  Mayer bond orders larger than 0.100000
B(  0-N ,  1-C ) :   1.0331 B(  0-N ,  8-C ) :   1.0624 B(  0-N , 14-H ) :   0.9360
B(  1-C ,  2-N ) :   1.0319 B(  1-C , 15-H ) :   0.9553 B(  1-C , 16-H ) :   0.9559
B(  2-N ,  3-C ) :   1.0703 B(  2-N , 17-H ) :   0.9337 B(  3-C ,  4-N ) :   1.1027
B(  3-C ,  8-C ) :   0.9753 B(  3-C , 18-H ) :   0.8744 B(  4-N ,  5-C ) :   1.1179
B(  4-N , 19-H ) :   0.9179 B(  5-C ,  6-C ) :   1.0073 B(  5-C , 11-N ) :   0.9636
B(  5-C , 20-H ) :   0.8898 B(  6-C ,  7-N ) :   1.0984 B(  6-C ,  9-N ) :   1.0555
B(  6-C , 21-H ) :   0.8887 B(  7-N ,  8-C ) :   1.1105 B(  7-N , 22-H ) :   0.9173
B(  8-C , 23-H ) :   0.8767 B(  9-N , 10-C ) :   1.0321 B(  9-N , 24-H ) :   0.9322
B( 10-C , 11-N ) :   0.9717 B( 10-C , 25-H ) :   0.9445 B( 10-C , 26-H ) :   0.9442
B( 11-N , 12-C ) :   1.1355 B( 12-C , 13-C ) :   1.8870 B( 12-C , 27-H ) :   0.9507
B( 13-C , 28-H ) :   0.9515 B( 13-C , 29-H ) :   0.9431

Dispersion correction           -0.058523119
FINAL SINGLE POINT ENERGY      -642.487392765864

DIPOLE MOMENT
-------------
                                X             Y             Z
Electronic contribution:     -0.01057       2.50128       0.68928
Nuclear contribution   :      0.43928      -2.00905      -0.83889
                        -----------------------------------------
Total Dipole Moment    :      0.42871       0.49223      -0.14961
                        -----------------------------------------
Magnitude (a.u.)       :      0.66968
Magnitude (Debye)      :      1.70219

Rotational constants in cm-1:     0.045082     0.016481     0.012602
Rotational constants in MHz :  1351.510666   494.077326   377.789451

                             ****ORCA TERMINATED NORMALLY****
TOTAL RUN TIME: 0 days 0 hours 33 minutes 12 seconds 235 msec
