                         Program Version 4.2.0 -  RELEASE  -
|  1> # ORCA input file
|  2> # SCF done        -30.495187143794          0.000190476831
|  3> ! B3LYP/G D3BJ Opt RIJCOSX def2-SVP def2/J
|  4> * xyz 0 1
|  5>    C       -0.22976         1.09863        -0.00739
|  6>    O       -1.06736         0.06407        -0.01444
|  7>    C       -0.33205        -1.05815        -0.01026
|  8>    C        0.99539        -0.76507        -0.00034
|  9>    C        1.06330         0.65482         0.00158
| 10>    C        2.29884         1.47917         0.01160
| 11>    F        2.03261         2.79422         0.00707
| 12>    F        3.06397         1.24690         1.09304
| 13>    F        3.08370         1.24337        -1.05476
| 14>    H       -0.63761         2.08985        -0.00940
| 15>    H       -0.85563        -1.99295        -0.01498
| 16>    H        1.82206        -1.44377         0.00495
| 17> *
| 18>
| 19>                          ****END OF INPUT****
 Total Charge           Charge          ....    0
 Multiplicity           Mult            ....    1
 Number of Electrons    NEL             ....   68
Dispersion correction           -0.017040737
FINAL SINGLE POINT ENERGY      -566.659740981964
Dispersion correction            ... done
Dispersion correction           -0.017107962
FINAL SINGLE POINT ENERGY      -566.661309498610
Dispersion correction            ... done
Dispersion correction           -0.017113946
FINAL SINGLE POINT ENERGY      -566.661429401882
Dispersion correction            ... done
FINAL SINGLE POINT ENERGY      -566.661471318377
FINAL SINGLE POINT ENERGY      -566.661476249595
FINAL SINGLE POINT ENERGY      -566.661472510643
FINAL SINGLE POINT ENERGY      -566.661470627126
FINAL SINGLE POINT ENERGY      -566.661447358182
FINAL SINGLE POINT ENERGY      -566.661479541202
Dispersion correction            ... done
Dispersion correction           -0.017115687
FINAL SINGLE POINT ENERGY      -566.661484881635
Dispersion correction            ... done
Dispersion correction           -0.017119622
FINAL SINGLE POINT ENERGY      -566.661487258909
Dispersion correction            ... done
                    ***********************HURRAY********************

CARTESIAN COORDINATES (ANGSTROEM)
---------------------------------
  C     -0.217135    1.114114    0.026052
  O     -1.068569    0.066546    0.025091
  C     -0.327463   -1.073047   -0.014404
  C      1.002195   -0.771829   -0.038586
  C      1.072718    0.661910   -0.010660
  C      2.309428    1.490634    0.009898
  F      2.018262    2.798089   -0.103851
  F      3.003483    1.329104    1.152682
  F      3.146836    1.161083   -0.991153
  H     -0.655071    2.107690    0.052649
  H     -0.883603   -2.006005   -0.021925
  H      1.836378   -1.467198   -0.079123

 Multiplicity           Mult            ....    1
 Number of Electrons    NEL             ....   68
 Basis Dimension        Dim             ....  141

ORBITAL ENERGIES
----------------

  NO   OCC          E(Eh)            E(eV)
   0   2.0000     -24.720627      -672.6824
   1   2.0000     -24.715740      -672.5495
   2   2.0000     -24.713907      -672.4996
   3   2.0000     -19.225032      -523.1397
   4   2.0000     -10.437792      -284.0268
   5   2.0000     -10.265009      -279.3251
   6   2.0000     -10.258737      -279.1544
   7   2.0000     -10.216295      -277.9995
   8   2.0000     -10.211557      -277.8706
   9   2.0000      -1.296432       -35.2777
  10   2.0000      -1.206943       -32.8426
  11   2.0000      -1.200799       -32.6754
  12   2.0000      -1.129261       -30.7288
  13   2.0000      -0.832574       -22.6555
  14   2.0000      -0.770554       -20.9678
  15   2.0000      -0.711040       -19.3484
  16   2.0000      -0.634143       -17.2559
  17   2.0000      -0.611091       -16.6286
  18   2.0000      -0.590167       -16.0593
  19   2.0000      -0.584067       -15.8933
  20   2.0000      -0.578014       -15.7286
  21   2.0000      -0.506943       -13.7946
  22   2.0000      -0.479567       -13.0497
  23   2.0000      -0.470705       -12.8085
  24   2.0000      -0.466655       -12.6983
  25   2.0000      -0.462142       -12.5755
  26   2.0000      -0.435555       -11.8521
  27   2.0000      -0.429099       -11.6764
  28   2.0000      -0.426273       -11.5995
  29   2.0000      -0.407632       -11.0922
  30   2.0000      -0.397261       -10.8100
  31   2.0000      -0.390285       -10.6202
  32   2.0000      -0.307222        -8.3599
  33   2.0000      -0.259493        -7.0612
  34   0.0000      -0.017097        -0.4652
  35   0.0000       0.024900         0.6776
  36   0.0000       0.074246         2.0203
  37   0.0000       0.097481         2.6526
  38   0.0000       0.100390         2.7318

MULLIKEN ATOMIC CHARGES
-----------------------
   0 C :    0.110312
   1 O :   -0.199215
   2 C :    0.140101
   3 C :   -0.021241
   4 C :   -0.124179
   5 C :    0.556633
   6 F :   -0.171479
   7 F :   -0.172133
   8 F :   -0.172913
   9 H :    0.024164
  10 H :    0.020709
  11 H :    0.009240
Sum of atomic charges:   -0.0000000

LOEWDIN ATOMIC CHARGES
----------------------
   0 C :    0.054903
   1 O :    0.015690
   2 C :    0.043368
   3 C :   -0.056534
   4 C :   -0.132213
   5 C :    0.173307
   6 F :   -0.063043
   7 F :   -0.067847
   8 F :   -0.066267
   9 H :    0.031748
  10 H :    0.027684
  11 H :    0.039205

  Mayer bond orders larger than 0.100000
B(  0-C ,  1-O ) :   1.1632 B(  0-C ,  4-C ) :   1.5478 B(  0-C ,  9-H ) :   1.0081
B(  1-O ,  2-C ) :   1.1287 B(  2-C ,  3-C ) :   1.5621 B(  2-C , 10-H ) :   0.9994
B(  3-C ,  4-C ) :   1.2297 B(  3-C , 11-H ) :   1.0081 B(  4-C ,  5-C ) :   0.9736
B(  5-C ,  6-F ) :   1.1513 B(  5-C ,  7-F ) :   1.1611 B(  5-C ,  8-F ) :   1.1553

Dispersion correction           -0.017119738
FINAL SINGLE POINT ENERGY      -566.661487919043

DIPOLE MOMENT
-------------
                                X             Y             Z
Electronic contribution:      6.74677       5.67006       0.08042
Nuclear contribution   :     -7.37239      -6.22271      -0.09888
                        -----------------------------------------
Total Dipole Moment    :     -0.62562      -0.55265      -0.01847
                        -----------------------------------------
Magnitude (a.u.)       :      0.83496
Magnitude (Debye)      :      2.12231

Rotational constants in cm-1:     0.117524     0.039047     0.034617
Rotational constants in MHz :  3523.272459  1170.586481  1037.790162

                             ****ORCA TERMINATED NORMALLY****
TOTAL RUN TIME: 0 days 0 hours 5 minutes 25 seconds 837 msec
