                         Program Version 4.2.0 -  RELEASE  -
|  1> # ORCA input file
|  2> # SCF done        -39.093223066019          0.000776613973
|  3> ! B3LYP/G D3BJ Opt RIJCOSX def2-SVP def2/J
|  4> * xyz 0 1
|  5>    C       -1.99915         1.48916        -0.06336
|  6>    S       -3.07462         0.17440        -0.22199
|  7>    C       -1.78017        -0.97822        -0.31840
|  8>    C       -0.55065        -0.33151        -0.22888
|  9>    C       -0.68360         1.08857        -0.08068
| 10>    C        0.47879         1.89123         0.02856
| 11>    C        1.71362         1.32521        -0.01002
| 12>    C        2.96607         2.13427         0.10423
| 13>    C        1.84120        -0.09697        -0.16562
| 14>    O        3.13258        -0.53624        -0.19616
| 15>    C        3.36959        -1.91161        -0.35277
| 16>    C        0.74230        -0.90248        -0.27024
| 17>    C       -2.03273        -2.37937        -0.46529
| 18>    C       -3.23837        -2.94070        -0.54820
| 19>    H       -2.38641         2.48362         0.03434
| 20>    H        0.36659         2.95908         0.14379
| 21>    H        2.73427         3.18822         0.23112
| 22>    H        3.57697         2.00578        -0.78792
| 23>    H        3.55609         1.79133         0.95235
| 24>    H        4.45258        -2.02665        -0.35622
| 25>    H        2.96333        -2.28474        -1.29890
| 26>    H        2.94720        -2.48995         0.47582
| 27>    H        0.83635        -1.96982        -0.38508
| 28>    H       -1.14905        -3.00235        -0.50733
| 29>    H       -4.13816        -2.34875        -0.50805
| 30>    H       -3.35977        -4.00363        -0.65679
| 31> *
| 32>
| 33>                          ****END OF INPUT****
 Total Charge           Charge          ....    0
 Multiplicity           Mult            ....    1
 Number of Electrons    NEL             ....  108
Dispersion correction           -0.055426531
FINAL SINGLE POINT ENERGY      -937.438833217935
Dispersion correction            ... done
Dispersion correction           -0.055105771
FINAL SINGLE POINT ENERGY      -937.442414181911
Dispersion correction            ... done
Dispersion correction           -0.055044670
FINAL SINGLE POINT ENERGY      -937.442543814617
Dispersion correction            ... done
FINAL SINGLE POINT ENERGY      -937.442560607777
Dispersion correction            ... done
Dispersion correction           -0.055031145
FINAL SINGLE POINT ENERGY      -937.442552922002
Dispersion correction            ... done
Dispersion correction           -0.055035226
FINAL SINGLE POINT ENERGY      -937.442553459583
Dispersion correction            ... done
                    ***********************HURRAY********************

CARTESIAN COORDINATES (ANGSTROEM)
---------------------------------
  C     -2.018231    1.526332   -0.097033
  S     -3.095014    0.200749   -0.251524
  C     -1.807594   -0.966904   -0.327527
  C     -0.565181   -0.320340   -0.237129
  C     -0.691664    1.115833   -0.097230
  C      0.489028    1.916083    0.022084
  C      1.733975    1.344694    0.001479
  C      2.998744    2.146446    0.128591
  C      1.842896   -0.092908   -0.152925
  O      3.123531   -0.542536   -0.170393
  C      3.354924   -1.916320   -0.368683
  C      0.736960   -0.903998   -0.266054
  C     -2.055700   -2.385485   -0.466081
  C     -3.247708   -3.007421   -0.517854
  H     -2.402058    2.540767   -0.006231
  H      0.391045    2.998714    0.139032
  H      2.775538    3.212164    0.282130
  H      3.627803    2.041753   -0.770954
  H      3.610731    1.787805    0.972205
  H      4.443383   -2.059975   -0.360259
  H      2.949551   -2.258180   -1.338521
  H      2.903043   -2.525758    0.434213
  H      0.841575   -1.981078   -0.383254
  H     -1.148422   -2.995543   -0.535356
  H     -4.190229   -2.455832   -0.453670
  H     -3.316077   -4.091183   -0.630746

 Multiplicity           Mult            ....    1
 Number of Electrons    NEL             ....  108
 Basis Dimension        Dim             ....  260

ORBITAL ENERGIES
----------------

  NO   OCC          E(Eh)            E(eV)
   0   2.0000     -88.875185     -2418.4167
   1   2.0000     -19.170702      -521.6613
   2   2.0000     -10.250014      -278.9170
   3   2.0000     -10.249463      -278.9021
   4   2.0000     -10.210241      -277.8348
   5   2.0000     -10.209364      -277.8109
   6   2.0000     -10.198986      -277.5285
   7   2.0000     -10.197357      -277.4842
   8   2.0000     -10.197280      -277.4821
   9   2.0000     -10.194710      -277.4122
  10   2.0000     -10.191905      -277.3358
  11   2.0000     -10.186470      -277.1879
  12   2.0000     -10.185321      -277.1567
  13   2.0000     -10.182285      -277.0741
  14   2.0000      -7.969862      -216.8710
  15   2.0000      -5.937679      -161.5725
  16   2.0000      -5.933674      -161.4635
  17   2.0000      -5.931835      -161.4134
  18   2.0000      -1.066196       -29.0127
  19   2.0000      -0.887158       -24.1408
  20   2.0000      -0.830914       -22.6103
  21   2.0000      -0.781900       -21.2766
  22   2.0000      -0.763894       -20.7866
  23   2.0000      -0.744349       -20.2548
  24   2.0000      -0.711411       -19.3585
  25   2.0000      -0.688560       -18.7367
  26   2.0000      -0.665776       -18.1167
  27   2.0000      -0.604953       -16.4616
  28   2.0000      -0.599183       -16.3046
  29   2.0000      -0.566120       -15.4049
  30   2.0000      -0.542169       -14.7532
  31   2.0000      -0.514379       -13.9970
  32   2.0000      -0.508772       -13.8444
  33   2.0000      -0.478024       -13.0077
  34   2.0000      -0.473507       -12.8848
  35   2.0000      -0.461892       -12.5687
  36   2.0000      -0.449151       -12.2220
  37   2.0000      -0.423813       -11.5325
  38   2.0000      -0.419492       -11.4150
  39   2.0000      -0.418334       -11.3835
  40   2.0000      -0.407870       -11.0987
  41   2.0000      -0.397584       -10.8188
  42   2.0000      -0.389497       -10.5987
  43   2.0000      -0.379053       -10.3146
  44   2.0000      -0.365207        -9.9378
  45   2.0000      -0.357092        -9.7170
  46   2.0000      -0.356119        -9.6905
  47   2.0000      -0.335252        -9.1227
  48   2.0000      -0.331463        -9.0196
  49   2.0000      -0.316807        -8.6208
  50   2.0000      -0.296053        -8.0560
  51   2.0000      -0.260697        -7.0939
  52   2.0000      -0.228566        -6.2196
  53   2.0000      -0.188073        -5.1177
  54   0.0000      -0.061046        -1.6611
  55   0.0000      -0.004751        -0.1293
  56   0.0000       0.031064         0.8453
  57   0.0000       0.044840         1.2202
  58   0.0000       0.055257         1.5036

MULLIKEN ATOMIC CHARGES
-----------------------
   0 C :   -0.130022
   1 S :    0.125260
   2 C :   -0.154673
   3 C :    0.143822
   4 C :    0.106671
   5 C :   -0.073983
   6 C :   -0.080718
   7 C :    0.112931
   8 C :    0.210735
   9 O :   -0.314926
  10 C :    0.185525
  11 C :   -0.157257
  12 C :    0.007901
  13 C :   -0.050412
  14 H :    0.013026
  15 H :   -0.041855
  16 H :    0.001129
  17 H :    0.025443
  18 H :    0.023339
  19 H :    0.033338
  20 H :    0.018005
  21 H :    0.022629
  22 H :   -0.045986
  23 H :   -0.015145
  24 H :    0.013625
  25 H :    0.021601
Sum of atomic charges:   -0.0000000

LOEWDIN ATOMIC CHARGES
----------------------
   0 C :   -0.198820
   1 S :    0.463625
   2 C :   -0.202130
   3 C :   -0.034877
   4 C :   -0.057527
   5 C :   -0.022491
   6 C :   -0.038893
   7 C :   -0.042513
   8 C :    0.054202
   9 O :   -0.093527
  10 C :    0.078450
  11 C :   -0.089791
  12 C :   -0.039772
  13 C :   -0.071589
  14 H :    0.023687
  15 H :    0.025923
  16 H :    0.025853
  17 H :    0.035278
  18 H :    0.034838
  19 H :    0.026797
  20 H :    0.013907
  21 H :    0.014077
  22 H :    0.023163
  23 H :    0.030834
  24 H :    0.016366
  25 H :    0.024930

  Mayer bond orders larger than 0.100000
B(  0-C ,  1-S ) :   1.1890 B(  0-C ,  2-C ) :   0.1048 B(  0-C ,  4-C ) :   1.4076
B(  0-C , 14-H ) :   0.9642 B(  1-S ,  2-C ) :   1.1282 B(  2-C ,  3-C ) :   1.3517
B(  2-C , 12-C ) :   1.1647 B(  3-C ,  4-C ) :   1.1937 B(  3-C , 11-C ) :   1.1596
B(  4-C ,  5-C ) :   1.1358 B(  5-C ,  6-C ) :   1.5806 B(  5-C , 15-H ) :   0.9942
B(  6-C ,  7-C ) :   1.0827 B(  6-C ,  8-C ) :   1.1843 B(  7-C , 16-H ) :   0.9502
B(  7-C , 17-H ) :   0.9462 B(  7-C , 18-H ) :   0.9435 B(  8-C ,  9-O ) :   1.1578
B(  8-C , 11-C ) :   1.4575 B(  9-O , 10-C ) :   0.9695 B( 10-C , 19-H ) :   0.9749
B( 10-C , 20-H ) :   0.9637 B( 10-C , 21-H ) :   0.9634 B( 11-C , 22-H ) :   0.9840
B( 12-C , 13-C ) :   1.8859 B( 12-C , 23-H ) :   0.9483 B( 13-C , 24-H ) :   0.9535
B( 13-C , 25-H ) :   0.9455

Dispersion correction           -0.055036222
FINAL SINGLE POINT ENERGY      -937.442550415880

DIPOLE MOMENT
-------------
                                X             Y             Z
Electronic contribution:    -11.02273       3.78236       0.13488
Nuclear contribution   :     11.59318      -3.97720      -0.16945
                        -----------------------------------------
Total Dipole Moment    :      0.57045      -0.19484      -0.03457
                        -----------------------------------------
Magnitude (a.u.)       :      0.60380
Magnitude (Debye)      :      1.53474

Rotational constants in cm-1:     0.035848     0.013934     0.010074
Rotational constants in MHz :  1074.707799   417.737790   302.002074

                             ****ORCA TERMINATED NORMALLY****
TOTAL RUN TIME: 0 days 0 hours 13 minutes 25 seconds 549 msec
