                         Program Version 4.2.0 -  RELEASE  -
|  1> # ORCA input file
|  2> # SCF done        -18.380038444005          0.000503180373
|  3> ! B3LYP/G D3BJ Opt RIJCOSX def2-SVP def2/J
|  4> * xyz 0 2
|  5>    C       -0.73907        -1.02791        -0.26146
|  6>    C       -1.18053         0.35257         0.29828
|  7>    C       -1.36650         0.32678         1.75567
|  8>    C       -0.00518         1.23981        -0.13446
|  9>    C        1.24513         0.37326         0.05946
| 10>    C        0.76203        -1.08886         0.02216
| 11>    H       -0.92591        -1.04483        -1.33605
| 12>    H       -1.28473        -1.84973         0.19923
| 13>    H       -2.11668         0.65268        -0.18465
| 14>    H       -0.53338         0.46276         2.41676
| 15>    H       -2.31370         0.05441         2.17962
| 16>    H        0.04101         2.16371         0.44040
| 17>    H       -0.12357         1.49934        -1.18747
| 18>    H        1.71391         0.59182         1.01857
| 19>    H        1.98224         0.57329        -0.71771
| 20>    H        0.94026        -1.57050         0.98350
| 21>    H        1.28250        -1.66799        -0.74028
| 22> *
| 23>
| 24>                          ****END OF INPUT****
 Total Charge           Charge          ....    0
 Multiplicity           Mult            ....    2
 Number of Electrons    NEL             ....   47
Dispersion correction           -0.024979663
FINAL SINGLE POINT ENERGY      -235.052108083573
Dispersion correction            ... done
Dispersion correction           -0.024719748
FINAL SINGLE POINT ENERGY      -235.054227711194
Dispersion correction            ... done
Dispersion correction           -0.024680513
FINAL SINGLE POINT ENERGY      -235.054310633287
Dispersion correction            ... done
FINAL SINGLE POINT ENERGY      -235.054342014922
FINAL SINGLE POINT ENERGY      -235.054354434496
FINAL SINGLE POINT ENERGY      -235.054370079918
FINAL SINGLE POINT ENERGY      -235.054387512426
FINAL SINGLE POINT ENERGY      -235.054405001784
FINAL SINGLE POINT ENERGY      -235.054414136523
FINAL SINGLE POINT ENERGY      -235.054284976483
FINAL SINGLE POINT ENERGY      -235.054414507762
FINAL SINGLE POINT ENERGY      -235.054426180640
FINAL SINGLE POINT ENERGY      -235.054488661834
FINAL SINGLE POINT ENERGY      -235.054554612530
FINAL SINGLE POINT ENERGY      -235.054585668519
FINAL SINGLE POINT ENERGY      -235.054539697147
FINAL SINGLE POINT ENERGY      -235.054578299826
Dispersion correction            ... done
Dispersion correction           -0.024522415
FINAL SINGLE POINT ENERGY      -235.054578665792
Dispersion correction            ... done
Dispersion correction           -0.024518903
FINAL SINGLE POINT ENERGY      -235.054572460465
Dispersion correction            ... done
                    ***********************HURRAY********************

CARTESIAN COORDINATES (ANGSTROEM)
---------------------------------
  C     -0.779122   -1.034247   -0.231639
  C     -1.151674    0.368544    0.311490
  C     -1.352015    0.380541    1.790296
  C      0.050239    1.223513   -0.140031
  C      1.266089    0.321061    0.127479
  C      0.762260   -1.130343   -0.100808
  H     -1.076658   -1.104705   -1.290328
  H     -1.307110   -1.839831    0.300043
  H     -2.082618    0.727406   -0.178127
  H     -1.111937    1.266977    2.384784
  H     -1.887491   -0.435313    2.284501
  H      0.109821    2.191944    0.379931
  H     -0.041189    1.437473   -1.218091
  H      1.595834    0.446527    1.171089
  H      2.125860    0.576483   -0.509936
  H      1.054048   -1.781024    0.736926
  H      1.203494   -1.574396   -1.006008

 Multiplicity           Mult            ....    2
 Number of Electrons    NEL             ....   47
 Basis Dimension        Dim             ....  139

ORBITAL ENERGIES
----------------
                 SPIN UP ORBITALS
  NO   OCC          E(Eh)            E(eV)
   0   1.0000     -10.188682      -277.2481
   1   1.0000     -10.188469      -277.2423
   2   1.0000     -10.178692      -276.9763
   3   1.0000     -10.178126      -276.9609
   4   1.0000     -10.176699      -276.9220
   5   1.0000     -10.176440      -276.9150
   6   1.0000      -0.831766       -22.6335
   7   1.0000      -0.727323       -19.7915
   8   1.0000      -0.698267       -19.0008
   9   1.0000      -0.642955       -17.4957
  10   1.0000      -0.555007       -15.1025
  11   1.0000      -0.537691       -14.6313
  12   1.0000      -0.482610       -13.1325
  13   1.0000      -0.469393       -12.7728
  14   1.0000      -0.439594       -11.9620
  15   1.0000      -0.410693       -11.1755
  16   1.0000      -0.389009       -10.5855
  17   1.0000      -0.350225        -9.5301
  18   1.0000      -0.338663        -9.2155
  19   1.0000      -0.335919        -9.1408
  20   1.0000      -0.331540        -9.0217
  21   1.0000      -0.325529        -8.8581
  22   1.0000      -0.310689        -8.4543
  23   1.0000      -0.204124        -5.5545
  24   0.0000       0.049657         1.3512
  25   0.0000       0.069922         1.9027
  26   0.0000       0.095781         2.6063
  27   0.0000       0.102257         2.7825
  28   0.0000       0.118066         3.2127

                 SPIN DOWN ORBITALS
  NO   OCC          E(Eh)            E(eV)
   0   1.0000     -10.189544      -277.2716
   1   1.0000     -10.178179      -276.9623
   2   1.0000     -10.177816      -276.9525
   3   1.0000     -10.176694      -276.9219
   4   1.0000     -10.176383      -276.9135
   5   1.0000     -10.174334      -276.8577
   6   1.0000      -0.828777       -22.5522
   7   1.0000      -0.716943       -19.5090
   8   1.0000      -0.697829       -18.9889
   9   1.0000      -0.623630       -16.9698
  10   1.0000      -0.554443       -15.0872
  11   1.0000      -0.530141       -14.4259
  12   1.0000      -0.478198       -13.0124
  13   1.0000      -0.467603       -12.7241
  14   1.0000      -0.434562       -11.8250
  15   1.0000      -0.406856       -11.0711
  16   1.0000      -0.385278       -10.4839
  17   1.0000      -0.340696        -9.2708
  18   1.0000      -0.338311        -9.2059
  19   1.0000      -0.335694        -9.1347
  20   1.0000      -0.326806        -8.8928
  21   1.0000      -0.324425        -8.8280
  22   1.0000      -0.310091        -8.4380
  23   0.0000      -0.050660        -1.3785
  24   0.0000       0.052889         1.4392
  25   0.0000       0.071133         1.9356
  26   0.0000       0.097973         2.6660
  27   0.0000       0.102869         2.7992

MULLIKEN ATOMIC CHARGES AND SPIN POPULATIONS
--------------------------------------------
   0 C :    0.058859    0.010722
   1 C :   -0.093975   -0.078757
   2 C :   -0.062028    1.084767
   3 C :    0.043802    0.004903
   4 C :    0.027742    0.006303
   5 C :    0.014991    0.002999
   6 H :   -0.012975    0.003139
   7 H :   -0.006338   -0.000830
   8 H :    0.008127    0.061269
   9 H :    0.026089   -0.047185
  10 H :    0.023673   -0.047206
  11 H :   -0.005695   -0.000898
  12 H :   -0.007413    0.000670
  13 H :   -0.006050    0.000558
  14 H :   -0.003040   -0.000341
  15 H :   -0.001154    0.000330
  16 H :   -0.004613   -0.000443
Sum of atomic charges         :    0.0000000

LOEWDIN ATOMIC CHARGES AND SPIN POPULATIONS
-------------------------------------------
   0 C :   -0.024288    0.016575
   1 C :   -0.052898   -0.008709
   2 C :   -0.024110    0.921236
   3 C :   -0.025330    0.010293
   4 C :   -0.033672    0.003294
   5 C :   -0.034436    0.000809
   6 H :    0.016968    0.001541
   7 H :    0.017505   -0.000117
   8 H :    0.028385    0.054348
   9 H :    0.010774   -0.000553
  10 H :    0.010339   -0.000678
  11 H :    0.016663   -0.000400
  12 H :    0.017150    0.000099
  13 H :    0.018606    0.001794
  14 H :    0.018388    0.000084
  15 H :    0.020543    0.000576
  16 H :    0.019414   -0.000190

  Mayer bond orders larger than 0.100000
B(  0-C ,  1-C ) :   1.0602 B(  0-C ,  5-C ) :   1.1048 B(  0-C ,  6-H ) :   0.9321
B(  0-C ,  7-H ) :   0.9422 B(  1-C ,  2-C ) :   1.0687 B(  1-C ,  3-C ) :   1.0476
B(  1-C ,  8-H ) :   0.9066 B(  2-C ,  9-H ) :   0.9648 B(  2-C , 10-H ) :   0.9638
B(  3-C ,  4-C ) :   1.0990 B(  3-C , 11-H ) :   0.9432 B(  3-C , 12-H ) :   0.9380
B(  4-C ,  5-C ) :   1.1043 B(  4-C , 13-H ) :   0.9365 B(  4-C , 14-H ) :   0.9439
B(  5-C , 15-H ) :   0.9411 B(  5-C , 16-H ) :   0.9427

Dispersion correction           -0.024518393
FINAL SINGLE POINT ENERGY      -235.054569617529

DIPOLE MOMENT
-------------
                                X             Y             Z
Electronic contribution:     -0.66063       0.27706       0.04356
Nuclear contribution   :      0.64217      -0.26432      -0.13496
                        -----------------------------------------
Total Dipole Moment    :     -0.01846       0.01274      -0.09140
                        -----------------------------------------
Magnitude (a.u.)       :      0.09411
Magnitude (Debye)      :      0.23921

Rotational constants in cm-1:     0.166174     0.117752     0.093352
Rotational constants in MHz :  4981.783962  3530.118519  2798.622808

                             ****ORCA TERMINATED NORMALLY****
TOTAL RUN TIME: 0 days 0 hours 13 minutes 45 seconds 835 msec
