                         Program Version 4.2.0 -  RELEASE  -
|  1> # ORCA input file
|  2> # SCF done        -39.206306752095          0.000544328174
|  3> ! B3LYP/G D3BJ Opt RIJCOSX def2-SVP def2/J
|  4> * xyz 0 1
|  5>    C        1.47830        -1.29450         0.04334
|  6>    S        2.70124        -0.10111         0.05120
|  7>    C        1.52844         1.18629         0.11252
|  8>    C        0.24996         0.67286         0.14184
|  9>    C        0.23345        -0.74717         0.09482
| 10>    C       -1.03718        -1.54121         0.06551
| 11>    F       -0.88354        -2.64772        -0.75170
| 12>    C       -2.18384        -0.67589        -0.44398
| 13>    C       -2.25589         0.58430         0.40601
| 14>    C       -1.02281         1.46653         0.20388
| 15>    F       -0.98054         2.36675         1.26036
| 16>    C        2.06375         2.52577         0.08564
| 17>    C        1.40731         3.67753        -0.01491
| 18>    H        1.73220        -2.33388        -0.01442
| 19>    H       -1.26755        -1.94582         1.06270
| 20>    H       -3.11993        -1.23252        -0.38740
| 21>    H       -1.99695        -0.42270        -1.49006
| 22>    H       -2.30483         0.31261         1.46336
| 23>    H       -3.15036         1.16004         0.16582
| 24>    H       -1.12587         2.08113        -0.70346
| 25>    H        3.14646         2.54703         0.12763
| 26>    H        0.33823         3.75468        -0.05665
| 27>    H        1.94829         4.60797        -0.04218
| 28> *
| 29>
| 30>                          ****END OF INPUT****
 Total Charge           Charge          ....    0
 Multiplicity           Mult            ....    1
 Number of Electrons    NEL             ....  104
Dispersion correction           -0.048652558
FINAL SINGLE POINT ENERGY      -984.437039685192
Dispersion correction            ... done
Dispersion correction           -0.048420281
FINAL SINGLE POINT ENERGY      -984.439977150183
Dispersion correction            ... done
Dispersion correction           -0.048251786
FINAL SINGLE POINT ENERGY      -984.440266524155
Dispersion correction            ... done
FINAL SINGLE POINT ENERGY      -984.440475167273
FINAL SINGLE POINT ENERGY      -984.440549558627
FINAL SINGLE POINT ENERGY      -984.440584604182
FINAL SINGLE POINT ENERGY      -984.440638635886
FINAL SINGLE POINT ENERGY      -984.440759773945
FINAL SINGLE POINT ENERGY      -984.440785384939
FINAL SINGLE POINT ENERGY      -984.440798450976
Dispersion correction            ... done
Dispersion correction           -0.048353797
FINAL SINGLE POINT ENERGY      -984.440791343611
Dispersion correction            ... done
Dispersion correction           -0.048354326
FINAL SINGLE POINT ENERGY      -984.440791464327
Dispersion correction            ... done
                    ***********************HURRAY********************

CARTESIAN COORDINATES (ANGSTROEM)
---------------------------------
  C      1.491708   -1.321034    0.032543
  S      2.709244   -0.109107   -0.070241
  C      1.542408    1.186471    0.038667
  C      0.256216    0.666917    0.158344
  C      0.240465   -0.767265    0.147529
  C     -1.042119   -1.549702    0.168866
  F     -0.881722   -2.745904   -0.521307
  C     -2.162160   -0.731253   -0.457204
  C     -2.281914    0.620745    0.245278
  C     -1.009760    1.475504    0.183229
  F     -1.037088    2.323550    1.304856
  C      2.050134    2.547885   -0.074001
  C      1.429054    3.701908    0.225966
  H      1.744459   -2.378086   -0.016381
  H     -1.315797   -1.821117    1.206488
  H     -3.109521   -1.286377   -0.379940
  H     -1.934376   -0.605513   -1.529663
  H     -2.494126    0.457633    1.315248
  H     -3.127571    1.194681   -0.160805
  H     -1.021815    2.146161   -0.694677
  H      3.073789    2.606907   -0.460941
  H      0.433355    3.738548    0.665387
  H      1.945479    4.649418    0.052628

 Multiplicity           Mult            ....    1
 Number of Electrons    NEL             ....  104
 Basis Dimension        Dim             ....  236

ORBITAL ENERGIES
----------------

  NO   OCC          E(Eh)            E(eV)
   0   2.0000     -88.880893     -2418.5721
   1   2.0000     -24.669964      -671.3039
   2   2.0000     -24.669402      -671.2886
   3   2.0000     -10.274963      -279.5960
   4   2.0000     -10.273825      -279.5650
   5   2.0000     -10.227394      -278.3015
   6   2.0000     -10.217497      -278.0322
   7   2.0000     -10.206796      -277.7410
   8   2.0000     -10.204466      -277.6776
   9   2.0000     -10.204215      -277.6708
  10   2.0000     -10.203972      -277.6642
  11   2.0000     -10.203138      -277.6415
  12   2.0000     -10.190006      -277.2842
  13   2.0000      -7.976050      -217.0394
  14   2.0000      -5.943958      -161.7433
  15   2.0000      -5.940016      -161.6361
  16   2.0000      -5.937647      -161.5716
  17   2.0000      -1.172714       -31.9112
  18   2.0000      -1.168514       -31.7969
  19   2.0000      -0.895107       -24.3571
  20   2.0000      -0.829470       -22.5710
  21   2.0000      -0.789010       -21.4701
  22   2.0000      -0.749666       -20.3994
  23   2.0000      -0.744213       -20.2511
  24   2.0000      -0.698355       -19.0032
  25   2.0000      -0.638521       -17.3750
  26   2.0000      -0.622728       -16.9453
  27   2.0000      -0.594480       -16.1766
  28   2.0000      -0.563451       -15.3323
  29   2.0000      -0.537943       -14.6382
  30   2.0000      -0.520316       -14.1585
  31   2.0000      -0.504999       -13.7417
  32   2.0000      -0.500634       -13.6230
  33   2.0000      -0.476229       -12.9589
  34   2.0000      -0.463226       -12.6050
  35   2.0000      -0.460269       -12.5246
  36   2.0000      -0.447894       -12.1878
  37   2.0000      -0.430757       -11.7215
  38   2.0000      -0.418411       -11.3856
  39   2.0000      -0.411665       -11.2020
  40   2.0000      -0.400314       -10.8931
  41   2.0000      -0.388812       -10.5801
  42   2.0000      -0.376175       -10.2362
  43   2.0000      -0.372534       -10.1372
  44   2.0000      -0.357737        -9.7345
  45   2.0000      -0.345370        -9.3980
  46   2.0000      -0.338637        -9.2148
  47   2.0000      -0.331815        -9.0291
  48   2.0000      -0.330500        -8.9934
  49   2.0000      -0.304214        -8.2781
  50   2.0000      -0.259794        -7.0694
  51   2.0000      -0.225439        -6.1345
  52   0.0000      -0.053920        -1.4672
  53   0.0000       0.010467         0.2848
  54   0.0000       0.025185         0.6853
  55   0.0000       0.048090         1.3086
  56   0.0000       0.052946         1.4407

MULLIKEN ATOMIC CHARGES
-----------------------
   0 C :   -0.118681
   1 S :    0.118045
   2 C :   -0.148690
   3 C :   -0.034448
   4 C :   -0.067594
   5 C :    0.329310
   6 F :   -0.261574
   7 C :   -0.001917
   8 C :    0.011089
   9 C :    0.307912
  10 F :   -0.267319
  11 C :    0.018304
  12 C :   -0.034987
  13 H :    0.026534
  14 H :    0.005596
  15 H :    0.012149
  16 H :    0.020720
  17 H :    0.016278
  18 H :    0.010116
  19 H :    0.006641
  20 H :   -0.009333
  21 H :    0.040436
  22 H :    0.021412
Sum of atomic charges:   -0.0000000

LOEWDIN ATOMIC CHARGES
----------------------
   0 C :   -0.186822
   1 S :    0.449934
   2 C :   -0.163423
   3 C :   -0.085369
   4 C :   -0.081675
   5 C :    0.119210
   6 F :   -0.136204
   7 C :   -0.038502
   8 C :   -0.036929
   9 C :    0.123188
  10 F :   -0.141802
  11 C :   -0.049876
  12 C :   -0.040495
  13 H :    0.029271
  14 H :    0.020516
  15 H :    0.030357
  16 H :    0.029011
  17 H :    0.031528
  18 H :    0.031118
  19 H :    0.021128
  20 H :    0.027570
  21 H :    0.022200
  22 H :    0.026065

  Mayer bond orders larger than 0.100000
B(  0-C ,  1-S ) :   1.1557 B(  0-C ,  4-C ) :   1.5426 B(  0-C , 13-H ) :   0.9669
B(  1-S ,  2-C ) :   1.1520 B(  2-C ,  3-C ) :   1.4975 B(  2-C , 11-C ) :   1.1104
B(  3-C ,  4-C ) :   1.2949 B(  3-C ,  9-C ) :   1.0188 B(  4-C ,  5-C ) :   0.9792
B(  5-C ,  6-F ) :   1.0226 B(  5-C ,  7-C ) :   1.0660 B(  5-C , 14-H ) :   0.9191
B(  7-C ,  8-C ) :   1.0584 B(  7-C , 15-H ) :   0.9251 B(  7-C , 16-H ) :   0.9360
B(  8-C ,  9-C ) :   1.0628 B(  8-C , 17-H ) :   0.9226 B(  8-C , 18-H ) :   0.9234
B(  9-C , 10-F ) :   0.9596 B(  9-C , 19-H ) :   0.9183 B( 11-C , 12-C ) :   1.9251
B( 11-C , 20-H ) :   0.9409 B( 12-C , 21-H ) :   0.9355 B( 12-C , 22-H ) :   0.9401

Dispersion correction           -0.048347435
FINAL SINGLE POINT ENERGY      -984.440787707678

DIPOLE MOMENT
-------------
                                X             Y             Z
Electronic contribution:      5.40028      -5.93325       1.26446
Nuclear contribution   :     -5.64759       6.03906      -1.50056
                        -----------------------------------------
Total Dipole Moment    :     -0.24731       0.10581      -0.23610
                        -----------------------------------------
Magnitude (a.u.)       :      0.35791
Magnitude (Debye)      :      0.90974

Rotational constants in cm-1:     0.031529     0.021925     0.013573
Rotational constants in MHz :   945.206409   657.297401   406.913716

                             ****ORCA TERMINATED NORMALLY****
TOTAL RUN TIME: 0 days 0 hours 20 minutes 36 seconds 814 msec
