                         Program Version 4.2.0 -  RELEASE  -
|  1> # ORCA input file
|  2> # SCF done        -25.096799379603          0.000184442232
|  3> ! B3LYP/G D3BJ Opt RIJCOSX def2-SVP def2/J
|  4> * xyz 0 1
|  5>    C        1.07002         0.62305        -0.07104
|  6>    C       -0.21960         1.03404         0.13516
|  7>    O       -1.05164        -0.00311         0.18065
|  8>    C       -0.30431        -1.10723         0.00314
|  9>    N       -0.93776        -2.37393         0.00739
| 10>    O       -0.21681        -3.33703        -0.16426
| 11>    O       -2.13565        -2.40863         0.17953
| 12>    C        1.02148        -0.78045        -0.15814
| 13>    H        1.93854         1.24301        -0.14965
| 14>    H       -0.64309         2.01165         0.25909
| 15>    H        1.82782        -1.46630        -0.31558
| 16> *
| 17>
| 18>                          ****END OF INPUT****
 Total Charge           Charge          ....    0
 Multiplicity           Mult            ....    1
 Number of Electrons    NEL             ....   58
Dispersion correction           -0.016034701
FINAL SINGLE POINT ENERGY      -434.210840867777
Dispersion correction            ... done
Dispersion correction           -0.016052486
FINAL SINGLE POINT ENERGY      -434.212489210691
Dispersion correction            ... done
Dispersion correction           -0.016056868
FINAL SINGLE POINT ENERGY      -434.212628972061
Dispersion correction            ... done
FINAL SINGLE POINT ENERGY      -434.212507517646
FINAL SINGLE POINT ENERGY      -434.212667722698
FINAL SINGLE POINT ENERGY      -434.212680500820
Dispersion correction            ... done
Dispersion correction           -0.016055608
FINAL SINGLE POINT ENERGY      -434.212680129197
Dispersion correction            ... done
Dispersion correction           -0.016055844
FINAL SINGLE POINT ENERGY      -434.212677869048
Dispersion correction            ... done
                    ***********************HURRAY********************

CARTESIAN COORDINATES (ANGSTROEM)
---------------------------------
  C      1.079602    0.635754   -0.066874
  C     -0.213948    1.048809    0.130668
  O     -1.050089   -0.012789    0.177857
  C     -0.289703   -1.108936    0.005034
  N     -0.949515   -2.384418    0.006942
  O     -0.229190   -3.353417   -0.191700
  O     -2.152233   -2.404971    0.203880
  C      1.033182   -0.788880   -0.152158
  H      1.956142    1.274206   -0.148287
  H     -0.679111    2.023156    0.253241
  H      1.843862   -1.493445   -0.312312

 Multiplicity           Mult            ....    1
 Number of Electrons    NEL             ....   58
 Basis Dimension        Dim             ....  127

ORBITAL ENERGIES
----------------

  NO   OCC          E(Eh)            E(eV)
   0   2.0000     -19.245571      -523.6986
   1   2.0000     -19.166617      -521.5502
   2   2.0000     -19.164692      -521.4978
   3   2.0000     -14.571370      -396.5071
   4   2.0000     -10.303514      -280.3729
   5   2.0000     -10.281416      -279.7716
   6   2.0000     -10.235170      -278.5131
   7   2.0000     -10.227468      -278.3036
   8   2.0000      -1.231553       -33.5123
   9   2.0000      -1.154504       -31.4156
  10   2.0000      -1.055544       -28.7228
  11   2.0000      -0.841724       -22.9045
  12   2.0000      -0.825417       -22.4607
  13   2.0000      -0.710911       -19.3449
  14   2.0000      -0.643839       -17.5198
  15   2.0000      -0.585578       -15.9344
  16   2.0000      -0.566383       -15.4121
  17   2.0000      -0.556877       -15.1534
  18   2.0000      -0.522780       -14.2256
  19   2.0000      -0.508781       -13.8446
  20   2.0000      -0.489937       -13.3319
  21   2.0000      -0.455393       -12.3919
  22   2.0000      -0.445682       -12.1276
  23   2.0000      -0.419832       -11.4242
  24   2.0000      -0.326360        -8.8807
  25   2.0000      -0.317218        -8.6319
  26   2.0000      -0.314156        -8.5486
  27   2.0000      -0.300981        -8.1901
  28   2.0000      -0.276925        -7.5355
  29   0.0000      -0.095806        -2.6070
  30   0.0000      -0.005691        -0.1549
  31   0.0000       0.043660         1.1881
  32   0.0000       0.060030         1.6335
  33   0.0000       0.085521         2.3271

MULLIKEN ATOMIC CHARGES
-----------------------
   0 C :    0.003742
   1 C :    0.152227
   2 O :   -0.161941
   3 C :    0.223337
   4 N :    0.261356
   5 O :   -0.255480
   6 O :   -0.237717
   7 C :   -0.050595
   8 H :    0.017954
   9 H :    0.028355
  10 H :    0.018761
Sum of atomic charges:   -0.0000000

LOEWDIN ATOMIC CHARGES
----------------------
   0 C :   -0.060678
   1 C :    0.068821
   2 O :    0.035941
   3 C :    0.004860
   4 N :    0.265131
   5 O :   -0.213485
   6 O :   -0.197275
   7 C :   -0.024190
   8 H :    0.039780
   9 H :    0.033293
  10 H :    0.047802

  Mayer bond orders larger than 0.100000
B(  0-C ,  1-C ) :   1.5134 B(  0-C ,  7-C ) :   1.2157 B(  0-C ,  8-H ) :   0.9977
B(  1-C ,  2-O ) :   1.1510 B(  1-C ,  3-C ) :   0.1041 B(  1-C ,  9-H ) :   1.0044
B(  2-O ,  3-C ) :   1.1683 B(  3-C ,  4-N ) :   0.9088 B(  3-C ,  7-C ) :   1.5124
B(  4-N ,  5-O ) :   1.5099 B(  4-N ,  6-O ) :   1.4971 B(  5-O ,  6-O ) :   0.2882
B(  7-C , 10-H ) :   1.0114

Dispersion correction           -0.016056135
FINAL SINGLE POINT ENERGY      -434.212675414323

DIPOLE MOMENT
-------------
                                X             Y             Z
Electronic contribution:     -2.99072      -3.17814       0.20295
Nuclear contribution   :      4.03036       4.79784      -0.24052
                        -----------------------------------------
Total Dipole Moment    :      1.03964       1.61970      -0.03757
                        -----------------------------------------
Magnitude (a.u.)       :      1.92502
Magnitude (Debye)      :      4.89301

Rotational constants in cm-1:     0.181435     0.057857     0.043875
Rotational constants in MHz :  5439.281147  1734.521170  1315.327102

                             ****ORCA TERMINATED NORMALLY****
TOTAL RUN TIME: 0 days 0 hours 3 minutes 49 seconds 832 msec
