                         Program Version 4.2.0 -  RELEASE  -
|  1> # ORCA input file
|  2> # SCF done        -38.431287386292          0.000744833564
|  3> ! B3LYP/G D3BJ Opt RIJCOSX def2-SVP def2/J
|  4> * xyz 0 1
|  5>    C        2.49951         0.92100         0.01000
|  6>    C        3.12935        -0.28254         0.12082
|  7>    O        4.45593        -0.53658         0.18397
|  8>    S        2.05835        -1.66116         0.18799
|  9>    C        0.69726        -0.59408         0.06200
| 10>    C        1.09917         0.74476        -0.02406
| 11>    N       -0.00375         1.54735        -0.12493
| 12>    C       -1.11226         0.73763        -0.10524
| 13>    C       -0.70252        -0.60275         0.01048
| 14>    S       -2.05294        -1.66779         0.03396
| 15>    C       -3.15846        -0.30508        -0.11320
| 16>    C       -2.50153         0.90032        -0.17460
| 17>    C       -4.56661        -0.58370        -0.15618
| 18>    C       -5.53614         0.32266        -0.26228
| 19>    H        3.00867         1.86656        -0.04372
| 20>    H        4.95253         0.28854         0.13322
| 21>    H       -0.00389         2.54936        -0.19834
| 22>    H       -3.00193         1.84636        -0.26582
| 23>    H       -4.82129        -1.63367        -0.09723
| 24>    H       -5.33294         1.37747        -0.32323
| 25>    H       -6.57102         0.03123        -0.29054
| 26> *
| 27>
| 28>                          ****END OF INPUT****
 Total Charge           Charge          ....    0
 Multiplicity           Mult            ....    1
 Number of Electrons    NEL             ....  114
Dispersion correction           -0.050378962
FINAL SINGLE POINT ENERGY     -1311.038892700931
Dispersion correction            ... done
Dispersion correction           -0.050273041
FINAL SINGLE POINT ENERGY     -1311.042125613774
Dispersion correction            ... done
Dispersion correction           -0.050248525
FINAL SINGLE POINT ENERGY     -1311.042265519512
Dispersion correction            ... done
FINAL SINGLE POINT ENERGY     -1311.042234222386
Dispersion correction            ... done
Dispersion correction           -0.050234582
FINAL SINGLE POINT ENERGY     -1311.042260973785
Dispersion correction            ... done
Dispersion correction           -0.050232127
FINAL SINGLE POINT ENERGY     -1311.042262679068
Dispersion correction            ... done
                    ***********************HURRAY********************

CARTESIAN COORDINATES (ANGSTROEM)
---------------------------------
  C      2.541747    0.934721    0.012623
  C      3.185152   -0.277398    0.111242
  O      4.506057   -0.550567    0.145788
  S      2.100458   -1.666948    0.200891
  C      0.720443   -0.599879    0.093602
  C      1.127239    0.741384    0.000790
  N      0.010175    1.546141   -0.095354
  C     -1.112339    0.734232   -0.075367
  C     -0.697706   -0.610862    0.044620
  S     -2.068339   -1.670427    0.057866
  C     -3.183357   -0.303650   -0.101932
  C     -2.513045    0.907959   -0.157503
  C     -4.606894   -0.581186   -0.167532
  C     -5.596665    0.321198   -0.285832
  H      3.058253    1.892658   -0.055633
  H      4.999771    0.278879    0.089795
  H      0.010399    2.550649   -0.198011
  H     -3.022574    1.865561   -0.263235
  H     -4.880807   -1.641051   -0.115471
  H     -5.403393    1.396409   -0.345663
  H     -6.639086   -0.001933   -0.332614

 Multiplicity           Mult            ....    1
 Number of Electrons    NEL             ....  114
 Basis Dimension        Dim             ....  239

ORBITAL ENERGIES
----------------

  NO   OCC          E(Eh)            E(eV)
   0   2.0000     -88.872918     -2418.3550
   1   2.0000     -88.866436     -2418.1787
   2   2.0000     -19.186409      -522.0887
   3   2.0000     -14.379407      -391.2836
   4   2.0000     -10.277607      -279.6679
   5   2.0000     -10.227868      -278.3144
   6   2.0000     -10.221191      -278.1328
   7   2.0000     -10.211284      -277.8632
   8   2.0000     -10.207916      -277.7715
   9   2.0000     -10.205363      -277.7020
  10   2.0000     -10.197623      -277.4914
  11   2.0000     -10.197104      -277.4773
  12   2.0000     -10.194282      -277.4005
  13   2.0000     -10.181229      -277.0453
  14   2.0000      -7.967262      -216.8002
  15   2.0000      -7.960392      -216.6133
  16   2.0000      -5.935997      -161.5267
  17   2.0000      -5.932103      -161.4207
  18   2.0000      -5.928844      -161.3321
  19   2.0000      -5.927204      -161.2874
  20   2.0000      -5.925068      -161.2293
  21   2.0000      -5.920936      -161.1169
  22   2.0000      -1.073463       -29.2104
  23   2.0000      -0.979934       -26.6654
  24   2.0000      -0.864974       -23.5371
  25   2.0000      -0.859895       -23.3989
  26   2.0000      -0.781084       -21.2544
  27   2.0000      -0.746590       -20.3158
  28   2.0000      -0.740325       -20.1453
  29   2.0000      -0.719225       -19.5711
  30   2.0000      -0.678516       -18.4634
  31   2.0000      -0.630378       -17.1535
  32   2.0000      -0.605580       -16.4787
  33   2.0000      -0.580263       -15.7897
  34   2.0000      -0.548698       -14.9308
  35   2.0000      -0.537304       -14.6208
  36   2.0000      -0.519051       -14.1241
  37   2.0000      -0.502210       -13.6658
  38   2.0000      -0.488130       -13.2827
  39   2.0000      -0.451028       -12.2731
  40   2.0000      -0.446211       -12.1420
  41   2.0000      -0.440097       -11.9756
  42   2.0000      -0.418943       -11.4000
  43   2.0000      -0.415293       -11.3007
  44   2.0000      -0.400715       -10.9040
  45   2.0000      -0.391501       -10.6533
  46   2.0000      -0.375393       -10.2150
  47   2.0000      -0.364128        -9.9084
  48   2.0000      -0.358684        -9.7603
  49   2.0000      -0.349509        -9.5106
  50   2.0000      -0.338842        -9.2204
  51   2.0000      -0.327525        -8.9124
  52   2.0000      -0.297250        -8.0886
  53   2.0000      -0.257394        -7.0041
  54   2.0000      -0.245218        -6.6727
  55   2.0000      -0.213663        -5.8141
  56   2.0000      -0.177852        -4.8396
  57   0.0000      -0.043422        -1.1816
  58   0.0000       0.012342         0.3358
  59   0.0000       0.019840         0.5399
  60   0.0000       0.027768         0.7556
  61   0.0000       0.043092         1.1726

MULLIKEN ATOMIC CHARGES
-----------------------
   0 C :   -0.032626
   1 C :    0.010059
   2 O :   -0.183143
   3 S :    0.122019
   4 C :   -0.128184
   5 C :    0.073270
   6 N :   -0.050205
   7 C :    0.088287
   8 C :   -0.119158
   9 S :    0.116257
  10 C :   -0.114312
  11 C :   -0.026456
  12 C :    0.042168
  13 C :   -0.047369
  14 H :   -0.038372
  15 H :    0.187421
  16 H :    0.115636
  17 H :   -0.035541
  18 H :   -0.013643
  19 H :    0.013553
  20 H :    0.020339
Sum of atomic charges:   -0.0000000

LOEWDIN ATOMIC CHARGES
----------------------
   0 C :   -0.155360
   1 C :   -0.090793
   2 O :   -0.052456
   3 S :    0.388045
   4 C :   -0.237451
   5 C :   -0.014130
   6 N :    0.051371
   7 C :   -0.026105
   8 C :   -0.220122
   9 S :    0.401248
  10 C :   -0.175031
  11 C :   -0.074661
  12 C :   -0.042395
  13 C :   -0.066333
  14 H :    0.024487
  15 H :    0.103197
  16 H :    0.087821
  17 H :    0.027592
  18 H :    0.027483
  19 H :    0.018714
  20 H :    0.024882

  Mayer bond orders larger than 0.100000
B(  0-C ,  1-C ) :   1.4576 B(  0-C ,  5-C ) :   1.1778 B(  0-C , 14-H ) :   0.9939
B(  1-C ,  2-O ) :   1.1914 B(  1-C ,  3-S ) :   1.1185 B(  2-O , 15-H ) :   0.9585
B(  3-S ,  4-C ) :   0.9974 B(  4-C ,  5-C ) :   1.4249 B(  4-C ,  8-C ) :   1.4055
B(  5-C ,  6-N ) :   1.1697 B(  6-N ,  7-C ) :   1.1443 B(  6-N , 16-H ) :   0.9359
B(  7-C ,  8-C ) :   1.3873 B(  7-C , 11-C ) :   1.2379 B(  8-C ,  9-S ) :   1.0488
B(  9-S , 10-C ) :   1.0850 B( 10-C , 11-C ) :   1.4786 B( 10-C , 12-C ) :   1.1231
B( 11-C , 17-H ) :   1.0003 B( 12-C , 13-C ) :   1.9086 B( 12-C , 18-H ) :   0.9499
B( 13-C , 19-H ) :   0.9501 B( 13-C , 20-H ) :   0.9450

Dispersion correction           -0.050230290
FINAL SINGLE POINT ENERGY     -1311.042256438661

DIPOLE MOMENT
-------------
                                X             Y             Z
Electronic contribution:     10.06660      -6.63752       1.06607
Nuclear contribution   :     -9.29384       8.18667      -1.20294
                        -----------------------------------------
Total Dipole Moment    :      0.77276       1.54915      -0.13687
                        -----------------------------------------
Magnitude (a.u.)       :      1.73659
Magnitude (Debye)      :      4.41406

Rotational constants in cm-1:     0.064506     0.009348     0.008166
Rotational constants in MHz :  1933.830061   280.254744   244.820177

                             ****ORCA TERMINATED NORMALLY****
TOTAL RUN TIME: 0 days 0 hours 10 minutes 13 seconds 45 msec
