                         Program Version 4.2.0 -  RELEASE  -
|  1> # ORCA input file
|  2> # SCF done        -62.459205783454          0.000515478449
|  3> ! B3LYP/G D3BJ Opt RIJCOSX def2-SVP def2/J
|  4> * xyz 0 1
|  5>    C        1.52211        -1.18472        -0.08880
|  6>    S        2.64843         0.10123        -0.08383
|  7>    C        1.37768         1.28509        -0.00361
|  8>    C        0.14778         0.67512         0.03572
|  9>    C        0.23636        -0.74207        -0.01517
| 10>    C       -0.96301        -1.64727        -0.05943
| 11>    C       -1.10528        -2.19112        -1.48305
| 12>    F       -0.07055        -2.97653        -1.81952
| 13>    F       -2.20768        -2.94227        -1.63272
| 14>    F       -1.17053        -1.23549        -2.42040
| 15>    C       -2.24248        -0.93787         0.39814
| 16>    C       -2.34520         0.47919        -0.16093
| 17>    C       -1.16936         1.36120         0.27356
| 18>    C       -1.25770         1.72892         1.75800
| 19>    F       -0.42059         2.72801         2.07452
| 20>    F       -2.48558         2.14635         2.10786
| 21>    F       -0.95570         0.71688         2.58507
| 22>    C        1.76825         2.68117        -0.00085
| 23>    C        1.13901         3.67522        -0.61413
| 24>    H        1.86681        -2.19722        -0.15480
| 25>    H       -0.78764        -2.53077         0.56475
| 26>    H       -2.24622        -0.90944         1.48767
| 27>    H       -3.11194        -1.51628         0.08109
| 28>    H       -3.28049         0.93133         0.17312
| 29>    H       -2.35865         0.45088        -1.25083
| 30>    H       -1.21915         2.31458        -0.25735
| 31>    H        2.69835         2.87938         0.51618
| 32>    H        0.24503         3.53140        -1.19609
| 33>    H        1.51965         4.67997        -0.57015
| 34> *
| 35>
| 36>                          ****END OF INPUT****
 Total Charge           Charge          ....    0
 Multiplicity           Mult            ....    1
 Number of Electrons    NEL             ....  152
Dispersion correction           -0.066519441
FINAL SINGLE POINT ENERGY     -1459.712916268541
Dispersion correction            ... done
Dispersion correction           -0.065833993
FINAL SINGLE POINT ENERGY     -1459.716335060963
Dispersion correction            ... done
Dispersion correction           -0.065833657
FINAL SINGLE POINT ENERGY     -1459.716492733475
Dispersion correction            ... done
FINAL SINGLE POINT ENERGY     -1459.716488517137
FINAL SINGLE POINT ENERGY     -1459.716375455622
FINAL SINGLE POINT ENERGY     -1459.716313175432
FINAL SINGLE POINT ENERGY     -1459.715659785092
FINAL SINGLE POINT ENERGY     -1459.715535938888
FINAL SINGLE POINT ENERGY     -1459.715701843432
FINAL SINGLE POINT ENERGY     -1459.716029874310
FINAL SINGLE POINT ENERGY     -1459.716451295535
FINAL SINGLE POINT ENERGY     -1459.716393634153
FINAL SINGLE POINT ENERGY     -1459.716254907693
FINAL SINGLE POINT ENERGY     -1459.716287107910
FINAL SINGLE POINT ENERGY     -1459.716121619924
FINAL SINGLE POINT ENERGY     -1459.716415923436
FINAL SINGLE POINT ENERGY     -1459.716374474466
Dispersion correction            ... done
Dispersion correction           -0.065825229
FINAL SINGLE POINT ENERGY     -1459.716429505735
Dispersion correction            ... done
Dispersion correction           -0.065820667
FINAL SINGLE POINT ENERGY     -1459.716430380553
Dispersion correction            ... done
                    ***********************HURRAY********************

CARTESIAN COORDINATES (ANGSTROEM)
---------------------------------
  C      1.552934   -1.209841   -0.021350
  S      2.675143    0.097704   -0.017442
  C      1.394076    1.280206    0.054825
  C      0.157050    0.661953    0.110697
  C      0.252518   -0.770923    0.038274
  C     -0.961077   -1.660219   -0.109707
  C     -1.091488   -2.111225   -1.566345
  F     -0.030317   -2.840385   -1.951351
  F     -2.180588   -2.879689   -1.750377
  F     -1.189070   -1.073080   -2.418328
  C     -2.246650   -0.975646    0.390820
  C     -2.359432    0.486639   -0.057998
  C     -1.162905    1.353717    0.379912
  C     -1.266703    1.750982    1.856793
  F     -0.335935    2.655920    2.203515
  F     -2.468409    2.298705    2.124302
  F     -1.121429    0.700096    2.686927
  C      1.745516    2.703112   -0.006054
  C      1.173764    3.580456   -0.840503
  H      1.902775   -2.236046   -0.116636
  H     -0.809717   -2.596885    0.449324
  H     -2.253035   -1.031693    1.488365
  H     -3.119767   -1.543816    0.039812
  H     -3.287308    0.927315    0.332924
  H     -2.421872    0.534340   -1.154301
  H     -1.209012    2.310261   -0.156128
  H      2.555464    3.038386    0.652654
  H      0.397446    3.275029   -1.548012
  H      1.479739    4.629496   -0.850590

 Multiplicity           Mult            ....    1
 Number of Electrons    NEL             ....  152
 Basis Dimension        Dim             ....  320

ORBITAL ENERGIES
----------------

  NO   OCC          E(Eh)            E(eV)
   0   2.0000     -88.882506     -2418.6159
   1   2.0000     -24.722145      -672.7238
   2   2.0000     -24.722096      -672.7224
   3   2.0000     -24.721105      -672.6955
   4   2.0000     -24.720114      -672.6685
   5   2.0000     -24.719825      -672.6606
   6   2.0000     -24.718142      -672.6148
   7   2.0000     -10.432506      -283.8829
   8   2.0000     -10.430566      -283.8301
   9   2.0000     -10.229398      -278.3561
  10   2.0000     -10.227627      -278.3079
  11   2.0000     -10.227290      -278.2987
  12   2.0000     -10.220371      -278.1104
  13   2.0000     -10.213082      -277.9121
  14   2.0000     -10.211416      -277.8668
  15   2.0000     -10.211101      -277.8582
  16   2.0000     -10.206882      -277.7434
  17   2.0000     -10.206556      -277.7345
  18   2.0000     -10.200926      -277.5813
  19   2.0000      -7.977689      -217.0840
  20   2.0000      -5.945690      -161.7905
  21   2.0000      -5.941647      -161.6804
  22   2.0000      -5.939191      -161.6136
  23   2.0000      -1.300861       -35.3982
  24   2.0000      -1.298054       -35.3218
  25   2.0000      -1.208454       -32.8837
  26   2.0000      -1.208095       -32.8739
  27   2.0000      -1.205826       -32.8122
  28   2.0000      -1.205095       -32.7923
  29   2.0000      -0.901785       -24.5388
  30   2.0000      -0.846121       -23.0241
  31   2.0000      -0.816478       -22.2175
  32   2.0000      -0.785445       -21.3731
  33   2.0000      -0.748009       -20.3544
  34   2.0000      -0.718879       -19.5617
  35   2.0000      -0.711520       -19.3615
  36   2.0000      -0.679244       -18.4832
  37   2.0000      -0.649095       -17.6628
  38   2.0000      -0.624287       -16.9877
  39   2.0000      -0.607535       -16.5319
  40   2.0000      -0.599201       -16.3051
  41   2.0000      -0.596176       -16.2228
  42   2.0000      -0.594901       -16.1881
  43   2.0000      -0.592460       -16.1217
  44   2.0000      -0.579164       -15.7598
  45   2.0000      -0.561171       -15.2702
  46   2.0000      -0.540332       -14.7032
  47   2.0000      -0.503544       -13.7021
  48   2.0000      -0.494251       -13.4493
  49   2.0000      -0.478417       -13.0184
  50   2.0000      -0.474191       -12.9034
  51   2.0000      -0.471918       -12.8415
  52   2.0000      -0.470915       -12.8143
  53   2.0000      -0.468910       -12.7597
  54   2.0000      -0.466665       -12.6986
  55   2.0000      -0.447521       -12.1777
  56   2.0000      -0.446718       -12.1558
  57   2.0000      -0.436782       -11.8854
  58   2.0000      -0.430055       -11.7024
  59   2.0000      -0.424628       -11.5547
  60   2.0000      -0.424184       -11.5426
  61   2.0000      -0.418418       -11.3857
  62   2.0000      -0.414099       -11.2682
  63   2.0000      -0.412465       -11.2238
  64   2.0000      -0.411332       -11.1929
  65   2.0000      -0.405338       -11.0298
  66   2.0000      -0.396665       -10.7938
  67   2.0000      -0.378414       -10.2972
  68   2.0000      -0.368783       -10.0351
  69   2.0000      -0.355438        -9.6720
  70   2.0000      -0.353581        -9.6214
  71   2.0000      -0.347514        -9.4563
  72   2.0000      -0.342215        -9.3121
  73   2.0000      -0.297291        -8.0897
  74   2.0000      -0.259993        -7.0748
  75   2.0000      -0.234377        -6.3777
  76   0.0000      -0.049058        -1.3349
  77   0.0000      -0.002704        -0.0736
  78   0.0000       0.031944         0.8692
  79   0.0000       0.037048         1.0081
  80   0.0000       0.052570         1.4305

MULLIKEN ATOMIC CHARGES
-----------------------
   0 C :   -0.115654
   1 S :    0.122953
   2 C :   -0.169049
   3 C :    0.025594
   4 C :   -0.031836
   5 C :   -0.050031
   6 C :    0.514179
   7 F :   -0.168621
   8 F :   -0.172483
   9 F :   -0.175438
  10 C :    0.051633
  11 C :    0.047980
  12 C :   -0.051016
  13 C :    0.520174
  14 F :   -0.163256
  15 F :   -0.174945
  16 F :   -0.176513
  17 C :   -0.018684
  18 C :   -0.016985
  19 H :    0.020703
  20 H :    0.020188
  21 H :    0.023608
  22 H :    0.012570
  23 H :    0.010740
  24 H :    0.021796
  25 H :    0.011264
  26 H :    0.017370
  27 H :    0.031921
  28 H :    0.031839
Sum of atomic charges:    0.0000000

LOEWDIN ATOMIC CHARGES
----------------------
   0 C :   -0.186291
   1 S :    0.447552
   2 C :   -0.174426
   3 C :   -0.063141
   4 C :   -0.066941
   5 C :   -0.055753
   6 C :    0.171978
   7 F :   -0.061769
   8 F :   -0.065137
   9 F :   -0.064127
  10 C :   -0.023115
  11 C :   -0.022148
  12 C :   -0.055006
  13 C :    0.174643
  14 F :   -0.058232
  15 F :   -0.067318
  16 F :   -0.065599
  17 C :   -0.041786
  18 C :   -0.036528
  19 H :    0.025551
  20 H :    0.046077
  21 H :    0.028332
  22 H :    0.028308
  23 H :    0.027916
  24 H :    0.027435
  25 H :    0.042682
  26 H :    0.033408
  27 H :    0.024533
  28 H :    0.028901

  Mayer bond orders larger than 0.100000
B(  0-C ,  1-S ) :   1.1617 B(  0-C ,  4-C ) :   1.5538 B(  0-C , 19-H ) :   0.9630
B(  1-S ,  2-C ) :   1.1456 B(  2-C ,  3-C ) :   1.5429 B(  2-C , 17-C ) :   1.0352
B(  3-C ,  4-C ) :   1.2907 B(  3-C , 12-C ) :   0.9903 B(  4-C ,  5-C ) :   0.9769
B(  5-C ,  6-C ) :   0.9787 B(  5-C , 10-C ) :   1.0505 B(  5-C , 20-H ) :   0.8787
B(  6-C ,  7-F ) :   1.1362 B(  6-C ,  8-F ) :   1.1283 B(  6-C ,  9-F ) :   1.1200
B( 10-C , 11-C ) :   1.0749 B( 10-C , 21-H ) :   0.9335 B( 10-C , 22-H ) :   0.9248
B( 11-C , 12-C ) :   1.0504 B( 11-C , 23-H ) :   0.9231 B( 11-C , 24-H ) :   0.9352
B( 12-C , 13-C ) :   0.9784 B( 12-C , 25-H ) :   0.8672 B( 13-C , 14-F ) :   1.1453
B( 13-C , 15-F ) :   1.1232 B( 13-C , 16-F ) :   1.1177 B( 17-C , 18-C ) :   1.9742
B( 17-C , 26-H ) :   0.9486 B( 18-C , 27-H ) :   0.9512 B( 18-C , 28-H ) :   0.9465

Dispersion correction           -0.065816679
FINAL SINGLE POINT ENERGY     -1459.716424339133

DIPOLE MOMENT
-------------
                                X             Y             Z
Electronic contribution:     -1.50587      -7.18658       1.82483
Nuclear contribution   :      1.55082       7.27498      -1.86922
                        -----------------------------------------
Total Dipole Moment    :      0.04495       0.08840      -0.04439
                        -----------------------------------------
Magnitude (a.u.)       :      0.10866
Magnitude (Debye)      :      0.27618

Rotational constants in cm-1:     0.015565     0.009905     0.007410
Rotational constants in MHz :   466.624666   296.956620   222.134687

                             ****ORCA TERMINATED NORMALLY****
TOTAL RUN TIME: 0 days 2 hours 39 minutes 3 seconds 58 msec
