                         Program Version 4.2.0 -  RELEASE  -
|  1> # ORCA input file
|  2> # SCF done        -37.196848791601          0.000367348154
|  3> ! B3LYP/G D3BJ Opt RIJCOSX def2-SVP def2/J
|  4> * xyz 0 1
|  5>    C        0.00748        -1.50991        -0.05829
|  6>    C       -1.16324        -0.77400        -0.04687
|  7>    N       -2.48096        -1.15403        -0.11018
|  8>    C       -3.21940        -0.00531        -0.06175
|  9>    N       -2.50430         1.06602         0.02666
| 10>    C       -1.19439         0.64542         0.04017
| 11>    C       -0.03595         1.42679         0.12354
| 12>    C        1.15291         0.68570         0.10921
| 13>    C        1.15233        -0.73627         0.02090
| 14>    N        2.47766        -1.09461         0.03366
| 15>    C        3.19318         0.06400         0.12374
| 16>    N        2.45606         1.12327         0.17044
| 17>    C       -0.13683         2.86790         0.21688
| 18>    C        0.89689         3.69890         0.30460
| 19>    H        0.02842        -2.58685        -0.12286
| 20>    H       -2.82739        -2.09551        -0.17856
| 21>    H       -4.29196        -0.01581        -0.09597
| 22>    H        2.84108        -2.03086        -0.01507
| 23>    H        4.26606         0.07213         0.15135
| 24>    H       -1.15493         3.23375         0.21324
| 25>    H        1.90708         3.32898         0.30908
| 26>    H        0.75461         4.76457         0.37283
| 27> *
| 28>
| 29>                          ****END OF INPUT****
 Total Charge           Charge          ....    0
 Multiplicity           Mult            ....    1
 Number of Electrons    NEL             ....   96
Dispersion correction           -0.046193947
FINAL SINGLE POINT ENERGY      -604.496577957460
Dispersion correction            ... done
Dispersion correction           -0.046228136
FINAL SINGLE POINT ENERGY      -604.500419750228
Dispersion correction            ... done
Dispersion correction           -0.046228711
FINAL SINGLE POINT ENERGY      -604.500528551132
Dispersion correction            ... done
FINAL SINGLE POINT ENERGY      -604.500546225872
Dispersion correction            ... done
Dispersion correction           -0.046214740
FINAL SINGLE POINT ENERGY      -604.500549024843
Dispersion correction            ... done
Dispersion correction           -0.046213776
FINAL SINGLE POINT ENERGY      -604.500549800032
Dispersion correction            ... done
                    ***********************HURRAY********************

CARTESIAN COORDINATES (ANGSTROEM)
---------------------------------
  C      0.006543   -1.536385   -0.070097
  C     -1.169884   -0.786378   -0.050149
  N     -2.503197   -1.150938   -0.116103
  C     -3.245930    0.010189   -0.052678
  N     -2.515178    1.083271    0.047135
  C     -1.198402    0.640410    0.052867
  C     -0.023485    1.417971    0.137696
  C      1.175421    0.669378    0.122676
  C      1.164691   -0.759252    0.018730
  N      2.501731   -1.115328    0.031209
  C      3.232743    0.046522    0.137911
  N      2.489833    1.115970    0.194868
  C     -0.130098    2.871630    0.223465
  C      0.885259    3.748533    0.287179
  H      0.023275   -2.624531   -0.154561
  H     -2.865818   -2.091082   -0.198233
  H     -4.336754   -0.011838   -0.088635
  H      2.872107   -2.054433   -0.025452
  H      4.323707    0.030819    0.170343
  H     -1.162107    3.234214    0.227777
  H      1.924608    3.414966    0.285793
  H      0.675346    4.820563    0.345009

 Multiplicity           Mult            ....    1
 Number of Electrons    NEL             ....   96
 Basis Dimension        Dim             ....  236

ORBITAL ENERGIES
----------------

  NO   OCC          E(Eh)            E(eV)
   0   2.0000     -14.384617      -391.4253
   1   2.0000     -14.383331      -391.3903
   2   2.0000     -14.307162      -389.3177
   3   2.0000     -14.305818      -389.2811
   4   2.0000     -10.252108      -278.9741
   5   2.0000     -10.251240      -278.9504
   6   2.0000     -10.228232      -278.3243
   7   2.0000     -10.227949      -278.3166
   8   2.0000     -10.204073      -277.6669
   9   2.0000     -10.203097      -277.6404
  10   2.0000     -10.199711      -277.5483
  11   2.0000     -10.190377      -277.2943
  12   2.0000     -10.171250      -276.7738
  13   2.0000     -10.163256      -276.5563
  14   2.0000      -1.010716       -27.5030
  15   2.0000      -1.006943       -27.4003
  16   2.0000      -0.874351       -23.7923
  17   2.0000      -0.868736       -23.6395
  18   2.0000      -0.832388       -22.6504
  19   2.0000      -0.767027       -20.8719
  20   2.0000      -0.729902       -19.8616
  21   2.0000      -0.706436       -19.2231
  22   2.0000      -0.650796       -17.7090
  23   2.0000      -0.622877       -16.9493
  24   2.0000      -0.618883       -16.8407
  25   2.0000      -0.594559       -16.1788
  26   2.0000      -0.571614       -15.5544
  27   2.0000      -0.545583       -14.8461
  28   2.0000      -0.522571       -14.2199
  29   2.0000      -0.507865       -13.8197
  30   2.0000      -0.463985       -12.6257
  31   2.0000      -0.452985       -12.3263
  32   2.0000      -0.451471       -12.2852
  33   2.0000      -0.441545       -12.0150
  34   2.0000      -0.434117       -11.8129
  35   2.0000      -0.433363       -11.7924
  36   2.0000      -0.417301       -11.3553
  37   2.0000      -0.396500       -10.7893
  38   2.0000      -0.372424       -10.1342
  39   2.0000      -0.343068        -9.3354
  40   2.0000      -0.339627        -9.2417
  41   2.0000      -0.319896        -8.7048
  42   2.0000      -0.293422        -7.9844
  43   2.0000      -0.274617        -7.4727
  44   2.0000      -0.263683        -7.1752
  45   2.0000      -0.262310        -7.1378
  46   2.0000      -0.221600        -6.0300
  47   2.0000      -0.197263        -5.3678
  48   0.0000      -0.045677        -1.2429
  49   0.0000       0.018248         0.4966
  50   0.0000       0.032827         0.8933
  51   0.0000       0.043328         1.1790
  52   0.0000       0.045190         1.2297

MULLIKEN ATOMIC CHARGES
-----------------------
   0 C :   -0.178208
   1 C :    0.132693
   2 N :   -0.077905
   3 C :    0.110567
   4 N :   -0.124511
   5 C :   -0.064861
   6 C :    0.050133
   7 C :   -0.068210
   8 C :    0.126886
   9 N :   -0.073528
  10 C :    0.111834
  11 N :   -0.121156
  12 C :   -0.056627
  13 C :    0.000556
  14 H :   -0.062283
  15 H :    0.117071
  16 H :    0.015808
  17 H :    0.117259
  18 H :    0.016114
  19 H :   -0.013644
  20 H :    0.029761
  21 H :    0.012252
Sum of atomic charges:    0.0000000

LOEWDIN ATOMIC CHARGES
----------------------
   0 C :   -0.098658
   1 C :    0.001245
   2 N :    0.043607
   3 C :    0.038264
   4 N :   -0.123394
   5 C :   -0.029061
   6 C :   -0.022706
   7 C :   -0.027379
   8 C :    0.001801
   9 N :    0.047178
  10 C :    0.038777
  11 N :   -0.119349
  12 C :   -0.024337
  13 C :   -0.034384
  14 H :    0.021956
  15 H :    0.086848
  16 H :    0.019288
  17 H :    0.087587
  18 H :    0.019715
  19 H :    0.029371
  20 H :    0.023261
  21 H :    0.020370

  Mayer bond orders larger than 0.100000
B(  0-C ,  1-C ) :   1.2804 B(  0-C ,  6-C ) :   0.1329 B(  0-C ,  8-C ) :   1.2704
B(  0-C , 14-H ) :   1.0284 B(  1-C ,  2-N ) :   1.1560 B(  1-C ,  5-C ) :   1.2324
B(  2-N ,  3-C ) :   1.1567 B(  2-N , 15-H ) :   0.9293 B(  3-C ,  4-N ) :   1.6942
B(  3-C , 16-H ) :   0.9731 B(  4-N ,  5-C ) :   1.3479 B(  5-C ,  6-C ) :   1.2978
B(  6-C ,  7-C ) :   1.2773 B(  6-C , 12-C ) :   1.1532 B(  7-C ,  8-C ) :   1.2426
B(  7-C , 11-N ) :   1.3440 B(  8-C ,  9-N ) :   1.1578 B(  9-N , 10-C ) :   1.1648
B(  9-N , 17-H ) :   0.9285 B( 10-C , 11-N ) :   1.6787 B( 10-C , 18-H ) :   0.9734
B( 12-C , 13-C ) :   1.8825 B( 12-C , 19-H ) :   0.9512 B( 13-C , 20-H ) :   0.9245
B( 13-C , 21-H ) :   0.9416

Dispersion correction           -0.046214186
FINAL SINGLE POINT ENERGY      -604.500551495845

DIPOLE MOMENT
-------------
                                X             Y             Z
Electronic contribution:     -0.93526      -3.76819      -0.21503
Nuclear contribution   :      0.97770       1.16724       0.01868
                        -----------------------------------------
Total Dipole Moment    :      0.04244      -2.60095      -0.19635
                        -----------------------------------------
Magnitude (a.u.)       :      2.60870
Magnitude (Debye)      :      6.63078

Rotational constants in cm-1:     0.038515     0.022620     0.014251
Rotational constants in MHz :  1154.662049   678.118877   427.230339

                             ****ORCA TERMINATED NORMALLY****
TOTAL RUN TIME: 0 days 0 hours 10 minutes 13 seconds 432 msec
