                         Program Version 4.2.0 -  RELEASE  -
|  1> # ORCA input file
|  2> # SCF done        -35.564408557141          0.000693402484
|  3> ! B3LYP/G D3BJ Opt RIJCOSX def2-SVP def2/J
|  4> * xyz 0 1
|  5>    C       -1.04686        -1.34665         0.15055
|  6>    C        0.21788        -0.80841         0.12970
|  7>    C        0.19741         0.63288         0.12909
|  8>    N        1.34625         1.34562         0.11133
|  9>    C        2.44417         0.64970         0.08862
| 10>    C        2.47729        -0.78039         0.08686
| 11>    C        3.78884        -1.50012         0.02519
| 12>    C        4.34582        -1.47077        -1.39992
| 13>    N        1.38614        -1.49448         0.11025
| 14>    C       -1.08838         1.15989         0.14952
| 15>    S       -2.24388        -0.12823         0.16800
| 16>    C       -1.43978         2.54751         0.15105
| 17>    C       -2.68381         3.02260         0.16015
| 18>    H       -1.32524        -2.38057         0.15419
| 19>    H        3.36868         1.21261         0.07889
| 20>    H        3.63316        -2.53356         0.33655
| 21>    H        4.49899        -1.02407         0.70533
| 22>    H        3.65082        -1.95415        -2.08237
| 23>    H        5.29631        -1.99679        -1.44180
| 24>    H        4.50098        -0.44666        -1.73339
| 25>    H       -0.58474         3.21035         0.14179
| 26>    H       -3.53728         2.36354         0.17001
| 27>    H       -2.88461         4.07885         0.16000
| 28> *
| 29>
| 30>                          ****END OF INPUT****
 Total Charge           Charge          ....    0
 Multiplicity           Mult            ....    1
 Number of Electrons    NEL             ....  100
Dispersion correction           -0.048390269
FINAL SINGLE POINT ENERGY      -894.324361420874
Dispersion correction            ... done
Dispersion correction           -0.048062337
FINAL SINGLE POINT ENERGY      -894.327686254493
Dispersion correction            ... done
Dispersion correction           -0.047982400
FINAL SINGLE POINT ENERGY      -894.327845063804
Dispersion correction            ... done
FINAL SINGLE POINT ENERGY      -894.327894160176
FINAL SINGLE POINT ENERGY      -894.327903295244
FINAL SINGLE POINT ENERGY      -894.327908975465
FINAL SINGLE POINT ENERGY      -894.327915791255
FINAL SINGLE POINT ENERGY      -894.327930001279
FINAL SINGLE POINT ENERGY      -894.327919511094
FINAL SINGLE POINT ENERGY      -894.327937889962
Dispersion correction            ... done
Dispersion correction           -0.047935448
FINAL SINGLE POINT ENERGY      -894.327938909747
Dispersion correction            ... done
Dispersion correction           -0.047934166
FINAL SINGLE POINT ENERGY      -894.327934303192
Dispersion correction            ... done
                    ***********************HURRAY********************

CARTESIAN COORDINATES (ANGSTROEM)
---------------------------------
  C     -1.001447   -1.361311   -0.037352
  C      0.259504   -0.784273    0.038362
  C      0.194683    0.660219    0.137751
  N      1.327179    1.411129    0.231092
  C      2.451760    0.745722    0.213572
  C      2.532585   -0.698359    0.105255
  C      3.877628   -1.376496    0.031507
  C      4.282566   -1.685643   -1.417181
  N      1.455228   -1.441342    0.022127
  C     -1.115428    1.160192    0.128248
  S     -2.229684   -0.161136    0.001429
  C     -1.501304    2.552004    0.215933
  C     -2.750805    3.047171    0.220183
  H     -1.245899   -2.417661   -0.123834
  H      3.382708    1.320187    0.292522
  H      3.815761   -2.315089    0.603224
  H      4.641811   -0.744790    0.513600
  H      3.514855   -2.309414   -1.899953
  H      5.240531   -2.227639   -1.452765
  H      4.390801   -0.762657   -2.008477
  H     -0.641526    3.225792    0.288165
  H     -3.630950    2.400721    0.152766
  H     -2.932397    4.121373    0.293415

 Multiplicity           Mult            ....    1
 Number of Electrons    NEL             ....  100
 Basis Dimension        Dim             ....  236

ORBITAL ENERGIES
----------------

  NO   OCC          E(Eh)            E(eV)
   0   2.0000     -88.894973     -2418.9552
   1   2.0000     -14.343766      -390.3137
   2   2.0000     -14.336089      -390.1048
   3   2.0000     -10.239397      -278.6282
   4   2.0000     -10.236357      -278.5454
   5   2.0000     -10.230837      -278.3952
   6   2.0000     -10.229832      -278.3679
   7   2.0000     -10.226453      -278.2759
   8   2.0000     -10.220917      -278.1253
   9   2.0000     -10.204971      -277.6914
  10   2.0000     -10.196834      -277.4700
  11   2.0000     -10.192979      -277.3650
  12   2.0000     -10.188795      -277.2512
  13   2.0000      -7.989359      -217.4015
  14   2.0000      -5.956978      -162.0976
  15   2.0000      -5.953078      -161.9915
  16   2.0000      -5.951658      -161.9528
  17   2.0000      -0.977995       -26.6126
  18   2.0000      -0.908779       -24.7291
  19   2.0000      -0.885556       -24.0972
  20   2.0000      -0.794610       -21.6224
  21   2.0000      -0.780324       -21.2337
  22   2.0000      -0.739922       -20.1343
  23   2.0000      -0.713077       -19.4038
  24   2.0000      -0.666923       -18.1479
  25   2.0000      -0.635120       -17.2825
  26   2.0000      -0.615045       -16.7362
  27   2.0000      -0.587789       -15.9945
  28   2.0000      -0.551755       -15.0140
  29   2.0000      -0.529918       -14.4198
  30   2.0000      -0.504817       -13.7368
  31   2.0000      -0.478843       -13.0300
  32   2.0000      -0.452353       -12.3092
  33   2.0000      -0.450227       -12.2513
  34   2.0000      -0.440424       -11.9845
  35   2.0000      -0.435625       -11.8540
  36   2.0000      -0.431611       -11.7447
  37   2.0000      -0.409012       -11.1298
  38   2.0000      -0.396365       -10.7856
  39   2.0000      -0.378054       -10.2874
  40   2.0000      -0.365557        -9.9473
  41   2.0000      -0.362308        -9.8589
  42   2.0000      -0.356645        -9.7048
  43   2.0000      -0.351305        -9.5595
  44   2.0000      -0.345937        -9.4134
  45   2.0000      -0.312879        -8.5139
  46   2.0000      -0.297903        -8.1064
  47   2.0000      -0.262527        -7.1437
  48   2.0000      -0.247621        -6.7381
  49   2.0000      -0.213898        -5.8205
  50   0.0000      -0.091220        -2.4822
  51   0.0000      -0.028191        -0.7671
  52   0.0000       0.001081         0.0294
  53   0.0000       0.035012         0.9527
  54   0.0000       0.057092         1.5535

MULLIKEN ATOMIC CHARGES
-----------------------
   0 C :   -0.152186
   1 C :    0.092860
   2 C :    0.031686
   3 N :   -0.035887
   4 C :    0.038926
   5 C :   -0.135700
   6 C :    0.099332
   7 C :    0.003288
   8 N :   -0.044804
   9 C :   -0.164580
  10 S :    0.151409
  11 C :    0.019151
  12 C :   -0.036675
  13 H :    0.018004
  14 H :   -0.007288
  15 H :    0.014671
  16 H :   -0.000548
  17 H :    0.027175
  18 H :    0.018851
  19 H :    0.008524
  20 H :    0.007807
  21 H :    0.016355
  22 H :    0.029627
Sum of atomic charges:    0.0000000

LOEWDIN ATOMIC CHARGES
----------------------
   0 C :   -0.200897
   1 C :   -0.049282
   2 C :   -0.048694
   3 N :   -0.046605
   4 C :    0.002503
   5 C :   -0.004375
   6 C :   -0.034999
   7 C :   -0.046912
   8 N :   -0.061539
   9 C :   -0.191001
  10 S :    0.494380
  11 C :   -0.032811
  12 C :   -0.053445
  13 H :    0.030409
  14 H :    0.020463
  15 H :    0.035274
  16 H :    0.024703
  17 H :    0.027942
  18 H :    0.025543
  19 H :    0.022201
  20 H :    0.040896
  21 H :    0.017667
  22 H :    0.028578

  Mayer bond orders larger than 0.100000
B(  0-C ,  1-C ) :   1.3820 B(  0-C ,  9-C ) :   0.1217 B(  0-C , 10-S ) :   1.1889
B(  0-C , 13-H ) :   0.9708 B(  1-C ,  2-C ) :   1.1799 B(  1-C ,  8-N ) :   1.3468
B(  2-C ,  3-N ) :   1.3931 B(  2-C ,  9-C ) :   1.3263 B(  3-N ,  4-C ) :   1.7106
B(  4-C ,  5-C ) :   1.1476 B(  4-C , 14-H ) :   0.9654 B(  5-C ,  6-C ) :   1.0320
B(  5-C ,  8-N ) :   1.6882 B(  6-C ,  7-C ) :   1.1056 B(  6-C , 15-H ) :   0.9178
B(  6-C , 16-H ) :   0.9296 B(  7-C , 17-H ) :   0.9685 B(  7-C , 18-H ) :   0.9665
B(  7-C , 19-H ) :   0.9682 B(  9-C , 10-S ) :   1.1644 B(  9-C , 11-C ) :   1.1745
B( 11-C , 12-C ) :   1.8666 B( 11-C , 20-H ) :   0.9506 B( 12-C , 21-H ) :   0.9539
B( 12-C , 22-H ) :   0.9485

Dispersion correction           -0.047934046
FINAL SINGLE POINT ENERGY      -894.327933516086

DIPOLE MOMENT
-------------
                                X             Y             Z
Electronic contribution:    -11.93116       0.66257       2.87417
Nuclear contribution   :     12.09931      -0.79749      -2.92946
                        -----------------------------------------
Total Dipole Moment    :      0.16815      -0.13492      -0.05529
                        -----------------------------------------
Magnitude (a.u.)       :      0.22256
Magnitude (Debye)      :      0.56571

Rotational constants in cm-1:     0.057944     0.013909     0.011627
Rotational constants in MHz :  1737.118853   416.976802   348.582649

                             ****ORCA TERMINATED NORMALLY****
TOTAL RUN TIME: 0 days 0 hours 19 minutes 15 seconds 133 msec
