                         Program Version 4.2.0 -  RELEASE  -
|  1> # ORCA input file
|  2> # SCF done        -25.103973312697          0.000861397007
|  3> ! B3LYP/G D3BJ Opt RIJCOSX def2-SVP def2/J
|  4> * xyz 0 1
|  5>    C        0.31510         1.13761         0.01010
|  6>    S        1.47636        -0.29223         0.10533
|  7>    C       -0.12247        -0.98247         0.08106
|  8>    C       -0.82871         0.16455         0.01164
|  9>    C       -2.25980         0.41319        -0.04681
| 10>    O       -3.11547        -0.44017        -0.04381
| 11>    O       -2.52244         1.73496        -0.10335
| 12>    C       -3.89577         2.08490        -0.16488
| 13>    H        0.44657         1.71031        -0.90356
| 14>    H        0.38808         1.78224         0.88140
| 15>    H       -0.38718        -2.02079         0.11413
| 16>    H       -3.93638         3.17011        -0.11597
| 17>    H       -4.43900         1.64036         0.67170
| 18>    H       -4.33691         1.72688        -1.09780
| 19> *
| 20>
| 21>                          ****END OF INPUT****
 Total Charge           Charge          ....    0
 Multiplicity           Mult            ....    1
 Number of Electrons    NEL             ....   68
Dispersion correction           -0.022074291
FINAL SINGLE POINT ENERGY      -742.401242698197
Dispersion correction            ... done
Dispersion correction           -0.022003700
FINAL SINGLE POINT ENERGY      -742.402582527792
Dispersion correction            ... done
Dispersion correction           -0.022000407
FINAL SINGLE POINT ENERGY      -742.402748339043
Dispersion correction            ... done
FINAL SINGLE POINT ENERGY      -742.402795509794
FINAL SINGLE POINT ENERGY      -742.402802667500
Dispersion correction            ... done
Dispersion correction           -0.022010841
FINAL SINGLE POINT ENERGY      -742.402807926541
Dispersion correction            ... done
Dispersion correction           -0.022008531
FINAL SINGLE POINT ENERGY      -742.402812152199
Dispersion correction            ... done
                    ***********************HURRAY********************

CARTESIAN COORDINATES (ANGSTROEM)
---------------------------------
  C      0.343423    1.148233    0.016332
  S      1.508351   -0.320184    0.116518
  C     -0.128236   -0.983636    0.072873
  C     -0.812205    0.182510    0.006460
  C     -2.256435    0.413477   -0.053811
  O     -3.106296   -0.449085   -0.064329
  O     -2.533284    1.737943   -0.094994
  C     -3.914386    2.079835   -0.159799
  H      0.498285    1.727031   -0.905836
  H      0.426639    1.798009    0.899521
  H     -0.446609   -2.027312    0.098095
  H     -3.963013    3.175965   -0.154516
  H     -4.461272    1.665781    0.700747
  H     -4.372982    1.680882   -1.078080

 Multiplicity           Mult            ....    1
 Number of Electrons    NEL             ....   68
 Basis Dimension        Dim             ....  146

ORBITAL ENERGIES
----------------

  NO   OCC          E(Eh)            E(eV)
   0   2.0000     -88.862842     -2418.0809
   1   2.0000     -19.177070      -521.8346
   2   2.0000     -19.116370      -520.1829
   3   2.0000     -10.312275      -280.6113
   4   2.0000     -10.245891      -278.8049
   5   2.0000     -10.237682      -278.5815
   6   2.0000     -10.237440      -278.5749
   7   2.0000     -10.208150      -277.7779
   8   2.0000      -7.958271      -216.5556
   9   2.0000      -5.926800      -161.2764
  10   2.0000      -5.924054      -161.2017
  11   2.0000      -5.917175      -161.0145
  12   2.0000      -1.092942       -29.7405
  13   2.0000      -1.001909       -27.2633
  14   2.0000      -0.885836       -24.1048
  15   2.0000      -0.747780       -20.3481
  16   2.0000      -0.689831       -18.7712
  17   2.0000      -0.680533       -18.5182
  18   2.0000      -0.589348       -16.0370
  19   2.0000      -0.540446       -14.7063
  20   2.0000      -0.532444       -14.4885
  21   2.0000      -0.487718       -13.2715
  22   2.0000      -0.472422       -12.8552
  23   2.0000      -0.461915       -12.5693
  24   2.0000      -0.431905       -11.7527
  25   2.0000      -0.419774       -11.4226
  26   2.0000      -0.398001       -10.8302
  27   2.0000      -0.373480       -10.1629
  28   2.0000      -0.361005        -9.8234
  29   2.0000      -0.343259        -9.3406
  30   2.0000      -0.319133        -8.6840
  31   2.0000      -0.303790        -8.2666
  32   2.0000      -0.275737        -7.5032
  33   2.0000      -0.232181        -6.3180
  34   0.0000      -0.051972        -1.4142
  35   0.0000      -0.006537        -0.1779
  36   0.0000       0.068913         1.8752
  37   0.0000       0.069054         1.8790
  38   0.0000       0.073107         1.9893

MULLIKEN ATOMIC CHARGES
-----------------------
   0 C :    0.060778
   1 S :   -0.025912
   2 C :   -0.014517
   3 C :   -0.140942
   4 C :    0.202155
   5 O :   -0.221124
   6 O :   -0.321126
   7 C :    0.194144
   8 H :    0.073533
   9 H :    0.074064
  10 H :    0.032054
  11 H :    0.030450
  12 H :    0.029772
  13 H :    0.026670
Sum of atomic charges:    0.0000000

LOEWDIN ATOMIC CHARGES
----------------------
   0 C :   -0.063761
   1 S :    0.261874
   2 C :   -0.083057
   3 C :   -0.141555
   4 C :    0.069625
   5 O :   -0.186867
   6 O :   -0.107314
   7 C :    0.082180
   8 H :    0.036889
   9 H :    0.036918
  10 H :    0.029159
  11 H :    0.023487
  12 H :    0.021427
  13 H :    0.020994

  Mayer bond orders larger than 0.100000
B(  0-C ,  1-S ) :   0.9927 B(  0-C ,  3-C ) :   1.0332 B(  0-C ,  8-H ) :   0.9309
B(  0-C ,  9-H ) :   0.9309 B(  1-S ,  2-C ) :   1.0884 B(  1-S ,  3-C ) :   0.1200
B(  2-C ,  3-C ) :   1.6727 B(  2-C , 10-H ) :   1.0003 B(  3-C ,  4-C ) :   1.0197
B(  4-C ,  5-O ) :   2.1012 B(  4-C ,  6-O ) :   1.1929 B(  6-O ,  7-C ) :   0.9264
B(  7-C , 11-H ) :   0.9792 B(  7-C , 12-H ) :   0.9728 B(  7-C , 13-H ) :   0.9738

Dispersion correction           -0.022005570
FINAL SINGLE POINT ENERGY      -742.402817801138

DIPOLE MOMENT
-------------
                                X             Y             Z
Electronic contribution:      6.00020      -4.52844       0.37479
Nuclear contribution   :     -5.82053       5.27970      -0.38945
                        -----------------------------------------
Total Dipole Moment    :      0.17967       0.75126      -0.01466
                        -----------------------------------------
Magnitude (a.u.)       :      0.77258
Magnitude (Debye)      :      1.96375

Rotational constants in cm-1:     0.172618     0.030595     0.026252
Rotational constants in MHz :  5174.968489   917.210170   787.005621

                             ****ORCA TERMINATED NORMALLY****
TOTAL RUN TIME: 0 days 0 hours 4 minutes 47 seconds 146 msec
