                         Program Version 4.2.0 -  RELEASE  -
|  1> # ORCA input file
|  2> # SCF done        -32.912437639048          0.000638343387
|  3> ! B3LYP/G D3BJ Opt RIJCOSX def2-SVP def2/J
|  4> * xyz 0 1
|  5>    C       -1.57092         1.23127        -0.05928
|  6>    S       -2.70746        -0.03317        -0.13573
|  7>    C       -1.48819        -1.26124        -0.06422
|  8>    C       -0.22393        -0.68048        -0.02361
|  9>    C       -0.27854         0.76098        -0.00655
| 10>    C        0.90869         1.53216         0.04621
| 11>    C        2.11478         0.90581         0.04721
| 12>    C        2.19698        -0.50216        -0.02832
| 13>    C        1.06768        -1.26078        -0.07073
| 14>    F        1.20370        -2.59911        -0.19316
| 15>    C       -1.94198        -2.62952        -0.01537
| 16>    C       -1.35172        -3.63594         0.62225
| 17>    H       -1.89957         2.25095        -0.05501
| 18>    H        0.82966         2.60780         0.07558
| 19>    H        3.03054         1.47511         0.08729
| 20>    H        3.15877        -0.98842        -0.06802
| 21>    H       -2.89839        -2.79426        -0.49924
| 22>    H       -0.43279        -3.52093         1.16763
| 23>    H       -1.78353        -4.62140         0.61403
| 24> *
| 25>
| 26>                          ****END OF INPUT****
 Total Charge           Charge          ....    0
 Multiplicity           Mult            ....    1
 Number of Electrons    NEL             ....   92
Dispersion correction           -0.042988881
FINAL SINGLE POINT ENERGY      -882.851458130420
Dispersion correction            ... done
Dispersion correction           -0.042798608
FINAL SINGLE POINT ENERGY      -882.854597230400
Dispersion correction            ... done
Dispersion correction           -0.042604099
FINAL SINGLE POINT ENERGY      -882.854685988484
Dispersion correction            ... done
FINAL SINGLE POINT ENERGY      -882.854980221398
FINAL SINGLE POINT ENERGY      -882.855071111410
FINAL SINGLE POINT ENERGY      -882.855193543003
FINAL SINGLE POINT ENERGY      -882.855233522698
FINAL SINGLE POINT ENERGY      -882.855253798268
FINAL SINGLE POINT ENERGY      -882.855262802824
FINAL SINGLE POINT ENERGY      -882.855260692707
FINAL SINGLE POINT ENERGY      -882.855266887024
FINAL SINGLE POINT ENERGY      -882.855263061761
Dispersion correction            ... done
Dispersion correction           -0.042483359
FINAL SINGLE POINT ENERGY      -882.855269539980
Dispersion correction            ... done
Dispersion correction           -0.042472495
FINAL SINGLE POINT ENERGY      -882.855269489601
Dispersion correction            ... done
                    ***********************HURRAY********************

CARTESIAN COORDINATES (ANGSTROEM)
---------------------------------
  C     -1.579506    1.248295   -0.127642
  S     -2.691270   -0.040443   -0.084209
  C     -1.470874   -1.271580    0.049478
  C     -0.197137   -0.662684    0.047702
  C     -0.267361    0.790308   -0.049542
  C      0.921391    1.583975   -0.061493
  C      2.144149    0.970171    0.013493
  C      2.242562   -0.450735    0.096419
  C      1.112598   -1.224688    0.107648
  F      1.253453   -2.560149    0.165099
  C     -1.992012   -2.627606    0.155306
  C     -1.375929   -3.804956    0.364127
  H     -1.914421    2.279868   -0.215889
  H      0.835798    2.670159   -0.136454
  H      3.061137    1.562971    0.003921
  H      3.213214   -0.946373    0.147767
  H     -3.083799   -2.661425    0.052984
  H     -0.300885   -3.903108    0.494235
  H     -1.977328   -4.715331    0.418010

 Multiplicity           Mult            ....    1
 Number of Electrons    NEL             ....   92
 Basis Dimension        Dim             ....  207

ORBITAL ENERGIES
----------------

  NO   OCC          E(Eh)            E(eV)
   0   2.0000     -88.891072     -2418.8490
   1   2.0000     -24.704077      -672.2321
   2   2.0000     -10.278985      -279.7054
   3   2.0000     -10.231478      -278.4127
   4   2.0000     -10.219560      -278.0884
   5   2.0000     -10.213203      -277.9154
   6   2.0000     -10.211197      -277.8608
   7   2.0000     -10.205742      -277.7124
   8   2.0000     -10.202102      -277.6133
   9   2.0000     -10.198766      -277.5225
  10   2.0000     -10.197319      -277.4832
  11   2.0000     -10.185193      -277.1532
  12   2.0000      -7.985914      -217.3078
  13   2.0000      -5.953496      -162.0029
  14   2.0000      -5.949541      -161.8952
  15   2.0000      -5.948262      -161.8604
  16   2.0000      -1.213442       -33.0194
  17   2.0000      -0.901101       -24.5202
  18   2.0000      -0.838704       -22.8223
  19   2.0000      -0.786691       -21.4069
  20   2.0000      -0.753302       -20.4984
  21   2.0000      -0.744319       -20.2540
  22   2.0000      -0.698416       -19.0049
  23   2.0000      -0.627038       -17.0626
  24   2.0000      -0.620470       -16.8838
  25   2.0000      -0.590440       -16.0667
  26   2.0000      -0.562076       -15.2949
  27   2.0000      -0.533401       -14.5146
  28   2.0000      -0.503143       -13.6912
  29   2.0000      -0.480655       -13.0793
  30   2.0000      -0.475638       -12.9428
  31   2.0000      -0.470067       -12.7912
  32   2.0000      -0.460377       -12.5275
  33   2.0000      -0.440945       -11.9987
  34   2.0000      -0.418542       -11.3891
  35   2.0000      -0.409301       -11.1377
  36   2.0000      -0.397584       -10.8188
  37   2.0000      -0.378972       -10.3124
  38   2.0000      -0.364693        -9.9238
  39   2.0000      -0.360505        -9.8098
  40   2.0000      -0.350410        -9.5352
  41   2.0000      -0.347528        -9.4567
  42   2.0000      -0.310747        -8.4558
  43   2.0000      -0.266605        -7.2547
  44   2.0000      -0.261054        -7.1036
  45   2.0000      -0.200369        -5.4523
  46   0.0000      -0.072995        -1.9863
  47   0.0000      -0.014215        -0.3868
  48   0.0000       0.017392         0.4733
  49   0.0000       0.025470         0.6931
  50   0.0000       0.062519         1.7012

MULLIKEN ATOMIC CHARGES
-----------------------
   0 C :   -0.125069
   1 S :    0.145463
   2 C :   -0.181819
   3 C :    0.082708
   4 C :    0.071459
   5 C :   -0.003118
   6 C :    0.030530
   7 C :   -0.063153
   8 C :    0.227192
   9 F :   -0.190075
  10 C :    0.037587
  11 C :   -0.043027
  12 H :    0.021413
  13 H :   -0.025809
  14 H :   -0.011099
  15 H :   -0.012845
  16 H :   -0.011047
  17 H :    0.032654
  18 H :    0.018055
Sum of atomic charges:   -0.0000000

LOEWDIN ATOMIC CHARGES
----------------------
   0 C :   -0.209769
   1 S :    0.497067
   2 C :   -0.178113
   3 C :   -0.072265
   4 C :   -0.042394
   5 C :   -0.031818
   6 C :   -0.021800
   7 C :   -0.065989
   8 C :    0.089742
   9 F :   -0.053942
  10 C :   -0.056294
  11 C :   -0.047601
  12 H :    0.026933
  13 H :    0.029506
  14 H :    0.030426
  15 H :    0.035644
  16 H :    0.026230
  17 H :    0.019278
  18 H :    0.025157

  Mayer bond orders larger than 0.100000
B(  0-C ,  1-S ) :   1.1962 B(  0-C ,  2-C ) :   0.1139 B(  0-C ,  4-C ) :   1.3917
B(  0-C , 12-H ) :   0.9663 B(  1-S ,  2-C ) :   1.1849 B(  2-C ,  3-C ) :   1.3220
B(  2-C , 10-C ) :   1.1324 B(  3-C ,  4-C ) :   1.1981 B(  3-C ,  8-C ) :   1.1619
B(  4-C ,  5-C ) :   1.1878 B(  5-C ,  6-C ) :   1.5330 B(  5-C , 13-H ) :   0.9953
B(  6-C ,  7-C ) :   1.1795 B(  6-C , 14-H ) :   0.9831 B(  7-C ,  8-C ) :   1.5258
B(  7-C , 15-H ) :   0.9788 B(  8-C ,  9-F ) :   1.0804 B( 10-C , 11-C ) :   1.9232
B( 10-C , 16-H ) :   0.9332 B( 11-C , 17-H ) :   0.9458 B( 11-C , 18-H ) :   0.9363

Dispersion correction           -0.042471292
FINAL SINGLE POINT ENERGY      -882.855268946225

DIPOLE MOMENT
-------------
                                X             Y             Z
Electronic contribution:     -1.00653      -0.24301      -0.33722
Nuclear contribution   :      0.90755       0.82778       0.30354
                        -----------------------------------------
Total Dipole Moment    :     -0.09898       0.58477      -0.03368
                        -----------------------------------------
Magnitude (a.u.)       :      0.59404
Magnitude (Debye)      :      1.50992

Rotational constants in cm-1:     0.037643     0.029545     0.016563
Rotational constants in MHz :  1128.523169   885.731200   496.559377

                             ****ORCA TERMINATED NORMALLY****
TOTAL RUN TIME: 0 days 0 hours 18 minutes 17 seconds 11 msec
