                         Program Version 4.2.0 -  RELEASE  -
|  1> # ORCA input file
|  2> # SCF done        -37.600238971383          0.000543045694
|  3> ! B3LYP/G D3BJ Opt RIJCOSX def2-SVP def2/J
|  4> * xyz 0 1
|  5>    C        1.49329        -1.29556        -0.05482
|  6>    S        2.73413        -0.11620        -0.10297
|  7>    C        1.57168         1.17805        -0.00781
|  8>    C        0.29120         0.68096         0.03785
|  9>    C        0.25396        -0.73891         0.01570
| 10>    C       -1.00953        -1.55403        -0.00731
| 11>    N       -1.08934        -2.22657        -1.29893
| 12>    C       -2.22340        -0.66604         0.32101
| 13>    C       -2.14801         0.66132        -0.42588
| 14>    C       -0.96218         1.50842         0.07034
| 15>    N       -1.15171         2.05829         1.41001
| 16>    C        2.06959         2.53220        -0.01808
| 17>    C        1.44079         3.59353         0.47711
| 18>    H        1.73961        -2.33724        -0.09239
| 19>    H       -0.93824        -2.35252         0.74393
| 20>    H       -1.10048        -1.54679        -2.05175
| 21>    H       -1.93899        -2.77744        -1.35944
| 22>    H       -2.25450        -0.48264         1.39788
| 23>    H       -3.14023        -1.19887         0.05344
| 24>    H       -3.07470         1.22525        -0.28651
| 25>    H       -2.03064         0.47885        -1.49694
| 26>    H       -0.83871         2.37127        -0.59951
| 27>    H       -1.13572         1.31814         2.10294
| 28>    H       -2.04771         2.53073         1.47139
| 29>    H        3.05570         2.64007        -0.45344
| 30>    H        0.49173         3.50594         0.97450
| 31>    H        1.88360         4.57347         0.41977
| 32> *
| 33>
| 34>                          ****END OF INPUT****
 Total Charge           Charge          ....    0
 Multiplicity           Mult            ....    1
 Number of Electrons    NEL             ....  104
Dispersion correction           -0.059500113
FINAL SINGLE POINT ENERGY      -896.741385520452
Dispersion correction            ... done
Dispersion correction           -0.058743184
FINAL SINGLE POINT ENERGY      -896.744512877799
Dispersion correction            ... done
Dispersion correction           -0.058736323
FINAL SINGLE POINT ENERGY      -896.744742775539
Dispersion correction            ... done
FINAL SINGLE POINT ENERGY      -896.744831825565
FINAL SINGLE POINT ENERGY      -896.744803133049
FINAL SINGLE POINT ENERGY      -896.744820811485
Dispersion correction            ... done
Dispersion correction           -0.058790853
FINAL SINGLE POINT ENERGY      -896.744807601750
Dispersion correction            ... done
Dispersion correction           -0.058794924
FINAL SINGLE POINT ENERGY      -896.744802539683
Dispersion correction            ... done
                    ***********************HURRAY********************

CARTESIAN COORDINATES (ANGSTROEM)
---------------------------------
  C      1.501850   -1.308668   -0.100325
  S      2.738645   -0.113515   -0.165911
  C      1.584532    1.189633   -0.013920
  C      0.291460    0.685618    0.070560
  C      0.250627   -0.749078    0.028329
  C     -1.029566   -1.561852    0.009197
  N     -1.061782   -2.344597   -1.231358
  C     -2.262683   -0.658752    0.253940
  C     -2.148296    0.698896   -0.434620
  C     -0.967057    1.519528    0.121362
  N     -1.179617    2.045929    1.476104
  C      2.080984    2.559896   -0.038210
  C      1.469597    3.642178    0.474456
  H      1.740647   -2.367005   -0.186415
  H     -0.990445   -2.295904    0.833918
  H     -0.975349   -1.728019   -2.039876
  H     -1.953446   -2.833543   -1.320030
  H     -2.389724   -0.498784    1.339304
  H     -3.162852   -1.195659   -0.088727
  H     -3.078736    1.277967   -0.306399
  H     -2.011018    0.558318   -1.521761
  H     -0.813242    2.396146   -0.533081
  H     -1.112529    1.306159    2.173311
  H     -2.104581    2.468889    1.560776
  H      3.057230    2.686948   -0.521175
  H      0.530496    3.556885    1.027503
  H      1.936044    4.626066    0.373135

 Multiplicity           Mult            ....    1
 Number of Electrons    NEL             ....  104
 Basis Dimension        Dim             ....  256

ORBITAL ENERGIES
----------------

  NO   OCC          E(Eh)            E(eV)
   0   2.0000     -88.865387     -2418.1501
   1   2.0000     -14.311502      -389.4358
   2   2.0000     -14.306936      -389.3115
   3   2.0000     -10.219589      -278.0891
   4   2.0000     -10.218613      -278.0626
   5   2.0000     -10.208651      -277.7915
   6   2.0000     -10.201407      -277.5944
   7   2.0000     -10.192154      -277.3426
   8   2.0000     -10.188150      -277.2337
   9   2.0000     -10.187909      -277.2271
  10   2.0000     -10.187422      -277.2139
  11   2.0000     -10.187127      -277.2058
  12   2.0000     -10.174447      -276.8608
  13   2.0000      -7.960560      -216.6179
  14   2.0000      -5.928486      -161.3223
  15   2.0000      -5.924526      -161.2146
  16   2.0000      -5.922184      -161.1508
  17   2.0000      -0.899003       -24.4631
  18   2.0000      -0.876855       -23.8605
  19   2.0000      -0.862099       -23.4589
  20   2.0000      -0.781312       -21.2606
  21   2.0000      -0.770561       -20.9680
  22   2.0000      -0.727308       -19.7911
  23   2.0000      -0.714265       -19.4361
  24   2.0000      -0.675169       -18.3723
  25   2.0000      -0.616026       -16.7629
  26   2.0000      -0.602048       -16.3825
  27   2.0000      -0.573645       -15.6097
  28   2.0000      -0.544127       -14.8065
  29   2.0000      -0.512434       -13.9440
  30   2.0000      -0.498999       -13.5785
  31   2.0000      -0.483466       -13.1558
  32   2.0000      -0.465169       -12.6579
  33   2.0000      -0.456122       -12.4117
  34   2.0000      -0.447612       -12.1801
  35   2.0000      -0.434766       -11.8306
  36   2.0000      -0.426612       -11.6087
  37   2.0000      -0.426051       -11.5934
  38   2.0000      -0.398928       -10.8554
  39   2.0000      -0.388391       -10.5687
  40   2.0000      -0.384011       -10.4495
  41   2.0000      -0.367121        -9.9899
  42   2.0000      -0.363475        -9.8907
  43   2.0000      -0.347684        -9.4610
  44   2.0000      -0.338320        -9.2062
  45   2.0000      -0.330949        -9.0056
  46   2.0000      -0.320909        -8.7324
  47   2.0000      -0.288420        -7.8483
  48   2.0000      -0.245340        -6.6760
  49   2.0000      -0.242545        -6.6000
  50   2.0000      -0.237731        -6.4690
  51   2.0000      -0.208466        -5.6727
  52   0.0000      -0.035878        -0.9763
  53   0.0000       0.020887         0.5684
  54   0.0000       0.040371         1.0985
  55   0.0000       0.045381         1.2349
  56   0.0000       0.064001         1.7415

MULLIKEN ATOMIC CHARGES
-----------------------
   0 C :   -0.111423
   1 S :    0.102018
   2 C :   -0.150435
   3 C :   -0.010946
   4 C :   -0.043495
   5 C :    0.104844
   6 N :   -0.189965
   7 C :    0.071917
   8 C :    0.057712
   9 C :    0.061652
  10 N :   -0.165666
  11 C :    0.002366
  12 C :   -0.031566
  13 H :    0.015764
  14 H :   -0.009845
  15 H :    0.085055
  16 H :    0.083294
  17 H :   -0.027258
  18 H :   -0.022622
  19 H :   -0.015090
  20 H :   -0.011291
  21 H :   -0.009185
  22 H :    0.092254
  23 H :    0.086733
  24 H :   -0.014487
  25 H :    0.037269
  26 H :    0.012397
Sum of atomic charges:    0.0000000

LOEWDIN ATOMIC CHARGES
----------------------
   0 C :   -0.187620
   1 S :    0.432369
   2 C :   -0.175416
   3 C :   -0.066080
   4 C :   -0.072639
   5 C :    0.022554
   6 N :   -0.105028
   7 C :   -0.045959
   8 C :   -0.040965
   9 C :    0.021286
  10 N :   -0.090655
  11 C :   -0.050675
  12 C :   -0.047499
  13 H :    0.025703
  14 H :    0.024273
  15 H :    0.050696
  16 H :    0.049550
  17 H :    0.011960
  18 H :    0.016057
  19 H :    0.016644
  20 H :    0.016754
  21 H :    0.023555
  22 H :    0.051578
  23 H :    0.052104
  24 H :    0.023900
  25 H :    0.022363
  26 H :    0.021192

  Mayer bond orders larger than 0.100000
B(  0-C ,  1-S ) :   1.1599 B(  0-C ,  4-C ) :   1.5354 B(  0-C , 13-H ) :   0.9618
B(  1-S ,  2-C ) :   1.1310 B(  2-C ,  3-C ) :   1.5086 B(  2-C , 11-C ) :   1.0943
B(  3-C ,  4-C ) :   1.3054 B(  3-C ,  9-C ) :   1.0155 B(  4-C ,  5-C ) :   0.9939
B(  5-C ,  6-N ) :   1.1058 B(  5-C ,  7-C ) :   1.0447 B(  5-C , 14-H ) :   0.8914
B(  6-N , 15-H ) :   0.9665 B(  6-N , 16-H ) :   0.9667 B(  7-C ,  8-C ) :   1.0567
B(  7-C , 17-H ) :   0.9135 B(  7-C , 18-H ) :   0.9262 B(  8-C ,  9-C ) :   1.0435
B(  8-C , 19-H ) :   0.9256 B(  8-C , 20-H ) :   0.9243 B(  9-C , 10-N ) :   1.0790
B(  9-C , 21-H ) :   0.8862 B( 10-N , 22-H ) :   0.9604 B( 10-N , 23-H ) :   0.9650
B( 11-C , 12-C ) :   1.9242 B( 11-C , 24-H ) :   0.9455 B( 12-C , 25-H ) :   0.9217
B( 12-C , 26-H ) :   0.9410

Dispersion correction           -0.058799959
FINAL SINGLE POINT ENERGY      -896.744796970219

DIPOLE MOMENT
-------------
                                X             Y             Z
Electronic contribution:     13.31208      -2.70794      -0.58557
Nuclear contribution   :    -14.38136       2.57549       0.52099
                        -----------------------------------------
Total Dipole Moment    :     -1.06928      -0.13246      -0.06458
                        -----------------------------------------
Magnitude (a.u.)       :      1.07938
Magnitude (Debye)      :      2.74357

Rotational constants in cm-1:     0.032090     0.022608     0.014387
Rotational constants in MHz :   962.029028   677.771755   431.311259

                             ****ORCA TERMINATED NORMALLY****
TOTAL RUN TIME: 0 days 0 hours 17 minutes 23 seconds 529 msec
