                         Program Version 4.2.0 -  RELEASE  -
|  1> # ORCA input file
|  2> # SCF done        -33.460980654388          0.000842667511
|  3> ! B3LYP/G D3BJ Opt RIJCOSX def2-SVP def2/J
|  4> * xyz 0 1
|  5>    C       -1.27109         0.02949        -0.09523
|  6>    S       -0.26113         1.40810         0.02224
|  7>    C        1.16572         0.43847         0.16208
|  8>    C        0.84895        -0.91057         0.14953
|  9>    C       -0.56179        -1.13507        -0.02426
| 10>    O       -1.13120        -2.34051        -0.09280
| 11>    C        1.70985        -2.06857         0.42034
| 12>    O        1.33973        -3.20169         0.18957
| 13>    O        2.89702        -1.86254         0.99939
| 14>    C        2.43153         1.13875         0.17850
| 15>    C        3.56934         0.71257        -0.36790
| 16>    H       -2.32803         0.13806        -0.22150
| 17>    H       -0.41483        -3.01356        -0.04799
| 18>    H        3.09330        -0.92173         1.12972
| 19>    H        2.38484         2.12934         0.61280
| 20>    H        3.65047        -0.22872        -0.88616
| 21>    H        4.45675         1.32001        -0.34199
| 22> *
| 23>
| 24>                          ****END OF INPUT****
 Total Charge           Charge          ....    0
 Multiplicity           Mult            ....    1
 Number of Electrons    NEL             ....   88
Dispersion correction           -0.036510417
FINAL SINGLE POINT ENERGY      -893.765636480425
Dispersion correction            ... done
Dispersion correction           -0.036337338
FINAL SINGLE POINT ENERGY      -893.767647999589
Dispersion correction            ... done
Dispersion correction           -0.036269019
FINAL SINGLE POINT ENERGY      -893.767814190776
Dispersion correction            ... done
FINAL SINGLE POINT ENERGY      -893.767981906184
FINAL SINGLE POINT ENERGY      -893.767908782716
FINAL SINGLE POINT ENERGY      -893.767961855830
Dispersion correction            ... done
Dispersion correction           -0.036338664
FINAL SINGLE POINT ENERGY      -893.767975337267
Dispersion correction            ... done
Dispersion correction           -0.036345617
FINAL SINGLE POINT ENERGY      -893.767974152244
Dispersion correction            ... done
                    ***********************HURRAY********************

CARTESIAN COORDINATES (ANGSTROEM)
---------------------------------
  C     -1.303098    0.029885   -0.103777
  S     -0.279229    1.411742    0.007043
  C      1.153638    0.450008    0.157807
  C      0.835752   -0.910155    0.154823
  C     -0.581875   -1.144057   -0.031817
  O     -1.128533   -2.354948   -0.109926
  C      1.704428   -2.071512    0.447146
  O      1.312940   -3.213254    0.265590
  O      2.915167   -1.873388    0.974026
  C      2.438267    1.143742    0.184119
  C      3.587098    0.720265   -0.376177
  H     -2.377634    0.129798   -0.237373
  H     -0.384343   -3.001719   -0.035171
  H      3.107342   -0.923897    1.063460
  H      2.428324    2.126908    0.667788
  H      3.658984   -0.215136   -0.936252
  H      4.492202    1.327548   -0.304970

 Multiplicity           Mult            ....    1
 Number of Electrons    NEL             ....   88
 Basis Dimension        Dim             ....  188

ORBITAL ENERGIES
----------------

  NO   OCC          E(Eh)            E(eV)
   0   2.0000     -88.897515     -2419.0244
   1   2.0000     -19.190824      -522.2089
   2   2.0000     -19.157206      -521.2941
   3   2.0000     -19.138333      -520.7805
   4   2.0000     -10.338923      -281.3364
   5   2.0000     -10.267592      -279.3954
   6   2.0000     -10.251683      -278.9625
   7   2.0000     -10.239427      -278.6290
   8   2.0000     -10.223965      -278.2082
   9   2.0000     -10.222382      -278.1651
  10   2.0000     -10.215891      -277.9885
  11   2.0000      -7.992432      -217.4851
  12   2.0000      -5.960393      -162.1905
  13   2.0000      -5.956404      -162.0820
  14   2.0000      -5.953961      -162.0155
  15   2.0000      -1.109238       -30.1839
  16   2.0000      -1.057112       -28.7655
  17   2.0000      -1.020401       -27.7665
  18   2.0000      -0.902247       -24.5514
  19   2.0000      -0.812641       -22.1131
  20   2.0000      -0.766533       -20.8584
  21   2.0000      -0.728799       -19.8316
  22   2.0000      -0.648692       -17.6518
  23   2.0000      -0.640132       -17.4189
  24   2.0000      -0.598582       -16.2882
  25   2.0000      -0.580833       -15.8053
  26   2.0000      -0.561766       -15.2864
  27   2.0000      -0.497304       -13.5323
  28   2.0000      -0.490545       -13.3484
  29   2.0000      -0.473285       -12.8787
  30   2.0000      -0.470914       -12.8142
  31   2.0000      -0.465970       -12.6797
  32   2.0000      -0.432323       -11.7641
  33   2.0000      -0.419178       -11.4064
  34   2.0000      -0.404842       -11.0163
  35   2.0000      -0.401883       -10.9358
  36   2.0000      -0.381388       -10.3781
  37   2.0000      -0.372945       -10.1483
  38   2.0000      -0.361135        -9.8270
  39   2.0000      -0.335876        -9.1397
  40   2.0000      -0.317255        -8.6329
  41   2.0000      -0.298155        -8.1132
  42   2.0000      -0.267602        -7.2818
  43   2.0000      -0.226700        -6.1688
  44   0.0000      -0.085944        -2.3387
  45   0.0000      -0.011341        -0.3086
  46   0.0000       0.008612         0.2343
  47   0.0000       0.017772         0.4836
  48   0.0000       0.064243         1.7482

MULLIKEN ATOMIC CHARGES
-----------------------
   0 C :   -0.161497
   1 S :    0.143450
   2 C :   -0.159409
   3 C :   -0.046711
   4 C :    0.164591
   5 O :   -0.177442
   6 C :    0.195072
   7 O :   -0.253132
   8 O :   -0.139878
   9 C :   -0.023056
  10 C :   -0.051147
  11 H :    0.028710
  12 H :    0.193194
  13 H :    0.171723
  14 H :    0.018398
  15 H :    0.051884
  16 H :    0.045252
Sum of atomic charges:   -0.0000000

LOEWDIN ATOMIC CHARGES
----------------------
   0 C :   -0.238890
   1 S :    0.471667
   2 C :   -0.176264
   3 C :   -0.153892
   4 C :    0.034039
   5 O :   -0.042043
   6 C :    0.096529
   7 O :   -0.173687
   8 O :   -0.011576
   9 C :   -0.048205
  10 C :   -0.042386
  11 H :    0.031947
  12 H :    0.069200
  13 H :    0.080372
  14 H :    0.037019
  15 H :    0.031454
  16 H :    0.034718

  Mayer bond orders larger than 0.100000
B(  0-C ,  1-S ) :   1.1168 B(  0-C ,  2-C ) :   0.1008 B(  0-C ,  4-C ) :   1.4947
B(  0-C , 11-H ) :   0.9653 B(  1-S ,  2-C ) :   1.1989 B(  2-C ,  3-C ) :   1.4094
B(  2-C ,  9-C ) :   1.0767 B(  3-C ,  4-C ) :   1.1688 B(  3-C ,  6-C ) :   0.9662
B(  4-C ,  5-O ) :   1.3151 B(  5-O , 12-H ) :   0.8865 B(  6-C ,  7-O ) :   1.9393
B(  6-C ,  8-O ) :   1.2879 B(  7-O , 12-H ) :   0.1413 B(  8-O , 13-H ) :   0.9278
B(  9-C , 10-C ) :   1.8826 B(  9-C , 14-H ) :   0.9458 B( 10-C , 15-H ) :   0.9598
B( 10-C , 16-H ) :   0.9472

Dispersion correction           -0.036340737
FINAL SINGLE POINT ENERGY      -893.767962510558

DIPOLE MOMENT
-------------
                                X             Y             Z
Electronic contribution:     -4.92722      -0.90307       0.58362
Nuclear contribution   :      5.46935       2.50308      -0.56583
                        -----------------------------------------
Total Dipole Moment    :      0.54213       1.60001       0.01779
                        -----------------------------------------
Magnitude (a.u.)       :      1.68946
Magnitude (Debye)      :      4.29426

Rotational constants in cm-1:     0.038513     0.036442     0.019351
Rotational constants in MHz :  1154.586603  1092.511324   580.129915

                             ****ORCA TERMINATED NORMALLY****
TOTAL RUN TIME: 0 days 0 hours 8 minutes 23 seconds 783 msec
