                         Program Version 4.2.0 -  RELEASE  -
|  1> # ORCA input file
|  2> # SCF done        -31.819504460997          0.000984998226
|  3> ! B3LYP/G D3BJ Opt RIJCOSX def2-SVP def2/J
|  4> * xyz 0 1
|  5>    C       -1.21827        -0.01997        -0.21553
|  6>    S       -1.15688        -1.42909        -1.22315
|  7>    C        0.25837        -1.95010        -0.42638
|  8>    C        0.65747        -1.06287         0.57607
|  9>    C       -0.20069         0.04611         0.68745
| 10>    C        1.86865        -1.55922         1.22589
| 11>    S        2.69310        -0.85472         2.44403
| 12>    C        2.16467        -2.80496         0.53749
| 13>    C        1.20057        -3.02931        -0.44302
| 14>    O        1.42972        -4.16152        -1.09883
| 15>    C        2.55238        -4.68874        -0.54568
| 16>    C        3.04896        -3.90362         0.45886
| 17>    H       -2.01883         0.67718        -0.36180
| 18>    H       -0.07408         0.84448         1.39538
| 19>    H        2.89565        -5.61932        -0.95113
| 20>    H        3.91946        -4.09283         1.05200
| 21> *
| 22>
| 23>                          ****END OF INPUT****
 Total Charge           Charge          ....    0
 Multiplicity           Mult            ....    1
 Number of Electrons    NEL             ....   98
Dispersion correction           -0.039793691
FINAL SINGLE POINT ENERGY     -1216.413761545529
Dispersion correction            ... done
Dispersion correction           -0.039838746
FINAL SINGLE POINT ENERGY     -1216.416982893661
Dispersion correction            ... done
Dispersion correction           -0.039831146
FINAL SINGLE POINT ENERGY     -1216.417280156750
Dispersion correction            ... done
FINAL SINGLE POINT ENERGY     -1216.417324281063
FINAL SINGLE POINT ENERGY     -1216.417373921488
Dispersion correction            ... done
Dispersion correction           -0.039816177
FINAL SINGLE POINT ENERGY     -1216.417386102377
Dispersion correction            ... done
Dispersion correction           -0.039818279
FINAL SINGLE POINT ENERGY     -1216.417388878607
Dispersion correction            ... done
                    ***********************HURRAY********************

CARTESIAN COORDINATES (ANGSTROEM)
---------------------------------
  C     -1.256126   -0.001020   -0.222351
  S     -1.171439   -1.428479   -1.226309
  C      0.255998   -1.940750   -0.431272
  C      0.647233   -1.048639    0.571037
  C     -0.222092    0.065562    0.687299
  C      1.886705   -1.550807    1.240472
  S      2.709755   -0.830163    2.454053
  C      2.180805   -2.817597    0.548951
  C      1.225245   -3.023990   -0.427457
  O      1.439298   -4.152945   -1.105672
  C      2.576540   -4.716355   -0.551123
  C      3.067613   -3.938042    0.466089
  H     -2.072501    0.703118   -0.374085
  H     -0.087670    0.877614    1.402273
  H      2.893160   -5.657180   -0.989574
  H      3.947725   -4.148826    1.069320

 Multiplicity           Mult            ....    1
 Number of Electrons    NEL             ....   98
 Basis Dimension        Dim             ....  196

ORBITAL ENERGIES
----------------

  NO   OCC          E(Eh)            E(eV)
   0   2.0000     -88.900533     -2419.1065
   1   2.0000     -88.829128     -2417.1635
   2   2.0000     -19.227663      -523.2113
   3   2.0000     -10.267603      -279.3957
   4   2.0000     -10.261863      -279.2395
   5   2.0000     -10.253440      -279.0103
   6   2.0000     -10.237467      -278.5756
   7   2.0000     -10.226958      -278.2897
   8   2.0000     -10.212644      -277.9002
   9   2.0000     -10.210467      -277.8409
  10   2.0000     -10.206580      -277.7352
  11   2.0000     -10.198185      -277.5067
  12   2.0000      -7.994262      -217.5349
  13   2.0000      -7.924439      -215.6350
  14   2.0000      -5.962304      -162.2425
  15   2.0000      -5.958176      -162.1302
  16   2.0000      -5.955991      -162.0708
  17   2.0000      -5.892655      -160.3473
  18   2.0000      -5.891634      -160.3195
  19   2.0000      -5.882523      -160.0716
  20   2.0000      -1.127672       -30.6855
  21   2.0000      -0.913917       -24.8689
  22   2.0000      -0.853258       -23.2183
  23   2.0000      -0.792402       -21.5624
  24   2.0000      -0.778140       -21.1743
  25   2.0000      -0.742879       -20.2148
  26   2.0000      -0.712673       -19.3928
  27   2.0000      -0.650995       -17.7145
  28   2.0000      -0.612257       -16.6604
  29   2.0000      -0.576922       -15.6988
  30   2.0000      -0.557778       -15.1779
  31   2.0000      -0.548211       -14.9176
  32   2.0000      -0.502790       -13.6816
  33   2.0000      -0.484724       -13.1900
  34   2.0000      -0.480449       -13.0737
  35   2.0000      -0.445560       -12.1243
  36   2.0000      -0.428706       -11.6657
  37   2.0000      -0.416056       -11.3215
  38   2.0000      -0.412996       -11.2382
  39   2.0000      -0.412654       -11.2289
  40   2.0000      -0.387816       -10.5530
  41   2.0000      -0.371727       -10.1152
  42   2.0000      -0.360770        -9.8170
  43   2.0000      -0.353750        -9.6260
  44   2.0000      -0.291306        -7.9268
  45   2.0000      -0.288465        -7.8495
  46   2.0000      -0.262388        -7.1400
  47   2.0000      -0.226320        -6.1585
  48   2.0000      -0.212210        -5.7745
  49   0.0000      -0.116384        -3.1670
  50   0.0000      -0.028299        -0.7700
  51   0.0000       0.015362         0.4180
  52   0.0000       0.028803         0.7838
  53   0.0000       0.072567         1.9746

MULLIKEN ATOMIC CHARGES
-----------------------
   0 C :   -0.106700
   1 S :    0.175939
   2 C :   -0.078831
   3 C :    0.014117
   4 C :    0.046835
   5 C :   -0.003945
   6 S :   -0.104984
   7 C :    0.017344
   8 C :    0.079360
   9 O :   -0.194554
  10 C :    0.139937
  11 C :   -0.034705
  12 H :    0.037434
  13 H :   -0.000073
  14 H :    0.011868
  15 H :    0.000958
Sum of atomic charges:   -0.0000000

LOEWDIN ATOMIC CHARGES
----------------------
   0 C :   -0.190254
   1 S :    0.468632
   2 C :   -0.199055
   3 C :   -0.082705
   4 C :   -0.032137
   5 C :   -0.125740
   6 S :    0.086250
   7 C :   -0.101103
   8 C :    0.031774
   9 O :    0.014777
  10 C :    0.039697
  11 C :   -0.041641
  12 H :    0.027718
  13 H :    0.039100
  14 H :    0.025302
  15 H :    0.039386

  Mayer bond orders larger than 0.100000
B(  0-C ,  1-S ) :   1.1433 B(  0-C ,  4-C ) :   1.5122 B(  0-C , 12-H ) :   0.9640
B(  1-S ,  2-C ) :   1.1176 B(  2-C ,  3-C ) :   1.4444 B(  2-C ,  8-C ) :   1.1336
B(  3-C ,  4-C ) :   1.2993 B(  3-C ,  5-C ) :   1.0164 B(  4-C , 13-H ) :   0.9909
B(  5-C ,  6-S ) :   1.7237 B(  5-C ,  7-C ) :   1.0442 B(  7-C ,  8-C ) :   1.4560
B(  7-C , 11-C ) :   1.2149 B(  8-C ,  9-O ) :   1.2146 B(  9-O , 10-C ) :   1.0638
B( 10-C , 11-C ) :   1.5380 B( 10-C , 14-H ) :   1.0028 B( 11-C , 15-H ) :   1.0040

Dispersion correction           -0.039819007
FINAL SINGLE POINT ENERGY     -1216.417387645962

DIPOLE MOMENT
-------------
                                X             Y             Z
Electronic contribution:     -0.86879       0.20594      -0.62567
Nuclear contribution   :      0.47960      -0.47663       0.11173
                        -----------------------------------------
Total Dipole Moment    :     -0.38918      -0.27068      -0.51394
                        -----------------------------------------
Magnitude (a.u.)       :      0.69919
Magnitude (Debye)      :      1.77720

Rotational constants in cm-1:     0.033243     0.024612     0.014142
Rotational constants in MHz :   996.600108   737.858260   423.974544

                             ****ORCA TERMINATED NORMALLY****
TOTAL RUN TIME: 0 days 0 hours 8 minutes 9 seconds 694 msec
