                         Program Version 4.2.0 -  RELEASE  -
|  1> # ORCA input file
|  2> # SCF done        -28.899283766018          0.000239066456
|  3> ! B3LYP/G D3BJ Opt RIJCOSX def2-SVP def2/J
|  4> * xyz 0 1
|  5>    C        1.58031         1.23133        -0.00082
|  6>    S        2.77708        -0.00104        -0.00290
|  7>    C        1.56076        -1.21821        -0.03447
|  8>    C        0.30637        -0.69682        -0.04387
|  9>    C        0.31922         0.72711        -0.02603
| 10>    C       -0.92900         1.56174         0.03035
| 11>    C       -2.15413         0.70083        -0.33448
| 12>    C       -2.13308        -0.63774         0.39821
| 13>    C       -0.96442        -1.48552        -0.09812
| 14>    N       -1.00074         2.18369         1.34782
| 15>    H        1.87526         2.26055         0.02774
| 16>    H        1.84883        -2.25070        -0.04481
| 17>    H       -0.84785         2.38754        -0.68915
| 18>    H       -2.15518         0.52063        -1.41163
| 19>    H       -3.06366         1.25481        -0.08645
| 20>    H       -3.07194        -1.16990         0.23278
| 21>    H       -2.03229        -0.46959         1.47365
| 22>    H       -1.15223        -1.78490        -1.13474
| 23>    H       -0.86802        -2.39814         0.49405
| 24>    H       -1.01370         1.47431         2.07301
| 25>    H       -1.84757         2.73599         1.43260
| 26> *
| 27>
| 28>                          ****END OF INPUT****
 Total Charge           Charge          ....    0
 Multiplicity           Mult            ....    1
 Number of Electrons    NEL             ....   82
Dispersion correction           -0.042826806
FINAL SINGLE POINT ENERGY      -764.075493927137
Dispersion correction            ... done
Dispersion correction           -0.042479274
FINAL SINGLE POINT ENERGY      -764.078009906600
Dispersion correction            ... done
Dispersion correction           -0.042403194
FINAL SINGLE POINT ENERGY      -764.078092075213
Dispersion correction            ... done
FINAL SINGLE POINT ENERGY      -764.078000767976
FINAL SINGLE POINT ENERGY      -764.077973006431
FINAL SINGLE POINT ENERGY      -764.077981335394
FINAL SINGLE POINT ENERGY      -764.077956232882
FINAL SINGLE POINT ENERGY      -764.077938704281
Dispersion correction            ... done
Dispersion correction           -0.042384722
FINAL SINGLE POINT ENERGY      -764.077917911275
Dispersion correction            ... done
Dispersion correction           -0.042383538
FINAL SINGLE POINT ENERGY      -764.077910646064
Dispersion correction            ... done
                    ***********************HURRAY********************

CARTESIAN COORDINATES (ANGSTROEM)
---------------------------------
  C      1.598197    1.237000    0.047845
  S      2.796594   -0.004638    0.078868
  C      1.588892   -1.239961   -0.007395
  C      0.318789   -0.715619   -0.064722
  C      0.324923    0.723637   -0.034280
  C     -0.937494    1.561584    0.011126
  C     -2.189517    0.695018   -0.277008
  C     -2.144855   -0.684227    0.383293
  C     -0.962850   -1.503102   -0.149315
  N     -0.962862    2.296906    1.281325
  H      1.882553    2.285166    0.121262
  H      1.878608   -2.289865   -0.013993
  H     -0.879215    2.326354   -0.783619
  H     -2.294047    0.561921   -1.368994
  H     -3.078951    1.255262    0.057957
  H     -3.087481   -1.224485    0.197963
  H     -2.053478   -0.568228    1.478251
  H     -1.163647   -1.771784   -1.203239
  H     -0.863048   -2.454856    0.395257
  H     -0.887994    1.647384    2.065023
  H     -1.849099    2.792503    1.387134

 Multiplicity           Mult            ....    1
 Number of Electrons    NEL             ....   82
 Basis Dimension        Dim             ....  199

ORBITAL ENERGIES
----------------

  NO   OCC          E(Eh)            E(eV)
   0   2.0000     -88.864832     -2418.1350
   1   2.0000     -14.303540      -389.2191
   2   2.0000     -10.216051      -277.9929
   3   2.0000     -10.199501      -277.5425
   4   2.0000     -10.199294      -277.5369
   5   2.0000     -10.190860      -277.3074
   6   2.0000     -10.188330      -277.2385
   7   2.0000     -10.188230      -277.2358
   8   2.0000     -10.183944      -277.1192
   9   2.0000     -10.183684      -277.1121
  10   2.0000      -7.959843      -216.5983
  11   2.0000      -5.927859      -161.3052
  12   2.0000      -5.923748      -161.1934
  13   2.0000      -5.921522      -161.1328
  14   2.0000      -0.887824       -24.1589
  15   2.0000      -0.860159       -23.4061
  16   2.0000      -0.799025       -21.7426
  17   2.0000      -0.732837       -19.9415
  18   2.0000      -0.723194       -19.6791
  19   2.0000      -0.681100       -18.5337
  20   2.0000      -0.618477       -16.8296
  21   2.0000      -0.580789       -15.8041
  22   2.0000      -0.561055       -15.2671
  23   2.0000      -0.508677       -13.8418
  24   2.0000      -0.503027       -13.6881
  25   2.0000      -0.469280       -12.7698
  26   2.0000      -0.454941       -12.3796
  27   2.0000      -0.433499       -11.7961
  28   2.0000      -0.422992       -11.5102
  29   2.0000      -0.408293       -11.1102
  30   2.0000      -0.395547       -10.7634
  31   2.0000      -0.394592       -10.7374
  32   2.0000      -0.383484       -10.4351
  33   2.0000      -0.355879        -9.6839
  34   2.0000      -0.339244        -9.2313
  35   2.0000      -0.336198        -9.1484
  36   2.0000      -0.329941        -8.9782
  37   2.0000      -0.321199        -8.7403
  38   2.0000      -0.241005        -6.5581
  39   2.0000      -0.237446        -6.4612
  40   2.0000      -0.222541        -6.0556
  41   0.0000      -0.013530        -0.3682
  42   0.0000       0.045161         1.2289
  43   0.0000       0.051764         1.4086
  44   0.0000       0.057882         1.5750
  45   0.0000       0.076730         2.0879

MULLIKEN ATOMIC CHARGES
-----------------------
   0 C :   -0.117876
   1 S :    0.092047
   2 C :   -0.150389
   3 C :   -0.044144
   4 C :   -0.036021
   5 C :    0.109216
   6 C :    0.056137
   7 C :   -0.001106
   8 C :    0.149120
   9 N :   -0.191177
  10 H :    0.015418
  11 H :    0.006477
  12 H :   -0.011658
  13 H :   -0.008240
  14 H :   -0.023329
  15 H :   -0.004542
  16 H :   -0.005027
  17 H :    0.006195
  18 H :   -0.007146
  19 H :    0.084110
  20 H :    0.081934
Sum of atomic charges:    0.0000000

LOEWDIN ATOMIC CHARGES
----------------------
   0 C :   -0.186359
   1 S :    0.425361
   2 C :   -0.210016
   3 C :   -0.067769
   4 C :   -0.074513
   5 C :    0.022097
   6 C :   -0.043367
   7 C :   -0.032751
   8 C :   -0.022233
   9 N :   -0.106933
  10 H :    0.025146
  11 H :    0.019746
  12 H :    0.023755
  13 H :    0.020494
  14 H :    0.015084
  15 H :    0.021999
  16 H :    0.014700
  17 H :    0.029557
  18 H :    0.027171
  19 H :    0.049938
  20 H :    0.048896

  Mayer bond orders larger than 0.100000
B(  0-C ,  1-S ) :   1.1717 B(  0-C ,  4-C ) :   1.5523 B(  0-C , 10-H ) :   0.9618
B(  1-S ,  2-C ) :   1.1576 B(  2-C ,  3-C ) :   1.5432 B(  2-C , 11-H ) :   0.9647
B(  3-C ,  4-C ) :   1.3028 B(  3-C ,  8-C ) :   1.0434 B(  4-C ,  5-C ) :   0.9973
B(  5-C ,  6-C ) :   1.0396 B(  5-C ,  9-N ) :   1.1028 B(  5-C , 12-H ) :   0.8925
B(  6-C ,  7-C ) :   1.0692 B(  6-C , 13-H ) :   0.9233 B(  6-C , 14-H ) :   0.9275
B(  7-C ,  8-C ) :   1.0929 B(  7-C , 15-H ) :   0.9322 B(  7-C , 16-H ) :   0.9396
B(  8-C , 17-H ) :   0.9117 B(  8-C , 18-H ) :   0.9176 B(  9-N , 19-H ) :   0.9669
B(  9-N , 20-H ) :   0.9672

Dispersion correction           -0.042381708
FINAL SINGLE POINT ENERGY      -764.077909623975

DIPOLE MOMENT
-------------
                                X             Y             Z
Electronic contribution:     13.35282      -0.28278      -0.67854
Nuclear contribution   :    -14.05418       0.02888       0.73273
                        -----------------------------------------
Total Dipole Moment    :     -0.70137      -0.25390       0.05419
                        -----------------------------------------
Magnitude (a.u.)       :      0.74787
Magnitude (Debye)      :      1.90094

Rotational constants in cm-1:     0.067514     0.031644     0.023169
Rotational constants in MHz :  2024.032513   948.652897   694.598910

                             ****ORCA TERMINATED NORMALLY****
TOTAL RUN TIME: 0 days 0 hours 11 minutes 53 seconds 957 msec
