                         Program Version 4.2.0 -  RELEASE  -
|  1> # ORCA input file
|  2> # SCF done        -29.706118632843          0.000686692116
|  3> ! B3LYP/G D3BJ Opt RIJCOSX def2-SVP def2/J
|  4> * xyz 0 1
|  5>    C        2.13318         0.73867        -0.05725
|  6>    C        2.17123        -0.57679        -0.28339
|  7>    C        0.93357        -1.43003        -0.34618
|  8>    C       -0.32530        -0.65938        -0.10948
|  9>    C       -1.57358        -1.19718        -0.09439
| 10>    S       -2.79221        -0.02097         0.20585
| 11>    C       -1.60291         1.21694         0.31306
| 12>    C       -0.34355         0.74168         0.12703
| 13>    C        0.90550         1.56053         0.16047
| 14>    C        3.45394        -1.23606        -0.48343
| 15>    C        3.64530        -2.52710        -0.72943
| 16>    H        3.06048         1.29654        -0.02433
| 17>    H        1.01446        -2.23079         0.39716
| 18>    H        0.88439        -1.91289        -1.32868
| 19>    H       -1.85698        -2.22048        -0.24217
| 20>    H       -1.90971         2.22539         0.50849
| 21>    H        0.98516         2.07972         1.12347
| 22>    H        0.85768         2.34398        -0.60628
| 23>    H        4.31412        -0.58102        -0.42147
| 24>    H        2.83845        -3.23449        -0.80636
| 25>    H        4.63514        -2.92793        -0.86598
| 26> *
| 27>
| 28>                          ****END OF INPUT****
 Total Charge           Charge          ....    0
 Multiplicity           Mult            ....    1
 Number of Electrons    NEL             ....   86
Dispersion correction           -0.043873242
FINAL SINGLE POINT ENERGY      -784.891736390124
Dispersion correction            ... done
Dispersion correction           -0.043617332
FINAL SINGLE POINT ENERGY      -784.894715219854
Dispersion correction            ... done
Dispersion correction           -0.043584728
FINAL SINGLE POINT ENERGY      -784.894826358443
Dispersion correction            ... done
FINAL SINGLE POINT ENERGY      -784.894829100489
Dispersion correction            ... done
Dispersion correction           -0.043590467
FINAL SINGLE POINT ENERGY      -784.894849498759
Dispersion correction            ... done
Dispersion correction           -0.043595101
FINAL SINGLE POINT ENERGY      -784.894852103954
Dispersion correction            ... done
                    ***********************HURRAY********************

CARTESIAN COORDINATES (ANGSTROEM)
---------------------------------
  C      2.139898    0.750048   -0.051501
  C      2.180170   -0.578734   -0.283185
  C      0.933393   -1.430182   -0.337469
  C     -0.339686   -0.663296   -0.101754
  C     -1.601322   -1.209313   -0.083163
  S     -2.820329   -0.017307    0.192947
  C     -1.636182    1.237164    0.293499
  C     -0.360099    0.753749    0.124675
  C      0.903454    1.568902    0.170658
  C      3.472104   -1.238331   -0.492339
  C      3.665618   -2.543190   -0.739628
  H      3.089312    1.295427   -0.020275
  H      1.028654   -2.246683    0.400905
  H      0.891323   -1.936937   -1.319078
  H     -1.880261   -2.251511   -0.230374
  H     -1.941183    2.264254    0.488901
  H      0.985337    2.093264    1.142048
  H      0.863955    2.381439   -0.579786
  H      4.346562   -0.579713   -0.438682
  H      2.838149   -3.253227   -0.810372
  H      4.669493   -2.947483   -0.889317

 Multiplicity           Mult            ....    1
 Number of Electrons    NEL             ....   86
 Basis Dimension        Dim             ....  208

ORBITAL ENERGIES
----------------

  NO   OCC          E(Eh)            E(eV)
   0   2.0000     -88.868285     -2418.2290
   1   2.0000     -10.203674      -277.6561
   2   2.0000     -10.202804      -277.6324
   3   2.0000     -10.200745      -277.5764
   4   2.0000     -10.196819      -277.4696
   5   2.0000     -10.195253      -277.4269
   6   2.0000     -10.192335      -277.3475
   7   2.0000     -10.192247      -277.3451
   8   2.0000     -10.192076      -277.3405
   9   2.0000     -10.191733      -277.3312
  10   2.0000     -10.184236      -277.1271
  11   2.0000      -7.963366      -216.6942
  12   2.0000      -5.931400      -161.4016
  13   2.0000      -5.927352      -161.2914
  14   2.0000      -5.924892      -161.2245
  15   2.0000      -0.879372       -23.9289
  16   2.0000      -0.827746       -22.5241
  17   2.0000      -0.773982       -21.0611
  18   2.0000      -0.751598       -20.4520
  19   2.0000      -0.718288       -19.5456
  20   2.0000      -0.685843       -18.6627
  21   2.0000      -0.647599       -17.6221
  22   2.0000      -0.581270       -15.8172
  23   2.0000      -0.565800       -15.3962
  24   2.0000      -0.539583       -14.6828
  25   2.0000      -0.506431       -13.7807
  26   2.0000      -0.482817       -13.1381
  27   2.0000      -0.452579       -12.3153
  28   2.0000      -0.451215       -12.2782
  29   2.0000      -0.445682       -12.1276
  30   2.0000      -0.421009       -11.4562
  31   2.0000      -0.408148       -11.1063
  32   2.0000      -0.403048       -10.9675
  33   2.0000      -0.400025       -10.8852
  34   2.0000      -0.372470       -10.1354
  35   2.0000      -0.366562        -9.9747
  36   2.0000      -0.350618        -9.5408
  37   2.0000      -0.336015        -9.1434
  38   2.0000      -0.334213        -9.0944
  39   2.0000      -0.308160        -8.3855
  40   2.0000      -0.241410        -6.5691
  41   2.0000      -0.231738        -6.3059
  42   2.0000      -0.225901        -6.1471
  43   0.0000      -0.028093        -0.7644
  44   0.0000      -0.016595        -0.4516
  45   0.0000       0.052283         1.4227
  46   0.0000       0.054736         1.4894
  47   0.0000       0.063430         1.7260

MULLIKEN ATOMIC CHARGES
-----------------------
   0 C :   -0.176554
   1 C :   -0.057196
   2 C :    0.242571
   3 C :   -0.049872
   4 C :   -0.144791
   5 S :    0.098197
   6 C :   -0.145378
   7 C :   -0.067759
   8 C :    0.263084
   9 C :   -0.003338
  10 C :   -0.034792
  11 H :   -0.021764
  12 H :    0.020104
  13 H :    0.015875
  14 H :    0.007393
  15 H :    0.006666
  16 H :    0.014154
  17 H :    0.020567
  18 H :   -0.020710
  19 H :    0.017156
  20 H :    0.016389
Sum of atomic charges:   -0.0000000

LOEWDIN ATOMIC CHARGES
----------------------
   0 C :   -0.025519
   1 C :   -0.036917
   2 C :   -0.017582
   3 C :   -0.061917
   4 C :   -0.203587
   5 S :    0.427557
   6 C :   -0.203797
   7 C :   -0.064563
   8 C :   -0.025114
   9 C :   -0.020374
  10 C :   -0.062974
  11 H :    0.022517
  12 H :    0.039440
  13 H :    0.038928
  14 H :    0.020835
  15 H :    0.020770
  16 H :    0.040495
  17 H :    0.041508
  18 H :    0.026457
  19 H :    0.019561
  20 H :    0.024274

  Mayer bond orders larger than 0.100000
B(  0-C ,  1-C ) :   1.7986 B(  0-C ,  8-C ) :   1.0100 B(  0-C , 10-C ) :   0.1133
B(  0-C , 11-H ) :   0.9643 B(  1-C ,  2-C ) :   1.0311 B(  1-C ,  9-C ) :   1.0954
B(  2-C ,  3-C ) :   1.0266 B(  2-C , 12-H ) :   0.8821 B(  2-C , 13-H ) :   0.8785
B(  3-C ,  4-C ) :   1.5453 B(  3-C ,  7-C ) :   1.3157 B(  4-C ,  5-S ) :   1.1641
B(  4-C , 14-H ) :   0.9660 B(  5-S ,  6-C ) :   1.1677 B(  6-C ,  7-C ) :   1.5475
B(  6-C , 15-H ) :   0.9666 B(  7-C ,  8-C ) :   1.0380 B(  8-C , 16-H ) :   0.8835
B(  8-C , 17-H ) :   0.8862 B(  9-C , 10-C ) :   1.9044 B(  9-C , 18-H ) :   0.9652
B( 10-C , 19-H ) :   0.9384 B( 10-C , 20-H ) :   0.9461

Dispersion correction           -0.043596739
FINAL SINGLE POINT ENERGY      -784.894851947276

DIPOLE MOMENT
-------------
                                X             Y             Z
Electronic contribution:    -11.73427       2.35420       1.31459
Nuclear contribution   :     11.92055      -2.20568      -1.30894
                        -----------------------------------------
Total Dipole Moment    :      0.18628       0.14852       0.00565
                        -----------------------------------------
Magnitude (a.u.)       :      0.23831
Magnitude (Debye)      :      0.60573

Rotational constants in cm-1:     0.081365     0.019102     0.015559
Rotational constants in MHz :  2439.267186   572.651403   466.432710

                             ****ORCA TERMINATED NORMALLY****
TOTAL RUN TIME: 0 days 0 hours 8 minutes 3 seconds 812 msec
