                         Program Version 4.2.0 -  RELEASE  -
|  1> # ORCA input file
|  2> # SCF done        -31.541779362612          0.000962976797
|  3> ! B3LYP/G D3BJ Opt RIJCOSX def2-SVP def2/J
|  4> * xyz 0 1
|  5>    C        1.61381         1.20860        -0.01693
|  6>    S        2.80261        -0.02252        -0.01292
|  7>    C        1.60201        -1.24218        -0.00693
|  8>    C        0.33665        -0.72414        -0.00719
|  9>    C        0.34352         0.70280        -0.01328
| 10>    C       -0.87247         1.51668        -0.02034
| 11>    O       -0.84830         2.72736        -0.05466
| 12>    C       -2.18900         0.76801         0.02988
| 13>    C       -2.19673        -0.76471         0.02336
| 14>    C       -0.88708        -1.52637        -0.00824
| 15>    O       -0.87437        -2.73754        -0.02904
| 16>    H        1.89450         2.24356        -0.02186
| 17>    H        1.87278        -2.27978        -0.00417
| 18>    H       -2.77406         1.14572        -0.81327
| 19>    H       -2.69668         1.13707         0.92587
| 20>    H       -2.76801        -1.12958        -0.83483
| 21>    H       -2.72657        -1.13581         0.90549
| 22> *
| 23>
| 24>                          ****END OF INPUT****
 Total Charge           Charge          ....    0
 Multiplicity           Mult            ....    1
 Number of Electrons    NEL             ....   86
 Basis Dimension        Dim             ....  188

ORBITAL ENERGIES
----------------

  NO   OCC          E(Eh)            E(eV)
   0   2.0000     -88.907852     -2419.3057
   1   2.0000     -19.125967      -520.4440
   2   2.0000     -19.125938      -520.4432
   3   2.0000     -10.282477      -279.8004
   4   2.0000     -10.282359      -279.7972
   5   2.0000     -10.236947      -278.5615
   6   2.0000     -10.236867      -278.5593
   7   2.0000     -10.213089      -277.9123
   8   2.0000     -10.212866      -277.9062
   9   2.0000     -10.204699      -277.6840
  10   2.0000     -10.204683      -277.6835
  11   2.0000      -8.003292      -217.7807
  12   2.0000      -5.970984      -162.4787
  13   2.0000      -5.966743      -162.3633
  14   2.0000      -5.965578      -162.3316
  15   2.0000      -1.038978       -28.2720
  16   2.0000      -1.037104       -28.2210
  17   2.0000      -0.915199       -24.9038
  18   2.0000      -0.820715       -22.3328
  19   2.0000      -0.765876       -20.8405
  20   2.0000      -0.757072       -20.6010
  21   2.0000      -0.696465       -18.9518
  22   2.0000      -0.625081       -17.0093
  23   2.0000      -0.617275       -16.7969
  24   2.0000      -0.580893       -15.8069
  25   2.0000      -0.501179       -13.6378
  26   2.0000      -0.496114       -13.5000
  27   2.0000      -0.494807       -13.4644
  28   2.0000      -0.471523       -12.8308
  29   2.0000      -0.442001       -12.0275
  30   2.0000      -0.430526       -11.7152
  31   2.0000      -0.429542       -11.6884
  32   2.0000      -0.429426       -11.6853
  33   2.0000      -0.426019       -11.5926
  34   2.0000      -0.403815       -10.9884
  35   2.0000      -0.394680       -10.7398
  36   2.0000      -0.376125       -10.2349
  37   2.0000      -0.372115       -10.1258
  38   2.0000      -0.344270        -9.3681
  39   2.0000      -0.284998        -7.7552
  40   2.0000      -0.267260        -7.2725
  41   2.0000      -0.265049        -7.2123
  42   2.0000      -0.256871        -6.9898
  43   0.0000      -0.073937        -2.0119
  44   0.0000      -0.066896        -1.8203
  45   0.0000       0.021781         0.5927
  46   0.0000       0.025858         0.7036
  47   0.0000       0.050253         1.3675

MULLIKEN ATOMIC CHARGES
-----------------------
   0 C :   -0.114021
   1 S :    0.160089
   2 C :   -0.114598
   3 C :    0.049142
   4 C :    0.048377
   5 C :    0.018047
   6 O :   -0.188220
   7 C :    0.057815
   8 C :    0.057026
   9 C :    0.017809
  10 O :   -0.188277
  11 H :    0.032169
  12 H :    0.032391
  13 H :    0.032594
  14 H :    0.033349
  15 H :    0.033406
  16 H :    0.032903
Sum of atomic charges:   -0.0000000

LOEWDIN ATOMIC CHARGES
----------------------
   0 C :   -0.142109
   1 S :    0.498216
   2 C :   -0.142191
   3 C :   -0.101034
   4 C :   -0.101075
   5 C :    0.074472
   6 O :   -0.152500
   7 C :   -0.057985
   8 C :   -0.058116
   9 C :    0.074464
  10 O :   -0.152504
  11 H :    0.031197
  12 H :    0.031236
  13 H :    0.049149
  14 H :    0.049757
  15 H :    0.049358
  16 H :    0.049665

  Mayer bond orders larger than 0.100000
B(  0-C ,  1-S ) :   1.2021 B(  0-C ,  4-C ) :   1.5083 B(  0-C , 11-H ) :   0.9649
B(  1-S ,  2-C ) :   1.2021 B(  2-C ,  3-C ) :   1.5082 B(  2-C , 12-H ) :   0.9649
B(  3-C ,  4-C ) :   1.2121 B(  3-C ,  9-C ) :   0.9791 B(  4-C ,  5-C ) :   0.9788
B(  5-C ,  6-O ) :   2.1809 B(  5-C ,  7-C ) :   1.0152 B(  7-C ,  8-C ) :   1.0481
B(  7-C , 13-H ) :   0.8992 B(  7-C , 14-H ) :   0.8992 B(  8-C ,  9-C ) :   1.0156
B(  8-C , 15-H ) :   0.8993 B(  8-C , 16-H ) :   0.8991 B(  9-C , 10-O ) :   2.1807

Dispersion correction           -0.036937074
FINAL SINGLE POINT ENERGY      -856.682437614057
Dispersion correction            ... done
Dispersion correction           -0.036755634
FINAL SINGLE POINT ENERGY      -856.684333556665
Dispersion correction            ... done
Dispersion correction           -0.036720900
FINAL SINGLE POINT ENERGY      -856.684430232301
Dispersion correction            ... done
FINAL SINGLE POINT ENERGY      -856.684433728219
FINAL SINGLE POINT ENERGY      -856.684462248204
FINAL SINGLE POINT ENERGY      -856.684467686032
FINAL SINGLE POINT ENERGY      -856.684486063976
FINAL SINGLE POINT ENERGY      -856.684552411910
FINAL SINGLE POINT ENERGY      -856.684612179121
FINAL SINGLE POINT ENERGY      -856.684666115600
FINAL SINGLE POINT ENERGY      -856.684818488125
FINAL SINGLE POINT ENERGY      -856.684822310842
FINAL SINGLE POINT ENERGY      -856.684826308848
FINAL SINGLE POINT ENERGY      -856.684830703122
FINAL SINGLE POINT ENERGY      -856.684835319505
FINAL SINGLE POINT ENERGY      -856.684840338076
FINAL SINGLE POINT ENERGY      -856.684845590676
Dispersion correction           -0.036801501
FINAL SINGLE POINT ENERGY      -856.684851315749
Dispersion correction            ... done
Dispersion correction           -0.036799546
FINAL SINGLE POINT ENERGY      -856.684857429830
Dispersion correction            ... done

CARTESIAN COORDINATES (ANGSTROEM)
---------------------------------
  C      1.623308    1.220148   -0.140494
  S      2.805145   -0.031980   -0.181686
  C      1.611961   -1.266121   -0.030782
  C      0.345441   -0.731440    0.040845
  C      0.351243    0.704435   -0.023548
  C     -0.879531    1.519844    0.071122
  O     -0.852827    2.733308    0.120249
  C     -2.208415    0.765029    0.094031
  C     -2.199239   -0.767030   -0.082619
  C     -0.898972   -1.521723    0.181243
  O     -0.891605   -2.708632    0.439189
  H      1.897273    2.273080   -0.185860
  H      1.877947   -2.321535    0.001724
  H     -2.813884    1.235590   -0.697289
  H     -2.707290    1.059422    1.032046
  H     -2.454750   -1.024657   -1.126708
  H     -2.973194   -1.250568    0.529476

Dispersion correction           -0.036816977
FINAL SINGLE POINT ENERGY      -856.685202349188
Dispersion correction            ... done

DIPOLE MOMENT
-------------
                                X             Y             Z
Electronic contribution:      8.09993      -0.03744       0.17058
Nuclear contribution   :     -7.75530       0.02984      -0.43509
                        -----------------------------------------
Total Dipole Moment    :      0.34464      -0.00761      -0.26450
                        -----------------------------------------
Magnitude (a.u.)       :      0.43451
Magnitude (Debye)      :      1.10443

Rotational constants in cm-1:     0.044535     0.032523     0.019023
Rotational constants in MHz :  1335.132135   975.021147   570.297937

                             ****ORCA TERMINATED NORMALLY****
TOTAL RUN TIME: 0 days 0 hours 47 minutes 2 seconds 127 msec
