                         Program Version 4.2.0 -  RELEASE  -
|  1> # ORCA input file
|  2> # SCF done        -36.136369171962          0.000148441436
|  3> ! B3LYP/G D3BJ Opt RIJCOSX def2-SVP def2/J
|  4> * xyz 0 1
|  5>    C       -0.00061        -1.41565         0.01105
|  6>    C        1.20283        -0.71802         0.00657
|  7>    C        1.20436         0.71825        -0.00502
|  8>    N        2.37862         1.40217        -0.00967
|  9>    C        3.47528         0.70835        -0.00311
| 10>    C        3.47376        -0.71292         0.00866
| 11>    N        2.37563        -1.40442         0.01332
| 12>    C        0.00240         1.41843        -0.01165
| 13>    C       -1.20103         0.72080        -0.00716
| 14>    C       -1.20256        -0.71548         0.00435
| 15>    N       -2.37683        -1.39940         0.00879
| 16>    C       -3.47348        -0.70559         0.00220
| 17>    C       -3.47197         0.71571        -0.00932
| 18>    N       -2.37384         1.40720        -0.01384
| 19>    H       -0.00176        -2.49368         0.01971
| 20>    H        4.40446         1.26285        -0.00710
| 21>    H        4.40176        -1.26939         0.01417
| 22>    H        0.00356         2.49646        -0.02030
| 23>    H       -4.40267        -1.26008         0.00599
| 24>    H       -4.39997         1.27216        -0.01470
| 25> *
| 26>
| 27>                          ****END OF INPUT****
 Total Charge           Charge          ....    0
 Multiplicity           Mult            ....    1
 Number of Electrons    NEL             ....   94
Dispersion correction           -0.045898527
FINAL SINGLE POINT ENERGY      -603.274391396294
Dispersion correction            ... done
Dispersion correction           -0.045722601
FINAL SINGLE POINT ENERGY      -603.276978226296
Dispersion correction            ... done
Dispersion correction           -0.045703020
FINAL SINGLE POINT ENERGY      -603.277112410747
Dispersion correction            ... done
Dispersion correction           -0.045698472
FINAL SINGLE POINT ENERGY      -603.277178717824
Dispersion correction            ... done
Dispersion correction           -0.045702401
FINAL SINGLE POINT ENERGY      -603.277184565357
Dispersion correction            ... done
                    ***********************HURRAY********************

CARTESIAN COORDINATES (ANGSTROEM)
---------------------------------
  C     -0.000604   -1.419054    0.010792
  C      1.213740   -0.722897    0.006604
  C      1.215254    0.723065   -0.005072
  N      2.396793    1.417842   -0.009848
  C      3.496090    0.715915   -0.003108
  C      3.494590   -0.720546    0.008701
  N      2.393827   -1.420172    0.013566
  C      0.002399    1.421827   -0.011519
  C     -1.211946    0.725669   -0.007326
  C     -1.213461   -0.720291    0.004353
  N     -2.395001   -1.415066    0.009149
  C     -3.494298   -0.713138    0.002420
  C     -3.492796    0.723322   -0.009402
  N     -2.392031    1.422947   -0.014282
  H     -0.001791   -2.509686    0.019680
  H      4.450724    1.256226   -0.006754
  H      4.448085   -1.262845    0.014078
  H      0.003589    2.512460   -0.020408
  H     -4.448931   -1.253448    0.006088
  H     -4.446291    1.265622   -0.014772

 Multiplicity           Mult            ....    1
 Number of Electrons    NEL             ....   94
 Basis Dimension        Dim             ....  226

ORBITAL ENERGIES
----------------

  NO   OCC          E(Eh)            E(eV)
   0   2.0000     -14.350860      -390.5068
   1   2.0000     -14.350830      -390.5059
   2   2.0000     -14.350726      -390.5031
   3   2.0000     -14.350688      -390.5021
   4   2.0000     -10.248196      -278.8676
   5   2.0000     -10.248185      -278.8673
   6   2.0000     -10.247997      -278.8622
   7   2.0000     -10.247995      -278.8621
   8   2.0000     -10.245830      -278.8032
   9   2.0000     -10.245721      -278.8002
  10   2.0000     -10.245559      -278.7958
  11   2.0000     -10.245549      -278.7956
  12   2.0000     -10.210363      -277.8381
  13   2.0000     -10.210240      -277.8347
  14   2.0000      -0.990680       -26.9578
  15   2.0000      -0.984407       -26.7871
  16   2.0000      -0.919378       -25.0175
  17   2.0000      -0.915612       -24.9151
  18   2.0000      -0.854756       -23.2591
  19   2.0000      -0.774812       -21.0837
  20   2.0000      -0.763737       -20.7823
  21   2.0000      -0.704816       -19.1790
  22   2.0000      -0.675638       -18.3851
  23   2.0000      -0.647932       -17.6311
  24   2.0000      -0.620312       -16.8795
  25   2.0000      -0.602204       -16.3868
  26   2.0000      -0.557941       -15.1823
  27   2.0000      -0.543636       -14.7931
  28   2.0000      -0.515810       -14.0359
  29   2.0000      -0.501899       -13.6574
  30   2.0000      -0.491517       -13.3749
  31   2.0000      -0.458726       -12.4826
  32   2.0000      -0.454049       -12.3553
  33   2.0000      -0.441923       -12.0253
  34   2.0000      -0.438295       -11.9266
  35   2.0000      -0.435018       -11.8374
  36   2.0000      -0.410666       -11.1748
  37   2.0000      -0.396454       -10.7881
  38   2.0000      -0.367592       -10.0027
  39   2.0000      -0.349452        -9.5091
  40   2.0000      -0.348197        -9.4749
  41   2.0000      -0.319819        -8.7027
  42   2.0000      -0.318496        -8.6667
  43   2.0000      -0.276645        -7.5279
  44   2.0000      -0.258938        -7.0461
  45   2.0000      -0.258600        -7.0369
  46   2.0000      -0.247724        -6.7409
  47   0.0000      -0.111071        -3.0224
  48   0.0000      -0.053567        -1.4576
  49   0.0000      -0.050373        -1.3707
  50   0.0000       0.000767         0.0209
  51   0.0000       0.024721         0.6727

MULLIKEN ATOMIC CHARGES
-----------------------
   0 C :   -0.047784
   1 C :    0.042773
   2 C :    0.042731
   3 N :   -0.048394
   4 C :    0.033004
   5 C :    0.032997
   6 N :   -0.048335
   7 C :   -0.047799
   8 C :    0.042767
   9 C :    0.042742
  10 N :   -0.048389
  11 C :    0.032996
  12 C :    0.033003
  13 N :   -0.048344
  14 H :   -0.028852
  15 H :    0.010922
  16 H :    0.010944
  17 H :   -0.028848
  18 H :    0.010921
  19 H :    0.010945
Sum of atomic charges:   -0.0000000

LOEWDIN ATOMIC CHARGES
----------------------
   0 C :    0.000397
   1 C :   -0.009129
   2 C :   -0.009130
   3 N :   -0.045247
   4 C :    0.007545
   5 C :    0.007544
   6 N :   -0.045244
   7 C :    0.000394
   8 C :   -0.009129
   9 C :   -0.009129
  10 N :   -0.045244
  11 C :    0.007544
  12 C :    0.007544
  13 N :   -0.045248
  14 H :    0.042067
  15 H :    0.025598
  16 H :    0.025602
  17 H :    0.042067
  18 H :    0.025597
  19 H :    0.025602

  Mayer bond orders larger than 0.100000
B(  0-C ,  1-C ) :   1.2549 B(  0-C ,  7-C ) :   0.1574 B(  0-C ,  9-C ) :   1.2549
B(  0-C , 14-H ) :   1.0358 B(  1-C ,  2-C ) :   1.1672 B(  1-C ,  6-N ) :   1.3618
B(  2-C ,  3-N ) :   1.3617 B(  2-C ,  7-C ) :   1.2549 B(  3-N ,  4-C ) :   1.7038
B(  4-C ,  5-C ) :   1.1712 B(  4-C , 15-H ) :   0.9643 B(  5-C ,  6-N ) :   1.7038
B(  5-C , 16-H ) :   0.9643 B(  7-C ,  8-C ) :   1.2549 B(  7-C , 17-H ) :   1.0358
B(  8-C ,  9-C ) :   1.1672 B(  8-C , 13-N ) :   1.3618 B(  9-C , 10-N ) :   1.3617
B( 10-N , 11-C ) :   1.7038 B( 11-C , 12-C ) :   1.1712 B( 11-C , 18-H ) :   0.9643
B( 12-C , 13-N ) :   1.7038 B( 12-C , 19-H ) :   0.9643

Dispersion correction           -0.045704662
FINAL SINGLE POINT ENERGY      -603.277183951747

DIPOLE MOMENT
-------------
                                X             Y             Z
Electronic contribution:      0.00000      -0.00003      -0.00003
Nuclear contribution   :      0.00000       0.00000       0.00004
                        -----------------------------------------
Total Dipole Moment    :      0.00001      -0.00002       0.00000
                        -----------------------------------------
Magnitude (a.u.)       :      0.00002
Magnitude (Debye)      :      0.00006

Rotational constants in cm-1:     0.073197     0.015927     0.013081
Rotational constants in MHz :  2194.391309   477.473562   392.147019

                             ****ORCA TERMINATED NORMALLY****
TOTAL RUN TIME: 0 days 0 hours 7 minutes 35 seconds 553 msec
