                         Program Version 4.2.0 -  RELEASE  -
|  1> # ORCA input file
|  2> # SCF done        -32.618357596814          0.000708232150
|  3> ! B3LYP/G D3BJ Opt RIJCOSX def2-SVP def2/J
|  4> * xyz 0 1
|  5>    C        0.19289         1.13916         0.15121
|  6>    S       -1.10264         0.01514         0.18206
|  7>    C       -0.01121        -1.29170         0.05291
|  8>    C        1.29668        -0.89748        -0.01050
|  9>    C        2.37721        -1.91819        -0.11100
| 10>    O        2.13259        -3.09459        -0.07023
| 11>    O        3.62694        -1.47268        -0.24475
| 12>    C        1.40311         0.52654         0.05264
| 13>    S        2.90827         1.48288         0.01374
| 14>    C        3.15521         1.68801         1.75770
| 15>    C        4.20033         2.31994         2.25676
| 16>    H        0.00248         2.19254         0.20986
| 17>    H       -0.36490        -2.30333         0.03043
| 18>    H        3.68202        -0.49565        -0.25937
| 19>    H        2.36859         1.25701         2.35606
| 20>    H        4.96438         2.73956         1.62591
| 21>    H        4.32059         2.43682         3.31913
| 22> *
| 23>
| 24>                          ****END OF INPUT****
 Total Charge           Charge          ....    0
 Multiplicity           Mult            ....    1
 Number of Electrons    NEL             ....   96
Dispersion correction           -0.039293432
FINAL SINGLE POINT ENERGY     -1216.669082269857
Dispersion correction            ... done
Dispersion correction           -0.039135799
FINAL SINGLE POINT ENERGY     -1216.671706636667
Dispersion correction            ... done
Dispersion correction           -0.038820100
FINAL SINGLE POINT ENERGY     -1216.671672614313
Dispersion correction            ... done
FINAL SINGLE POINT ENERGY     -1216.672202117996
FINAL SINGLE POINT ENERGY     -1216.672267907165
FINAL SINGLE POINT ENERGY     -1216.672226351375
FINAL SINGLE POINT ENERGY     -1216.672254872506
FINAL SINGLE POINT ENERGY     -1216.672277958990
FINAL SINGLE POINT ENERGY     -1216.672315840135
Dispersion correction            ... done
Dispersion correction           -0.039135440
FINAL SINGLE POINT ENERGY     -1216.672310531456
Dispersion correction            ... done
Dispersion correction           -0.039140166
FINAL SINGLE POINT ENERGY     -1216.672315285123
Dispersion correction            ... done
                    ***********************HURRAY********************

CARTESIAN COORDINATES (ANGSTROEM)
---------------------------------
  C      0.239290    1.234449    0.088104
  S     -1.108064    0.155894    0.075208
  C     -0.076295   -1.218521    0.024044
  C      1.257588   -0.877851    0.010571
  C      2.283913   -1.973406   -0.027879
  O      1.966956   -3.135684    0.013262
  O      3.570339   -1.604275   -0.097674
  C      1.433438    0.555302    0.052572
  S      2.991343    1.427527   -0.013415
  C      3.464724    1.429474    1.705892
  C      4.006949    2.503610    2.281540
  H      0.095854    2.313046    0.121377
  H     -0.466303   -2.234379    0.001554
  H      3.659247   -0.633367   -0.209964
  H      3.343864    0.476154    2.230284
  H      4.118680    3.450462    1.746007
  H      4.371019    2.455544    3.311077

 Multiplicity           Mult            ....    1
 Number of Electrons    NEL             ....   96
 Basis Dimension        Dim             ....  192

ORBITAL ENERGIES
----------------

  NO   OCC          E(Eh)            E(eV)
   0   2.0000     -88.904947     -2419.2266
   1   2.0000     -88.884265     -2418.6638
   2   2.0000     -19.168280      -521.5954
   3   2.0000     -19.111317      -520.0454
   4   2.0000     -10.318116      -280.7702
   5   2.0000     -10.246214      -278.8136
   6   2.0000     -10.242744      -278.7192
   7   2.0000     -10.238699      -278.6092
   8   2.0000     -10.238469      -278.6029
   9   2.0000     -10.223865      -278.2055
  10   2.0000     -10.215253      -277.9712
  11   2.0000      -8.000107      -217.6940
  12   2.0000      -7.978084      -217.0947
  13   2.0000      -5.967986      -162.3971
  14   2.0000      -5.963856      -162.2848
  15   2.0000      -5.961914      -162.2319
  16   2.0000      -5.947058      -161.8277
  17   2.0000      -5.943342      -161.7265
  18   2.0000      -5.937381      -161.5644
  19   2.0000      -1.084189       -29.5023
  20   2.0000      -1.001404       -27.2496
  21   2.0000      -0.912452       -24.8291
  22   2.0000      -0.837657       -22.7938
  23   2.0000      -0.775530       -21.1032
  24   2.0000      -0.761039       -20.7089
  25   2.0000      -0.707246       -19.2452
  26   2.0000      -0.628353       -17.0984
  27   2.0000      -0.596108       -16.2209
  28   2.0000      -0.591284       -16.0896
  29   2.0000      -0.583422       -15.8757
  30   2.0000      -0.533686       -14.5223
  31   2.0000      -0.485897       -13.2219
  32   2.0000      -0.467241       -12.7143
  33   2.0000      -0.460075       -12.5193
  34   2.0000      -0.447140       -12.1673
  35   2.0000      -0.435647       -11.8546
  36   2.0000      -0.430227       -11.7071
  37   2.0000      -0.417595       -11.3633
  38   2.0000      -0.407508       -11.0888
  39   2.0000      -0.390866       -10.6360
  40   2.0000      -0.366762        -9.9801
  41   2.0000      -0.364563        -9.9203
  42   2.0000      -0.323551        -8.8043
  43   2.0000      -0.314497        -8.5579
  44   2.0000      -0.282109        -7.6766
  45   2.0000      -0.276485        -7.5235
  46   2.0000      -0.267548        -7.2804
  47   2.0000      -0.259886        -7.0719
  48   0.0000      -0.056548        -1.5387
  49   0.0000      -0.032738        -0.8908
  50   0.0000      -0.025949        -0.7061
  51   0.0000       0.022301         0.6068
  52   0.0000       0.037213         1.0126

MULLIKEN ATOMIC CHARGES
-----------------------
   0 C :   -0.075655
   1 S :    0.143266
   2 C :   -0.091074
   3 C :   -0.025387
   4 C :    0.178605
   5 O :   -0.195681
   6 O :   -0.164714
   7 C :   -0.065628
   8 S :   -0.004323
   9 C :   -0.094153
  10 C :    0.010324
  11 H :    0.035765
  12 H :    0.051772
  13 H :    0.159889
  14 H :    0.056043
  15 H :    0.034900
  16 H :    0.046048
Sum of atomic charges:   -0.0000000

LOEWDIN ATOMIC CHARGES
----------------------
   0 C :   -0.187375
   1 S :    0.473236
   2 C :   -0.143318
   3 C :   -0.131552
   4 C :    0.074405
   5 O :   -0.170864
   6 O :   -0.036087
   7 C :   -0.207508
   8 S :    0.344634
   9 C :   -0.155806
  10 C :   -0.053705
  11 H :    0.031577
  12 H :    0.039975
  13 H :    0.029630
  14 H :    0.027536
  15 H :    0.028699
  16 H :    0.036522

  Mayer bond orders larger than 0.100000
B(  0-C ,  1-S ) :   1.1847 B(  0-C ,  7-C ) :   1.5661 B(  0-C , 11-H ) :   0.9642
B(  1-S ,  2-C ) :   1.1938 B(  2-C ,  3-C ) :   1.5569 B(  2-C , 12-H ) :   0.9560
B(  3-C ,  4-C ) :   0.9109 B(  3-C ,  7-C ) :   1.2134 B(  4-C ,  5-O ) :   2.1496
B(  4-C ,  6-O ) :   1.2557 B(  6-O , 13-H ) :   0.9061 B(  7-C ,  8-S ) :   0.9826
B(  8-S ,  9-C ) :   0.9862 B(  8-S , 13-H ) :   0.1295 B(  9-C , 10-C ) :   1.9916
B(  9-C , 14-H ) :   0.9398 B( 10-C , 15-H ) :   0.9549 B( 10-C , 16-H ) :   0.9527

Dispersion correction           -0.039138063
FINAL SINGLE POINT ENERGY     -1216.672312627147

DIPOLE MOMENT
-------------
                                X             Y             Z
Electronic contribution:     -5.30338      -3.50488      -4.57572
Nuclear contribution   :      4.72203       5.33143       5.02143
                        -----------------------------------------
Total Dipole Moment    :     -0.58135       1.82656       0.44570
                        -----------------------------------------
Magnitude (a.u.)       :      1.96798
Magnitude (Debye)      :      5.00220

Rotational constants in cm-1:     0.034742     0.023368     0.015381
Rotational constants in MHz :  1041.545455   700.543480   461.099108

                             ****ORCA TERMINATED NORMALLY****
TOTAL RUN TIME: 0 days 0 hours 11 minutes 58 seconds 376 msec
