                         Program Version 4.2.0 -  RELEASE  -
|  1> # ORCA input file
|  2> # SCF done        -31.850166270968          0.000521733257
|  3> ! B3LYP/G D3BJ Opt RIJCOSX def2-SVP def2/J
|  4> * xyz 0 1
|  5>    C       -1.37302        -1.34694         0.15006
|  6>    S       -2.66093        -0.23363         0.28936
|  7>    C       -1.60582         1.10912         0.20689
|  8>    C       -0.29379         0.72027         0.07669
|  9>    C       -0.15742        -0.71066         0.04389
| 10>    C        1.13189        -1.27060        -0.08651
| 11>    C        2.24317        -0.47119        -0.14967
| 12>    C        3.54271        -1.14567        -0.23088
| 13>    C        4.64295        -0.82394         0.43429
| 14>    C        2.10383         0.95834        -0.14966
| 15>    C        3.29650         1.85304        -0.31407
| 16>    C        0.86633         1.52130        -0.04230
| 17>    H       -1.57421        -2.39930         0.15686
| 18>    H       -2.00368         2.10259         0.25844
| 19>    H        1.23331        -2.34646        -0.10957
| 20>    H        3.54733        -2.03087        -0.85644
| 21>    H        4.68613         0.00773         1.11558
| 22>    H        5.54450        -1.40581         0.33920
| 23>    H        4.05495         1.38556        -0.93672
| 24>    H        3.74310         2.08027         0.65361
| 25>    H        2.99656         2.79509        -0.76803
| 26>    H        0.75238         2.59602        -0.05439
| 27> *
| 28>
| 29>                          ****END OF INPUT****
 Total Charge           Charge          ....    0
 Multiplicity           Mult            ....    1
 Number of Electrons    NEL             ....   92
Dispersion correction           -0.048437145
FINAL SINGLE POINT ENERGY      -822.980838626134
Dispersion correction            ... done
Dispersion correction           -0.048096553
FINAL SINGLE POINT ENERGY      -822.984805706994
Dispersion correction            ... done
Dispersion correction           -0.048060180
FINAL SINGLE POINT ENERGY      -822.985214586400
Dispersion correction            ... done
FINAL SINGLE POINT ENERGY      -822.985623121439
FINAL SINGLE POINT ENERGY      -822.985972737897
FINAL SINGLE POINT ENERGY      -822.986299052148
FINAL SINGLE POINT ENERGY      -822.986532385231
FINAL SINGLE POINT ENERGY      -822.986642478054
FINAL SINGLE POINT ENERGY      -822.986738008145
FINAL SINGLE POINT ENERGY      -822.986772530805
Dispersion correction            ... done
Dispersion correction           -0.047926860
FINAL SINGLE POINT ENERGY      -822.986799163383
Dispersion correction            ... done
Dispersion correction           -0.047928816
FINAL SINGLE POINT ENERGY      -822.986803720468
Dispersion correction            ... done
                    ***********************HURRAY********************

CARTESIAN COORDINATES (ANGSTROEM)
---------------------------------
  C     -1.426536   -1.367232    0.068323
  S     -2.721671   -0.245221    0.054065
  C     -1.674799    1.116321    0.006842
  C     -0.341124    0.725281    0.001167
  C     -0.196171   -0.716153    0.038413
  C      1.112806   -1.271443    0.042098
  C      2.247881   -0.477989    0.010880
  C      3.525735   -1.207155    0.027354
  C      4.807455   -0.800466    0.016533
  C      2.097320    0.975489   -0.032973
  C      3.285656    1.900046   -0.076784
  C      0.838961    1.528716   -0.035680
  H     -1.620677   -2.437759    0.101121
  H     -2.079610    2.126101   -0.016322
  H      1.221453   -2.358663    0.073791
  H      3.377513   -2.293541    0.057883
  H      5.130192    0.237207   -0.012626
  H      5.603365   -1.549039    0.038304
  H      3.918019    1.711233   -0.959232
  H      3.926582    1.785370    0.812430
  H      2.951330    2.946726   -0.119054
  H      0.733088    2.616431   -0.069902

 Multiplicity           Mult            ....    1
 Number of Electrons    NEL             ....   92
 Basis Dimension        Dim             ....  222

ORBITAL ENERGIES
----------------

  NO   OCC          E(Eh)            E(eV)
   0   2.0000     -88.885286     -2418.6916
   1   2.0000     -10.212980      -277.9093
   2   2.0000     -10.211144      -277.8593
   3   2.0000     -10.200263      -277.5633
   4   2.0000     -10.200112      -277.5592
   5   2.0000     -10.197998      -277.5016
   6   2.0000     -10.197658      -277.4924
   7   2.0000     -10.195307      -277.4284
   8   2.0000     -10.194301      -277.4010
   9   2.0000     -10.189569      -277.2723
  10   2.0000     -10.187758      -277.2230
  11   2.0000     -10.184011      -277.1210
  12   2.0000      -7.979866      -217.1432
  13   2.0000      -5.947575      -161.8417
  14   2.0000      -5.943428      -161.7289
  15   2.0000      -5.942268      -161.6973
  16   2.0000      -0.890548       -24.2330
  17   2.0000      -0.838721       -22.8227
  18   2.0000      -0.776940       -21.1416
  19   2.0000      -0.764503       -20.8032
  20   2.0000      -0.734624       -19.9901
  21   2.0000      -0.704531       -19.1713
  22   2.0000      -0.669520       -18.2186
  23   2.0000      -0.613801       -16.7024
  24   2.0000      -0.592520       -16.1233
  25   2.0000      -0.566674       -15.4200
  26   2.0000      -0.543967       -14.8021
  27   2.0000      -0.504838       -13.7373
  28   2.0000      -0.482649       -13.1336
  29   2.0000      -0.464763       -12.6469
  30   2.0000      -0.434098       -11.8124
  31   2.0000      -0.429020       -11.6742
  32   2.0000      -0.424473       -11.5505
  33   2.0000      -0.416993       -11.3470
  34   2.0000      -0.409789       -11.1509
  35   2.0000      -0.398454       -10.8425
  36   2.0000      -0.390321       -10.6212
  37   2.0000      -0.372797       -10.1443
  38   2.0000      -0.353829        -9.6282
  39   2.0000      -0.344018        -9.3612
  40   2.0000      -0.342113        -9.3094
  41   2.0000      -0.334250        -9.0954
  42   2.0000      -0.297025        -8.0825
  43   2.0000      -0.275482        -7.4962
  44   2.0000      -0.234198        -6.3728
  45   2.0000      -0.201071        -5.4714
  46   0.0000      -0.062826        -1.7096
  47   0.0000      -0.015123        -0.4115
  48   0.0000       0.025674         0.6986
  49   0.0000       0.049914         1.3582
  50   0.0000       0.060726         1.6524

MULLIKEN ATOMIC CHARGES
-----------------------
   0 C :   -0.143041
   1 S :    0.133477
   2 C :   -0.144831
   3 C :    0.110624
   4 C :    0.119028
   5 C :   -0.087215
   6 C :    0.096638
   7 C :   -0.018285
   8 C :   -0.043278
   9 C :   -0.064029
  10 C :    0.077796
  11 C :   -0.064035
  12 H :    0.017053
  13 H :    0.014925
  14 H :   -0.036624
  15 H :   -0.015605
  16 H :    0.004885
  17 H :    0.017674
  18 H :    0.033907
  19 H :    0.035228
  20 H :   -0.001505
  21 H :   -0.042789
Sum of atomic charges:   -0.0000000

LOEWDIN ATOMIC CHARGES
----------------------
   0 C :   -0.210560
   1 S :    0.479514
   2 C :   -0.213003
   3 C :   -0.049916
   4 C :   -0.055024
   5 C :   -0.010533
   6 C :   -0.028855
   7 C :   -0.021645
   8 C :   -0.061670
   9 C :   -0.016557
  10 C :   -0.043885
  11 C :   -0.030384
  12 H :    0.024497
  13 H :    0.023694
  14 H :    0.025537
  15 H :    0.028680
  16 H :    0.017523
  17 H :    0.025063
  18 H :    0.033238
  19 H :    0.033287
  20 H :    0.026673
  21 H :    0.024324

  Mayer bond orders larger than 0.100000
B(  0-C ,  1-S ) :   1.2070 B(  0-C ,  2-C ) :   0.1166 B(  0-C ,  4-C ) :   1.3870
B(  0-C , 12-H ) :   0.9645 B(  1-S ,  2-C ) :   1.1943 B(  2-C ,  3-C ) :   1.4058
B(  2-C , 13-H ) :   0.9651 B(  3-C ,  4-C ) :   1.1991 B(  3-C , 11-C ) :   1.1542
B(  4-C ,  5-C ) :   1.1650 B(  5-C ,  6-C ) :   1.4624 B(  5-C , 14-H ) :   0.9979
B(  6-C ,  7-C ) :   1.1109 B(  6-C ,  9-C ) :   1.1540 B(  7-C ,  8-C ) :   1.8992
B(  7-C , 15-H ) :   0.9525 B(  8-C , 16-H ) :   0.9511 B(  8-C , 17-H ) :   0.9364
B(  9-C , 10-C ) :   1.0933 B(  9-C , 11-C ) :   1.5724 B( 10-C , 18-H ) :   0.9404
B( 10-C , 19-H ) :   0.9414 B( 10-C , 20-H ) :   0.9459 B( 11-C , 21-H ) :   0.9882

Dispersion correction           -0.047929429
FINAL SINGLE POINT ENERGY      -822.986804723201

DIPOLE MOMENT
-------------
                                X             Y             Z
Electronic contribution:    -16.08599      -2.54923       0.21967
Nuclear contribution   :     16.03455       2.62903      -0.22001
                        -----------------------------------------
Total Dipole Moment    :     -0.05144       0.07980      -0.00034
                        -----------------------------------------
Magnitude (a.u.)       :      0.09494
Magnitude (Debye)      :      0.24132

Rotational constants in cm-1:     0.073504     0.016132     0.013262
Rotational constants in MHz :  2203.608657   483.634496   397.586255

                             ****ORCA TERMINATED NORMALLY****
TOTAL RUN TIME: 0 days 0 hours 19 minutes 23 seconds 911 msec
