                         Program Version 4.2.0 -  RELEASE  -
|  1> # ORCA input file
|  2> # SCF done        -41.138813122684          0.000509069272
|  3> ! B3LYP/G D3BJ Opt RIJCOSX def2-SVP def2/J
|  4> * xyz 0 1
|  5>    C        0.41827         1.05025        -0.26541
|  6>    S       -1.03403         0.14270        -0.43824
|  7>    C       -0.24271        -1.31863         0.02535
|  8>    C        1.10858        -1.08431         0.30208
|  9>    C        1.46141         0.28679         0.12655
| 10>    C        2.02135        -2.12328         0.71507
| 11>    O        1.78226        -3.29836         0.87045
| 12>    C        3.48146        -1.64399         0.98506
| 13>    F        4.05060        -1.10566        -0.10858
| 14>    F        3.54176        -0.70955         1.95089
| 15>    F        4.25630        -2.65364         1.37109
| 16>    C       -0.94956        -2.56559         0.09420
| 17>    C       -2.24297        -2.70668        -0.19394
| 18>    H        0.40773         2.10270        -0.46707
| 19>    H        2.44457         0.68878         0.28309
| 20>    H       -0.35522        -3.41406         0.40084
| 21>    H       -2.85032        -1.87150        -0.50549
| 22>    H       -2.72894        -3.66369        -0.12985
| 23> *
| 24>
| 25>                          ****END OF INPUT****
 Total Charge           Charge          ....    0
 Multiplicity           Mult            ....    1
 Number of Electrons    NEL             ....  104
Dispersion correction           -0.037846144
FINAL SINGLE POINT ENERGY     -1080.190075741958
Dispersion correction            ... done
Dispersion correction           -0.037547823
FINAL SINGLE POINT ENERGY     -1080.192916006823
Dispersion correction            ... done
Dispersion correction           -0.037476482
FINAL SINGLE POINT ENERGY     -1080.192959216877
Dispersion correction            ... done
FINAL SINGLE POINT ENERGY     -1080.193107351414
FINAL SINGLE POINT ENERGY     -1080.193115405455
Dispersion correction            ... done
Dispersion correction           -0.037486044
FINAL SINGLE POINT ENERGY     -1080.193119312372
Dispersion correction            ... done
Dispersion correction           -0.037482197
FINAL SINGLE POINT ENERGY     -1080.193120101596
Dispersion correction            ... done
                    ***********************HURRAY********************

CARTESIAN COORDINATES (ANGSTROEM)
---------------------------------
  C      0.413952    1.102519   -0.277302
  S     -1.045254    0.183718   -0.432522
  C     -0.246850   -1.296006    0.010631
  C      1.111607   -1.057558    0.273183
  C      1.469868    0.324636    0.098091
  C      2.049637   -2.113388    0.687220
  O      1.789795   -3.291085    0.810749
  C      3.509145   -1.672775    1.012256
  F      4.099065   -1.109481   -0.059865
  F      3.520606   -0.767536    2.007467
  F      4.237626   -2.713490    1.388700
  C     -0.964207   -2.558544    0.091229
  C     -2.267235   -2.744840   -0.177578
  H      0.408871    2.170542   -0.487111
  H      2.471587    0.721437    0.247119
  H     -0.343709   -3.398932    0.402721
  H     -2.926446   -1.931379   -0.495397
  H     -2.717516   -3.735559   -0.083502

 Multiplicity           Mult            ....    1
 Number of Electrons    NEL             ....  104
 Basis Dimension        Dim             ....  211

ORBITAL ENERGIES
----------------

  NO   OCC          E(Eh)            E(eV)
   0   2.0000     -88.898769     -2419.0585
   1   2.0000     -24.730297      -672.9456
   2   2.0000     -24.730078      -672.9396
   3   2.0000     -24.727888      -672.8800
   4   2.0000     -19.154434      -521.2187
   5   2.0000     -10.438219      -284.0384
   6   2.0000     -10.306027      -280.4412
   7   2.0000     -10.252015      -278.9715
   8   2.0000     -10.235086      -278.5109
   9   2.0000     -10.224932      -278.2345
  10   2.0000     -10.218486      -278.0591
  11   2.0000     -10.213445      -277.9220
  12   2.0000     -10.209997      -277.8281
  13   2.0000      -7.993991      -217.5275
  14   2.0000      -5.961953      -162.2330
  15   2.0000      -5.957794      -162.1198
  16   2.0000      -5.955612      -162.0604
  17   2.0000      -1.309911       -35.6445
  18   2.0000      -1.218587       -33.1594
  19   2.0000      -1.216414       -33.1003
  20   2.0000      -1.062619       -28.9153
  21   2.0000      -0.907170       -24.6854
  22   2.0000      -0.802474       -21.8364
  23   2.0000      -0.785096       -21.3635
  24   2.0000      -0.732242       -19.9253
  25   2.0000      -0.727777       -19.8038
  26   2.0000      -0.655719       -17.8430
  27   2.0000      -0.618473       -16.8295
  28   2.0000      -0.606684       -16.5087
  29   2.0000      -0.603671       -16.4267
  30   2.0000      -0.597821       -16.2675
  31   2.0000      -0.556817       -15.1518
  32   2.0000      -0.532020       -14.4770
  33   2.0000      -0.491326       -13.3697
  34   2.0000      -0.481936       -13.1142
  35   2.0000      -0.479813       -13.0564
  36   2.0000      -0.470045       -12.7906
  37   2.0000      -0.453759       -12.3474
  38   2.0000      -0.450171       -12.2498
  39   2.0000      -0.442325       -12.0363
  40   2.0000      -0.437026       -11.8921
  41   2.0000      -0.427970       -11.6456
  42   2.0000      -0.427493       -11.6327
  43   2.0000      -0.419643       -11.4191
  44   2.0000      -0.398025       -10.8308
  45   2.0000      -0.397300       -10.8111
  46   2.0000      -0.385843       -10.4993
  47   2.0000      -0.365859        -9.9555
  48   2.0000      -0.323874        -8.8131
  49   2.0000      -0.283433        -7.7126
  50   2.0000      -0.282365        -7.6835
  51   2.0000      -0.243782        -6.6336
  52   0.0000      -0.098335        -2.6758
  53   0.0000      -0.035400        -0.9633
  54   0.0000       0.017186         0.4677
  55   0.0000       0.019342         0.5263
  56   0.0000       0.068008         1.8506

MULLIKEN ATOMIC CHARGES
-----------------------
   0 C :   -0.065538
   1 S :    0.130135
   2 C :   -0.137191
   3 C :   -0.000170
   4 C :    0.058673
   5 C :    0.025606
   6 O :   -0.170141
   7 C :    0.509140
   8 F :   -0.179146
   9 F :   -0.176517
  10 F :   -0.135893
  11 C :    0.014725
  12 C :   -0.018675
  13 H :    0.039025
  14 H :    0.012582
  15 H :    0.027726
  16 H :    0.028738
  17 H :    0.036921
Sum of atomic charges:   -0.0000000

LOEWDIN ATOMIC CHARGES
----------------------
   0 C :   -0.177346
   1 S :    0.461007
   2 C :   -0.129280
   3 C :   -0.110955
   4 C :   -0.046565
   5 C :    0.036966
   6 O :   -0.115761
   7 C :    0.144675
   8 F :   -0.064078
   9 F :   -0.062383
  10 F :   -0.029862
  11 C :   -0.039773
  12 C :   -0.025202
  13 H :    0.031628
  14 H :    0.032850
  15 H :    0.040601
  16 H :    0.020143
  17 H :    0.033334

  Mayer bond orders larger than 0.100000
B(  0-C ,  1-S ) :   1.1439 B(  0-C ,  4-C ) :   1.5852 B(  0-C , 13-H ) :   0.9597
B(  1-S ,  2-C ) :   1.1706 B(  2-C ,  3-C ) :   1.4300 B(  2-C , 11-C ) :   1.1620
B(  3-C ,  4-C ) :   1.2306 B(  3-C ,  5-C ) :   0.9982 B(  4-C , 14-H ) :   0.9656
B(  5-C ,  6-O ) :   2.0989 B(  5-C ,  7-C ) :   0.8795 B(  7-C ,  8-F ) :   1.1019
B(  7-C ,  9-F ) :   1.1135 B(  7-C , 10-F ) :   1.1831 B( 11-C , 12-C ) :   1.8754
B( 11-C , 15-H ) :   0.9370 B( 12-C , 16-H ) :   0.9502 B( 12-C , 17-H ) :   0.9455

Dispersion correction           -0.037481487
FINAL SINGLE POINT ENERGY     -1080.193119647738

DIPOLE MOMENT
-------------
                                X             Y             Z
Electronic contribution:     15.49696       0.09883       3.83947
Nuclear contribution   :    -16.40458       0.80399      -4.21807
                        -----------------------------------------
Total Dipole Moment    :     -0.90762       0.90282      -0.37859
                        -----------------------------------------
Magnitude (a.u.)       :      1.33499
Magnitude (Debye)      :      3.39327

Rotational constants in cm-1:     0.042874     0.015698     0.012242
Rotational constants in MHz :  1285.342018   470.602553   366.999914

                             ****ORCA TERMINATED NORMALLY****
TOTAL RUN TIME: 0 days 0 hours 9 minutes 1 seconds 851 msec
