                         Program Version 4.2.0 -  RELEASE  -
|  1> # ORCA input file
|  2> # SCF done        -19.316691822201          0.000111771489
|  3> ! B3LYP/G D3BJ Opt RIJCOSX def2-SVP def2/J
|  4> * xyz 0 1
|  5>    C        0.24041         1.20295        -0.03424
|  6>    C        0.94919         0.00149        -0.05232
|  7>    N        2.32656        -0.00048        -0.16066
|  8>    C        0.23716        -1.19801        -0.03193
|  9>    C       -1.14319        -1.19147         0.00212
| 10>    C       -1.84013         0.00533         0.01882
| 11>    C       -1.13995         1.20020        -0.00018
| 12>    H        0.78418         2.13734        -0.04859
| 13>    H        2.79637         0.84591         0.11726
| 14>    H        2.79408        -0.84759         0.11888
| 15>    H        0.77840        -2.13390        -0.04452
| 16>    H       -1.67966        -2.12929         0.01917
| 17>    H       -2.91921         0.00682         0.04865
| 18>    H       -1.67388         2.13951         0.01510
| 19> *
| 20>
| 21>                          ****END OF INPUT****
 Total Charge           Charge          ....    0
 Multiplicity           Mult            ....    1
 Number of Electrons    NEL             ....   50
Dispersion correction           -0.022937696
FINAL SINGLE POINT ENERGY      -287.423261558588
Dispersion correction            ... done
Dispersion correction           -0.022797495
FINAL SINGLE POINT ENERGY      -287.425014744702
Dispersion correction            ... done
Dispersion correction           -0.022781714
FINAL SINGLE POINT ENERGY      -287.425061086306
Dispersion correction            ... done
FINAL SINGLE POINT ENERGY      -287.425070251909
FINAL SINGLE POINT ENERGY      -287.425070158439
Dispersion correction            ... done
Dispersion correction           -0.022782476
FINAL SINGLE POINT ENERGY      -287.425067313622
Dispersion correction            ... done
Dispersion correction           -0.022784134
FINAL SINGLE POINT ENERGY      -287.425064991318
Dispersion correction            ... done
                    ***********************HURRAY********************

CARTESIAN COORDINATES (ANGSTROEM)
---------------------------------
  C      0.244101    1.212318   -0.041190
  C      0.963562    0.001461   -0.069182
  N      2.348336   -0.000554   -0.176235
  C      0.240832   -1.207398   -0.038950
  C     -1.152446   -1.199520    0.003844
  C     -1.861150    0.005356    0.021785
  C     -1.149194    1.208278    0.001608
  H      0.790224    2.159896   -0.059794
  H      2.816958    0.841271    0.138674
  H      2.814618   -0.842984    0.140540
  H      0.784420   -2.156470   -0.055683
  H     -1.691495   -2.150207    0.025483
  H     -2.952713    0.006924    0.055280
  H     -1.685724    2.160440    0.021378

 Multiplicity           Mult            ....    1
 Number of Electrons    NEL             ....   50
 Basis Dimension        Dim             ....  133

ORBITAL ENERGIES
----------------

  NO   OCC          E(Eh)            E(eV)
   0   2.0000     -14.333339      -390.0300
   1   2.0000     -10.223797      -278.2037
   2   2.0000     -10.183411      -277.1047
   3   2.0000     -10.183398      -277.1043
   4   2.0000     -10.178250      -276.9643
   5   2.0000     -10.178240      -276.9640
   6   2.0000     -10.173195      -276.8267
   7   2.0000      -0.908607       -24.7245
   8   2.0000      -0.822999       -22.3949
   9   2.0000      -0.730418       -19.8757
  10   2.0000      -0.712053       -19.3760
  11   2.0000      -0.602454       -16.3936
  12   2.0000      -0.589095       -16.0301
  13   2.0000      -0.519955       -14.1487
  14   2.0000      -0.505967       -13.7681
  15   2.0000      -0.471354       -12.8262
  16   2.0000      -0.426925       -11.6172
  17   2.0000      -0.424932       -11.5630
  18   2.0000      -0.413155       -11.2425
  19   2.0000      -0.380986       -10.3672
  20   2.0000      -0.354390        -9.6434
  21   2.0000      -0.337473        -9.1831
  22   2.0000      -0.309422        -8.4198
  23   2.0000      -0.248428        -6.7601
  24   2.0000      -0.203338        -5.5331
  25   0.0000      -0.001142        -0.0311
  26   0.0000       0.014553         0.3960
  27   0.0000       0.054292         1.4774
  28   0.0000       0.072758         1.9798
  29   0.0000       0.086568         2.3556

MULLIKEN ATOMIC CHARGES
-----------------------
   0 C :   -0.025770
   1 C :    0.055303
   2 N :   -0.085179
   3 C :   -0.025840
   4 C :    0.018958
   5 C :   -0.000633
   6 C :    0.018857
   7 H :   -0.047482
   8 H :    0.105033
   9 H :    0.105032
  10 H :   -0.047492
  11 H :   -0.024601
  12 H :   -0.021550
  13 H :   -0.024636
Sum of atomic charges:   -0.0000000

LOEWDIN ATOMIC CHARGES
----------------------
   0 C :   -0.069521
   1 C :    0.022718
   2 N :   -0.035915
   3 C :   -0.069527
   4 C :   -0.016155
   5 C :   -0.064306
   6 C :   -0.016160
   7 H :    0.019075
   8 H :    0.068993
   9 H :    0.068995
  10 H :    0.019073
  11 H :    0.024844
  12 H :    0.023049
  13 H :    0.024836

  Mayer bond orders larger than 0.100000
B(  0-C ,  1-C ) :   1.3321 B(  0-C ,  6-C ) :   1.4018 B(  0-C ,  7-H ) :   0.9860
B(  1-C ,  2-N ) :   1.2035 B(  1-C ,  3-C ) :   1.3322 B(  2-N ,  8-H ) :   0.9524
B(  2-N ,  9-H ) :   0.9524 B(  3-C ,  4-C ) :   1.4017 B(  3-C , 10-H ) :   0.9860
B(  4-C ,  5-C ) :   1.3711 B(  4-C , 11-H ) :   0.9810 B(  5-C ,  6-C ) :   1.3712
B(  5-C , 12-H ) :   0.9899 B(  6-C , 13-H ) :   0.9810

Dispersion correction           -0.022784532
FINAL SINGLE POINT ENERGY      -287.425063906227

DIPOLE MOMENT
-------------
                                X             Y             Z
Electronic contribution:     -0.10728      -0.00002      -0.16343
Nuclear contribution   :      0.75211      -0.00047       0.50727
                        -----------------------------------------
Total Dipole Moment    :      0.64484      -0.00049       0.34383
                        -----------------------------------------
Magnitude (a.u.)       :      0.73078
Magnitude (Debye)      :      1.85749

Rotational constants in cm-1:     0.186554     0.086261     0.059069
Rotational constants in MHz :  5592.745808  2586.039946  1770.829884

                             ****ORCA TERMINATED NORMALLY****
TOTAL RUN TIME: 0 days 0 hours 3 minutes 22 seconds 650 msec
