                         Program Version 4.2.0 -  RELEASE  -
|  1> # ORCA input file
|  2> # SCF done        -33.462909131008          0.000373140548
|  3> ! B3LYP/G D3BJ Opt RIJCOSX def2-SVP def2/J
|  4> * xyz 0 2
|  5>    C        1.51959         1.07384         0.22485
|  6>    C        1.71591        -0.28822         0.19076
|  7>    O        2.97038        -0.81953         0.14544
|  8>    C        3.06193        -2.19207         0.45641
|  9>    C        2.10715        -3.04539        -0.36383
| 10>    S        0.39186        -2.75487         0.18991
| 11>    C        0.49421        -1.00558         0.22573
| 12>    C       -0.60478        -0.17592         0.29675
| 13>    S       -0.14835         1.47840         0.27518
| 14>    N       -0.47627         1.88414        -1.55647
| 15>    C       -0.06208         3.21495        -1.91584
| 16>    H        2.28063         1.82258         0.28148
| 17>    H        2.86908        -2.35219         1.52730
| 18>    H        4.09855        -2.46219         0.23661
| 19>    H        2.30464        -4.10477        -0.21711
| 20>    H        2.17674        -2.79359        -1.42263
| 21>    H       -1.62364        -0.47117         0.43329
| 22>    H       -1.48042         1.77606        -1.67155
| 23>    H        1.00873         3.29937        -1.73030
| 24>    H       -0.58150         4.01122        -1.36572
| 25>    H       -0.24038         3.36219        -2.98285
| 26> *
| 27>
| 28>                          ****END OF INPUT****
 Total Charge           Charge          ....    0
 Multiplicity           Mult            ....    2
 Number of Electrons    NEL             ....   99
 Basis Dimension        Dim             ....  212

ORBITAL ENERGIES
----------------
                 SPIN UP ORBITALS
  NO   OCC          E(Eh)            E(eV)
   0   1.0000     -88.922926     -2419.7158
   1   1.0000     -88.847663     -2417.6678
   2   1.0000     -19.166929      -521.5587
   3   1.0000     -14.310774      -389.4159
   4   1.0000     -10.252244      -278.9777
   5   1.0000     -10.245480      -278.7937
   6   1.0000     -10.224020      -278.2097
   7   1.0000     -10.209475      -277.8139
   8   1.0000     -10.203692      -277.6566
   9   1.0000     -10.189881      -277.2808
  10   1.0000     -10.183379      -277.1038
  11   1.0000      -8.010243      -217.9698
  12   1.0000      -7.942844      -216.1358
  13   1.0000      -5.977570      -162.6580
  14   1.0000      -5.976663      -162.6333
  15   1.0000      -5.971580      -162.4950
  16   1.0000      -5.911895      -160.8709
  17   1.0000      -5.908348      -160.7743
  18   1.0000      -5.901748      -160.5947
  19   1.0000      -1.065647       -28.9977
  20   1.0000      -0.909709       -24.7544
  21   1.0000      -0.857862       -23.3436
  22   1.0000      -0.819989       -22.3130
  23   1.0000      -0.765252       -20.8236
  24   1.0000      -0.715446       -19.4683
  25   1.0000      -0.681495       -18.5444
  26   1.0000      -0.643665       -17.5150
  27   1.0000      -0.628806       -17.1107
  28   1.0000      -0.579725       -15.7751
  29   1.0000      -0.544798       -14.8247
  30   1.0000      -0.512128       -13.9357
  31   1.0000      -0.490634       -13.3508
  32   1.0000      -0.480639       -13.0789
  33   1.0000      -0.466912       -12.7053
  34   1.0000      -0.451891       -12.2966
  35   1.0000      -0.437997       -11.9185
  36   1.0000      -0.424615       -11.5544
  37   1.0000      -0.420803       -11.4506
  38   1.0000      -0.403269       -10.9735
  39   1.0000      -0.397596       -10.8191
  40   1.0000      -0.381670       -10.3858
  41   1.0000      -0.372769       -10.1436
  42   1.0000      -0.361079        -9.8255
  43   1.0000      -0.348635        -9.4868
  44   1.0000      -0.322216        -8.7679
  45   1.0000      -0.300936        -8.1889
  46   1.0000      -0.246683        -6.7126
  47   1.0000      -0.231594        -6.3020
  48   1.0000      -0.212568        -5.7843
  49   1.0000      -0.139385        -3.7929
  50   0.0000       0.023728         0.6457
  51   0.0000       0.026296         0.7156
  52   0.0000       0.038622         1.0510
  53   0.0000       0.057385         1.5615
  54   0.0000       0.068168         1.8550

                 SPIN DOWN ORBITALS
  NO   OCC          E(Eh)            E(eV)
   0   1.0000     -88.922462     -2419.7032
   1   1.0000     -88.847444     -2417.6619
   2   1.0000     -19.165998      -521.5333
   3   1.0000     -14.302197      -389.1826
   4   1.0000     -10.252243      -278.9777
   5   1.0000     -10.243198      -278.7316
   6   1.0000     -10.224008      -278.2094
   7   1.0000     -10.206744      -277.7396
   8   1.0000     -10.203798      -277.6595
   9   1.0000     -10.188297      -277.2377
  10   1.0000     -10.182429      -277.0780
  11   1.0000      -8.009656      -217.9538
  12   1.0000      -7.942633      -216.1300
  13   1.0000      -5.976338      -162.6244
  14   1.0000      -5.976263      -162.6224
  15   1.0000      -5.971352      -162.4888
  16   1.0000      -5.911816      -160.8687
  17   1.0000      -5.908272      -160.7723
  18   1.0000      -5.900950      -160.5730
  19   1.0000      -1.063480       -28.9388
  20   1.0000      -0.900499       -24.5038
  21   1.0000      -0.847404       -23.0590
  22   1.0000      -0.818290       -22.2668
  23   1.0000      -0.760412       -20.6918
  24   1.0000      -0.712260       -19.3816
  25   1.0000      -0.678268       -18.4566
  26   1.0000      -0.637692       -17.3525
  27   1.0000      -0.626278       -17.0419
  28   1.0000      -0.575395       -15.6573
  29   1.0000      -0.543188       -14.7809
  30   1.0000      -0.508625       -13.8404
  31   1.0000      -0.486752       -13.2452
  32   1.0000      -0.478125       -13.0104
  33   1.0000      -0.461895       -12.5688
  34   1.0000      -0.445057       -12.1106
  35   1.0000      -0.432695       -11.7742
  36   1.0000      -0.422704       -11.5024
  37   1.0000      -0.417061       -11.3488
  38   1.0000      -0.400686       -10.9032
  39   1.0000      -0.392433       -10.6786
  40   1.0000      -0.378383       -10.2963
  41   1.0000      -0.370335       -10.0773
  42   1.0000      -0.356654        -9.7051
  43   1.0000      -0.342001        -9.3063
  44   1.0000      -0.318021        -8.6538
  45   1.0000      -0.293464        -7.9856
  46   1.0000      -0.236772        -6.4429
  47   1.0000      -0.218857        -5.9554
  48   1.0000      -0.201863        -5.4930
  49   0.0000      -0.068645        -1.8679
  50   0.0000       0.028079         0.7641
  51   0.0000       0.041043         1.1168
  52   0.0000       0.047537         1.2936
  53   0.0000       0.062937         1.7126

MULLIKEN ATOMIC CHARGES AND SPIN POPULATIONS
--------------------------------------------
   0 C :   -0.172699    0.084155
   1 C :    0.235759    0.124334
   2 O :   -0.305691    0.024367
   3 C :    0.250077    0.000699
   4 C :   -0.103075    0.006478
   5 S :    0.003525    0.034845
   6 C :   -0.030212    0.159306
   7 C :   -0.161380    0.131088
   8 S :    0.263899    0.116772
   9 N :   -0.362048    0.293302
  10 C :    0.111026    0.001609
  11 H :    0.001315   -0.003821
  12 H :    0.017693   -0.000124
  13 H :    0.015396   -0.000457
  14 H :    0.048107   -0.000303
  15 H :    0.069038    0.000079
  16 H :    0.000387   -0.005887
  17 H :    0.094020    0.010343
  18 H :    0.010103    0.004059
  19 H :   -0.011062    0.006220
  20 H :    0.025820    0.012934
Sum of atomic charges         :    0.0000000

LOEWDIN ATOMIC CHARGES AND SPIN POPULATIONS
-------------------------------------------
   0 C :   -0.279721    0.077549
   1 C :    0.004607    0.127556
   2 O :   -0.098354    0.029067
   3 C :    0.072882    0.001552
   4 C :   -0.138813    0.002887
   5 S :    0.288952    0.040686
   6 C :   -0.223926    0.155788
   7 C :   -0.279817    0.116913
   8 S :    0.758070    0.114280
   9 N :   -0.274675    0.293969
  10 C :   -0.018472    0.004761
  11 H :    0.015844    0.000718
  12 H :    0.013431    0.000472
  13 H :    0.024659   -0.000215
  14 H :    0.030755    0.000001
  15 H :    0.028453    0.000586
  16 H :    0.012180    0.001413
  17 H :    0.028397    0.014015
  18 H :    0.014453    0.002407
  19 H :   -0.005645    0.004009
  20 H :    0.026740    0.011585

  Mayer bond orders larger than 0.100000
B(  0-C ,  1-C ) :   1.4684 B(  0-C ,  8-S ) :   1.1316 B(  0-C , 11-H ) :   0.9653
B(  1-C ,  2-O ) :   1.1243 B(  1-C ,  6-C ) :   1.2616 B(  2-O ,  3-C ) :   0.9761
B(  3-C ,  4-C ) :   1.0378 B(  3-C , 12-H ) :   0.9430 B(  3-C , 13-H ) :   0.9463
B(  4-C ,  5-S ) :   1.0188 B(  4-C , 14-H ) :   0.9451 B(  4-C , 15-H ) :   0.9390
B(  5-S ,  6-C ) :   0.9996 B(  6-C ,  7-C ) :   1.4335 B(  7-C ,  8-S ) :   1.1576
B(  7-C , 16-H ) :   0.9726 B(  8-S ,  9-N ) :   0.6003 B(  9-N , 10-C ) :   1.0342
B(  9-N , 17-H ) :   0.9425 B( 10-C , 18-H ) :   0.9697 B( 10-C , 19-H ) :   0.9558
B( 10-C , 20-H ) :   0.9672

Dispersion correction           -0.045011619
FINAL SINGLE POINT ENERGY     -1198.508077024880
Dispersion correction            ... done
Dispersion correction           -0.044577412
FINAL SINGLE POINT ENERGY     -1198.512503861597
Dispersion correction            ... done
Dispersion correction           -0.044196323
FINAL SINGLE POINT ENERGY     -1198.514849674966
Dispersion correction            ... done
FINAL SINGLE POINT ENERGY     -1198.518687438767
FINAL SINGLE POINT ENERGY     -1198.523523130936
FINAL SINGLE POINT ENERGY     -1198.528962277994
FINAL SINGLE POINT ENERGY     -1198.533722608594
FINAL SINGLE POINT ENERGY     -1198.537838183047
FINAL SINGLE POINT ENERGY     -1198.540201270716
FINAL SINGLE POINT ENERGY     -1198.541555559925
FINAL SINGLE POINT ENERGY     -1198.547482262303
FINAL SINGLE POINT ENERGY     -1198.547440072246
FINAL SINGLE POINT ENERGY     -1198.547593434334
FINAL SINGLE POINT ENERGY     -1198.547584450285
FINAL SINGLE POINT ENERGY     -1198.547709710355
FINAL SINGLE POINT ENERGY     -1198.547665356352
FINAL SINGLE POINT ENERGY     -1198.547738016021
Dispersion correction           -0.041210324
FINAL SINGLE POINT ENERGY     -1198.547807864419
Dispersion correction            ... done
Dispersion correction           -0.041205905
FINAL SINGLE POINT ENERGY     -1198.547811645346
Dispersion correction            ... done

CARTESIAN COORDINATES (ANGSTROEM)
---------------------------------
  C      1.081596    0.386934   -0.884840
  C      1.496635   -0.794496   -0.324584
  O      2.790014   -1.214198   -0.390602
  C      3.205287   -2.162575    0.579166
  C      2.348864   -3.419798    0.570715
  S      0.635363   -3.079802    1.118716
  C      0.414500   -1.538852    0.276547
  C     -0.791845   -0.893238    0.145815
  S     -0.622490    0.612763   -0.695956
  N      0.267100    3.075183   -2.312798
  C     -0.155970    4.225782   -1.572424
  H      1.666561    1.134106   -1.414356
  H      3.202039   -1.707554    1.587065
  H      4.241439   -2.420208    0.311899
  H      2.750082   -4.158836    1.279270
  H      2.343746   -3.866561   -0.435618
  H     -1.760972   -1.229945    0.508716
  H     -0.452750    2.888501   -3.027684
  H      0.629246    4.560681   -0.876124
  H     -1.055037    3.983206   -0.965002
  H     -0.451426    5.076167   -2.220512

Dispersion correction           -0.041186143
FINAL SINGLE POINT ENERGY     -1198.547811473547
Dispersion correction            ... done

DIPOLE MOMENT
-------------
                                X             Y             Z
Electronic contribution:     -3.18299      -8.85221       2.68095
Nuclear contribution   :      3.11181       9.16116      -2.66054
                        -----------------------------------------
Total Dipole Moment    :     -0.07117       0.30896       0.02040
                        -----------------------------------------
Magnitude (a.u.)       :      0.31771
Magnitude (Debye)      :      0.80755

Rotational constants in cm-1:     0.063646     0.013402     0.011410
Rotational constants in MHz :  1908.071215   401.772888   342.060647

                             ****ORCA TERMINATED NORMALLY****
TOTAL RUN TIME: 0 days 1 hours 41 minutes 17 seconds 477 msec
