                         Program Version 4.2.0 -  RELEASE  -
|  1> # ORCA input file
|  2> # SCF done        -29.440094448127          0.000775844758
|  3> ! B3LYP/G D3BJ Opt RIJCOSX def2-SVP def2/J
|  4> * xyz 0 1
|  5>    C        1.25594        -1.27675        -0.00299
|  6>    S        2.55944        -0.15307         0.00039
|  7>    C        1.47570         1.19695         0.00381
|  8>    C        0.19493         0.77947         0.00511
|  9>    C        0.05174        -0.63712         0.00131
| 10>    C       -1.32029        -1.10060         0.00256
| 11>    C       -2.23196        -0.13424         0.00693
| 12>    S       -1.45017         1.49110         0.01041
| 13>    O       -1.71296         2.18795        -1.21658
| 14>    O       -1.70812         2.18011         1.24283
| 15>    H        1.45919        -2.32894        -0.00649
| 16>    H        1.86474         2.19458         0.00587
| 17>    H       -1.54177        -2.15724        -0.00021
| 18>    H       -3.29892        -0.23146         0.00847
| 19> *
| 20>
| 21>                          ****END OF INPUT****
 Total Charge           Charge          ....    0
 Multiplicity           Mult            ....    1
 Number of Electrons    NEL             ....   88
Dispersion correction           -0.035088011
FINAL SINGLE POINT ENERGY     -1177.275160741630
Dispersion correction            ... done
Dispersion correction           -0.035029414
FINAL SINGLE POINT ENERGY     -1177.279349522943
Dispersion correction            ... done
Dispersion correction           -0.035021816
FINAL SINGLE POINT ENERGY     -1177.280061883455
Dispersion correction            ... done
FINAL SINGLE POINT ENERGY     -1177.280109533982
FINAL SINGLE POINT ENERGY     -1177.280135476598
Dispersion correction            ... done
Dispersion correction           -0.035039020
FINAL SINGLE POINT ENERGY     -1177.280151248721
Dispersion correction            ... done
Dispersion correction           -0.035041118
FINAL SINGLE POINT ENERGY     -1177.280153364199
Dispersion correction            ... done
                    ***********************HURRAY********************

CARTESIAN COORDINATES (ANGSTROEM)
---------------------------------
  C      1.288223   -1.293872   -0.001467
  S      2.577686   -0.130307   -0.002303
  C      1.468390    1.211003    0.002880
  C      0.187043    0.752646    0.004850
  C      0.063276   -0.674262    0.002022
  C     -1.332422   -1.125470    0.002510
  C     -2.228362   -0.123889    0.005179
  S     -1.445408    1.505345    0.010836
  O     -1.703568    2.195470   -1.254855
  O     -1.700908    2.181716    1.284536
  H      1.516717   -2.358786   -0.004026
  H      1.833420    2.236397    0.004087
  H     -1.609587   -2.181779    0.000659
  H     -3.317010   -0.183472    0.006512

 Multiplicity           Mult            ....    1
 Number of Electrons    NEL             ....   88
 Basis Dimension        Dim             ....  168

ORBITAL ENERGIES
----------------

  NO   OCC          E(Eh)            E(eV)
   0   2.0000     -89.066004     -2423.6092
   1   2.0000     -88.905679     -2419.2465
   2   2.0000     -19.123396      -520.3740
   3   2.0000     -19.123301      -520.3715
   4   2.0000     -10.250372      -278.9268
   5   2.0000     -10.246589      -278.8239
   6   2.0000     -10.243752      -278.7467
   7   2.0000     -10.234002      -278.4813
   8   2.0000     -10.233725      -278.4738
   9   2.0000     -10.228899      -278.3425
  10   2.0000      -8.130502      -221.2422
  11   2.0000      -8.000435      -217.7029
  12   2.0000      -6.098608      -165.9516
  13   2.0000      -6.097939      -165.9333
  14   2.0000      -6.097663      -165.9259
  15   2.0000      -5.968681      -162.4161
  16   2.0000      -5.964336      -162.2978
  17   2.0000      -5.961767      -162.2279
  18   2.0000      -1.098809       -29.9001
  19   2.0000      -0.987559       -26.8728
  20   2.0000      -0.920287       -25.0423
  21   2.0000      -0.850663       -23.1477
  22   2.0000      -0.765778       -20.8379
  23   2.0000      -0.744814       -20.2674
  24   2.0000      -0.689005       -18.7488
  25   2.0000      -0.619982       -16.8706
  26   2.0000      -0.592467       -16.1219
  27   2.0000      -0.567828       -15.4514
  28   2.0000      -0.523701       -14.2506
  29   2.0000      -0.487025       -13.2526
  30   2.0000      -0.474111       -12.9012
  31   2.0000      -0.456732       -12.4283
  32   2.0000      -0.454881       -12.3780
  33   2.0000      -0.435516       -11.8510
  34   2.0000      -0.421747       -11.4763
  35   2.0000      -0.419836       -11.4243
  36   2.0000      -0.381443       -10.3796
  37   2.0000      -0.354861        -9.6563
  38   2.0000      -0.329421        -8.9640
  39   2.0000      -0.327328        -8.9071
  40   2.0000      -0.305234        -8.3058
  41   2.0000      -0.295027        -8.0281
  42   2.0000      -0.272715        -7.4210
  43   2.0000      -0.257583        -7.0092
  44   0.0000      -0.072365        -1.9691
  45   0.0000      -0.048994        -1.3332
  46   0.0000       0.003777         0.1028
  47   0.0000       0.049605         1.3498
  48   0.0000       0.051995         1.4149

MULLIKEN ATOMIC CHARGES
-----------------------
   0 C :   -0.124735
   1 S :    0.124590
   2 C :   -0.122625
   3 C :   -0.000867
   4 C :    0.074283
   5 C :    0.090219
   6 C :   -0.045027
   7 S :    0.780987
   8 O :   -0.459953
   9 O :   -0.460039
  10 H :    0.033781
  11 H :    0.045053
  12 H :    0.007525
  13 H :    0.056808
Sum of atomic charges:   -0.0000000

LOEWDIN ATOMIC CHARGES
----------------------
   0 C :   -0.175312
   1 S :    0.457251
   2 C :   -0.160419
   3 C :   -0.206892
   4 C :   -0.081226
   5 C :   -0.002272
   6 C :   -0.154711
   7 S :    1.170834
   8 O :   -0.499597
   9 O :   -0.499661
  10 H :    0.032437
  11 H :    0.039432
  12 H :    0.041062
  13 H :    0.039075

  Mayer bond orders larger than 0.100000
B(  0-C ,  1-S ) :   1.1649 B(  0-C ,  4-C ) :   1.5199 B(  0-C , 10-H ) :   0.9629
B(  1-S ,  2-C ) :   1.1649 B(  2-C ,  3-C ) :   1.6088 B(  2-C , 11-H ) :   0.9740
B(  3-C ,  4-C ) :   1.2434 B(  3-C ,  7-S ) :   0.7680 B(  4-C ,  5-C ) :   1.0631
B(  5-C ,  6-C ) :   1.7449 B(  5-C , 12-H ) :   0.9906 B(  6-C ,  7-S ) :   0.8575
B(  6-C , 13-H ) :   0.9605 B(  7-S ,  8-O ) :   1.6729 B(  7-S ,  9-O ) :   1.6727

Dispersion correction           -0.035042457
FINAL SINGLE POINT ENERGY     -1177.280153269844

DIPOLE MOMENT
-------------
                                X             Y             Z
Electronic contribution:      1.83803       2.64874       0.00433
Nuclear contribution   :     -0.99100      -4.39686      -0.01352
                        -----------------------------------------
Total Dipole Moment    :      0.84702      -1.74813      -0.00919
                        -----------------------------------------
Magnitude (a.u.)       :      1.94254
Magnitude (Debye)      :      4.93755

Rotational constants in cm-1:     0.072726     0.026343     0.021934
Rotational constants in MHz :  2180.257902   789.743557   657.571632

                             ****ORCA TERMINATED NORMALLY****
TOTAL RUN TIME: 0 days 0 hours 5 minutes 41 seconds 335 msec
