                         Program Version 4.2.0 -  RELEASE  -
|  1> # ORCA input file
|  2> # SCF done        -37.133957950465          0.000315344274
|  3> ! B3LYP/G D3BJ Opt RIJCOSX def2-SVP def2/J
|  4> * xyz 0 1
|  5>    C       -1.48603         0.99080        -0.34717
|  6>    S       -2.52275        -0.33231        -0.59169
|  7>    C       -1.23614        -1.48122        -0.40851
|  8>    C       -0.02281        -0.82863        -0.16724
|  9>    C       -0.18150         0.60713        -0.13950
| 10>    C        0.92798         1.47746         0.10024
| 11>    C        0.74440         2.92139         0.09355
| 12>    C        1.53428         3.80037         0.70027
| 13>    C        2.14988         0.89160         0.30300
| 14>    C        2.31125        -0.50254         0.26714
| 15>    C        1.27939        -1.37317         0.03556
| 16>    C        1.57062        -2.84182        -0.00325
| 17>    C       -1.56039        -2.87640        -0.50729
| 18>    C       -2.75427        -3.35330        -0.86119
| 19>    H       -1.89791         1.97944        -0.36330
| 20>    H       -0.11538         3.28226        -0.45518
| 21>    H        2.38700         3.50190         1.28617
| 22>    H        1.34464         4.85847         0.64404
| 23>    H        3.02203         1.50616         0.46469
| 24>    H        3.30504        -0.89983         0.41961
| 25>    H        2.63895        -3.00974         0.11561
| 26>    H        1.26167        -3.27451        -0.95381
| 27>    H        1.05716        -3.36180         0.80511
| 28>    H       -0.77552        -3.57446        -0.26990
| 29>    H       -3.57631        -2.70426        -1.11438
| 30>    H       -2.94243        -4.41095        -0.91069
| 31> *
| 32>
| 33>                          ****END OF INPUT****
 Total Charge           Charge          ....    0
 Multiplicity           Mult            ....    1
 Number of Electrons    NEL             ....  106
Dispersion correction           -0.059191315
FINAL SINGLE POINT ENERGY      -900.339637750253
Dispersion correction            ... done
Dispersion correction           -0.058751748
FINAL SINGLE POINT ENERGY      -900.344073204035
Dispersion correction            ... done
Dispersion correction           -0.058672349
FINAL SINGLE POINT ENERGY      -900.344134808027
Dispersion correction            ... done
FINAL SINGLE POINT ENERGY      -900.344073925474
FINAL SINGLE POINT ENERGY      -900.343876664193
FINAL SINGLE POINT ENERGY      -900.343939261091
FINAL SINGLE POINT ENERGY      -900.343935208242
FINAL SINGLE POINT ENERGY      -900.344058088099
Dispersion correction            ... done
Dispersion correction           -0.058681747
FINAL SINGLE POINT ENERGY      -900.344085438790
Dispersion correction            ... done
Dispersion correction           -0.058678930
FINAL SINGLE POINT ENERGY      -900.344081852124
Dispersion correction            ... done
                    ***********************HURRAY********************

CARTESIAN COORDINATES (ANGSTROEM)
---------------------------------
  C     -1.465135    1.032440   -0.510694
  S     -2.495015   -0.301370   -0.775198
  C     -1.230267   -1.467018   -0.535181
  C     -0.005011   -0.813994   -0.275430
  C     -0.157416    0.637986   -0.260394
  C      0.958870    1.508268    0.017431
  C      0.770402    2.964135    0.095518
  C      1.481223    3.793514    0.873585
  C      2.183593    0.912053    0.224993
  C      2.338195   -0.500293    0.213286
  C      1.297437   -1.377110   -0.013365
  C      1.560294   -2.858342    0.026606
  C     -1.563293   -2.880566   -0.607586
  C     -2.801000   -3.408595   -0.645974
  H     -1.861995    2.043931   -0.549821
  H     -0.028423    3.388173   -0.523540
  H      2.258589    3.423970    1.549283
  H      1.292056    4.870310    0.873796
  H      3.061726    1.536304    0.401446
  H      3.333169   -0.911607    0.402066
  H      2.607880   -3.052579    0.297288
  H      1.371094   -3.337247   -0.948421
  H      0.924141   -3.366714    0.767657
  H     -0.717489   -3.565774   -0.632852
  H     -3.702131   -2.790118   -0.601702
  H     -2.948642   -4.487717   -0.720906

 Multiplicity           Mult            ....    1
 Number of Electrons    NEL             ....  106
 Basis Dimension        Dim             ....  260

ORBITAL ENERGIES
----------------

  NO   OCC          E(Eh)            E(eV)
   0   2.0000     -88.881455     -2418.5873
   1   2.0000     -10.220090      -278.1028
   2   2.0000     -10.213678      -277.9283
   3   2.0000     -10.203333      -277.6468
   4   2.0000     -10.202720      -277.6301
   5   2.0000     -10.202411      -277.6217
   6   2.0000     -10.200979      -277.5827
   7   2.0000     -10.198742      -277.5219
   8   2.0000     -10.197211      -277.4802
   9   2.0000     -10.192034      -277.3393
  10   2.0000     -10.189431      -277.2685
  11   2.0000     -10.189208      -277.2625
  12   2.0000     -10.188577      -277.2453
  13   2.0000     -10.188048      -277.2309
  14   2.0000      -7.976478      -217.0510
  15   2.0000      -5.944245      -161.7511
  16   2.0000      -5.940128      -161.6391
  17   2.0000      -5.938542      -161.5959
  18   2.0000      -0.893461       -24.3123
  19   2.0000      -0.836662       -22.7667
  20   2.0000      -0.802463       -21.8361
  21   2.0000      -0.778488       -21.1837
  22   2.0000      -0.741180       -20.1685
  23   2.0000      -0.731664       -19.9096
  24   2.0000      -0.706996       -19.2384
  25   2.0000      -0.671321       -18.2676
  26   2.0000      -0.614724       -16.7275
  27   2.0000      -0.607743       -16.5375
  28   2.0000      -0.579255       -15.7623
  29   2.0000      -0.568057       -15.4576
  30   2.0000      -0.520986       -14.1768
  31   2.0000      -0.507146       -13.8001
  32   2.0000      -0.481955       -13.1147
  33   2.0000      -0.468902       -12.7595
  34   2.0000      -0.454421       -12.3654
  35   2.0000      -0.440757       -11.9936
  36   2.0000      -0.430333       -11.7099
  37   2.0000      -0.428122       -11.6498
  38   2.0000      -0.417172       -11.3518
  39   2.0000      -0.414872       -11.2892
  40   2.0000      -0.397689       -10.8217
  41   2.0000      -0.389931       -10.6106
  42   2.0000      -0.377203       -10.2642
  43   2.0000      -0.371415       -10.1067
  44   2.0000      -0.354162        -9.6372
  45   2.0000      -0.349059        -9.4984
  46   2.0000      -0.339616        -9.2414
  47   2.0000      -0.335904        -9.1404
  48   2.0000      -0.305934        -8.3249
  49   2.0000      -0.292378        -7.9560
  50   2.0000      -0.251753        -6.8506
  51   2.0000      -0.245556        -6.6819
  52   2.0000      -0.192208        -5.2302
  53   0.0000      -0.073637        -2.0038
  54   0.0000      -0.026672        -0.7258
  55   0.0000       0.015702         0.4273
  56   0.0000       0.030446         0.8285
  57   0.0000       0.043983         1.1968

MULLIKEN ATOMIC CHARGES
-----------------------
   0 C :   -0.143341
   1 S :    0.133903
   2 C :   -0.184836
   3 C :    0.128694
   4 C :    0.061312
   5 C :    0.102279
   6 C :   -0.033265
   7 C :   -0.032528
   8 C :   -0.051933
   9 C :   -0.032169
  10 C :   -0.078092
  11 C :    0.089718
  12 C :    0.012341
  13 C :   -0.049243
  14 H :    0.015844
  15 H :   -0.005167
  16 H :    0.022541
  17 H :    0.024743
  18 H :   -0.030048
  19 H :   -0.038035
  20 H :   -0.001167
  21 H :    0.034347
  22 H :    0.032214
  23 H :   -0.020129
  24 H :    0.018419
  25 H :    0.023600
Sum of atomic charges:   -0.0000000

LOEWDIN ATOMIC CHARGES
----------------------
   0 C :   -0.202772
   1 S :    0.483477
   2 C :   -0.189028
   3 C :   -0.041886
   4 C :   -0.042547
   5 C :   -0.025641
   6 C :   -0.020098
   7 C :   -0.045168
   8 C :   -0.022899
   9 C :   -0.036595
  10 C :   -0.018080
  11 C :   -0.044875
  12 C :   -0.044846
  13 C :   -0.065158
  14 H :    0.022965
  15 H :    0.026169
  16 H :    0.022609
  17 H :    0.025515
  18 H :    0.025958
  19 H :    0.023496
  20 H :    0.029147
  21 H :    0.032646
  22 H :    0.033964
  23 H :    0.032326
  24 H :    0.015241
  25 H :    0.026079

  Mayer bond orders larger than 0.100000
B(  0-C ,  1-S ) :   1.1900 B(  0-C ,  2-C ) :   0.1075 B(  0-C ,  4-C ) :   1.4330
B(  0-C , 14-H ) :   0.9522 B(  1-S ,  2-C ) :   1.1565 B(  2-C ,  3-C ) :   1.3521
B(  2-C , 12-C ) :   1.1357 B(  3-C ,  4-C ) :   1.1796 B(  3-C , 10-C ) :   1.2021
B(  4-C ,  5-C ) :   1.1619 B(  5-C ,  6-C ) :   1.0591 B(  5-C ,  8-C ) :   1.5045
B(  6-C ,  7-C ) :   1.9457 B(  6-C , 15-H ) :   0.9499 B(  7-C , 16-H ) :   0.9530
B(  7-C , 17-H ) :   0.9457 B(  8-C ,  9-C ) :   1.1908 B(  8-C , 18-H ) :   0.9825
B(  9-C , 10-C ) :   1.5323 B(  9-C , 19-H ) :   0.9746 B( 10-C , 11-C ) :   1.1052
B( 11-C , 20-H ) :   0.9396 B( 11-C , 21-H ) :   0.9367 B( 11-C , 22-H ) :   0.9398
B( 12-C , 13-C ) :   1.8864 B( 12-C , 23-H ) :   0.9509 B( 13-C , 24-H ) :   0.9514
B( 13-C , 25-H ) :   0.9457

Dispersion correction           -0.058679592
FINAL SINGLE POINT ENERGY      -900.344077324287

DIPOLE MOMENT
-------------
                                X             Y             Z
Electronic contribution:     -7.09461       3.24655      -2.58446
Nuclear contribution   :      7.21732      -3.30440       2.63367
                        -----------------------------------------
Total Dipole Moment    :      0.12272      -0.05785       0.04921
                        -----------------------------------------
Magnitude (a.u.)       :      0.14432
Magnitude (Debye)      :      0.36682

Rotational constants in cm-1:     0.034716     0.015878     0.011015
Rotational constants in MHz :  1040.761984   476.009207   330.231484

                             ****ORCA TERMINATED NORMALLY****
TOTAL RUN TIME: 0 days 0 hours 23 minutes 17 seconds 122 msec
