                         Program Version 4.2.0 -  RELEASE  -
|  1> # ORCA input file
|  2> # SCF done        -45.182793412715          0.000254347957
|  3> ! B3LYP/G D3BJ Opt RIJCOSX def2-SVP def2/J
|  4> * xyz 0 1
|  5>    C        0.00416         1.40700        -0.01472
|  6>    C        1.18839         0.68277        -0.01112
|  7>    C        2.53464         1.29963        -0.01695
|  8>    O        2.80271         2.46002        -0.02592
|  9>    S        3.76551        -0.01193        -0.00965
| 10>    C        2.53719        -1.32595         0.00157
| 11>    O        2.80761        -2.48579         0.00925
| 12>    C        1.18976        -0.71170        -0.00148
| 13>    C        0.00692        -1.43821         0.00471
| 14>    C       -1.17732        -0.71398         0.00115
| 15>    C       -1.17866         0.68049        -0.00825
| 16>    C       -2.52611         1.29476        -0.01053
| 17>    O       -2.79642         2.45465        -0.01778
| 18>    S       -3.75443        -0.01916        -0.00049
| 19>    C       -2.52355        -1.33083         0.00681
| 20>    O       -2.79173        -2.49119         0.01459
| 21>    H        0.00311         2.48612        -0.02208
| 22>    H        0.00797        -2.51732         0.01209
| 23> *
| 24>
| 25>                          ****END OF INPUT****
 Total Charge           Charge          ....    0
 Multiplicity           Mult            ....    1
 Number of Electrons    NEL             ....  126
Dispersion correction           -0.051710080
FINAL SINGLE POINT ENERGY     -1478.901343766170
Dispersion correction            ... done
Dispersion correction           -0.051526833
FINAL SINGLE POINT ENERGY     -1478.904105412895
Dispersion correction            ... done
Dispersion correction           -0.051492724
FINAL SINGLE POINT ENERGY     -1478.904318232596
Dispersion correction            ... done
FINAL SINGLE POINT ENERGY     -1478.904174706345
Dispersion correction            ... done
Dispersion correction           -0.051499132
FINAL SINGLE POINT ENERGY     -1478.904400373558
Dispersion correction            ... done
Dispersion correction           -0.051502964
FINAL SINGLE POINT ENERGY     -1478.904410085421
Dispersion correction            ... done
                    ***********************HURRAY********************

CARTESIAN COORDINATES (ANGSTROEM)
---------------------------------
  C      0.004168    1.415577   -0.015001
  C      1.195062    0.686542   -0.011193
  C      2.558966    1.304382   -0.016371
  O      2.808518    2.476281   -0.024370
  S      3.819992   -0.011941   -0.010357
  C      2.561550   -1.330674    0.000883
  O      2.813410   -2.502091    0.008217
  C      1.196425   -0.715469   -0.001324
  C      0.006922   -1.446742    0.005198
  C     -1.183967   -0.717705    0.001405
  C     -1.185335    0.684300   -0.008424
  C     -2.550481    1.299481   -0.010252
  O     -2.802361    2.470886   -0.018828
  S     -3.808925   -0.019271   -0.000235
  C     -2.547868   -1.335557    0.006665
  O     -2.797414   -2.507455    0.014967
  H      0.003119    2.507320   -0.023123
  H      0.007970   -2.538483    0.013343

 Multiplicity           Mult            ....    1
 Number of Electrons    NEL             ....  126
 Basis Dimension        Dim             ....  242

ORBITAL ENERGIES
----------------

  NO   OCC          E(Eh)            E(eV)
   0   2.0000     -88.892376     -2418.8845
   1   2.0000     -88.892375     -2418.8845
   2   2.0000     -19.181616      -521.9583
   3   2.0000     -19.181610      -521.9582
   4   2.0000     -19.181578      -521.9573
   5   2.0000     -19.181568      -521.9570
   6   2.0000     -10.340790      -281.3872
   7   2.0000     -10.340762      -281.3864
   8   2.0000     -10.340665      -281.3838
   9   2.0000     -10.340664      -281.3838
  10   2.0000     -10.266946      -279.3778
  11   2.0000     -10.266941      -279.3777
  12   2.0000     -10.266673      -279.3704
  13   2.0000     -10.266558      -279.3673
  14   2.0000     -10.264913      -279.3225
  15   2.0000     -10.264818      -279.3199
  16   2.0000      -7.989736      -217.4118
  17   2.0000      -7.989736      -217.4118
  18   2.0000      -5.957328      -162.1071
  19   2.0000      -5.957326      -162.1071
  20   2.0000      -5.954456      -162.0290
  21   2.0000      -5.954456      -162.0290
  22   2.0000      -5.950049      -161.9091
  23   2.0000      -5.950049      -161.9091
  24   2.0000      -1.093922       -29.7671
  25   2.0000      -1.093520       -29.7562
  26   2.0000      -1.090706       -29.6796
  27   2.0000      -1.090559       -29.6756
  28   2.0000      -0.937567       -25.5125
  29   2.0000      -0.883664       -24.0457
  30   2.0000      -0.831933       -22.6380
  31   2.0000      -0.819896       -22.3105
  32   2.0000      -0.777854       -21.1665
  33   2.0000      -0.720278       -19.5998
  34   2.0000      -0.687718       -18.7138
  35   2.0000      -0.649644       -17.6777
  36   2.0000      -0.625746       -17.0274
  37   2.0000      -0.586578       -15.9616
  38   2.0000      -0.567866       -15.4524
  39   2.0000      -0.544187       -14.8081
  40   2.0000      -0.538610       -14.6563
  41   2.0000      -0.507115       -13.7993
  42   2.0000      -0.499278       -13.5860
  43   2.0000      -0.495986       -13.4965
  44   2.0000      -0.487980       -13.2786
  45   2.0000      -0.479561       -13.0495
  46   2.0000      -0.478166       -13.0116
  47   2.0000      -0.475745       -12.9457
  48   2.0000      -0.464325       -12.6349
  49   2.0000      -0.450227       -12.2513
  50   2.0000      -0.446817       -12.1585
  51   2.0000      -0.440993       -12.0000
  52   2.0000      -0.417195       -11.3525
  53   2.0000      -0.415910       -11.3175
  54   2.0000      -0.412011       -11.2114
  55   2.0000      -0.331801        -9.0288
  56   2.0000      -0.325043        -8.8449
  57   2.0000      -0.322850        -8.7852
  58   2.0000      -0.312532        -8.5044
  59   2.0000      -0.306107        -8.3296
  60   2.0000      -0.301530        -8.2051
  61   2.0000      -0.298043        -8.1101
  62   2.0000      -0.296764        -8.0754
  63   0.0000      -0.147736        -4.0201
  64   0.0000      -0.110304        -3.0015
  65   0.0000      -0.089308        -2.4302
  66   0.0000      -0.016965        -0.4616
  67   0.0000      -0.013020        -0.3543

MULLIKEN ATOMIC CHARGES
-----------------------
   0 C :   -0.060411
   1 C :    0.075416
   2 C :    0.059276
   3 O :   -0.126674
   4 S :    0.016622
   5 C :    0.059271
   6 O :   -0.126650
   7 C :    0.075413
   8 C :   -0.060421
   9 C :    0.075416
  10 C :    0.075422
  11 C :    0.059266
  12 O :   -0.126657
  13 S :    0.016632
  14 C :    0.059276
  15 O :   -0.126678
  16 H :    0.027741
  17 H :    0.027740
Sum of atomic charges:   -0.0000000

LOEWDIN ATOMIC CHARGES
----------------------
   0 C :    0.048314
   1 C :   -0.049600
   2 C :   -0.042367
   3 O :   -0.106288
   4 S :    0.294300
   5 C :   -0.042368
   6 O :   -0.106293
   7 C :   -0.049599
   8 C :    0.048313
   9 C :   -0.049601
  10 C :   -0.049595
  11 C :   -0.042366
  12 O :   -0.106294
  13 S :    0.294300
  14 C :   -0.042367
  15 O :   -0.106291
  16 H :    0.053900
  17 H :    0.053900

  Mayer bond orders larger than 0.100000
B(  0-C ,  1-C ) :   1.3309 B(  0-C , 10-C ) :   1.3309 B(  0-C , 16-H ) :   1.0211
B(  1-C ,  2-C ) :   0.8513 B(  1-C ,  7-C ) :   1.3407 B(  2-C ,  3-O ) :   2.1863
B(  2-C ,  4-S ) :   1.0090 B(  3-O ,  4-S ) :   0.1235 B(  4-S ,  5-C ) :   1.0090
B(  4-S ,  6-O ) :   0.1235 B(  5-C ,  6-O ) :   2.1863 B(  5-C ,  7-C ) :   0.8513
B(  7-C ,  8-C ) :   1.3309 B(  8-C ,  9-C ) :   1.3309 B(  8-C , 17-H ) :   1.0211
B(  9-C , 10-C ) :   1.3407 B(  9-C , 14-C ) :   0.8513 B( 10-C , 11-C ) :   0.8513
B( 11-C , 12-O ) :   2.1863 B( 11-C , 13-S ) :   1.0090 B( 12-O , 13-S ) :   0.1235
B( 13-S , 14-C ) :   1.0090 B( 13-S , 15-O ) :   0.1235 B( 14-C , 15-O ) :   2.1863

Dispersion correction           -0.051507373
FINAL SINGLE POINT ENERGY     -1478.904421502647

DIPOLE MOMENT
-------------
                                X             Y             Z
Electronic contribution:     -0.00001      -0.00000       0.00023
Nuclear contribution   :      0.00001       0.00002       0.00022
                        -----------------------------------------
Total Dipole Moment    :      0.00000       0.00002       0.00045
                        -----------------------------------------
Magnitude (a.u.)       :      0.00045
Magnitude (Debye)      :      0.00115

Rotational constants in cm-1:     0.029806     0.009271     0.007072
Rotational constants in MHz :   893.548423   277.947997   212.002359

                             ****ORCA TERMINATED NORMALLY****
TOTAL RUN TIME: 0 days 0 hours 10 minutes 3 seconds 942 msec
