                         Program Version 4.2.0 -  RELEASE  -
|  1> # ORCA input file
|  2> # SCF done        -33.349991054867          0.000290654350
|  3> ! B3LYP/G D3BJ Opt RIJCOSX def2-SVP def2/J
|  4> * xyz 0 1
|  5>    N        1.10067        -0.04623         0.00261
|  6>    C        0.32262        -1.21606         0.34676
|  7>    C        0.36465        -1.57199         1.83389
|  8>    C        2.48972        -0.11375         0.03238
|  9>    C        3.26436        -1.23035         0.06877
| 10>    S        4.95087        -0.86249         0.01867
| 11>    C        4.61344         0.82827        -0.06082
| 12>    C        3.27936         1.08827        -0.05010
| 13>    N        2.67026         2.33931        -0.05381
| 14>    C        3.49646         3.51001        -0.25978
| 15>    C        2.63836         4.76543        -0.19836
| 16>    H        0.76258         0.78931         0.46546
| 17>    H        0.69369        -2.05148        -0.25073
| 18>    H       -0.71042        -1.01730         0.04486
| 19>    H        1.39094        -1.74269         2.15027
| 20>    H       -0.21448        -2.47188         2.02266
| 21>    H       -0.04973        -0.76046         2.42953
| 22>    H        2.96830        -2.25764         0.11955
| 23>    H        5.43293         1.51500        -0.10646
| 24>    H        1.83783         2.35235        -0.63202
| 25>    H        4.03390         3.47080        -1.22151
| 26>    H        4.24165         3.53025         0.54072
| 27>    H        1.91518         4.77596        -1.01172
| 28>    H        3.26297         5.65050        -0.28137
| 29>    H        2.10029         4.80386         0.74546
| 30> *
| 31>
| 32>                          ****END OF INPUT****
 Total Charge           Charge          ....    0
 Multiplicity           Mult            ....    1
 Number of Electrons    NEL             ....   92
Dispersion correction           -0.044659356
FINAL SINGLE POINT ENERGY      -820.588397654245
Dispersion correction            ... done
Dispersion correction           -0.044371860
FINAL SINGLE POINT ENERGY      -820.591485877986
Dispersion correction            ... done
Dispersion correction           -0.044339348
FINAL SINGLE POINT ENERGY      -820.591776805929
Dispersion correction            ... done
FINAL SINGLE POINT ENERGY      -820.591830633471
FINAL SINGLE POINT ENERGY      -820.591856446427
Dispersion correction            ... done
Dispersion correction           -0.044314814
FINAL SINGLE POINT ENERGY      -820.591865195448
Dispersion correction            ... done
Dispersion correction           -0.044313121
FINAL SINGLE POINT ENERGY      -820.591865608869
Dispersion correction            ... done
                    ***********************HURRAY********************

CARTESIAN COORDINATES (ANGSTROEM)
---------------------------------
  N      1.120685   -0.003980    0.101040
  C      0.296673   -1.166852    0.372045
  C      0.339536   -1.678646    1.816293
  C      2.510578   -0.108657    0.071636
  C      3.289860   -1.241594    0.094583
  S      4.987544   -0.864823    0.017518
  C      4.655024    0.838385   -0.066260
  C      3.305220    1.098946   -0.041954
  N      2.670288    2.342657   -0.084343
  C      3.485055    3.530437   -0.250905
  C      2.632425    4.791336   -0.252561
  H      0.827113    0.828843    0.608888
  H      0.603765   -1.965092   -0.323616
  H     -0.740758   -0.907607    0.099917
  H      1.360365   -1.959797    2.115824
  H     -0.310056   -2.559659    1.940709
  H     -0.014136   -0.902257    2.514423
  H      2.966441   -2.274575    0.187217
  H      5.471469    1.549311   -0.163099
  H      1.860724    2.326069   -0.703946
  H      4.097618    3.483754   -1.177527
  H      4.204553    3.566687    0.585856
  H      1.920835    4.795187   -1.096123
  H      3.264842    5.686976   -0.349764
  H      2.050736    4.871951    0.679058

 Multiplicity           Mult            ....    1
 Number of Electrons    NEL             ....   92
 Basis Dimension        Dim             ....  228

ORBITAL ENERGIES
----------------

  NO   OCC          E(Eh)            E(eV)
   0   2.0000     -88.848681     -2417.6955
   1   2.0000     -14.332447      -390.0057
   2   2.0000     -14.330686      -389.9578
   3   2.0000     -10.219611      -278.0898
   4   2.0000     -10.219451      -278.0854
   5   2.0000     -10.211938      -277.8810
   6   2.0000     -10.211131      -277.8590
   7   2.0000     -10.189684      -277.2754
   8   2.0000     -10.187369      -277.2124
   9   2.0000     -10.185383      -277.1584
  10   2.0000     -10.181562      -277.0544
  11   2.0000      -7.943410      -216.1512
  12   2.0000      -5.911907      -160.8712
  13   2.0000      -5.907938      -160.7632
  14   2.0000      -5.904002      -160.6560
  15   2.0000      -0.936599       -25.4861
  16   2.0000      -0.905423       -24.6378
  17   2.0000      -0.841238       -22.8912
  18   2.0000      -0.756980       -20.5985
  19   2.0000      -0.740037       -20.1374
  20   2.0000      -0.690688       -18.7946
  21   2.0000      -0.683928       -18.6106
  22   2.0000      -0.626992       -17.0613
  23   2.0000      -0.615229       -16.7412
  24   2.0000      -0.551755       -15.0140
  25   2.0000      -0.544445       -14.8151
  26   2.0000      -0.528839       -14.3904
  27   2.0000      -0.487353       -13.2615
  28   2.0000      -0.471839       -12.8394
  29   2.0000      -0.456522       -12.4226
  30   2.0000      -0.445042       -12.1102
  31   2.0000      -0.428423       -11.6580
  32   2.0000      -0.418042       -11.3755
  33   2.0000      -0.403263       -10.9733
  34   2.0000      -0.390013       -10.6128
  35   2.0000      -0.379941       -10.3387
  36   2.0000      -0.375716       -10.2238
  37   2.0000      -0.366958        -9.9854
  38   2.0000      -0.359319        -9.7776
  39   2.0000      -0.357945        -9.7402
  40   2.0000      -0.348635        -9.4868
  41   2.0000      -0.334441        -9.1006
  42   2.0000      -0.288714        -7.8563
  43   2.0000      -0.283272        -7.7082
  44   2.0000      -0.200566        -5.4577
  45   2.0000      -0.184084        -5.0092
  46   0.0000       0.010028         0.2729
  47   0.0000       0.047929         1.3042
  48   0.0000       0.053762         1.4629
  49   0.0000       0.069422         1.8891
  50   0.0000       0.072436         1.9711

MULLIKEN ATOMIC CHARGES
-----------------------
   0 N :   -0.181099
   1 C :    0.082894
   2 C :   -0.003077
   3 C :    0.128268
   4 C :   -0.218505
   5 S :    0.065391
   6 C :   -0.210838
   7 C :    0.119232
   8 N :   -0.205512
   9 C :    0.087897
  10 C :    0.000118
  11 H :    0.106193
  12 H :    0.011237
  13 H :    0.003354
  14 H :    0.023658
  15 H :    0.011126
  16 H :    0.006244
  17 H :   -0.001371
  18 H :    0.002937
  19 H :    0.113641
  20 H :   -0.002306
  21 H :    0.015732
  22 H :    0.011799
  23 H :    0.015657
  24 H :    0.017331
Sum of atomic charges:   -0.0000000

LOEWDIN ATOMIC CHARGES
----------------------
   0 N :   -0.053636
   1 C :    0.026339
   2 C :   -0.071092
   3 C :   -0.029651
   4 C :   -0.255725
   5 S :    0.385698
   6 C :   -0.249298
   7 C :   -0.035088
   8 N :   -0.062762
   9 C :    0.029175
  10 C :   -0.059041
  11 H :    0.062835
  12 H :    0.022334
  13 H :    0.019850
  14 H :    0.025410
  15 H :    0.025186
  16 H :    0.020261
  17 H :    0.015076
  18 H :    0.017446
  19 H :    0.065297
  20 H :    0.004372
  21 H :    0.021943
  22 H :    0.021150
  23 H :    0.029290
  24 H :    0.024630

  Mayer bond orders larger than 0.100000
B(  0-N ,  1-C ) :   1.0461 B(  0-N ,  3-C ) :   1.1459 B(  0-N , 11-H ) :   0.9084
B(  1-C ,  2-C ) :   1.0995 B(  1-C , 12-H ) :   0.9419 B(  1-C , 13-H ) :   0.9539
B(  2-C , 14-H ) :   0.9662 B(  2-C , 15-H ) :   0.9603 B(  2-C , 16-H ) :   0.9637
B(  3-C ,  4-C ) :   1.5023 B(  3-C ,  7-C ) :   1.2442 B(  4-C ,  5-S ) :   1.1029
B(  4-C , 17-H ) :   0.9716 B(  5-S ,  6-C ) :   1.1104 B(  6-C ,  7-C ) :   1.5109
B(  6-C , 18-H ) :   0.9717 B(  7-C ,  8-N ) :   1.1312 B(  8-N ,  9-C ) :   1.0182
B(  8-N , 19-H ) :   0.9092 B(  9-C , 10-C ) :   1.1014 B(  9-C , 20-H ) :   0.9366
B(  9-C , 21-H ) :   0.9436 B( 10-C , 22-H ) :   0.9691 B( 10-C , 23-H ) :   0.9630
B( 10-C , 24-H ) :   0.9682

Dispersion correction           -0.044311423
FINAL SINGLE POINT ENERGY      -820.591864559903

DIPOLE MOMENT
-------------
                                X             Y             Z
Electronic contribution:     11.01742      -7.69898      -2.53540
Nuclear contribution   :    -11.79271       8.27328       2.55767
                        -----------------------------------------
Total Dipole Moment    :     -0.77530       0.57430       0.02227
                        -----------------------------------------
Magnitude (a.u.)       :      0.96509
Magnitude (Debye)      :      2.45307

Rotational constants in cm-1:     0.036465     0.021799     0.014283
Rotational constants in MHz :  1093.188206   653.511292   428.200404

                             ****ORCA TERMINATED NORMALLY****
TOTAL RUN TIME: 0 days 0 hours 10 minutes 34 seconds 778 msec
