                         Program Version 4.2.0 -  RELEASE  -
|  1> # ORCA input file
|  2> # SCF done        -31.685458500059          0.000275118391
|  3> ! B3LYP/G D3BJ Opt RIJCOSX def2-SVP def2/J
|  4> * xyz 0 1
|  5>    C       -1.70083        -1.22385         0.17280
|  6>    S       -2.89154         0.00160         0.25893
|  7>    C       -1.70059         1.22455         0.14557
|  8>    C       -0.44031         0.70767         0.04677
|  9>    C       -0.44043        -0.70944         0.06189
| 10>    S        0.96190        -1.76573        -0.05707
| 11>    C        2.40723        -0.76326        -0.22179
| 12>    O        3.44970        -1.34002        -0.36101
| 13>    C        2.41273         0.75585        -0.17998
| 14>    O        3.46430         1.33041        -0.23489
| 15>    S        0.96459         1.76120        -0.06653
| 16>    H       -1.97510        -2.25829         0.20624
| 17>    H       -1.97444         2.25956         0.15771
| 18> *
| 19>
| 20>                          ****END OF INPUT****
 Total Charge           Charge          ....    0
 Multiplicity           Mult            ....    1
 Number of Electrons    NEL             ....  102
Dispersion correction           -0.038905820
FINAL SINGLE POINT ENERGY     -1574.253893465879
Dispersion correction            ... done
Dispersion correction           -0.038792702
FINAL SINGLE POINT ENERGY     -1574.255710149506
Dispersion correction            ... done
Dispersion correction           -0.038742545
FINAL SINGLE POINT ENERGY     -1574.255505844234
Dispersion correction            ... done
FINAL SINGLE POINT ENERGY     -1574.255923345418
FINAL SINGLE POINT ENERGY     -1574.255739644483
FINAL SINGLE POINT ENERGY     -1574.255911235914
FINAL SINGLE POINT ENERGY     -1574.255914171773
FINAL SINGLE POINT ENERGY     -1574.255998968056
FINAL SINGLE POINT ENERGY     -1574.255945377871
FINAL SINGLE POINT ENERGY     -1574.255771779177
FINAL SINGLE POINT ENERGY     -1574.255815678975
FINAL SINGLE POINT ENERGY     -1574.255865927104
Dispersion correction            ... done
Dispersion correction           -0.038960901
FINAL SINGLE POINT ENERGY     -1574.255820530250
Dispersion correction            ... done
Dispersion correction           -0.038952729
FINAL SINGLE POINT ENERGY     -1574.255841958665
Dispersion correction            ... done
                    ***********************HURRAY********************

CARTESIAN COORDINATES (ANGSTROEM)
---------------------------------
  C     -1.674049   -1.238824    0.210109
  S     -2.836447    0.001507    0.498060
  C     -1.671307    1.239585    0.211595
  C     -0.441248    0.716211   -0.116433
  C     -0.442880   -0.717699   -0.117264
  S      0.924611   -1.758591   -0.509152
  C      2.382932   -0.785252   -0.145885
  O      3.434004   -1.349794   -0.036095
  C      2.384938    0.777794   -0.142270
  O      3.436801    1.339479   -0.027199
  S      0.928568    1.754712   -0.507361
  H     -1.946709   -2.288659    0.303770
  H     -1.942004    2.289780    0.306767

 Multiplicity           Mult            ....    1
 Number of Electrons    NEL             ....  102
 Basis Dimension        Dim             ....  176

ORBITAL ENERGIES
----------------

  NO   OCC          E(Eh)            E(eV)
   0   2.0000     -88.908171     -2419.3143
   1   2.0000     -88.893635     -2418.9188
   2   2.0000     -88.893561     -2418.9168
   3   2.0000     -19.166891      -521.5576
   4   2.0000     -19.166684      -521.5520
   5   2.0000     -10.326479      -280.9978
   6   2.0000     -10.326362      -280.9946
   7   2.0000     -10.255993      -279.0798
   8   2.0000     -10.255777      -279.0739
   9   2.0000     -10.245952      -278.8065
  10   2.0000     -10.245906      -278.8053
  11   2.0000      -8.003271      -217.7801
  12   2.0000      -7.989572      -217.4073
  13   2.0000      -7.989498      -217.4053
  14   2.0000      -5.971424      -162.4907
  15   2.0000      -5.967227      -162.3765
  16   2.0000      -5.964550      -162.3036
  17   2.0000      -5.958283      -162.1331
  18   2.0000      -5.958226      -162.1316
  19   2.0000      -5.954126      -162.0200
  20   2.0000      -5.954072      -162.0185
  21   2.0000      -5.949215      -161.8864
  22   2.0000      -5.949155      -161.8847
  23   2.0000      -1.093907       -29.7667
  24   2.0000      -1.065004       -28.9802
  25   2.0000      -0.925756       -25.1911
  26   2.0000      -0.842071       -22.9139
  27   2.0000      -0.818549       -22.2738
  28   2.0000      -0.745185       -20.2775
  29   2.0000      -0.733485       -19.9591
  30   2.0000      -0.660394       -17.9702
  31   2.0000      -0.604357       -16.4454
  32   2.0000      -0.588571       -16.0158
  33   2.0000      -0.555085       -15.1046
  34   2.0000      -0.504623       -13.7315
  35   2.0000      -0.490398       -13.3444
  36   2.0000      -0.475164       -12.9299
  37   2.0000      -0.471207       -12.8222
  38   2.0000      -0.454019       -12.3545
  39   2.0000      -0.433753       -11.8030
  40   2.0000      -0.430073       -11.7029
  41   2.0000      -0.414546       -11.2804
  42   2.0000      -0.403137       -10.9699
  43   2.0000      -0.385158       -10.4807
  44   2.0000      -0.372393       -10.1333
  45   2.0000      -0.332313        -9.0427
  46   2.0000      -0.327420        -8.9095
  47   2.0000      -0.322122        -8.7654
  48   2.0000      -0.277077        -7.5396
  49   2.0000      -0.253756        -6.9051
  50   2.0000      -0.252030        -6.8581
  51   0.0000      -0.102260        -2.7826
  52   0.0000      -0.051741        -1.4079
  53   0.0000      -0.017611        -0.4792
  54   0.0000       0.001903         0.0518
  55   0.0000       0.011457         0.3118

MULLIKEN ATOMIC CHARGES
-----------------------
   0 C :   -0.116001
   1 S :    0.143733
   2 C :   -0.116094
   3 C :   -0.028213
   4 C :   -0.028352
   5 S :    0.101596
   6 C :    0.066633
   7 O :   -0.135692
   8 C :    0.066425
   9 O :   -0.135155
  10 S :    0.101240
  11 H :    0.039919
  12 H :    0.039961
Sum of atomic charges:    0.0000000

LOEWDIN ATOMIC CHARGES
----------------------
   0 C :   -0.204111
   1 S :    0.468897
   2 C :   -0.204076
   3 C :   -0.223877
   4 C :   -0.223947
   5 S :    0.368307
   6 C :   -0.109265
   7 O :   -0.098384
   8 C :   -0.108969
   9 O :   -0.097945
  10 S :    0.367677
  11 H :    0.032847
  12 H :    0.032846

  Mayer bond orders larger than 0.100000
B(  0-C ,  1-S ) :   1.1856 B(  0-C ,  4-C ) :   1.5560 B(  0-C , 11-H ) :   0.9672
B(  1-S ,  2-C ) :   1.1857 B(  2-C ,  3-C ) :   1.5560 B(  2-C , 12-H ) :   0.9672
B(  3-C ,  4-C ) :   1.2611 B(  3-C , 10-S ) :   0.9824 B(  4-C ,  5-S ) :   0.9823
B(  5-S ,  6-C ) :   1.0311 B(  5-S ,  7-O ) :   0.1450 B(  6-C ,  7-O ) :   2.1332
B(  6-C ,  8-C ) :   0.7476 B(  8-C ,  9-O ) :   2.1341 B(  8-C , 10-S ) :   1.0304
B(  9-O , 10-S ) :   0.1450

Dispersion correction           -0.038951584
FINAL SINGLE POINT ENERGY     -1574.255844848753

DIPOLE MOMENT
-------------
                                X             Y             Z
Electronic contribution:      2.27268      -0.00165      -0.68598
Nuclear contribution   :     -4.24626       0.00401       0.75075
                        -----------------------------------------
Total Dipole Moment    :     -1.97358       0.00236       0.06476
                        -----------------------------------------
Magnitude (a.u.)       :      1.97464
Magnitude (Debye)      :      5.01914

Rotational constants in cm-1:     0.048709     0.018746     0.013891
Rotational constants in MHz :  1460.266284   561.990134   416.442621

                             ****ORCA TERMINATED NORMALLY****
TOTAL RUN TIME: 0 days 0 hours 12 minutes 20 seconds 606 msec
