                         Program Version 4.2.0 -  RELEASE  -
|  1> # ORCA input file
|  2> # SCF done        -31.272277057556          0.000633255922
|  3> ! B3LYP/G D3BJ Opt RIJCOSX def2-SVP def2/J
|  4> * xyz 0 2
|  5>    C       -1.56823         1.20544        -0.01631
|  6>    C       -2.45898         0.06929         0.06616
|  7>    C       -3.81036         0.14554         0.04180
|  8>    C       -1.63605        -1.11767         0.19922
|  9>    C       -0.28062        -0.69227         0.14977
| 10>    C       -0.28207         0.77400         0.03592
| 11>    C        0.92595         1.52659        -0.01891
| 12>    C        2.14574         0.96553        -0.01451
| 13>    S        2.44737        -0.74614         0.02204
| 14>    C        0.86750        -1.42506         0.11283
| 15>    C       -2.16371        -2.42960         0.36004
| 16>    C       -1.54711        -3.50657         0.86758
| 17>    H       -1.89979         2.22334        -0.10673
| 18>    H       -4.30392         1.09734        -0.04862
| 19>    H       -4.44127        -0.72262         0.10755
| 20>    H        0.84539         2.60423        -0.06522
| 21>    H        3.05652         1.53968        -0.05038
| 22>    H        0.88205        -2.50083         0.10414
| 23>    H       -3.20004        -2.53970         0.06291
| 24>    H       -0.55023        -3.47311         1.26706
| 25>    H       -2.05460        -4.45270         0.93683
| 26> *
| 27>
| 28>                          ****END OF INPUT****
 Total Charge           Charge          ....    0
 Multiplicity           Mult            ....    2
 Number of Electrons    NEL             ....   91
Dispersion correction           -0.047634490
FINAL SINGLE POINT ENERGY      -822.324566595009
Dispersion correction            ... done
Dispersion correction           -0.047358531
FINAL SINGLE POINT ENERGY      -822.327999508988
Dispersion correction            ... done
Dispersion correction           -0.047304112
FINAL SINGLE POINT ENERGY      -822.328090951267
Dispersion correction            ... done
FINAL SINGLE POINT ENERGY      -822.328080120953
Dispersion correction            ... done
Dispersion correction           -0.047289422
FINAL SINGLE POINT ENERGY      -822.328071510636
Dispersion correction            ... done
Dispersion correction           -0.047291464
FINAL SINGLE POINT ENERGY      -822.328071199519
Dispersion correction            ... done
                    ***********************HURRAY********************

CARTESIAN COORDINATES (ANGSTROEM)
---------------------------------
  C     -1.573490    1.229683   -0.035193
  C     -2.464245    0.082027    0.082597
  C     -3.836547    0.141886    0.083415
  C     -1.638666   -1.110659    0.224111
  C     -0.268086   -0.675029    0.178349
  C     -0.275216    0.800902    0.018719
  C      0.946184    1.547601   -0.067278
  C      2.176795    0.977420   -0.027295
  S      2.486397   -0.732909    0.115611
  C      0.893450   -1.406188    0.206522
  C     -2.173256   -2.440097    0.354454
  C     -1.568696   -3.565137    0.800089
  H     -1.908276    2.260588   -0.149615
  H     -4.350282    1.099696   -0.024668
  H     -4.454296   -0.750280    0.196191
  H      0.882008    2.633827   -0.180333
  H      3.091028    1.570065   -0.099663
  H      0.895997   -2.494384    0.268197
  H     -3.223163   -2.535470    0.054313
  H     -0.550411   -3.577173    1.191096
  H     -2.113689   -4.511657    0.823552

 Multiplicity           Mult            ....    2
 Number of Electrons    NEL             ....   91
 Basis Dimension        Dim             ....  217

ORBITAL ENERGIES
----------------
                 SPIN UP ORBITALS
  NO   OCC          E(Eh)            E(eV)
   0   1.0000     -88.885254     -2418.6907
   1   1.0000     -10.233135      -278.4578
   2   1.0000     -10.228183      -278.3230
   3   1.0000     -10.210233      -277.8346
   4   1.0000     -10.204825      -277.6874
   5   1.0000     -10.197399      -277.4853
   6   1.0000     -10.196333      -277.4563
   7   1.0000     -10.194893      -277.4171
   8   1.0000     -10.194339      -277.4021
   9   1.0000     -10.193618      -277.3825
  10   1.0000     -10.186896      -277.1995
  11   1.0000     -10.179696      -277.0036
  12   1.0000      -7.980142      -217.1507
  13   1.0000      -5.948528      -161.8677
  14   1.0000      -5.944168      -161.7490
  15   1.0000      -5.941291      -161.6707
  16   1.0000      -0.885014       -24.0824
  17   1.0000      -0.842597       -22.9282
  18   1.0000      -0.787283       -21.4231
  19   1.0000      -0.761010       -20.7081
  20   1.0000      -0.755487       -20.5579
  21   1.0000      -0.692494       -18.8437
  22   1.0000      -0.682507       -18.5720
  23   1.0000      -0.612873       -16.6771
  24   1.0000      -0.599642       -16.3171
  25   1.0000      -0.562058       -15.2944
  26   1.0000      -0.533171       -14.5083
  27   1.0000      -0.505998       -13.7689
  28   1.0000      -0.487646       -13.2695
  29   1.0000      -0.474574       -12.9138
  30   1.0000      -0.458026       -12.4635
  31   1.0000      -0.439769       -11.9667
  32   1.0000      -0.421468       -11.4687
  33   1.0000      -0.412266       -11.2183
  34   1.0000      -0.408528       -11.1166
  35   1.0000      -0.391964       -10.6659
  36   1.0000      -0.387792       -10.5524
  37   1.0000      -0.358867        -9.7653
  38   1.0000      -0.355890        -9.6843
  39   1.0000      -0.345243        -9.3945
  40   1.0000      -0.334302        -9.0968
  41   1.0000      -0.315550        -8.5866
  42   1.0000      -0.284783        -7.7493
  43   1.0000      -0.279470        -7.6048
  44   1.0000      -0.204398        -5.5619
  45   1.0000      -0.179493        -4.8842
  46   0.0000      -0.057082        -1.5533
  47   0.0000      -0.024918        -0.6781
  48   0.0000       0.016023         0.4360
  49   0.0000       0.046661         1.2697
  50   0.0000       0.063519         1.7284

                 SPIN DOWN ORBITALS
  NO   OCC          E(Eh)            E(eV)
   0   1.0000     -88.885049     -2418.6852
   1   1.0000     -10.229037      -278.3462
   2   1.0000     -10.228872      -278.3417
   3   1.0000     -10.209261      -277.8081
   4   1.0000     -10.206757      -277.7400
   5   1.0000     -10.198232      -277.5080
   6   1.0000     -10.197327      -277.4834
   7   1.0000     -10.195466      -277.4327
   8   1.0000     -10.190298      -277.2921
   9   1.0000     -10.187407      -277.2134
  10   1.0000     -10.183434      -277.1053
  11   1.0000     -10.178942      -276.9831
  12   1.0000      -7.979942      -217.1453
  13   1.0000      -5.948466      -161.8660
  14   1.0000      -5.944107      -161.7474
  15   1.0000      -5.940513      -161.6496
  16   1.0000      -0.883005       -24.0278
  17   1.0000      -0.839740       -22.8505
  18   1.0000      -0.784148       -21.3378
  19   1.0000      -0.758359       -20.6360
  20   1.0000      -0.751010       -20.4360
  21   1.0000      -0.688337       -18.7306
  22   1.0000      -0.671464       -18.2715
  23   1.0000      -0.610495       -16.6124
  24   1.0000      -0.595828       -16.2133
  25   1.0000      -0.559977       -15.2377
  26   1.0000      -0.530108       -14.4250
  27   1.0000      -0.504200       -13.7200
  28   1.0000      -0.486011       -13.2250
  29   1.0000      -0.473509       -12.8848
  30   1.0000      -0.455755       -12.4017
  31   1.0000      -0.437955       -11.9173
  32   1.0000      -0.418247       -11.3811
  33   1.0000      -0.410712       -11.1760
  34   1.0000      -0.402974       -10.9655
  35   1.0000      -0.389796       -10.6069
  36   1.0000      -0.386367       -10.5136
  37   1.0000      -0.354745        -9.6531
  38   1.0000      -0.350376        -9.5342
  39   1.0000      -0.343386        -9.3440
  40   1.0000      -0.333484        -9.0746
  41   1.0000      -0.306486        -8.3399
  42   1.0000      -0.276849        -7.5334
  43   1.0000      -0.265174        -7.2158
  44   1.0000      -0.191655        -5.2152
  45   0.0000      -0.102249        -2.7823
  46   0.0000      -0.043255        -1.1770
  47   0.0000      -0.014789        -0.4024
  48   0.0000       0.024249         0.6598
  49   0.0000       0.048548         1.3211

MULLIKEN ATOMIC CHARGES AND SPIN POPULATIONS
--------------------------------------------
   0 C :   -0.071284    0.058722
   1 C :    0.019479   -0.214026
   2 C :   -0.045027    0.544258
   3 C :    0.052910    0.445009
   4 C :    0.091296   -0.158983
   5 C :    0.068212   -0.060282
   6 C :    0.048130    0.077298
   7 C :   -0.095159   -0.056406
   8 S :    0.101742    0.030502
   9 C :   -0.161145    0.298455
  10 C :   -0.026391   -0.152442
  11 C :   -0.048097    0.267982
  12 H :   -0.037948   -0.002127
  13 H :    0.013832   -0.025172
  14 H :    0.016306   -0.024275
  15 H :   -0.013418   -0.003225
  16 H :    0.040959    0.002185
  17 H :    0.035258   -0.012087
  18 H :   -0.017950    0.009187
  19 H :    0.009731   -0.011636
  20 H :    0.018562   -0.012938
Sum of atomic charges         :   -0.0000000

LOEWDIN ATOMIC CHARGES AND SPIN POPULATIONS
-------------------------------------------
   0 C :   -0.048522    0.037466
   1 C :   -0.023218   -0.108581
   2 C :   -0.027917    0.441245
   3 C :   -0.028593    0.330261
   4 C :   -0.033404   -0.082285
   5 C :   -0.026498   -0.044893
   6 C :   -0.038025    0.055399
   7 C :   -0.181295   -0.041136
   8 S :    0.425277    0.038858
   9 C :   -0.162942    0.239525
  10 C :   -0.024039   -0.082508
  11 C :   -0.060579    0.216202
  12 H :    0.020318   -0.000328
  13 H :    0.023766   -0.001081
  14 H :    0.020693   -0.000547
  15 H :    0.037756   -0.000015
  16 H :    0.030783   -0.000189
  17 H :    0.028444    0.000781
  18 H :    0.029066    0.002859
  19 H :    0.015337   -0.000254
  20 H :    0.023591   -0.000778

  Mayer bond orders larger than 0.100000
B(  0-C ,  1-C ) :   1.0739 B(  0-C ,  5-C ) :   1.5392 B(  0-C , 12-H ) :   1.0093
B(  1-C ,  2-C ) :   1.6311 B(  1-C ,  3-C ) :   1.1415 B(  2-C , 13-H ) :   0.9381
B(  2-C , 14-H ) :   0.9324 B(  3-C ,  4-C ) :   1.2004 B(  3-C , 10-C ) :   1.1905
B(  4-C ,  5-C ) :   1.0453 B(  4-C ,  9-C ) :   1.5191 B(  5-C ,  6-C ) :   1.1464
B(  6-C ,  7-C ) :   1.6692 B(  6-C , 15-H ) :   0.9698 B(  7-C ,  8-S ) :   1.0850
B(  7-C , 16-H ) :   0.9383 B(  8-S ,  9-C ) :   1.1226 B(  9-C , 17-H ) :   0.9248
B( 10-C , 11-C ) :   1.8260 B( 10-C , 18-H ) :   0.9407 B( 11-C , 19-H ) :   0.9505
B( 11-C , 20-H ) :   0.9413

Dispersion correction           -0.047290377
FINAL SINGLE POINT ENERGY      -822.328074593918

DIPOLE MOMENT
-------------
                                X             Y             Z
Electronic contribution:      8.97285       2.08596      -0.66002
Nuclear contribution   :     -8.66881      -1.86688       0.60456
                        -----------------------------------------
Total Dipole Moment    :      0.30404       0.21908      -0.05546
                        -----------------------------------------
Magnitude (a.u.)       :      0.37883
Magnitude (Debye)      :      0.96291

Rotational constants in cm-1:     0.046389     0.022407     0.015148
Rotational constants in MHz :  1390.717410   671.746762   454.114770

                             ****ORCA TERMINATED NORMALLY****
TOTAL RUN TIME: 0 days 0 hours 12 minutes 4 seconds 533 msec
