                         Program Version 4.2.0 -  RELEASE  -
|  1> # ORCA input file
|  2> # SCF done        -24.099453296064          0.000416979556
|  3> ! B3LYP/G D3BJ Opt RIJCOSX def2-SVP def2/J
|  4> * xyz 0 1
|  5>    C       -1.21486        -1.23661         0.00345
|  6>    S       -2.39837         0.03499         0.00778
|  7>    C       -1.19597         1.28871         0.00068
|  8>    C        0.03011         0.72855        -0.00270
|  9>    C        0.01947        -0.69488        -0.00114
| 10>    O        1.30315        -1.15488        -0.00437
| 11>    C        2.12010         0.00116        -0.01242
| 12>    O        1.32054         1.16930        -0.00691
| 13>    H       -1.52072        -2.26080         0.00553
| 14>    H       -1.48642         2.31738         0.00051
| 15>    H        2.75022        -0.00454        -0.91577
| 16>    H        2.76577        -0.00269         0.87958
| 17> *
| 18>
| 19>                          ****END OF INPUT****
 Total Charge           Charge          ....    0
 Multiplicity           Mult            ....    1
 Number of Electrons    NEL             ....   66
Dispersion correction           -0.021529388
FINAL SINGLE POINT ENERGY      -741.177504239157
Dispersion correction            ... done
Dispersion correction           -0.021547603
FINAL SINGLE POINT ENERGY      -741.179029832688
Dispersion correction            ... done
Dispersion correction           -0.021559446
FINAL SINGLE POINT ENERGY      -741.179157130331
Dispersion correction            ... done
FINAL SINGLE POINT ENERGY      -741.179187939219
Dispersion correction            ... done
Dispersion correction           -0.021564897
FINAL SINGLE POINT ENERGY      -741.179196918911
Dispersion correction            ... done
Dispersion correction           -0.021564004
FINAL SINGLE POINT ENERGY      -741.179196867434
Dispersion correction            ... done
                    ***********************HURRAY********************

CARTESIAN COORDINATES (ANGSTROEM)
---------------------------------
  C     -1.223900   -1.248361    0.003601
  S     -2.420066    0.035208    0.006056
  C     -1.204799    1.300657    0.000931
  C      0.030095    0.726961   -0.002223
  C      0.019372   -0.693064   -0.000696
  O      1.301356   -1.155362   -0.003074
  C      2.143318    0.000983   -0.012658
  O      1.319042    1.169957   -0.005589
  H     -1.526730   -2.292239    0.005603
  H     -1.492532    2.348791    0.000426
  H      2.764826   -0.004846   -0.925808
  H      2.783039   -0.002996    0.887652

 Multiplicity           Mult            ....    1
 Number of Electrons    NEL             ....   66
 Basis Dimension        Dim             ....  136

ORBITAL ENERGIES
----------------

  NO   OCC          E(Eh)            E(eV)
   0   2.0000     -88.871563     -2418.3182
   1   2.0000     -19.184815      -522.0454
   2   2.0000     -19.184716      -522.0427
   3   2.0000     -10.315387      -280.6959
   4   2.0000     -10.251734      -278.9639
   5   2.0000     -10.251444      -278.9560
   6   2.0000     -10.213419      -277.9213
   7   2.0000     -10.213360      -277.9197
   8   2.0000      -7.965782      -216.7599
   9   2.0000      -5.934452      -161.4847
  10   2.0000      -5.930326      -161.3724
  11   2.0000      -5.926191      -161.2598
  12   2.0000      -1.126940       -30.6656
  13   2.0000      -1.034355       -28.1462
  14   2.0000      -0.878524       -23.9059
  15   2.0000      -0.755315       -20.5532
  16   2.0000      -0.725608       -19.7448
  17   2.0000      -0.669039       -18.2055
  18   2.0000      -0.597496       -16.2587
  19   2.0000      -0.596936       -16.2435
  20   2.0000      -0.526878       -14.3371
  21   2.0000      -0.509195       -13.8559
  22   2.0000      -0.486990       -13.2517
  23   2.0000      -0.483651       -13.1608
  24   2.0000      -0.407878       -11.0989
  25   2.0000      -0.407377       -11.0853
  26   2.0000      -0.385632       -10.4936
  27   2.0000      -0.384539       -10.4638
  28   2.0000      -0.374380       -10.1874
  29   2.0000      -0.352464        -9.5910
  30   2.0000      -0.322131        -8.7656
  31   2.0000      -0.235374        -6.4049
  32   2.0000      -0.214606        -5.8397
  33   0.0000      -0.009894        -0.2692
  34   0.0000       0.027869         0.7584
  35   0.0000       0.069668         1.8958
  36   0.0000       0.083266         2.2658
  37   0.0000       0.083660         2.2765

MULLIKEN ATOMIC CHARGES
-----------------------
   0 C :   -0.185483
   1 S :    0.066995
   2 C :   -0.186124
   3 C :    0.205588
   4 C :    0.205213
   5 O :   -0.317338
   6 C :    0.408182
   7 O :   -0.317316
   8 H :    0.026747
   9 H :    0.027061
  10 H :    0.032755
  11 H :    0.033719
Sum of atomic charges:   -0.0000000

LOEWDIN ATOMIC CHARGES
----------------------
   0 C :   -0.227264
   1 S :    0.401673
   2 C :   -0.227336
   3 C :   -0.012546
   4 C :   -0.012592
   5 O :   -0.112970
   6 C :    0.216144
   7 O :   -0.113008
   8 H :    0.029330
   9 H :    0.029374
  10 H :    0.014391
  11 H :    0.014805

  Mayer bond orders larger than 0.100000
B(  0-C ,  1-S ) :   1.1016 B(  0-C ,  4-C ) :   1.5465 B(  0-C ,  8-H ) :   0.9833
B(  1-S ,  2-C ) :   1.1018 B(  2-C ,  3-C ) :   1.5465 B(  2-C ,  9-H ) :   0.9832
B(  3-C ,  4-C ) :   1.2289 B(  3-C ,  7-O ) :   1.0696 B(  4-C ,  5-O ) :   1.0696
B(  5-O ,  6-C ) :   0.9815 B(  6-C ,  7-O ) :   0.9816 B(  6-C , 10-H ) :   0.9543
B(  6-C , 11-H ) :   0.9548

Dispersion correction           -0.021564052
FINAL SINGLE POINT ENERGY      -741.179197287921

DIPOLE MOMENT
-------------
                                X             Y             Z
Electronic contribution:     -3.11499       0.02375       0.02228
Nuclear contribution   :      3.53401      -0.02711      -0.02724
                        -----------------------------------------
Total Dipole Moment    :      0.41902      -0.00336      -0.00495
                        -----------------------------------------
Magnitude (a.u.)       :      0.41906
Magnitude (Debye)      :      1.06517

Rotational constants in cm-1:     0.157689     0.048861     0.037578
Rotational constants in MHz :  4727.389113  1464.810083  1126.564686

                             ****ORCA TERMINATED NORMALLY****
TOTAL RUN TIME: 0 days 0 hours 2 minutes 59 seconds 191 msec
