                         Program Version 4.2.0 -  RELEASE  -
|  1> # ORCA input file
|  2> # SCF done        -21.548145652082          0.000768127798
|  3> ! B3LYP/G D3BJ Opt RIJCOSX def2-SVP def2/J
|  4> * xyz 0 1
|  5>    C       -1.78507        -0.94096         0.00545
|  6>    S       -1.56318         0.78280         0.00895
|  7>    C        0.15136         0.56960         0.00653
|  8>    C        0.48704        -0.78614         0.00473
|  9>    C       -0.62833        -1.65171         0.00499
| 10>    N        1.84530        -0.87186         0.00355
| 11>    C        2.35927         0.39499         0.00469
| 12>    C        1.34368         1.31599         0.00584
| 13>    H       -2.78730        -1.32134         0.00458
| 14>    H       -0.58141        -2.72591         0.00397
| 15>    H        2.38524        -1.72024         0.00219
| 16>    H        3.41935         0.55736         0.00469
| 17>    H        1.44473         2.38216         0.00689
| 18> *
| 19>
| 20>                          ****END OF INPUT****
 Total Charge           Charge          ....    0
 Multiplicity           Mult            ....    1
 Number of Electrons    NEL             ....   64
Dispersion correction           -0.025967978
FINAL SINGLE POINT ENERGY      -684.278317480332
Dispersion correction            ... done
Dispersion correction           -0.026004382
FINAL SINGLE POINT ENERGY      -684.280687810453
Dispersion correction            ... done
Dispersion correction           -0.026009745
FINAL SINGLE POINT ENERGY      -684.280756633434
Dispersion correction            ... done
Dispersion correction           -0.026007963
FINAL SINGLE POINT ENERGY      -684.280764083854
Dispersion correction            ... done
Dispersion correction           -0.026004312
FINAL SINGLE POINT ENERGY      -684.280766954400
Dispersion correction            ... done
                    ***********************HURRAY********************

CARTESIAN COORDINATES (ANGSTROEM)
---------------------------------
  C     -1.813723   -0.952198    0.005781
  S     -1.580875    0.784718    0.007909
  C      0.147065    0.580181    0.006382
  C      0.479375   -0.782629    0.004788
  C     -0.640536   -1.665283    0.004537
  N      1.851811   -0.870692    0.003872
  C      2.382224    0.405281    0.004861
  C      1.356637    1.334567    0.006152
  H     -2.827644   -1.350108    0.005671
  H     -0.593204   -2.755053    0.003186
  H      2.389848   -1.725758    0.002479
  H      3.458170    0.566907    0.004370
  H      1.481532    2.414807    0.007061

 Multiplicity           Mult            ....    1
 Number of Electrons    NEL             ....   64
 Basis Dimension        Dim             ....  141

ORBITAL ENERGIES
----------------

  NO   OCC          E(Eh)            E(eV)
   0   2.0000     -88.860880     -2418.0275
   1   2.0000     -14.376274      -391.1983
   2   2.0000     -10.215539      -277.9790
   3   2.0000     -10.211383      -277.8659
   4   2.0000     -10.204899      -277.6894
   5   2.0000     -10.193448      -277.3778
   6   2.0000     -10.192813      -277.3605
   7   2.0000     -10.180651      -277.0296
   8   2.0000      -7.955177      -216.4714
   9   2.0000      -5.923667      -161.1912
  10   2.0000      -5.919752      -161.0846
  11   2.0000      -5.915760      -160.9760
  12   2.0000      -0.972299       -26.4576
  13   2.0000      -0.853295       -23.2193
  14   2.0000      -0.767820       -20.8934
  15   2.0000      -0.718166       -19.5423
  16   2.0000      -0.692632       -18.8475
  17   2.0000      -0.591471       -16.0947
  18   2.0000      -0.585686       -15.9373
  19   2.0000      -0.542934       -14.7740
  20   2.0000      -0.511482       -13.9181
  21   2.0000      -0.458570       -12.4783
  22   2.0000      -0.433359       -11.7923
  23   2.0000      -0.425022       -11.5654
  24   2.0000      -0.421402       -11.4669
  25   2.0000      -0.382961       -10.4209
  26   2.0000      -0.372408       -10.1337
  27   2.0000      -0.341830        -9.3017
  28   2.0000      -0.336881        -9.1670
  29   2.0000      -0.274245        -7.4626
  30   2.0000      -0.219665        -5.9774
  31   2.0000      -0.201305        -5.4778
  32   0.0000      -0.007321        -0.1992
  33   0.0000       0.038898         1.0585
  34   0.0000       0.056999         1.5510
  35   0.0000       0.068601         1.8667
  36   0.0000       0.087074         2.3694

MULLIKEN ATOMIC CHARGES
-----------------------
   0 C :   -0.103505
   1 S :    0.097438
   2 C :   -0.062326
   3 C :    0.064119
   4 C :    0.004416
   5 N :   -0.066112
   6 C :    0.055863
   7 C :   -0.089054
   8 H :    0.022871
   9 H :   -0.023352
  10 H :    0.118932
  11 H :   -0.001226
  12 H :   -0.018064
Sum of atomic charges:   -0.0000000

LOEWDIN ATOMIC CHARGES
----------------------
   0 C :   -0.186082
   1 S :    0.388785
   2 C :   -0.212711
   3 C :   -0.043823
   4 C :   -0.087517
   5 N :    0.066071
   6 C :   -0.011949
   7 C :   -0.096496
   8 H :    0.021780
   9 H :    0.028370
  10 H :    0.087044
  11 H :    0.019992
  12 H :    0.026536

  Mayer bond orders larger than 0.100000
B(  0-C ,  1-S ) :   1.1433 B(  0-C ,  4-C ) :   1.5556 B(  0-C ,  8-H ) :   0.9620
B(  1-S ,  2-C ) :   1.0576 B(  2-C ,  3-C ) :   1.3947 B(  2-C ,  7-C ) :   1.2971
B(  3-C ,  4-C ) :   1.2043 B(  3-C ,  5-N ) :   1.1840 B(  4-C ,  9-H ) :   1.0071
B(  5-N ,  6-C ) :   1.1870 B(  5-N , 10-H ) :   0.9418 B(  6-C ,  7-C ) :   1.5042
B(  6-C , 11-H ) :   0.9849 B(  7-C , 12-H ) :   1.0139

Dispersion correction           -0.026002570
FINAL SINGLE POINT ENERGY      -684.280766262225

DIPOLE MOMENT
-------------
                                X             Y             Z
Electronic contribution:     -2.93674       1.86719       0.00478
Nuclear contribution   :      3.64158      -2.59134      -0.00617
                        -----------------------------------------
Total Dipole Moment    :      0.70484      -0.72415      -0.00140
                        -----------------------------------------
Magnitude (a.u.)       :      1.01054
Magnitude (Debye)      :      2.56859

Rotational constants in cm-1:     0.132152     0.057208     0.039925
Rotational constants in MHz :  3961.809657  1715.062115  1196.917957

                             ****ORCA TERMINATED NORMALLY****
TOTAL RUN TIME: 0 days 0 hours 2 minutes 57 seconds 129 msec
