                         Program Version 4.2.0 -  RELEASE  -
|  1> # ORCA input file
|  2> # SCF done        -26.574047468783          0.000562966171
|  3> ! B3LYP/G D3BJ Opt RIJCOSX def2-SVP def2/J
|  4> * xyz 0 1
|  5>    C       -1.55177        -1.21145         0.15367
|  6>    S       -2.71544         0.03399         0.24252
|  7>    C       -1.52155         1.24981         0.16330
|  8>    C       -0.25513         0.72114         0.07317
|  9>    C       -0.26768        -0.72129         0.06745
| 10>    C        0.96349        -1.43339        -0.02081
| 11>    C        1.00482        -2.93272        -0.02980
| 12>    C        2.11750        -0.70775        -0.09863
| 13>    C        2.12861         0.70674        -0.09368
| 14>    C        0.97435         1.41888        -0.00955
| 15>    H       -1.88703        -2.22874         0.17133
| 16>    H       -1.80668         2.28246         0.18768
| 17>    H        0.01210        -3.36187         0.05367
| 18>    H        1.60979        -3.29668         0.79990
| 19>    H        1.45928        -3.29034        -0.95317
| 20>    H        3.06253        -1.22794        -0.16759
| 21>    H        3.07912         1.21558        -0.15932
| 22>    H        0.96975         2.49849        -0.00483
| 23> *
| 24>
| 25>                          ****END OF INPUT****
 Total Charge           Charge          ....    0
 Multiplicity           Mult            ....    1
 Number of Electrons    NEL             ....   78
Dispersion correction           -0.038631658
FINAL SINGLE POINT ENERGY      -745.633530756953
Dispersion correction            ... done
Dispersion correction           -0.038461147
FINAL SINGLE POINT ENERGY      -745.636345394019
Dispersion correction            ... done
Dispersion correction           -0.038439348
FINAL SINGLE POINT ENERGY      -745.636438281103
Dispersion correction            ... done
FINAL SINGLE POINT ENERGY      -745.636443524469
FINAL SINGLE POINT ENERGY      -745.636453443227
FINAL SINGLE POINT ENERGY      -745.636463455154
FINAL SINGLE POINT ENERGY      -745.636563905073
FINAL SINGLE POINT ENERGY      -745.636725643284
FINAL SINGLE POINT ENERGY      -745.636983543359
FINAL SINGLE POINT ENERGY      -745.637381525048
FINAL SINGLE POINT ENERGY      -745.639392429463
FINAL SINGLE POINT ENERGY      -745.639401478535
FINAL SINGLE POINT ENERGY      -745.639402649981
FINAL SINGLE POINT ENERGY      -745.639404009770
FINAL SINGLE POINT ENERGY      -745.639406512367
FINAL SINGLE POINT ENERGY      -745.639412079945
FINAL SINGLE POINT ENERGY      -745.639418985766
Dispersion correction            ... done
Dispersion correction           -0.038542503
FINAL SINGLE POINT ENERGY      -745.639424690824
Dispersion correction            ... done
Dispersion correction           -0.038542567
FINAL SINGLE POINT ENERGY      -745.639426838007
Dispersion correction            ... done
                    ***********************HURRAY********************

CARTESIAN COORDINATES (ANGSTROEM)
---------------------------------
  C     -1.543488   -1.238976    0.036704
  S     -2.723691    0.005600    0.059939
  C     -1.549152    1.254136    0.056858
  C     -0.258051    0.737325    0.039313
  C     -0.254012   -0.716719    0.026768
  C      0.992709   -1.435629    0.007424
  C      0.984234   -2.936519   -0.011107
  C      2.155161   -0.701577    0.005338
  C      2.155339    0.731063    0.018836
  C      0.985621    1.443925    0.034091
  H     -1.850574   -2.282358    0.029886
  H     -1.850903    2.299678    0.069137
  H      0.463322   -3.345101    0.871772
  H      2.004414   -3.344788   -0.024112
  H      0.450542   -3.321948   -0.896845
  H      3.114072   -1.226733   -0.008384
  H      3.113047    1.257081    0.016005
  H      0.987472    2.536459    0.043688

 Multiplicity           Mult            ....    1
 Number of Electrons    NEL             ....   78
 Basis Dimension        Dim             ....  184

ORBITAL ENERGIES
----------------

  NO   OCC          E(Eh)            E(eV)
   0   2.0000     -88.882952     -2418.6281
   1   2.0000     -10.209694      -277.8199
   2   2.0000     -10.209604      -277.8175
   3   2.0000     -10.196593      -277.4634
   4   2.0000     -10.196347      -277.4567
   5   2.0000     -10.194653      -277.4106
   6   2.0000     -10.189499      -277.2704
   7   2.0000     -10.189007      -277.2570
   8   2.0000     -10.188216      -277.2355
   9   2.0000     -10.185409      -277.1591
  10   2.0000      -7.977564      -217.0806
  11   2.0000      -5.945256      -161.7786
  12   2.0000      -5.941152      -161.6670
  13   2.0000      -5.939983      -161.6352
  14   2.0000      -0.887920       -24.1615
  15   2.0000      -0.826369       -22.4866
  16   2.0000      -0.774362       -21.0715
  17   2.0000      -0.727721       -19.8023
  18   2.0000      -0.707951       -19.2643
  19   2.0000      -0.673416       -18.3246
  20   2.0000      -0.599688       -16.3183
  21   2.0000      -0.575283       -15.6542
  22   2.0000      -0.561053       -15.2670
  23   2.0000      -0.505414       -13.7530
  24   2.0000      -0.466917       -12.7055
  25   2.0000      -0.463791       -12.6204
  26   2.0000      -0.424892       -11.5619
  27   2.0000      -0.423354       -11.5200
  28   2.0000      -0.415770       -11.3137
  29   2.0000      -0.410177       -11.1615
  30   2.0000      -0.390627       -10.6295
  31   2.0000      -0.384839       -10.4720
  32   2.0000      -0.356345        -9.6966
  33   2.0000      -0.351117        -9.5544
  34   2.0000      -0.336659        -9.1609
  35   2.0000      -0.330926        -9.0049
  36   2.0000      -0.275801        -7.5049
  37   2.0000      -0.248149        -6.7525
  38   2.0000      -0.202442        -5.5087
  39   0.0000      -0.056138        -1.5276
  40   0.0000       0.023987         0.6527
  41   0.0000       0.028899         0.7864
  42   0.0000       0.051425         1.3993
  43   0.0000       0.063598         1.7306

MULLIKEN ATOMIC CHARGES
-----------------------
   0 C :   -0.167737
   1 S :    0.133668
   2 C :   -0.145781
   3 C :    0.099297
   4 C :    0.070728
   5 C :   -0.040087
   6 C :    0.082914
   7 C :   -0.045285
   8 C :    0.028759
   9 C :   -0.007893
  10 H :    0.015631
  11 H :    0.015537
  12 H :    0.023065
  13 H :    0.003228
  14 H :    0.023171
  15 H :   -0.035806
  16 H :   -0.023340
  17 H :   -0.030068
Sum of atomic charges:   -0.0000000

LOEWDIN ATOMIC CHARGES
----------------------
   0 C :   -0.217452
   1 S :    0.478346
   2 C :   -0.211761
   3 C :   -0.049831
   4 C :   -0.050771
   5 C :   -0.019008
   6 C :   -0.043968
   7 C :   -0.041391
   8 C :   -0.030753
   9 C :   -0.027740
  10 H :    0.022091
  11 H :    0.023654
  12 H :    0.032673
  13 H :    0.028276
  14 H :    0.032819
  15 H :    0.022628
  16 H :    0.025768
  17 H :    0.026418

  Mayer bond orders larger than 0.100000
B(  0-C ,  1-S ) :   1.1969 B(  0-C ,  2-C ) :   0.1184 B(  0-C ,  4-C ) :   1.4265
B(  0-C , 10-H ) :   0.9538 B(  1-S ,  2-C ) :   1.2055 B(  2-C ,  3-C ) :   1.4031
B(  2-C , 11-H ) :   0.9643 B(  3-C ,  4-C ) :   1.2025 B(  3-C ,  9-C ) :   1.1777
B(  4-C ,  5-C ) :   1.1913 B(  5-C ,  6-C ) :   1.0949 B(  5-C ,  7-C ) :   1.5613
B(  6-C , 12-H ) :   0.9446 B(  6-C , 13-H ) :   0.9531 B(  6-C , 14-H ) :   0.9447
B(  7-C ,  8-C ) :   1.1762 B(  7-C , 15-H ) :   0.9807 B(  8-C ,  9-C ) :   1.5470
B(  8-C , 16-H ) :   0.9802 B(  9-C , 17-H ) :   0.9944

Dispersion correction           -0.038542230
FINAL SINGLE POINT ENERGY      -745.639427781447

DIPOLE MOMENT
-------------
                                X             Y             Z
Electronic contribution:     -7.98597       4.72792       0.13670
Nuclear contribution   :      7.96774      -4.86556      -0.13870
                        -----------------------------------------
Total Dipole Moment    :     -0.01824      -0.13764      -0.00200
                        -----------------------------------------
Magnitude (a.u.)       :      0.13885
Magnitude (Debye)      :      0.35294

Rotational constants in cm-1:     0.068258     0.035085     0.023275
Rotational constants in MHz :  2046.332950  1051.819798   697.754213

                             ****ORCA TERMINATED NORMALLY****
TOTAL RUN TIME: 0 days 0 hours 21 minutes 16 seconds 457 msec
