                         Program Version 4.2.0 -  RELEASE  -
|  1> # ORCA input file
|  2> # SCF done        -35.020971715070          0.000601985791
|  3> ! B3LYP/G D3BJ Opt RIJCOSX def2-SVP def2/J
|  4> * xyz 0 1
|  5>    C       -1.46195         1.11156        -0.24614
|  6>    S       -2.54998        -0.18978        -0.39423
|  7>    C       -1.29652        -1.36654        -0.17339
|  8>    C       -0.05640        -0.75307        -0.04580
|  9>    C       -0.16672         0.68636        -0.06556
| 10>    C        0.98212         1.51547         0.08561
| 11>    C        0.83286         3.00435         0.08678
| 12>    C        2.19040         0.90069         0.20894
| 13>    C        2.31512        -0.50381         0.13829
| 14>    C        1.24453        -1.33991        -0.00130
| 15>    C        1.46836        -2.81148        -0.16641
| 16>    C       -1.73289        -2.74478        -0.07007
| 17>    C       -1.38971        -3.58147         0.90198
| 18>    H       -1.83328         2.11515        -0.29228
| 19>    H        0.15761         3.32091         0.88112
| 20>    H        0.41731         3.34549        -0.86113
| 21>    H        1.79658         3.48419         0.23602
| 22>    H        3.08714         1.49200         0.32805
| 23>    H        3.30959        -0.92608         0.17507
| 24>    H        2.48496        -2.99359        -0.51024
| 25>    H        0.77011        -3.23083        -0.88696
| 26>    H        1.33437        -3.34018         0.77669
| 27>    H       -2.46859        -3.04930        -0.80589
| 28>    H       -0.71927        -3.28864         1.69127
| 29>    H       -1.77635        -4.58494         0.94172
| 30> *
| 31>
| 32>                          ****END OF INPUT****
 Total Charge           Charge          ....    0
 Multiplicity           Mult            ....    1
 Number of Electrons    NEL             ....  100
Dispersion correction           -0.056331283
FINAL SINGLE POINT ENERGY      -862.277338948648
Dispersion correction            ... done
Dispersion correction           -0.055757656
FINAL SINGLE POINT ENERGY      -862.281139749847
Dispersion correction            ... done
Dispersion correction           -0.055950849
FINAL SINGLE POINT ENERGY      -862.281176399182
Dispersion correction            ... done
FINAL SINGLE POINT ENERGY      -862.281333714608
FINAL SINGLE POINT ENERGY      -862.281297241649
Dispersion correction            ... done
Dispersion correction           -0.055859127
FINAL SINGLE POINT ENERGY      -862.281226323223
Dispersion correction            ... done
Dispersion correction           -0.055853114
FINAL SINGLE POINT ENERGY      -862.281251362697
Dispersion correction            ... done
                    ***********************HURRAY********************

CARTESIAN COORDINATES (ANGSTROEM)
---------------------------------
  C     -1.471008    1.119919   -0.338287
  S     -2.551711   -0.193842   -0.497226
  C     -1.313953   -1.383461   -0.234378
  C     -0.058030   -0.765623   -0.092664
  C     -0.169049    0.688450   -0.112794
  C      0.981939    1.528057    0.083551
  C      0.824127    3.019600    0.158851
  C      2.197986    0.903908    0.203944
  C      2.328553   -0.514141    0.111132
  C      1.255050   -1.365258   -0.033213
  C      1.489380   -2.841480   -0.218519
  C     -1.769292   -2.757413   -0.024795
  C     -1.385735   -3.545339    0.991304
  H     -1.829250    2.143233   -0.425440
  H      0.097135    3.303044    0.938478
  H      0.449072    3.440453   -0.790209
  H      1.779861    3.509411    0.394346
  H      3.098993    1.505235    0.352294
  H      3.333957   -0.942691    0.140659
  H      2.536777   -3.024634   -0.500484
  H      0.841573   -3.256352   -1.004173
  H      1.279466   -3.425981    0.691529
  H     -2.544209   -3.121888   -0.711321
  H     -0.673059   -3.197298    1.742830
  H     -1.789173   -4.554138    1.106724

 Multiplicity           Mult            ....    1
 Number of Electrons    NEL             ....  100
 Basis Dimension        Dim             ....  246

ORBITAL ENERGIES
----------------

  NO   OCC          E(Eh)            E(eV)
   0   2.0000     -88.879023     -2418.5212
   1   2.0000     -10.216016      -277.9919
   2   2.0000     -10.209266      -277.8082
   3   2.0000     -10.204098      -277.6676
   4   2.0000     -10.196937      -277.4728
   5   2.0000     -10.194662      -277.4109
   6   2.0000     -10.194158      -277.3971
   7   2.0000     -10.193543      -277.3804
   8   2.0000     -10.189875      -277.2806
   9   2.0000     -10.188402      -277.2405
  10   2.0000     -10.183188      -277.0986
  11   2.0000     -10.182520      -277.0804
  12   2.0000     -10.181292      -277.0470
  13   2.0000      -7.974089      -216.9860
  14   2.0000      -5.941811      -161.6849
  15   2.0000      -5.937780      -161.5752
  16   2.0000      -5.936188      -161.5319
  17   2.0000      -0.889023       -24.1916
  18   2.0000      -0.829139       -22.5620
  19   2.0000      -0.794179       -21.6107
  20   2.0000      -0.768793       -20.9199
  21   2.0000      -0.726605       -19.7719
  22   2.0000      -0.710164       -19.3245
  23   2.0000      -0.698126       -18.9970
  24   2.0000      -0.644488       -17.5374
  25   2.0000      -0.605648       -16.4805
  26   2.0000      -0.593980       -16.1630
  27   2.0000      -0.566911       -15.4264
  28   2.0000      -0.524112       -14.2618
  29   2.0000      -0.493915       -13.4401
  30   2.0000      -0.466895       -12.7049
  31   2.0000      -0.465917       -12.6782
  32   2.0000      -0.456319       -12.4171
  33   2.0000      -0.427661       -11.6372
  34   2.0000      -0.424548       -11.5525
  35   2.0000      -0.414684       -11.2841
  36   2.0000      -0.411438       -11.1958
  37   2.0000      -0.401747       -10.9321
  38   2.0000      -0.392991       -10.6938
  39   2.0000      -0.384264       -10.4564
  40   2.0000      -0.376696       -10.2504
  41   2.0000      -0.362929        -9.8758
  42   2.0000      -0.352047        -9.5797
  43   2.0000      -0.349142        -9.5006
  44   2.0000      -0.333674        -9.0797
  45   2.0000      -0.323144        -8.7932
  46   2.0000      -0.291285        -7.9263
  47   2.0000      -0.254170        -6.9163
  48   2.0000      -0.246261        -6.7011
  49   2.0000      -0.193758        -5.2724
  50   0.0000      -0.061887        -1.6840
  51   0.0000      -0.005796        -0.1577
  52   0.0000       0.026306         0.7158
  53   0.0000       0.038914         1.0589
  54   0.0000       0.042328         1.1518

MULLIKEN ATOMIC CHARGES
-----------------------
   0 C :   -0.158059
   1 S :    0.135114
   2 C :   -0.211397
   3 C :    0.129876
   4 C :    0.060564
   5 C :   -0.046362
   6 C :    0.088364
   7 C :   -0.035120
   8 C :   -0.032535
   9 C :   -0.086313
  10 C :    0.107562
  11 C :   -0.021762
  12 C :   -0.014454
  13 H :    0.014426
  14 H :    0.021722
  15 H :    0.021464
  16 H :    0.003347
  17 H :   -0.037572
  18 H :   -0.038988
  19 H :   -0.001764
  20 H :    0.020747
  21 H :    0.017698
  22 H :    0.007615
  23 H :    0.033956
  24 H :    0.021869
Sum of atomic charges:    0.0000000

LOEWDIN ATOMIC CHARGES
----------------------
   0 C :   -0.212726
   1 S :    0.474787
   2 C :   -0.192848
   3 C :   -0.045542
   4 C :   -0.047401
   5 C :   -0.024242
   6 C :   -0.043967
   7 C :   -0.039592
   8 C :   -0.037083
   9 C :   -0.022540
  10 C :   -0.043117
  11 C :   -0.052325
  12 C :   -0.040220
  13 H :    0.022313
  14 H :    0.031605
  15 H :    0.031883
  16 H :    0.028716
  17 H :    0.022819
  18 H :    0.022305
  19 H :    0.026367
  20 H :    0.032033
  21 H :    0.030025
  22 H :    0.028867
  23 H :    0.024903
  24 H :    0.024979

  Mayer bond orders larger than 0.100000
B(  0-C ,  1-S ) :   1.1860 B(  0-C ,  2-C ) :   0.1146 B(  0-C ,  4-C ) :   1.4264
B(  0-C , 13-H ) :   0.9534 B(  1-S ,  2-C ) :   1.1689 B(  2-C ,  3-C ) :   1.3826
B(  2-C , 11-C ) :   1.0551 B(  3-C ,  4-C ) :   1.1828 B(  3-C ,  9-C ) :   1.1961
B(  4-C ,  5-C ) :   1.1879 B(  5-C ,  6-C ) :   1.0998 B(  5-C ,  7-C ) :   1.5482
B(  6-C , 14-H ) :   0.9437 B(  6-C , 15-H ) :   0.9417 B(  6-C , 16-H ) :   0.9520
B(  7-C ,  8-C ) :   1.1716 B(  7-C , 17-H ) :   0.9802 B(  8-C ,  9-C ) :   1.5477
B(  8-C , 18-H ) :   0.9780 B(  9-C , 10-C ) :   1.1109 B( 10-C , 19-H ) :   0.9458
B( 10-C , 20-H ) :   0.9430 B( 10-C , 21-H ) :   0.9348 B( 11-C , 12-C ) :   1.9472
B( 11-C , 22-H ) :   0.9466 B( 12-C , 23-H ) :   0.9519 B( 12-C , 24-H ) :   0.9455

Dispersion correction           -0.055852550
FINAL SINGLE POINT ENERGY      -862.281264146063

DIPOLE MOMENT
-------------
                                X             Y             Z
Electronic contribution:     -8.64576       2.15085      -2.29454
Nuclear contribution   :      8.64694      -2.08058       2.31039
                        -----------------------------------------
Total Dipole Moment    :      0.00118       0.07027       0.01585
                        -----------------------------------------
Magnitude (a.u.)       :      0.07204
Magnitude (Debye)      :      0.18311

Rotational constants in cm-1:     0.033570     0.022755     0.014159
Rotational constants in MHz :  1006.395135   682.174896   424.472569

                             ****ORCA TERMINATED NORMALLY****
TOTAL RUN TIME: 0 days 0 hours 14 minutes 43 seconds 825 msec
