                         Program Version 4.2.0 -  RELEASE  -
|  1> # ORCA input file
|  2> # SCF done        -45.141310990961          0.000523191647
|  3> ! B3LYP/G D3BJ Opt RIJCOSX def2-SVP def2/J
|  4> * xyz 0 1
|  5>    C        0.53047        -1.27289         0.51293
|  6>    C        1.05047        -0.03734         0.36116
|  7>    C       -0.03466         0.91909         0.37486
|  8>    C       -1.26500         0.11454         0.55735
|  9>    C       -0.91337        -1.18709         0.64220
| 10>    O       -2.48423         0.69815         0.63093
| 11>    C       -3.56857        -0.17007         0.85379
| 12>    C        0.04062         2.27071         0.24706
| 13>    C       -1.04067         3.21568         0.20943
| 14>    C       -0.53164         4.47145         0.04767
| 15>    C        0.92805         4.37855        -0.00951
| 16>    C        1.27528         3.08124         0.10465
| 17>    O        2.49740         2.50388         0.11954
| 18>    C        3.59555         3.37931         0.03198
| 19>    C       -1.30591         5.67769        -0.05360
| 20>    C       -0.81362         6.90392        -0.22909
| 21>    H        1.07213        -2.20157         0.53823
| 22>    H        2.07908         0.23266         0.23727
| 23>    H       -1.55260        -2.03855         0.77974
| 24>    H       -4.45773         0.45644         0.90290
| 25>    H       -3.45025        -0.71448         1.79636
| 26>    H       -3.67215        -0.89113         0.03643
| 27>    H       -2.07414         2.94376         0.28409
| 28>    H        1.57963         5.22288        -0.12228
| 29>    H        3.59693         4.09329         0.86199
| 30>    H        3.58718         3.93064        -0.91383
| 31>    H        4.48751         2.75717         0.08394
| 32>    H       -2.37750         5.53822         0.02202
| 33>    H        0.24301         7.09192        -0.31123
| 34>    H       -1.45607         7.76499        -0.29875
| 35> *
| 36>
| 37>                          ****END OF INPUT****
 Total Charge           Charge          ....    0
 Multiplicity           Mult            ....    1
 Number of Electrons    NEL             ....  114
Dispersion correction           -0.057094869
FINAL SINGLE POINT ENERGY      -691.803841085155
Dispersion correction            ... done
Dispersion correction           -0.056923418
FINAL SINGLE POINT ENERGY      -691.807763583857
Dispersion correction            ... done
Dispersion correction           -0.056919950
FINAL SINGLE POINT ENERGY      -691.807909096143
Dispersion correction            ... done
FINAL SINGLE POINT ENERGY      -691.807927572109
Dispersion correction            ... done
Dispersion correction           -0.056929331
FINAL SINGLE POINT ENERGY      -691.807926671495
Dispersion correction            ... done
Dispersion correction           -0.056928455
FINAL SINGLE POINT ENERGY      -691.807924163681
Dispersion correction            ... done
                    ***********************HURRAY********************

CARTESIAN COORDINATES (ANGSTROEM)
---------------------------------
  C      0.544279   -1.300678    0.551524
  C      1.081140   -0.056847    0.422879
  C     -0.019367    0.909805    0.418961
  C     -1.261990    0.098254    0.579358
  C     -0.921846   -1.220270    0.652406
  O     -2.469645    0.687348    0.643896
  C     -3.581770   -0.165488    0.806753
  C      0.043561    2.269078    0.278166
  C     -1.053921    3.223420    0.229703
  C     -0.536112    4.482743    0.061791
  C      0.941903    4.399509    0.001397
  C      1.284506    3.089031    0.125837
  O      2.496120    2.510428    0.129077
  C      3.609387    3.365106   -0.025450
  C     -1.320146    5.695703   -0.042616
  C     -0.834336    6.940286   -0.208293
  H      1.104102   -2.236567    0.578759
  H      2.126131    0.214876    0.321445
  H     -1.589487   -2.069465    0.777337
  H     -4.473612    0.473908    0.827574
  H     -3.511692   -0.734581    1.751587
  H     -3.661092   -0.883911   -0.028860
  H     -2.102131    2.955075    0.309948
  H      1.611139    5.245656   -0.127708
  H      3.649735    4.117987    0.781860
  H      3.573844    3.893885   -0.995099
  H      4.505017    2.732208    0.016599
  H     -2.405083    5.555174    0.024269
  H      0.237854    7.139038   -0.285522
  H     -1.501288    7.802348   -0.279348

 Multiplicity           Mult            ....    1
 Number of Electrons    NEL             ....  114
 Basis Dimension        Dim             ....  294

ORBITAL ENERGIES
----------------

  NO   OCC          E(Eh)            E(eV)
   0   2.0000     -19.174348      -521.7605
   1   2.0000     -19.171767      -521.6903
   2   2.0000     -10.249301      -278.8977
   3   2.0000     -10.247435      -278.8469
   4   2.0000     -10.245260      -278.7877
   5   2.0000     -10.240132      -278.6481
   6   2.0000     -10.207539      -277.7613
   7   2.0000     -10.204974      -277.6915
   8   2.0000     -10.194844      -277.4158
   9   2.0000     -10.194550      -277.4078
  10   2.0000     -10.189804      -277.2787
  11   2.0000     -10.185665      -277.1660
  12   2.0000     -10.176266      -276.9103
  13   2.0000     -10.173140      -276.8252
  14   2.0000     -10.170372      -276.7499
  15   2.0000     -10.165335      -276.6128
  16   2.0000      -1.069273       -29.0964
  17   2.0000      -1.065940       -29.0057
  18   2.0000      -0.865778       -23.5590
  19   2.0000      -0.843961       -22.9653
  20   2.0000      -0.777341       -21.1525
  21   2.0000      -0.737613       -20.0715
  22   2.0000      -0.729852       -19.8603
  23   2.0000      -0.721051       -19.6208
  24   2.0000      -0.680207       -18.5094
  25   2.0000      -0.670272       -18.2390
  26   2.0000      -0.637771       -17.3546
  27   2.0000      -0.584844       -15.9144
  28   2.0000      -0.563068       -15.3219
  29   2.0000      -0.555591       -15.1184
  30   2.0000      -0.547141       -14.8885
  31   2.0000      -0.527201       -14.3459
  32   2.0000      -0.517177       -14.0731
  33   2.0000      -0.477051       -12.9812
  34   2.0000      -0.475587       -12.9414
  35   2.0000      -0.473931       -12.8963
  36   2.0000      -0.469714       -12.7816
  37   2.0000      -0.455514       -12.3952
  38   2.0000      -0.443575       -12.0703
  39   2.0000      -0.435770       -11.8579
  40   2.0000      -0.425716       -11.5843
  41   2.0000      -0.399624       -10.8743
  42   2.0000      -0.396282       -10.7834
  43   2.0000      -0.393693       -10.7129
  44   2.0000      -0.381533       -10.3820
  45   2.0000      -0.371289       -10.1033
  46   2.0000      -0.369841       -10.0639
  47   2.0000      -0.356613        -9.7039
  48   2.0000      -0.352583        -9.5943
  49   2.0000      -0.342078        -9.3084
  50   2.0000      -0.333665        -9.0795
  51   2.0000      -0.318195        -8.6585
  52   2.0000      -0.316704        -8.6179
  53   2.0000      -0.282850        -7.6967
  54   2.0000      -0.235648        -6.4123
  55   2.0000      -0.197573        -5.3762
  56   2.0000      -0.192814        -5.2467
  57   0.0000      -0.098712        -2.6861
  58   0.0000      -0.003851        -0.1048
  59   0.0000       0.044426         1.2089
  60   0.0000       0.060979         1.6593
  61   0.0000       0.064430         1.7532

MULLIKEN ATOMIC CHARGES
-----------------------
   0 C :    0.056101
   1 C :   -0.023020
   2 C :   -0.003411
   3 C :    0.189499
   4 C :   -0.129389
   5 O :   -0.302950
   6 C :    0.196252
   7 C :    0.043308
   8 C :   -0.092047
   9 C :    0.118103
  10 C :   -0.146184
  11 C :    0.196213
  12 O :   -0.299427
  13 C :    0.196171
  14 C :   -0.003724
  15 C :   -0.021498
  16 H :   -0.021802
  17 H :   -0.018873
  18 H :   -0.033865
  19 H :    0.029218
  20 H :    0.017824
  21 H :    0.020935
  22 H :   -0.019840
  23 H :   -0.039483
  24 H :    0.022325
  25 H :    0.017816
  26 H :    0.031282
  27 H :   -0.015245
  28 H :    0.012844
  29 H :    0.022868
Sum of atomic charges:   -0.0000000

LOEWDIN ATOMIC CHARGES
----------------------
   0 C :    0.001047
   1 C :   -0.070595
   2 C :    0.011866
   3 C :    0.040692
   4 C :   -0.116188
   5 O :   -0.080806
   6 C :    0.084990
   7 C :    0.013958
   8 C :   -0.055908
   9 C :   -0.001434
  10 C :   -0.105675
  11 C :    0.048501
  12 O :   -0.077710
  13 C :    0.085618
  14 C :   -0.022090
  15 C :   -0.042657
  16 H :    0.020906
  17 H :    0.020696
  18 H :    0.017848
  19 H :    0.024690
  20 H :    0.014808
  21 H :    0.014950
  22 H :    0.021817
  23 H :    0.017401
  24 H :    0.015671
  25 H :    0.015238
  26 H :    0.025742
  27 H :    0.030656
  28 H :    0.020441
  29 H :    0.025530

  Mayer bond orders larger than 0.100000
B(  0-C ,  1-C ) :   1.6179 B(  0-C ,  4-C ) :   1.0341 B(  0-C , 16-H ) :   0.9926
B(  1-C ,  2-C ) :   1.1135 B(  1-C , 17-H ) :   1.0080 B(  2-C ,  3-C ) :   1.0418
B(  2-C ,  7-C ) :   1.5218 B(  3-C ,  4-C ) :   1.5729 B(  3-C ,  5-O ) :   1.1476
B(  4-C , 18-H ) :   1.0081 B(  5-O ,  6-C ) :   0.9594 B(  6-C , 19-H ) :   0.9785
B(  6-C , 20-H ) :   0.9637 B(  6-C , 21-H ) :   0.9636 B(  7-C ,  8-C ) :   1.1075
B(  7-C , 11-C ) :   1.0460 B(  8-C ,  9-C ) :   1.5119 B(  8-C , 15-C ) :   0.1084
B(  8-C , 22-H ) :   1.0188 B(  9-C , 10-C ) :   1.0147 B(  9-C , 14-C ) :   1.1342
B( 10-C , 11-C ) :   1.5677 B( 10-C , 23-H ) :   1.0105 B( 11-C , 12-O ) :   1.1572
B( 12-O , 13-C ) :   0.9580 B( 13-C , 24-H ) :   0.9640 B( 13-C , 25-H ) :   0.9642
B( 13-C , 26-H ) :   0.9780 B( 14-C , 15-C ) :   1.8627 B( 14-C , 27-H ) :   0.9607
B( 15-C , 28-H ) :   0.9484 B( 15-C , 29-H ) :   0.9461

Dispersion correction           -0.056926697
FINAL SINGLE POINT ENERGY      -691.807920829139

DIPOLE MOMENT
-------------
                                X             Y             Z
Electronic contribution:      0.66710      -3.37496       0.36175
Nuclear contribution   :     -0.66655       3.46210      -0.37289
                        -----------------------------------------
Total Dipole Moment    :      0.00055       0.08714      -0.01114
                        -----------------------------------------
Magnitude (a.u.)       :      0.08786
Magnitude (Debye)      :      0.22331

Rotational constants in cm-1:     0.024403     0.012667     0.008368
Rotational constants in MHz :   731.589921   379.756981   250.864307

                             ****ORCA TERMINATED NORMALLY****
TOTAL RUN TIME: 0 days 0 hours 16 minutes 44 seconds 28 msec
