                         Program Version 4.2.0 -  RELEASE  -
|  1> # ORCA input file
|  2> # SCF done        -26.841577047968          0.000272467565
|  3> ! B3LYP/G D3BJ Opt RIJCOSX def2-SVP def2/J
|  4> * xyz 0 1
|  5>    C        0.97819         1.40271        -0.03287
|  6>    C       -0.25069         0.70410         0.06454
|  7>    C       -1.52171         1.22402         0.13691
|  8>    S       -2.71047         0.00258         0.25227
|  9>    C       -1.53616        -1.23703         0.20333
| 10>    C       -0.25969        -0.73509         0.10235
| 11>    C        0.97815        -1.44775         0.03178
| 12>    N        0.98287        -2.82493         0.12979
| 13>    C        2.13823        -0.72260        -0.06082
| 14>    C        2.13424         0.68785        -0.08853
| 15>    H        0.97360         2.48110        -0.06004
| 16>    H       -1.81624         2.25401         0.13089
| 17>    H       -1.85913        -2.25721         0.26483
| 18>    H        0.14449        -3.29987        -0.16063
| 19>    H        1.83697        -3.27774        -0.15482
| 20>    H        3.08340        -1.24416        -0.11366
| 21>    H        3.08320         1.19860        -0.16426
| 22> *
| 23>
| 24>                          ****END OF INPUT****
 Total Charge           Charge          ....    0
 Multiplicity           Mult            ....    1
 Number of Electrons    NEL             ....   78
Dispersion correction           -0.037106480
FINAL SINGLE POINT ENERGY      -761.662503727347
Dispersion correction            ... done
Dispersion correction           -0.036984724
FINAL SINGLE POINT ENERGY      -761.665041075608
Dispersion correction            ... done
Dispersion correction           -0.036973588
FINAL SINGLE POINT ENERGY      -761.665162120181
Dispersion correction            ... done
FINAL SINGLE POINT ENERGY      -761.665218041788
FINAL SINGLE POINT ENERGY      -761.665227131127
FINAL SINGLE POINT ENERGY      -761.665254177807
Dispersion correction            ... done
Dispersion correction           -0.036982755
FINAL SINGLE POINT ENERGY      -761.665259177189
Dispersion correction            ... done
Dispersion correction           -0.036982893
FINAL SINGLE POINT ENERGY      -761.665260980931
Dispersion correction            ... done
                    ***********************HURRAY********************

CARTESIAN COORDINATES (ANGSTROEM)
---------------------------------
  C      0.984668    1.422561   -0.044727
  C     -0.256977    0.718360    0.055530
  C     -1.545942    1.235285    0.133391
  S     -2.721541   -0.006110    0.271250
  C     -1.545911   -1.253554    0.225929
  C     -0.261898   -0.734128    0.106956
  C      0.984404   -1.458859    0.045336
  N      0.959228   -2.843632    0.130984
  C      2.154950   -0.729985   -0.043412
  C      2.147927    0.697454   -0.081821
  H      0.990819    2.513400   -0.088116
  H     -1.846421    2.281054    0.113729
  H     -1.854187   -2.292518    0.325114
  H      0.150763   -3.291669   -0.287007
  H      1.822769   -3.306214   -0.131516
  H      3.110064   -1.259886   -0.093408
  H      3.106536    1.217032   -0.157152

 Multiplicity           Mult            ....    1
 Number of Electrons    NEL             ....   78
 Basis Dimension        Dim             ....  179

ORBITAL ENERGIES
----------------

  NO   OCC          E(Eh)            E(eV)
   0   2.0000     -88.880141     -2418.5516
   1   2.0000     -14.338517      -390.1709
   2   2.0000     -10.227878      -278.3147
   3   2.0000     -10.210530      -277.8426
   4   2.0000     -10.205064      -277.6939
   5   2.0000     -10.194249      -277.3996
   6   2.0000     -10.192823      -277.3608
   7   2.0000     -10.183178      -277.0984
   8   2.0000     -10.175482      -276.8889
   9   2.0000     -10.174815      -276.8708
  10   2.0000      -7.974790      -217.0051
  11   2.0000      -5.942544      -161.7049
  12   2.0000      -5.938425      -161.5928
  13   2.0000      -5.937085      -161.5563
  14   2.0000      -0.916128       -24.9291
  15   2.0000      -0.877492       -23.8778
  16   2.0000      -0.808703       -22.0059
  17   2.0000      -0.738938       -20.1075
  18   2.0000      -0.725316       -19.7369
  19   2.0000      -0.686934       -18.6924
  20   2.0000      -0.606172       -16.4948
  21   2.0000      -0.581286       -15.8176
  22   2.0000      -0.567351       -15.4384
  23   2.0000      -0.527242       -14.3470
  24   2.0000      -0.500745       -13.6260
  25   2.0000      -0.474771       -12.9192
  26   2.0000      -0.450765       -12.2659
  27   2.0000      -0.440362       -11.9829
  28   2.0000      -0.410723       -11.1763
  29   2.0000      -0.406068       -11.0497
  30   2.0000      -0.400694       -10.9034
  31   2.0000      -0.358046        -9.7429
  32   2.0000      -0.356177        -9.6921
  33   2.0000      -0.350759        -9.5446
  34   2.0000      -0.341932        -9.3045
  35   2.0000      -0.309971        -8.4347
  36   2.0000      -0.248201        -6.7539
  37   2.0000      -0.244409        -6.6507
  38   2.0000      -0.184395        -5.0176
  39   0.0000      -0.047691        -1.2977
  40   0.0000       0.027997         0.7618
  41   0.0000       0.039675         1.0796
  42   0.0000       0.045797         1.2462
  43   0.0000       0.057810         1.5731

MULLIKEN ATOMIC CHARGES
-----------------------
   0 C :   -0.018687
   1 C :    0.098981
   2 C :   -0.150059
   3 S :    0.128584
   4 C :   -0.196856
   5 C :    0.085372
   6 C :    0.051966
   7 N :   -0.073855
   8 C :   -0.074358
   9 C :    0.028099
  10 H :   -0.037834
  11 H :    0.014465
  12 H :    0.011581
  13 H :    0.110291
  14 H :    0.103838
  15 H :   -0.055348
  16 H :   -0.026180
Sum of atomic charges:   -0.0000000

LOEWDIN ATOMIC CHARGES
----------------------
   0 C :   -0.059142
   1 C :   -0.043992
   2 C :   -0.213984
   3 S :    0.473480
   4 C :   -0.222212
   5 C :   -0.063694
   6 C :    0.026285
   7 N :   -0.029132
   8 C :   -0.094977
   9 C :   -0.021553
  10 H :    0.023417
  11 H :    0.023200
  12 H :    0.018617
  13 H :    0.068812
  14 H :    0.071343
  15 H :    0.018378
  16 H :    0.025155

  Mayer bond orders larger than 0.100000
B(  0-C ,  1-C ) :   1.1700 B(  0-C ,  9-C ) :   1.5302 B(  0-C , 10-H ) :   0.9958
B(  1-C ,  2-C ) :   1.4063 B(  1-C ,  5-C ) :   1.2172 B(  2-C ,  3-S ) :   1.1993
B(  2-C ,  4-C ) :   0.1180 B(  2-C , 11-H ) :   0.9630 B(  3-S ,  4-C ) :   1.1995
B(  4-C ,  5-C ) :   1.4035 B(  4-C , 12-H ) :   0.9641 B(  5-C ,  6-C ) :   1.1661
B(  6-C ,  7-N ) :   1.2347 B(  6-C ,  8-C ) :   1.4755 B(  7-N , 13-H ) :   0.9426
B(  7-N , 14-H ) :   0.9467 B(  8-C ,  9-C ) :   1.1911 B(  8-C , 15-H ) :   0.9849
B(  9-C , 16-H ) :   0.9777

Dispersion correction           -0.036982881
FINAL SINGLE POINT ENERGY      -761.665261561848

DIPOLE MOMENT
-------------
                                X             Y             Z
Electronic contribution:     -6.79948       1.25587       0.61782
Nuclear contribution   :      6.81882      -1.90585      -0.96280
                        -----------------------------------------
Total Dipole Moment    :      0.01934      -0.64999      -0.34498
                        -----------------------------------------
Magnitude (a.u.)       :      0.73612
Magnitude (Debye)      :      1.87106

Rotational constants in cm-1:     0.069870     0.035075     0.023370
Rotational constants in MHz :  2094.658420  1051.520654   700.605069

                             ****ORCA TERMINATED NORMALLY****
TOTAL RUN TIME: 0 days 0 hours 7 minutes 30 seconds 1 msec
