                         Program Version 4.2.0 -  RELEASE  -
|  1> # ORCA input file
|  2> # SCF done        -30.001427216909          0.000946573385
|  3> ! B3LYP/G D3BJ Opt RIJCOSX def2-SVP def2/J
|  4> * xyz 0 1
|  5>    C       -1.35280         0.18589        -0.05498
|  6>    S       -0.81472        -1.42652        -0.28961
|  7>    C       -0.32389         1.04671         0.16203
|  8>    O       -0.46756         2.39084         0.38000
|  9>    C        0.95850         0.41007         0.14059
| 10>    N        2.15363         1.07648         0.34429
| 11>    N        2.27670         2.45899         0.09299
| 12>    C        0.85289        -0.94878        -0.08298
| 13>    C        1.86247        -1.96836        -0.16029
| 14>    C        3.08685        -1.92676         0.36294
| 15>    H       -2.40069         0.41325        -0.07922
| 16>    H       -1.40574         2.60780         0.39867
| 17>    H        2.95634         0.57408        -0.01810
| 18>    H        1.82279         2.96734         0.84756
| 19>    H        1.81112         2.72910        -0.77538
| 20>    H        1.54585        -2.86040        -0.68706
| 21>    H        3.43802        -1.11052         0.96825
| 22>    H        3.76751        -2.74981         0.22990
| 23> *
| 24>
| 25>                          ****END OF INPUT****
 Total Charge           Charge          ....    0
 Multiplicity           Mult            ....    1
 Number of Electrons    NEL             ....   82
Dispersion correction           -0.035583916
FINAL SINGLE POINT ENERGY      -815.911411563598
Dispersion correction            ... done
Dispersion correction           -0.035496507
FINAL SINGLE POINT ENERGY      -815.913680994413
Dispersion correction            ... done
Dispersion correction           -0.035469138
FINAL SINGLE POINT ENERGY      -815.913939196416
Dispersion correction            ... done
FINAL SINGLE POINT ENERGY      -815.914065662764
FINAL SINGLE POINT ENERGY      -815.914146047335
FINAL SINGLE POINT ENERGY      -815.914187865380
Dispersion correction            ... done
Dispersion correction           -0.035538257
FINAL SINGLE POINT ENERGY      -815.914201100945
Dispersion correction            ... done
Dispersion correction           -0.035534806
FINAL SINGLE POINT ENERGY      -815.914209687245
Dispersion correction            ... done
                    ***********************HURRAY********************

CARTESIAN COORDINATES (ANGSTROEM)
---------------------------------
  C     -1.382563    0.202845   -0.074477
  S     -0.830571   -1.408251   -0.374524
  C     -0.347460    1.053221    0.221601
  O     -0.454660    2.372590    0.546912
  C      0.945418    0.414969    0.188442
  N      2.133251    1.095345    0.439441
  N      2.295056    2.418638   -0.033590
  C      0.840529   -0.941239   -0.114284
  C      1.883535   -1.944177   -0.213046
  C      3.090275   -1.916478    0.387757
  H     -2.444173    0.446416   -0.097783
  H     -1.387167    2.624329    0.549832
  H      2.957864    0.542184    0.227791
  H      1.800294    3.042416    0.601336
  H      1.836163    2.525613   -0.944462
  H      1.640323   -2.809500   -0.842001
  H      3.375708   -1.134359    1.094860
  H      3.815449   -2.715163    0.215793

 Multiplicity           Mult            ....    1
 Number of Electrons    NEL             ....   82
 Basis Dimension        Dim             ....  184

ORBITAL ENERGIES
----------------

  NO   OCC          E(Eh)            E(eV)
   0   2.0000     -88.866845     -2418.1898
   1   2.0000     -19.177172      -521.8374
   2   2.0000     -14.355119      -390.6226
   3   2.0000     -14.333499      -390.0343
   4   2.0000     -10.253854      -279.0215
   5   2.0000     -10.225816      -278.2586
   6   2.0000     -10.208097      -277.7764
   7   2.0000     -10.207946      -277.7723
   8   2.0000     -10.203010      -277.6380
   9   2.0000     -10.186124      -277.1785
  10   2.0000      -7.961584      -216.6457
  11   2.0000      -5.930004      -161.3636
  12   2.0000      -5.926210      -161.2604
  13   2.0000      -5.922100      -161.1485
  14   2.0000      -1.061868       -28.8949
  15   2.0000      -0.969154       -26.3720
  16   2.0000      -0.874645       -23.8003
  17   2.0000      -0.789919       -21.4948
  18   2.0000      -0.772777       -21.0283
  19   2.0000      -0.712349       -19.3840
  20   2.0000      -0.692515       -18.8443
  21   2.0000      -0.611967       -16.6525
  22   2.0000      -0.599830       -16.3222
  23   2.0000      -0.555483       -15.1154
  24   2.0000      -0.534137       -14.5346
  25   2.0000      -0.496174       -13.5016
  26   2.0000      -0.480204       -13.0670
  27   2.0000      -0.473304       -12.8792
  28   2.0000      -0.455631       -12.3983
  29   2.0000      -0.437865       -11.9149
  30   2.0000      -0.425823       -11.5872
  31   2.0000      -0.402492       -10.9524
  32   2.0000      -0.390325       -10.6213
  33   2.0000      -0.362022        -9.8511
  34   2.0000      -0.360290        -9.8040
  35   2.0000      -0.344063        -9.3624
  36   2.0000      -0.304361        -8.2821
  37   2.0000      -0.289416        -7.8754
  38   2.0000      -0.256676        -6.9845
  39   2.0000      -0.215694        -5.8693
  40   2.0000      -0.197273        -5.3681
  41   0.0000      -0.035915        -0.9773
  42   0.0000       0.025029         0.6811
  43   0.0000       0.030921         0.8414
  44   0.0000       0.043643         1.1876
  45   0.0000       0.072449         1.9714

MULLIKEN ATOMIC CHARGES
-----------------------
   0 C :   -0.193246
   1 S :    0.095567
   2 C :    0.135015
   3 O :   -0.202402
   4 C :    0.089222
   5 N :   -0.107008
   6 N :   -0.113483
   7 C :   -0.193388
   8 C :    0.007029
   9 C :   -0.070404
  10 H :    0.005595
  11 H :    0.180400
  12 H :    0.120829
  13 H :    0.112342
  14 H :    0.087975
  15 H :   -0.005512
  16 H :    0.026528
  17 H :    0.024944
Sum of atomic charges:    0.0000000

LOEWDIN ATOMIC CHARGES
----------------------
   0 C :   -0.256375
   1 S :    0.407315
   2 C :   -0.007717
   3 O :   -0.061304
   4 C :   -0.039127
   5 N :   -0.005684
   6 N :   -0.047563
   7 C :   -0.219168
   8 C :   -0.038475
   9 C :   -0.078874
  10 H :    0.020520
  11 H :    0.095821
  12 H :    0.063838
  13 H :    0.049062
  14 H :    0.042696
  15 H :    0.028963
  16 H :    0.020539
  17 H :    0.025533

  Mayer bond orders larger than 0.100000
B(  0-C ,  1-S ) :   1.1114 B(  0-C ,  2-C ) :   1.5011 B(  0-C , 10-H ) :   0.9715
B(  1-S ,  7-C ) :   1.0957 B(  2-C ,  3-O ) :   1.1743 B(  2-C ,  4-C ) :   1.2275
B(  3-O , 11-H ) :   0.9567 B(  4-C ,  5-N ) :   1.1822 B(  4-C ,  7-C ) :   1.4569
B(  5-N ,  6-N ) :   1.0328 B(  5-N , 12-H ) :   0.9065 B(  6-N , 13-H ) :   0.9699
B(  6-N , 14-H ) :   0.9712 B(  7-C ,  8-C ) :   1.1249 B(  8-C ,  9-C ) :   1.8989
B(  8-C , 15-H ) :   0.9425 B(  9-C , 16-H ) :   0.9488 B(  9-C , 17-H ) :   0.9433

Dispersion correction           -0.035537718
FINAL SINGLE POINT ENERGY      -815.914210445058

DIPOLE MOMENT
-------------
                                X             Y             Z
Electronic contribution:     -6.91202      -1.67945      -0.62463
Nuclear contribution   :      6.10568       2.12655       0.39272
                        -----------------------------------------
Total Dipole Moment    :     -0.80633       0.44710      -0.23191
                        -----------------------------------------
Magnitude (a.u.)       :      0.95071
Magnitude (Debye)      :      2.41652

Rotational constants in cm-1:     0.046342     0.039551     0.021968
Rotational constants in MHz :  1389.299738  1185.710666   658.576444

                             ****ORCA TERMINATED NORMALLY****
TOTAL RUN TIME: 0 days 0 hours 8 minutes 8 seconds 520 msec
