                         Program Version 4.2.0 -  RELEASE  -
|  1> # ORCA input file
|  2> # SCF done        -23.678344650866          0.000395311880
|  3> ! B3LYP/G D3BJ Opt RIJCOSX def2-SVP def2/J
|  4> * xyz 0 1
|  5>    C       -1.12719        -0.07488         0.00229
|  6>    O       -0.35641         1.01655        -0.00220
|  7>    C        0.91943         0.61958        -0.00502
|  8>    C        1.00149        -0.74808        -0.00243
|  9>    C       -0.36001        -1.21006         0.00247
| 10>    C       -0.79882        -2.54492         0.00663
| 11>    N       -1.15379        -3.63350         0.00990
| 12>    C        2.16216        -1.54010        -0.00404
| 13>    N        3.10518        -2.18956        -0.00497
| 14>    H       -2.19184         0.05235         0.00510
| 15>    H        1.68683         1.36841        -0.00875
| 16> *
| 17>
| 18>                          ****END OF INPUT****
 Total Charge           Charge          ....    0
 Multiplicity           Mult            ....    1
 Number of Electrons    NEL             ....   60
Dispersion correction           -0.019768187
FINAL SINGLE POINT ENERGY      -414.211609138511
Dispersion correction            ... done
Dispersion correction           -0.019708310
FINAL SINGLE POINT ENERGY      -414.214023296240
Dispersion correction            ... done
Dispersion correction           -0.019690173
FINAL SINGLE POINT ENERGY      -414.214105426782
Dispersion correction            ... done
FINAL SINGLE POINT ENERGY      -414.214136333671
FINAL SINGLE POINT ENERGY      -414.214140411818
Dispersion correction            ... done
Dispersion correction           -0.019674661
FINAL SINGLE POINT ENERGY      -414.214140660031
Dispersion correction            ... done
Dispersion correction           -0.019675291
FINAL SINGLE POINT ENERGY      -414.214140426948
Dispersion correction            ... done
                    ***********************HURRAY********************

CARTESIAN COORDINATES (ANGSTROEM)
---------------------------------
  C     -1.139938   -0.082239    0.002089
  O     -0.354645    1.014548   -0.002266
  C      0.934598    0.618184   -0.004811
  C      1.008499   -0.751682   -0.002333
  C     -0.368673   -1.217112    0.002500
  C     -0.825207   -2.563811    0.006888
  N     -1.203298   -3.660716    0.010427
  C      2.191944   -1.539743   -0.004239
  N      3.164419   -2.172467   -0.005578
  H     -2.215115    0.076432    0.004773
  H      1.694447    1.394397   -0.008471

 Multiplicity           Mult            ....    1
 Number of Electrons    NEL             ....   60
 Basis Dimension        Dim             ....  136

ORBITAL ENERGIES
----------------

  NO   OCC          E(Eh)            E(eV)
   0   2.0000     -19.266590      -524.2706
   1   2.0000     -14.351003      -390.5107
   2   2.0000     -14.350936      -390.5088
   3   2.0000     -10.304263      -280.3932
   4   2.0000     -10.304038      -280.3871
   5   2.0000     -10.272670      -279.5336
   6   2.0000     -10.272446      -279.5275
   7   2.0000     -10.252603      -278.9875
   8   2.0000     -10.252486      -278.9843
   9   2.0000      -1.173140       -31.9228
  10   2.0000      -0.924423       -25.1548
  11   2.0000      -0.917352       -24.9624
  12   2.0000      -0.868086       -23.6218
  13   2.0000      -0.814168       -22.1546
  14   2.0000      -0.709975       -19.3194
  15   2.0000      -0.670021       -18.2322
  16   2.0000      -0.623437       -16.9646
  17   2.0000      -0.553675       -15.0663
  18   2.0000      -0.522006       -14.2045
  19   2.0000      -0.504887       -13.7387
  20   2.0000      -0.495570       -13.4851
  21   2.0000      -0.446956       -12.1623
  22   2.0000      -0.411349       -11.1934
  23   2.0000      -0.386908       -10.5283
  24   2.0000      -0.380498       -10.3539
  25   2.0000      -0.380146       -10.3443
  26   2.0000      -0.365538        -9.9468
  27   2.0000      -0.353466        -9.6183
  28   2.0000      -0.313656        -8.5350
  29   2.0000      -0.289654        -7.8819
  30   0.0000      -0.066048        -1.7972
  31   0.0000      -0.062871        -1.7108
  32   0.0000      -0.004405        -0.1199
  33   0.0000       0.005384         0.1465
  34   0.0000       0.057573         1.5666

MULLIKEN ATOMIC CHARGES
-----------------------
   0 C :    0.099070
   1 O :   -0.171076
   2 C :    0.101600
   3 C :   -0.040862
   4 C :   -0.045312
   5 C :   -0.170119
   6 N :    0.160892
   7 C :   -0.178482
   8 N :    0.161276
   9 H :    0.041545
  10 H :    0.041469
Sum of atomic charges:   -0.0000000

LOEWDIN ATOMIC CHARGES
----------------------
   0 C :    0.085753
   1 O :    0.041334
   2 C :    0.086490
   3 C :   -0.087394
   4 C :   -0.087459
   5 C :   -0.027901
   6 N :   -0.034216
   7 C :   -0.028532
   8 N :   -0.033967
   9 H :    0.042983
  10 H :    0.042910

  Mayer bond orders larger than 0.100000
B(  0-C ,  1-O ) :   1.1604 B(  0-C ,  4-C ) :   1.4960 B(  0-C ,  9-H ) :   1.0104
B(  1-O ,  2-C ) :   1.1619 B(  2-C ,  3-C ) :   1.5008 B(  2-C , 10-H ) :   1.0097
B(  3-C ,  4-C ) :   1.2998 B(  3-C ,  7-C ) :   1.1231 B(  4-C ,  5-C ) :   1.1240
B(  5-C ,  6-N ) :   3.0144 B(  7-C ,  8-N ) :   3.0153

Dispersion correction           -0.019675302
FINAL SINGLE POINT ENERGY      -414.214140145160

DIPOLE MOMENT
-------------
                                X             Y             Z
Electronic contribution:      0.44773      -1.33086       0.00146
Nuclear contribution   :     -1.17400       3.46456      -0.00394
                        -----------------------------------------
Total Dipole Moment    :     -0.72627       2.13370      -0.00248
                        -----------------------------------------
Magnitude (a.u.)       :      2.25392
Magnitude (Debye)      :      5.72900

Rotational constants in cm-1:     0.064800     0.063558     0.032086
Rotational constants in MHz :  1942.652200  1905.408907   961.925175

                             ****ORCA TERMINATED NORMALLY****
TOTAL RUN TIME: 0 days 0 hours 3 minutes 25 seconds 552 msec
