                         Program Version 4.2.0 -  RELEASE  -
|  1> # ORCA input file
|  2> # SCF done        -26.822500318593          0.000969297552
|  3> ! B3LYP/G D3BJ Opt RIJCOSX def2-SVP def2/J
|  4> * xyz 0 1
|  5>    C       -1.26699        -1.34282         0.11949
|  6>    S       -2.43850        -0.08915         0.04168
|  7>    C       -1.24168         1.18160        -0.09969
|  8>    C        0.00675         0.59879        -0.08231
|  9>    C       -0.00036        -0.83130         0.04228
| 10>    C        1.36564        -1.24786         0.04395
| 11>    C        2.11200        -0.11983        -0.07361
| 12>    N        1.31087         0.99602        -0.14983
| 13>    C       -1.67523         2.54251        -0.20211
| 14>    C       -0.89263         3.61527        -0.31783
| 15>    H       -1.58727        -2.36010         0.21591
| 16>    H        1.72637        -2.25309         0.12283
| 17>    H        3.18041        -0.01660        -0.10946
| 18>    H        1.64277         1.93857        -0.24359
| 19>    H       -2.74993         2.67201        -0.17806
| 20>    H        0.18083         3.55120        -0.34915
| 21>    H       -1.31339         4.60271        -0.38976
| 22> *
| 23>
| 24>                          ****END OF INPUT****
 Total Charge           Charge          ....    0
 Multiplicity           Mult            ....    1
 Number of Electrons    NEL             ....   78
Dispersion correction           -0.035177683
FINAL SINGLE POINT ENERGY      -761.626269613690
Dispersion correction            ... done
Dispersion correction           -0.035089146
FINAL SINGLE POINT ENERGY      -761.629039630794
Dispersion correction            ... done
Dispersion correction           -0.035082969
FINAL SINGLE POINT ENERGY      -761.629133539037
Dispersion correction            ... done
FINAL SINGLE POINT ENERGY      -761.629143914914
Dispersion correction            ... done
Dispersion correction           -0.035087125
FINAL SINGLE POINT ENERGY      -761.629155710227
Dispersion correction            ... done
Dispersion correction           -0.035087241
FINAL SINGLE POINT ENERGY      -761.629156510355
Dispersion correction            ... done
                    ***********************HURRAY********************

CARTESIAN COORDINATES (ANGSTROEM)
---------------------------------
  C     -1.287007   -1.363174    0.121870
  S     -2.456956   -0.097683    0.052264
  C     -1.261137    1.176791   -0.087625
  C     -0.004514    0.584945   -0.072649
  C     -0.001941   -0.851837    0.045757
  C      1.382501   -1.266840    0.038463
  C      2.129774   -0.122679   -0.075883
  N      1.308683    0.995450   -0.143924
  C     -1.680547    2.554812   -0.204993
  C     -0.889702    3.638539   -0.319137
  H     -1.611140   -2.397194    0.222209
  H      1.773985   -2.278224    0.112091
  H      3.211862   -0.005559   -0.118122
  H      1.631898    1.946009   -0.236266
  H     -2.765056    2.712379   -0.199599
  H      0.201607    3.575419   -0.336661
  H     -1.322650    4.636775   -0.407054

 Multiplicity           Mult            ....    1
 Number of Electrons    NEL             ....   78
 Basis Dimension        Dim             ....  179

ORBITAL ENERGIES
----------------

  NO   OCC          E(Eh)            E(eV)
   0   2.0000     -88.870535     -2418.2902
   1   2.0000     -14.375037      -391.1646
   2   2.0000     -10.226849      -278.2867
   3   2.0000     -10.221883      -278.1516
   4   2.0000     -10.210109      -277.8312
   5   2.0000     -10.208044      -277.7750
   6   2.0000     -10.202098      -277.6132
   7   2.0000     -10.190346      -277.2934
   8   2.0000     -10.184432      -277.1325
   9   2.0000     -10.181770      -277.0600
  10   2.0000      -7.964922      -216.7365
  11   2.0000      -5.933044      -161.4463
  12   2.0000      -5.929024      -161.3369
  13   2.0000      -5.926375      -161.2649
  14   2.0000      -0.974158       -26.5082
  15   2.0000      -0.866135       -23.5687
  16   2.0000      -0.790133       -21.5006
  17   2.0000      -0.757233       -20.6054
  18   2.0000      -0.720225       -19.5983
  19   2.0000      -0.689934       -18.7741
  20   2.0000      -0.609369       -16.5818
  21   2.0000      -0.593502       -16.1500
  22   2.0000      -0.582226       -15.8432
  23   2.0000      -0.551228       -14.9997
  24   2.0000      -0.497228       -13.5303
  25   2.0000      -0.458207       -12.4684
  26   2.0000      -0.454412       -12.3652
  27   2.0000      -0.438248       -11.9253
  28   2.0000      -0.430827       -11.7234
  29   2.0000      -0.426129       -11.5956
  30   2.0000      -0.396528       -10.7901
  31   2.0000      -0.378886       -10.3100
  32   2.0000      -0.356364        -9.6972
  33   2.0000      -0.355500        -9.6736
  34   2.0000      -0.337726        -9.1900
  35   2.0000      -0.308598        -8.3974
  36   2.0000      -0.260018        -7.0754
  37   2.0000      -0.229700        -6.2504
  38   2.0000      -0.188887        -5.1399
  39   0.0000      -0.045097        -1.2272
  40   0.0000       0.015246         0.4149
  41   0.0000       0.031609         0.8601
  42   0.0000       0.041575         1.1313
  43   0.0000       0.076172         2.0728

MULLIKEN ATOMIC CHARGES
-----------------------
   0 C :   -0.153582
   1 S :    0.104562
   2 C :   -0.186667
   3 C :    0.093072
   4 C :    0.102130
   5 C :   -0.045466
   6 C :    0.077369
   7 N :   -0.086641
   8 C :    0.051101
   9 C :   -0.055736
  10 H :    0.016910
  11 H :   -0.025064
  12 H :    0.003768
  13 H :    0.118773
  14 H :   -0.015790
  15 H :   -0.017149
  16 H :    0.018410
Sum of atomic charges:   -0.0000000

LOEWDIN ATOMIC CHARGES
----------------------
   0 C :   -0.207056
   1 S :    0.440782
   2 C :   -0.225836
   3 C :   -0.010236
   4 C :   -0.068944
   5 C :   -0.088613
   6 C :    0.017763
   7 N :    0.047751
   8 C :   -0.036350
   9 C :   -0.086344
  10 H :    0.023498
  11 H :    0.025936
  12 H :    0.023119
  13 H :    0.081887
  14 H :    0.029504
  15 H :    0.008337
  16 H :    0.024802

  Mayer bond orders larger than 0.100000
B(  0-C ,  1-S ) :   1.1745 B(  0-C ,  2-C ) :   0.1133 B(  0-C ,  4-C ) :   1.4044
B(  0-C , 10-H ) :   0.9696 B(  1-S ,  2-C ) :   1.1038 B(  2-C ,  3-C ) :   1.3992
B(  2-C ,  8-C ) :   1.1511 B(  3-C ,  4-C ) :   1.2393 B(  3-C ,  7-N ) :   1.1784
B(  4-C ,  5-C ) :   1.1518 B(  5-C ,  6-C ) :   1.5730 B(  5-C , 11-H ) :   1.0093
B(  6-C ,  7-N ) :   1.1420 B(  6-C , 12-H ) :   0.9827 B(  7-N , 13-H ) :   0.9409
B(  8-C ,  9-C ) :   1.8877 B(  8-C , 14-H ) :   0.9394 B(  9-C , 15-H ) :   0.9517
B(  9-C , 16-H ) :   0.9416

Dispersion correction           -0.035086366
FINAL SINGLE POINT ENERGY      -761.629155882568

DIPOLE MOMENT
-------------
                                X             Y             Z
Electronic contribution:     -3.89776      -4.35026       0.51413
Nuclear contribution   :      4.58008       4.56374      -0.55670
                        -----------------------------------------
Total Dipole Moment    :      0.68233       0.21348      -0.04258
                        -----------------------------------------
Magnitude (a.u.)       :      0.71621
Magnitude (Debye)      :      1.82046

Rotational constants in cm-1:     0.056496     0.040715     0.023663
Rotational constants in MHz :  1693.708476  1220.615051   709.386721

                             ****ORCA TERMINATED NORMALLY****
TOTAL RUN TIME: 0 days 0 hours 5 minutes 55 seconds 899 msec
