                         Program Version 4.2.0 -  RELEASE  -
|  1> # ORCA input file
|  2> # SCF done        -33.659605914813          0.000906208981
|  3> ! B3LYP/G D3BJ Opt RIJCOSX def2-SVP def2/J
|  4> * xyz 0 1
|  5>    C       -1.23519         1.32515        -0.11512
|  6>    S       -2.46294         0.12592        -0.05556
|  7>    C       -1.30930        -1.18227         0.08519
|  8>    C       -0.03056        -0.66712         0.08269
|  9>    C       -0.00263         0.75610        -0.03246
| 10>    C        1.37532         1.25918        -0.03558
| 11>    O        1.74861         2.40102        -0.11798
| 12>    C        2.25947         0.02736         0.08641
| 13>    C        1.33739        -1.18280         0.16811
| 14>    O        1.71028        -2.32513         0.28305
| 15>    C       -1.82518        -2.52144         0.17177
| 16>    C       -1.08337        -3.62127         0.28866
| 17>    H       -1.49265         2.36150        -0.20668
| 18>    H        2.89679         0.08882         0.97104
| 19>    H        2.92937        -0.05678        -0.77198
| 20>    H       -2.90595        -2.58759         0.13397
| 21>    H       -0.00837        -3.58114         0.33083
| 22>    H       -1.54312        -4.59266         0.34552
| 23> *
| 24>
| 25>                          ****END OF INPUT****
 Total Charge           Charge          ....    0
 Multiplicity           Mult            ....    1
 Number of Electrons    NEL             ....   92
Dispersion correction           -0.040297732
FINAL SINGLE POINT ENERGY      -894.742032409850
Dispersion correction            ... done
Dispersion correction           -0.040032538
FINAL SINGLE POINT ENERGY      -894.744478123530
Dispersion correction            ... done
Dispersion correction           -0.040030401
FINAL SINGLE POINT ENERGY      -894.744598145192
Dispersion correction            ... done
FINAL SINGLE POINT ENERGY      -894.744619655223
Dispersion correction            ... done
Dispersion correction           -0.040014932
FINAL SINGLE POINT ENERGY      -894.744622555428
Dispersion correction            ... done
Dispersion correction           -0.040019572
FINAL SINGLE POINT ENERGY      -894.744628102130
Dispersion correction            ... done
                    ***********************HURRAY********************

CARTESIAN COORDINATES (ANGSTROEM)
---------------------------------
  C     -1.247364    1.347059   -0.119666
  S     -2.469535    0.128292   -0.057576
  C     -1.318473   -1.187755    0.082277
  C     -0.031071   -0.657667    0.077023
  C     -0.006022    0.768543   -0.039214
  C      1.389924    1.278486   -0.039801
  O      1.753911    2.427745   -0.124479
  C      2.288676    0.040643    0.093222
  C      1.354762   -1.178600    0.164738
  O      1.723623   -2.329800    0.271275
  C     -1.838789   -2.540716    0.181377
  C     -1.100020   -3.659160    0.283794
  H     -1.505590    2.400317   -0.216688
  H      2.920465    0.105207    0.994717
  H      2.976457   -0.044304   -0.764831
  H     -2.931499   -2.620111    0.167327
  H     -0.007534   -3.619855    0.304294
  H     -1.593949   -4.631474    0.354092

 Multiplicity           Mult            ....    1
 Number of Electrons    NEL             ....   92
 Basis Dimension        Dim             ....  202

ORBITAL ENERGIES
----------------

  NO   OCC          E(Eh)            E(eV)
   0   2.0000     -88.908089     -2419.3121
   1   2.0000     -19.140298      -520.8340
   2   2.0000     -19.136803      -520.7389
   3   2.0000     -10.293471      -280.0996
   4   2.0000     -10.290425      -280.0167
   5   2.0000     -10.255905      -279.0774
   6   2.0000     -10.245536      -278.7952
   7   2.0000     -10.219810      -278.0952
   8   2.0000     -10.216852      -278.0147
   9   2.0000     -10.216629      -278.0086
  10   2.0000     -10.209519      -277.8151
  11   2.0000     -10.203993      -277.6648
  12   2.0000      -8.002908      -217.7702
  13   2.0000      -5.970747      -162.4723
  14   2.0000      -5.966568      -162.3586
  15   2.0000      -5.964865      -162.3122
  16   2.0000      -1.046195       -28.4684
  17   2.0000      -1.041855       -28.3503
  18   2.0000      -0.916059       -24.9272
  19   2.0000      -0.831104       -22.6155
  20   2.0000      -0.801656       -21.8142
  21   2.0000      -0.736635       -20.0449
  22   2.0000      -0.732447       -19.9309
  23   2.0000      -0.644574       -17.5398
  24   2.0000      -0.620400       -16.8819
  25   2.0000      -0.603302       -16.4167
  26   2.0000      -0.554861       -15.0985
  27   2.0000      -0.516525       -14.0554
  28   2.0000      -0.483370       -13.1532
  29   2.0000      -0.481922       -13.1138
  30   2.0000      -0.474819       -12.9205
  31   2.0000      -0.472309       -12.8522
  32   2.0000      -0.447330       -12.1725
  33   2.0000      -0.434759       -11.8304
  34   2.0000      -0.418672       -11.3926
  35   2.0000      -0.416090       -11.3224
  36   2.0000      -0.410112       -11.1597
  37   2.0000      -0.404913       -11.0183
  38   2.0000      -0.383521       -10.4361
  39   2.0000      -0.374098       -10.1797
  40   2.0000      -0.365380        -9.9425
  41   2.0000      -0.325610        -8.8603
  42   2.0000      -0.287506        -7.8234
  43   2.0000      -0.278918        -7.5898
  44   2.0000      -0.256195        -6.9714
  45   2.0000      -0.244971        -6.6660
  46   0.0000      -0.091242        -2.4828
  47   0.0000      -0.071328        -1.9409
  48   0.0000      -0.008725        -0.2374
  49   0.0000       0.003113         0.0847
  50   0.0000       0.045780         1.2457

MULLIKEN ATOMIC CHARGES
-----------------------
   0 C :   -0.119534
   1 S :    0.148580
   2 C :   -0.158704
   3 C :    0.029242
   4 C :    0.016534
   5 C :    0.058584
   6 O :   -0.155618
   7 C :    0.032177
   8 C :    0.056416
   9 O :   -0.170898
  10 C :    0.024120
  11 C :   -0.014301
  12 H :    0.043788
  13 H :    0.064446
  14 H :    0.065671
  15 H :   -0.008150
  16 H :    0.059892
  17 H :    0.027753
Sum of atomic charges:   -0.0000000

LOEWDIN ATOMIC CHARGES
----------------------
   0 C :   -0.154427
   1 S :    0.481870
   2 C :   -0.134554
   3 C :   -0.099260
   4 C :   -0.094366
   5 C :    0.076664
   6 O :   -0.135191
   7 C :   -0.069959
   8 C :    0.081830
   9 O :   -0.139558
  10 C :   -0.058140
  11 C :   -0.003469
  12 H :    0.038338
  13 H :    0.060542
  14 H :    0.060759
  15 H :    0.028640
  16 H :    0.030729
  17 H :    0.029552

  Mayer bond orders larger than 0.100000
B(  0-C ,  1-S ) :   1.1727 B(  0-C ,  4-C ) :   1.5023 B(  0-C , 12-H ) :   0.9687
B(  1-S ,  2-C ) :   1.1651 B(  2-C ,  3-C ) :   1.4416 B(  2-C , 10-C ) :   1.1306
B(  3-C ,  4-C ) :   1.2079 B(  3-C ,  8-C ) :   0.9628 B(  4-C ,  5-C ) :   0.9341
B(  5-C ,  6-O ) :   2.2286 B(  5-C ,  7-C ) :   0.9749 B(  7-C ,  8-C ) :   0.9857
B(  7-C , 13-H ) :   0.8994 B(  7-C , 14-H ) :   0.8997 B(  8-C ,  9-O ) :   2.1235
B( 10-C , 11-C ) :   1.9016 B( 10-C , 15-H ) :   0.9471 B( 11-C , 16-H ) :   0.9268
B( 11-C , 17-H ) :   0.9399

Dispersion correction           -0.040020728
FINAL SINGLE POINT ENERGY      -894.744627091152

DIPOLE MOMENT
-------------
                                X             Y             Z
Electronic contribution:     -1.98807       5.39775      -0.50173
Nuclear contribution   :      0.93097      -5.60752       0.48884
                        -----------------------------------------
Total Dipole Moment    :     -1.05710      -0.20976      -0.01289
                        -----------------------------------------
Magnitude (a.u.)       :      1.07779
Magnitude (Debye)      :      2.73952

Rotational constants in cm-1:     0.039423     0.026936     0.016050
Rotational constants in MHz :  1181.864672   807.531629   481.179337

                             ****ORCA TERMINATED NORMALLY****
TOTAL RUN TIME: 0 days 0 hours 7 minutes 25 seconds 657 msec
