                         Program Version 4.2.0 -  RELEASE  -
|  1> # ORCA input file
|  2> # SCF done        -46.273679385794          0.000658666927
|  3> ! B3LYP/G D3BJ Opt RIJCOSX def2-SVP def2/J
|  4> * xyz 0 1
|  5>    C        1.09231        -1.50536        -0.48608
|  6>    C        2.34987        -1.01287        -0.28922
|  7>    C        2.56042         0.34533        -0.01170
|  8>    C        1.49567         1.20964         0.07123
|  9>    O        1.59271         2.54294         0.32660
| 10>    C        2.87091         3.11825         0.49302
| 11>    C        2.67855         4.61174         0.70903
| 12>    C        0.16761         0.72479        -0.11879
| 13>    C       -0.02288        -0.64694        -0.40515
| 14>    C       -1.34995        -1.12841        -0.60839
| 15>    O       -1.44641        -2.45493        -0.89889
| 16>    C       -2.71765        -3.00612        -1.16763
| 17>    C       -2.51810        -4.46892        -1.53385
| 18>    C       -2.41588        -0.26712        -0.50820
| 19>    C       -2.20633         1.08799        -0.21607
| 20>    C       -0.94774         1.58179        -0.02885
| 21>    H        0.92644        -2.54827        -0.70195
| 22>    H        3.20741        -1.66746        -0.34489
| 23>    H        3.57191         0.69094         0.13429
| 24>    H        3.48471         2.94147        -0.40163
| 25>    H        3.37799         2.67105         1.35992
| 26>    H        2.16642         5.04550        -0.14569
| 27>    H        3.64315         5.09624         0.83133
| 28>    H        2.07668         4.78370         1.59724
| 29>    H       -3.19387        -2.46951        -2.00053
| 30>    H       -3.36298        -2.92102        -0.28165
| 31>    H       -1.86916        -4.54685        -2.40199
| 32>    H       -3.47599        -4.92775        -1.76153
| 33>    H       -2.05489        -4.99946        -0.70658
| 34>    H       -3.42764        -0.61335        -0.65060
| 35>    H       -3.06483         1.73951        -0.14291
| 36>    H       -0.78203         2.62376         0.19133
| 37> *
| 38>
| 39>                          ****END OF INPUT****
 Total Charge           Charge          ....    0
 Multiplicity           Mult            ....    1
 Number of Electrons    NEL             ....  116
Dispersion correction           -0.060212299
FINAL SINGLE POINT ENERGY      -693.135183450520
Dispersion correction            ... done
Dispersion correction           -0.059955974
FINAL SINGLE POINT ENERGY      -693.138233423245
Dispersion correction            ... done
Dispersion correction           -0.059920538
FINAL SINGLE POINT ENERGY      -693.138381232967
Dispersion correction            ... done
FINAL SINGLE POINT ENERGY      -693.138403275668
Dispersion correction            ... done
Dispersion correction           -0.059924748
FINAL SINGLE POINT ENERGY      -693.138397852802
Dispersion correction            ... done
Dispersion correction           -0.059927268
FINAL SINGLE POINT ENERGY      -693.138393108172
Dispersion correction            ... done
                    ***********************HURRAY********************

CARTESIAN COORDINATES (ANGSTROEM)
---------------------------------
  C      1.102791   -1.512111   -0.525567
  C      2.371229   -1.008127   -0.346601
  C      2.585009    0.365326   -0.078278
  C      1.505975    1.229558    0.007692
  O      1.604657    2.556092    0.272847
  C      2.879559    3.129900    0.502811
  C      2.680613    4.598407    0.818844
  C      0.169250    0.745941   -0.181882
  C     -0.018789   -0.644112   -0.449180
  C     -1.355537   -1.127760   -0.638589
  O     -1.454330   -2.454377   -0.903223
  C     -2.729183   -3.027961   -1.134099
  C     -2.530228   -4.496315   -1.450802
  C     -2.434560   -0.263533   -0.552494
  C     -2.220769    1.109937   -0.284282
  C     -0.952324    1.613942   -0.105435
  H      0.934939   -2.567747   -0.735294
  H      3.236946   -1.671101   -0.413578
  H      3.602314    0.726529    0.065116
  H      3.518031    2.997284   -0.390867
  H      3.379050    2.608426    1.340954
  H      2.215947    5.121158   -0.030950
  H      3.646565    5.078234    1.039123
  H      2.024309    4.717890    1.693809
  H     -3.228281   -2.505781   -1.972025
  H     -3.368040   -2.896073   -0.240583
  H     -1.875084   -4.615768   -2.326636
  H     -3.496384   -4.976356   -1.669734
  H     -2.064380   -5.018878   -0.601541
  H     -3.451904   -0.624776   -0.695542
  H     -3.086493    1.772888   -0.217166
  H     -0.784467    2.669561    0.104371

 Multiplicity           Mult            ....    1
 Number of Electrons    NEL             ....  116
 Basis Dimension        Dim             ....  304

ORBITAL ENERGIES
----------------

  NO   OCC          E(Eh)            E(eV)
   0   2.0000     -19.161583      -521.4132
   1   2.0000     -19.161576      -521.4130
   2   2.0000     -10.246184      -278.8128
   3   2.0000     -10.246179      -278.8127
   4   2.0000     -10.243628      -278.7433
   5   2.0000     -10.243610      -278.7428
   6   2.0000     -10.188900      -277.2541
   7   2.0000     -10.188900      -277.2541
   8   2.0000     -10.187991      -277.2293
   9   2.0000     -10.187725      -277.2221
  10   2.0000     -10.183680      -277.1120
  11   2.0000     -10.183675      -277.1119
  12   2.0000     -10.180594      -277.0280
  13   2.0000     -10.180590      -277.0279
  14   2.0000     -10.174357      -276.8583
  15   2.0000     -10.174331      -276.8576
  16   2.0000      -1.058077       -28.7917
  17   2.0000      -1.057723       -28.7821
  18   2.0000      -0.857169       -23.3247
  19   2.0000      -0.807552       -21.9746
  20   2.0000      -0.782368       -21.2893
  21   2.0000      -0.766701       -20.8630
  22   2.0000      -0.730733       -19.8842
  23   2.0000      -0.726492       -19.7689
  24   2.0000      -0.694969       -18.9111
  25   2.0000      -0.645259       -17.5584
  26   2.0000      -0.637016       -17.3341
  27   2.0000      -0.610083       -16.6012
  28   2.0000      -0.588740       -16.0204
  29   2.0000      -0.571516       -15.5517
  30   2.0000      -0.543298       -14.7839
  31   2.0000      -0.520886       -14.1740
  32   2.0000      -0.497061       -13.5257
  33   2.0000      -0.487455       -13.2643
  34   2.0000      -0.486523       -13.2390
  35   2.0000      -0.481816       -13.1109
  36   2.0000      -0.473884       -12.8950
  37   2.0000      -0.445576       -12.1248
  38   2.0000      -0.434926       -11.8349
  39   2.0000      -0.410729       -11.1765
  40   2.0000      -0.402161       -10.9434
  41   2.0000      -0.399604       -10.8738
  42   2.0000      -0.398821       -10.8525
  43   2.0000      -0.396303       -10.7839
  44   2.0000      -0.396188       -10.7808
  45   2.0000      -0.394803       -10.7431
  46   2.0000      -0.375444       -10.2163
  47   2.0000      -0.368754       -10.0343
  48   2.0000      -0.362746        -9.8708
  49   2.0000      -0.343087        -9.3359
  50   2.0000      -0.342301        -9.3145
  51   2.0000      -0.334287        -9.0964
  52   2.0000      -0.315547        -8.5865
  53   2.0000      -0.312382        -8.5003
  54   2.0000      -0.311721        -8.4824
  55   2.0000      -0.243275        -6.6198
  56   2.0000      -0.239444        -6.5156
  57   2.0000      -0.193600        -5.2681
  58   0.0000      -0.025615        -0.6970
  59   0.0000      -0.010111        -0.2751
  60   0.0000       0.046023         1.2524
  61   0.0000       0.058742         1.5985
  62   0.0000       0.059477         1.6184

MULLIKEN ATOMIC CHARGES
-----------------------
   0 C :   -0.015922
   1 C :    0.038669
   2 C :   -0.099709
   3 C :    0.191940
   4 O :   -0.316493
   5 C :    0.153127
   6 C :    0.021874
   7 C :    0.027476
   8 C :    0.027508
   9 C :    0.191943
  10 O :   -0.316480
  11 C :    0.153108
  12 C :    0.021909
  13 C :   -0.099730
  14 C :    0.038671
  15 C :   -0.015905
  16 H :   -0.026519
  17 H :   -0.022536
  18 H :   -0.036099
  19 H :    0.011943
  20 H :    0.009075
  21 H :    0.025599
  22 H :    0.012310
  23 H :    0.025234
  24 H :    0.009088
  25 H :    0.011937
  26 H :    0.025206
  27 H :    0.012305
  28 H :    0.025616
  29 H :   -0.036087
  30 H :   -0.022537
  31 H :   -0.026521
Sum of atomic charges:    0.0000000

LOEWDIN ATOMIC CHARGES
----------------------
   0 C :   -0.035193
   1 C :   -0.022489
   2 C :   -0.088389
   3 C :    0.061428
   4 O :   -0.095728
   5 C :    0.084715
   6 C :   -0.059475
   7 C :   -0.030499
   8 C :   -0.030495
   9 C :    0.061429
  10 O :   -0.095727
  11 C :    0.084718
  12 C :   -0.059468
  13 C :   -0.088395
  14 C :   -0.022488
  15 C :   -0.035197
  16 H :    0.025749
  17 H :    0.025676
  18 H :    0.023424
  19 H :    0.011230
  20 H :    0.010699
  21 H :    0.029423
  22 H :    0.029886
  23 H :    0.029538
  24 H :    0.010703
  25 H :    0.011230
  26 H :    0.029517
  27 H :    0.029887
  28 H :    0.029440
  29 H :    0.023426
  30 H :    0.025676
  31 H :    0.025748

  Mayer bond orders larger than 0.100000
B(  0-C ,  1-C ) :   1.4533 B(  0-C ,  8-C ) :   1.2517 B(  0-C , 16-H ) :   0.9893
B(  1-C ,  2-C ) :   1.2217 B(  1-C , 17-H ) :   0.9816 B(  2-C ,  3-C ) :   1.4028
B(  2-C , 18-H ) :   0.9909 B(  3-C ,  4-O ) :   1.1695 B(  3-C ,  7-C ) :   1.2143
B(  4-O ,  5-C ) :   0.9428 B(  5-C ,  6-C ) :   1.1048 B(  5-C , 19-H ) :   0.9455
B(  5-C , 20-H ) :   0.9430 B(  6-C , 21-H ) :   0.9662 B(  6-C , 22-H ) :   0.9575
B(  6-C , 23-H ) :   0.9661 B(  7-C ,  8-C ) :   1.3054 B(  7-C , 15-C ) :   1.2517
B(  8-C ,  9-C ) :   1.2143 B(  9-C , 10-O ) :   1.1695 B(  9-C , 13-C ) :   1.4028
B( 10-O , 11-C ) :   0.9428 B( 11-C , 12-C ) :   1.1048 B( 11-C , 24-H ) :   0.9430
B( 11-C , 25-H ) :   0.9455 B( 12-C , 26-H ) :   0.9661 B( 12-C , 27-H ) :   0.9574
B( 12-C , 28-H ) :   0.9662 B( 13-C , 14-C ) :   1.2217 B( 13-C , 29-H ) :   0.9909
B( 14-C , 15-C ) :   1.4533 B( 14-C , 30-H ) :   0.9816 B( 15-C , 31-H ) :   0.9893

Dispersion correction           -0.059927181
FINAL SINGLE POINT ENERGY      -693.138390564957

DIPOLE MOMENT
-------------
                                X             Y             Z
Electronic contribution:      0.00021      -0.00062       0.00193
Nuclear contribution   :     -0.00023       0.00063      -0.00217
                        -----------------------------------------
Total Dipole Moment    :     -0.00002       0.00001      -0.00024
                        -----------------------------------------
Magnitude (a.u.)       :      0.00024
Magnitude (Debye)      :      0.00062

Rotational constants in cm-1:     0.043168     0.009021     0.007505
Rotational constants in MHz :  1294.131607   270.431815   224.979303

                             ****ORCA TERMINATED NORMALLY****
TOTAL RUN TIME: 0 days 0 hours 16 minutes 29 seconds 306 msec
