                         Program Version 4.2.0 -  RELEASE  -
|  1> # ORCA input file
|  2> # SCF done        -20.224577863971          0.000517671055
|  3> ! B3LYP/G D3BJ Opt RIJCOSX def2-SVP def2/J
|  4> * xyz 0 1
|  5>    C        1.37016        -0.73862         0.36424
|  6>    C        1.59436         0.65439         0.33554
|  7>    C        0.67522         1.31679        -0.42446
|  8>    S        0.63985         3.04411        -0.69668
|  9>    C       -0.81753         3.19959        -1.76629
| 10>    S       -0.48468         0.22400        -1.11603
| 11>    C        0.29262        -1.11740        -0.36566
| 12>    H        1.99038        -1.42744         0.90950
| 13>    H        2.39502         1.15279         0.85024
| 14>    H       -0.90995         4.25409        -2.00522
| 15>    H       -1.69827         2.85458        -1.23207
| 16>    H       -0.66723         2.61894        -2.67195
| 17>    H       -0.10671        -2.09929        -0.52060
| 18> *
| 19>
| 20>                          ****END OF INPUT****
 Total Charge           Charge          ....    0
 Multiplicity           Mult            ....    1
 Number of Electrons    NEL             ....   68
Dispersion correction           -0.027399415
FINAL SINGLE POINT ENERGY      -990.172093337451
Dispersion correction            ... done
Dispersion correction           -0.027240511
FINAL SINGLE POINT ENERGY      -990.174126950616
Dispersion correction            ... done
Dispersion correction           -0.027127002
FINAL SINGLE POINT ENERGY      -990.174340585262
Dispersion correction            ... done
FINAL SINGLE POINT ENERGY      -990.174549612689
FINAL SINGLE POINT ENERGY      -990.174841542743
FINAL SINGLE POINT ENERGY      -990.175068296783
FINAL SINGLE POINT ENERGY      -990.175252059000
FINAL SINGLE POINT ENERGY      -990.175404070114
FINAL SINGLE POINT ENERGY      -990.175339268277
FINAL SINGLE POINT ENERGY      -990.175662217458
Dispersion correction            ... done
Dispersion correction           -0.026647245
FINAL SINGLE POINT ENERGY      -990.175679098225
Dispersion correction            ... done
Dispersion correction           -0.026655966
FINAL SINGLE POINT ENERGY      -990.175680960299
Dispersion correction            ... done
                    ***********************HURRAY********************

CARTESIAN COORDINATES (ANGSTROEM)
---------------------------------
  C      1.114613   -0.639047    0.518468
  C      1.300785    0.753281    0.271290
  C      0.881173    1.140304   -0.983844
  S      0.948335    2.746869   -1.699498
  C     -0.790522    3.280164   -1.481373
  S      0.266128   -0.232050   -1.879800
  C      0.556422   -1.296377   -0.552101
  H      1.377518   -1.133491    1.455035
  H      1.720651    1.459741    0.988128
  H     -0.871618    4.274422   -1.944124
  H     -1.048689    3.346259   -0.415086
  H     -1.472992    2.586898   -1.991442
  H      0.291435   -2.350445   -0.625090

 Multiplicity           Mult            ....    1
 Number of Electrons    NEL             ....   68
 Basis Dimension        Dim             ....  136

ORBITAL ENERGIES
----------------

  NO   OCC          E(Eh)            E(eV)
   0   2.0000     -88.875353     -2418.4213
   1   2.0000     -88.845177     -2417.6002
   2   2.0000     -10.229034      -278.3462
   3   2.0000     -10.216639      -278.0089
   4   2.0000     -10.213739      -277.9300
   5   2.0000     -10.198360      -277.5115
   6   2.0000     -10.197649      -277.4921
   7   2.0000      -7.970536      -216.8893
   8   2.0000      -7.939617      -216.0480
   9   2.0000      -5.938622      -161.5981
  10   2.0000      -5.934486      -161.4856
  11   2.0000      -5.931925      -161.4159
  12   2.0000      -5.909191      -160.7973
  13   2.0000      -5.905326      -160.6921
  14   2.0000      -5.897789      -160.4870
  15   2.0000      -0.882374       -24.0106
  16   2.0000      -0.792372       -21.5615
  17   2.0000      -0.734889       -19.9973
  18   2.0000      -0.712617       -19.3913
  19   2.0000      -0.639464       -17.4007
  20   2.0000      -0.559266       -15.2184
  21   2.0000      -0.533454       -14.5160
  22   2.0000      -0.499637       -13.5958
  23   2.0000      -0.434873       -11.8335
  24   2.0000      -0.429766       -11.6945
  25   2.0000      -0.411419       -11.1953
  26   2.0000      -0.401624       -10.9287
  27   2.0000      -0.397376       -10.8131
  28   2.0000      -0.375502       -10.2179
  29   2.0000      -0.351318        -9.5599
  30   2.0000      -0.331627        -9.0240
  31   2.0000      -0.258963        -7.0467
  32   2.0000      -0.245337        -6.6760
  33   2.0000      -0.229474        -6.2443
  34   0.0000      -0.031870        -0.8672
  35   0.0000       0.037707         1.0261
  36   0.0000       0.040777         1.1096
  37   0.0000       0.058152         1.5824
  38   0.0000       0.068317         1.8590

MULLIKEN ATOMIC CHARGES
-----------------------
   0 C :    0.029779
   1 C :    0.075902
   2 C :   -0.221601
   3 S :   -0.027769
   4 C :   -0.075245
   5 S :    0.126999
   6 C :   -0.093260
   7 H :   -0.004438
   8 H :   -0.008947
   9 H :    0.051625
  10 H :    0.056921
  11 H :    0.055835
  12 H :    0.034199
Sum of atomic charges:    0.0000000

LOEWDIN ATOMIC CHARGES
----------------------
   0 C :   -0.070230
   1 C :   -0.068805
   2 C :   -0.345637
   3 S :    0.248816
   4 C :   -0.152501
   5 S :    0.416882
   6 C :   -0.188245
   7 H :    0.030197
   8 H :    0.030818
   9 H :    0.027829
  10 H :    0.023383
  11 H :    0.021612
  12 H :    0.025880

  Mayer bond orders larger than 0.100000
B(  0-C ,  1-C ) :   1.2661 B(  0-C ,  6-C ) :   1.5571 B(  0-C ,  7-H ) :   0.9872
B(  1-C ,  2-C ) :   1.5480 B(  1-C ,  8-H ) :   0.9905 B(  2-C ,  3-S ) :   1.0310
B(  2-C ,  5-S ) :   1.1233 B(  3-S ,  4-C ) :   0.9891 B(  4-C ,  9-H ) :   0.9698
B(  4-C , 10-H ) :   0.9705 B(  4-C , 11-H ) :   0.9721 B(  5-S ,  6-C ) :   1.1801
B(  6-C , 12-H ) :   0.9681

Dispersion correction           -0.026660380
FINAL SINGLE POINT ENERGY      -990.175679623796

DIPOLE MOMENT
-------------
                                X             Y             Z
Electronic contribution:      2.82928      -2.30078      -3.51450
Nuclear contribution   :     -3.27785       2.13846       3.89076
                        -----------------------------------------
Total Dipole Moment    :     -0.44858      -0.16232       0.37626
                        -----------------------------------------
Magnitude (a.u.)       :      0.60757
Magnitude (Debye)      :      1.54432

Rotational constants in cm-1:     0.128951     0.042273     0.036422
Rotational constants in MHz :  3865.838838  1267.319362  1091.909408

                             ****ORCA TERMINATED NORMALLY****
TOTAL RUN TIME: 0 days 0 hours 6 minutes 42 seconds 963 msec
