                         Program Version 4.2.0 -  RELEASE  -
|  1> # ORCA input file
|  2> # SCF done        -34.174336249885          0.000272823890
|  3> ! B3LYP/G D3BJ Opt RIJCOSX def2-SVP def2/J
|  4> * xyz 0 1
|  5>    C        3.18901        -0.27591         0.05897
|  6>    S        1.98407        -1.50722         0.23648
|  7>    C        0.73639        -0.32334         0.09810
|  8>    C        1.26948         0.95152        -0.07593
|  9>    C        2.67741         0.97216        -0.09754
| 10>    S        0.04607         2.18101        -0.22060
| 11>    C       -1.19021         0.96585        -0.04512
| 12>    C       -2.59098         1.00656        -0.03203
| 13>    C       -3.14238        -0.23809         0.13808
| 14>    S       -1.91892        -1.48847         0.28600
| 15>    C       -0.66731        -0.31612         0.11583
| 16>    C       -4.54219        -0.55414         0.19805
| 17>    C       -5.04176        -1.77530         0.36628
| 18>    H        4.22093        -0.56429         0.08284
| 19>    H        3.26883         1.86009        -0.22177
| 20>    H       -3.17069         1.90466        -0.14196
| 21>    H       -5.20021         0.29902         0.09376
| 22>    H       -4.40034        -2.63507         0.47111
| 23>    H       -6.10169        -1.95202         0.40404
| 24> *
| 25>
| 26>                          ****END OF INPUT****
 Total Charge           Charge          ....    0
 Multiplicity           Mult            ....    1
 Number of Electrons    NEL             ....  114
Dispersion correction           -0.052736464
FINAL SINGLE POINT ENERGY     -1578.659080484633
Dispersion correction            ... done
Dispersion correction           -0.052619938
FINAL SINGLE POINT ENERGY     -1578.662442854901
Dispersion correction            ... done
Dispersion correction           -0.052594113
FINAL SINGLE POINT ENERGY     -1578.662525303800
Dispersion correction            ... done
FINAL SINGLE POINT ENERGY     -1578.662321516876
FINAL SINGLE POINT ENERGY     -1578.662410150431
Dispersion correction            ... done
Dispersion correction           -0.052585730
FINAL SINGLE POINT ENERGY     -1578.662429517572
Dispersion correction            ... done
Dispersion correction           -0.052585540
FINAL SINGLE POINT ENERGY     -1578.662413522130
Dispersion correction            ... done
                    ***********************HURRAY********************

CARTESIAN COORDINATES (ANGSTROEM)
---------------------------------
  C      3.237906   -0.280657    0.054368
  S      2.014124   -1.487989    0.351208
  C      0.761034   -0.301026    0.169030
  C      1.298819    0.963612   -0.105133
  C      2.722832    0.972582   -0.167405
  S      0.057625    2.188670   -0.304006
  C     -1.189999    0.986487   -0.016426
  C     -2.609501    1.020098    0.009244
  C     -3.157589   -0.230710    0.232344
  S     -1.912679   -1.461821    0.456409
  C     -0.658439   -0.288906    0.213037
  C     -4.568025   -0.571406    0.248882
  C     -5.094633   -1.807339    0.270737
  H      4.284954   -0.580182    0.058811
  H      3.335754    1.850016   -0.371679
  H     -3.218570    1.909854   -0.152224
  H     -5.237497    0.295606    0.219517
  H     -4.465350   -2.702092    0.274458
  H     -6.175257   -1.963896    0.273418

 Multiplicity           Mult            ....    1
 Number of Electrons    NEL             ....  114
 Basis Dimension        Dim             ....  224

ORBITAL ENERGIES
----------------

  NO   OCC          E(Eh)            E(eV)
   0   2.0000     -88.882677     -2418.6206
   1   2.0000     -88.879510     -2418.5344
   2   2.0000     -88.879249     -2418.5273
   3   2.0000     -10.227216      -278.2967
   4   2.0000     -10.226503      -278.2773
   5   2.0000     -10.226449      -278.2758
   6   2.0000     -10.223528      -278.1963
   7   2.0000     -10.223152      -278.1861
   8   2.0000     -10.222560      -278.1700
   9   2.0000     -10.209113      -277.8041
  10   2.0000     -10.208660      -277.7918
  11   2.0000     -10.208202      -277.7793
  12   2.0000     -10.193717      -277.3851
  13   2.0000      -7.977188      -217.0703
  14   2.0000      -7.973750      -216.9768
  15   2.0000      -7.973591      -216.9724
  16   2.0000      -5.945646      -161.7893
  17   2.0000      -5.942222      -161.6961
  18   2.0000      -5.942170      -161.6947
  19   2.0000      -5.941535      -161.6774
  20   2.0000      -5.938564      -161.5965
  21   2.0000      -5.938295      -161.5892
  22   2.0000      -5.937932      -161.5793
  23   2.0000      -5.934283      -161.4800
  24   2.0000      -5.933582      -161.4610
  25   2.0000      -0.917679       -24.9713
  26   2.0000      -0.878702       -23.9107
  27   2.0000      -0.829179       -22.5631
  28   2.0000      -0.783107       -21.3094
  29   2.0000      -0.756900       -20.5963
  30   2.0000      -0.740143       -20.1403
  31   2.0000      -0.698138       -18.9973
  32   2.0000      -0.689309       -18.7570
  33   2.0000      -0.623347       -16.9621
  34   2.0000      -0.567671       -15.4471
  35   2.0000      -0.562213       -15.2986
  36   2.0000      -0.540439       -14.7061
  37   2.0000      -0.533608       -14.5202
  38   2.0000      -0.489080       -13.3085
  39   2.0000      -0.475655       -12.9432
  40   2.0000      -0.456137       -12.4121
  41   2.0000      -0.430380       -11.7112
  42   2.0000      -0.429737       -11.6938
  43   2.0000      -0.418221       -11.3804
  44   2.0000      -0.399329       -10.8663
  45   2.0000      -0.391852       -10.6628
  46   2.0000      -0.384740       -10.4693
  47   2.0000      -0.379234       -10.3195
  48   2.0000      -0.369227       -10.0472
  49   2.0000      -0.350485        -9.5372
  50   2.0000      -0.339305        -9.2330
  51   2.0000      -0.334315        -9.0972
  52   2.0000      -0.306882        -8.3507
  53   2.0000      -0.269203        -7.3254
  54   2.0000      -0.265300        -7.2192
  55   2.0000      -0.226072        -6.1517
  56   2.0000      -0.204146        -5.5551
  57   0.0000      -0.062526        -1.7014
  58   0.0000      -0.009884        -0.2689
  59   0.0000       0.018027         0.4905
  60   0.0000       0.019626         0.5341
  61   0.0000       0.034442         0.9372

MULLIKEN ATOMIC CHARGES
-----------------------
   0 C :   -0.090504
   1 S :    0.133854
   2 C :   -0.092112
   3 C :   -0.058359
   4 C :    0.020232
   5 S :    0.135680
   6 C :   -0.036348
   7 C :   -0.023273
   8 C :   -0.078387
   9 S :    0.129268
  10 C :   -0.076185
  11 C :    0.020087
  12 C :   -0.042516
  13 H :    0.033576
  14 H :   -0.006257
  15 H :   -0.014237
  16 H :   -0.006253
  17 H :    0.022273
  18 H :    0.029462
Sum of atomic charges:   -0.0000000

LOEWDIN ATOMIC CHARGES
----------------------
   0 C :   -0.180282
   1 S :    0.418051
   2 C :   -0.221121
   3 C :   -0.196200
   4 C :   -0.072131
   5 S :    0.392637
   6 C :   -0.195667
   7 C :   -0.064178
   8 C :   -0.164270
   9 S :    0.414088
  10 C :   -0.213038
  11 C :   -0.039739
  12 C :   -0.056788
  13 H :    0.027023
  14 H :    0.034959
  15 H :    0.033573
  16 H :    0.035287
  17 H :    0.019394
  18 H :    0.028404

  Mayer bond orders larger than 0.100000
B(  0-C ,  1-S ) :   1.1353 B(  0-C ,  4-C ) :   1.5708 B(  0-C , 13-H ) :   0.9646
B(  1-S ,  2-C ) :   1.0825 B(  2-C ,  3-C ) :   1.4448 B(  2-C , 10-C ) :   1.3115
B(  3-C ,  4-C ) :   1.2616 B(  3-C ,  5-S ) :   1.0583 B(  4-C , 14-H ) :   0.9940
B(  5-S ,  6-C ) :   1.0517 B(  6-C ,  7-C ) :   1.2452 B(  6-C , 10-C ) :   1.4484
B(  7-C ,  8-C ) :   1.5016 B(  7-C , 15-H ) :   0.9961 B(  8-C ,  9-S ) :   1.0815
B(  8-C , 11-C ) :   1.1465 B(  9-S , 10-C ) :   1.0771 B( 11-C , 12-C ) :   1.8886
B( 11-C , 16-H ) :   0.9568 B( 12-C , 17-H ) :   0.9522 B( 12-C , 18-H ) :   0.9481

Dispersion correction           -0.052585592
FINAL SINGLE POINT ENERGY     -1578.662412355026

DIPOLE MOMENT
-------------
                                X             Y             Z
Electronic contribution:      7.94461       0.77937       0.33089
Nuclear contribution   :     -7.83816      -0.59540      -0.41308
                        -----------------------------------------
Total Dipole Moment    :      0.10646       0.18397      -0.08219
                        -----------------------------------------
Magnitude (a.u.)       :      0.22789
Magnitude (Debye)      :      0.57924

Rotational constants in cm-1:     0.042863     0.012345     0.009597
Rotational constants in MHz :  1285.013651   370.083483   287.704772

                             ****ORCA TERMINATED NORMALLY****
TOTAL RUN TIME: 0 days 0 hours 10 minutes 17 seconds 669 msec
