                         Program Version 4.2.0 -  RELEASE  -
|  1> # ORCA input file
|  2> # SCF done        -49.876759222395          0.000533283581
|  3> ! B3LYP/G D3BJ Opt RIJCOSX def2-SVP def2/J
|  4> * xyz 0 1
|  5>    C       -2.40397         1.46744        -0.13009
|  6>    S       -3.69927         0.35440        -0.17740
|  7>    C       -1.18331         0.85834        -0.08688
|  8>    C        0.08705         1.60724        -0.04019
|  9>    O        0.14608         2.82383        -0.03445
| 10>    C        1.24059         0.72212        -0.00145
| 11>    C        2.58315         1.02572         0.04908
| 12>    N        3.28833        -0.13017         0.08041
| 13>    C        4.72591        -0.22711         0.06971
| 14>    C        5.26411        -0.26109        -1.35957
| 15>    C        2.43447        -1.18085         0.04053
| 16>    C        1.14420        -0.70072        -0.00687
| 17>    C       -0.10558        -1.44926        -0.05127
| 18>    O       -0.15060        -2.66880        -0.05453
| 19>    C       -1.28678        -0.56957        -0.09154
| 20>    C       -2.59911        -1.00006        -0.13864
| 21>    C       -3.07901        -2.35300        -0.15512
| 22>    C       -4.36404        -2.69411        -0.20618
| 23>    H       -2.59221         2.52320        -0.13620
| 24>    H        3.06103         1.98503         0.07125
| 25>    H        5.01683        -1.13749         0.60031
| 26>    H        5.13614         0.63449         0.60293
| 27>    H        4.86849        -1.12221        -1.89276
| 28>    H        6.34849        -0.32547        -1.34717
| 29>    H        4.97327         0.63975        -1.89461
| 30>    H        2.77936        -2.19573         0.05507
| 31>    H       -2.30045        -3.10283        -0.12130
| 32>    H       -5.14717        -1.95296        -0.23728
| 33>    H       -4.67136        -3.72467        -0.21586
| 34> *
| 35>
| 36>                          ****END OF INPUT****
 Total Charge           Charge          ....    0
 Multiplicity           Mult            ....    1
 Number of Electrons    NEL             ....  134
Dispersion correction           -0.067117204
FINAL SINGLE POINT ENERGY     -1142.907351889008
Dispersion correction            ... done
Dispersion correction           -0.066793821
FINAL SINGLE POINT ENERGY     -1142.911975459122
Dispersion correction            ... done
Dispersion correction           -0.066748963
FINAL SINGLE POINT ENERGY     -1142.912144895031
Dispersion correction            ... done
FINAL SINGLE POINT ENERGY     -1142.912072962480
FINAL SINGLE POINT ENERGY     -1142.912152254147
FINAL SINGLE POINT ENERGY     -1142.912157291991
FINAL SINGLE POINT ENERGY     -1142.912141960794
Dispersion correction            ... done
Dispersion correction           -0.066779715
FINAL SINGLE POINT ENERGY     -1142.912132580752
Dispersion correction            ... done
Dispersion correction           -0.066777210
FINAL SINGLE POINT ENERGY     -1142.912136797517
Dispersion correction            ... done
                    ***********************HURRAY********************

CARTESIAN COORDINATES (ANGSTROEM)
---------------------------------
  C     -2.423050    1.501861   -0.145956
  S     -3.714361    0.369363   -0.253885
  C     -1.201468    0.882918   -0.053448
  C      0.084053    1.634432    0.035447
  O      0.139546    2.854725    0.057738
  C      1.256169    0.752341    0.075379
  C      2.602480    1.073334    0.114836
  N      3.317413   -0.099465    0.135519
  C      4.769176   -0.198614    0.031158
  C      5.238831   -0.331260   -1.416393
  C      2.457813   -1.170437    0.103126
  C      1.163364   -0.680620    0.066218
  C     -0.099165   -1.434129    0.011834
  O     -0.135715   -2.658593    0.017901
  C     -1.304952   -0.559420   -0.066232
  C     -2.622334   -0.998569   -0.167575
  C     -3.106392   -2.368657   -0.205085
  C     -4.394348   -2.746692   -0.262379
  H     -2.600706    2.576318   -0.155971
  H      3.091627    2.044456    0.132418
  H      5.092472   -1.063607    0.629935
  H      5.199909    0.695968    0.504638
  H      4.805477   -1.225924   -1.887898
  H      6.335931   -0.414284   -1.462205
  H      4.933494    0.545257   -2.008596
  H      2.819284   -2.195765    0.107381
  H     -2.305569   -3.110474   -0.175489
  H     -5.216973   -2.025133   -0.284036
  H     -4.667367   -3.803870   -0.288450

 Multiplicity           Mult            ....    1
 Number of Electrons    NEL             ....  134
 Basis Dimension        Dim             ....  311

ORBITAL ENERGIES
----------------

  NO   OCC          E(Eh)            E(eV)
   0   2.0000     -88.887315     -2418.7468
   1   2.0000     -19.115955      -520.1716
   2   2.0000     -19.112894      -520.0883
   3   2.0000     -14.407576      -392.0501
   4   2.0000     -10.275939      -279.6225
   5   2.0000     -10.272267      -279.5226
   6   2.0000     -10.258253      -279.1413
   7   2.0000     -10.234851      -278.5045
   8   2.0000     -10.234257      -278.4883
   9   2.0000     -10.234090      -278.4838
  10   2.0000     -10.226394      -278.2743
  11   2.0000     -10.210454      -277.8406
  12   2.0000     -10.205069      -277.6940
  13   2.0000     -10.202104      -277.6134
  14   2.0000     -10.200132      -277.5597
  15   2.0000     -10.195905      -277.4447
  16   2.0000     -10.192141      -277.3423
  17   2.0000     -10.191315      -277.3198
  18   2.0000      -7.982334      -217.2103
  19   2.0000      -5.950217      -161.9136
  20   2.0000      -5.946205      -161.8045
  21   2.0000      -5.944022      -161.7451
  22   2.0000      -1.022486       -27.8233
  23   2.0000      -1.018373       -27.7113
  24   2.0000      -1.006216       -27.3805
  25   2.0000      -0.894289       -24.3348
  26   2.0000      -0.840314       -22.8661
  27   2.0000      -0.792994       -21.5785
  28   2.0000      -0.780228       -21.2311
  29   2.0000      -0.748449       -20.3663
  30   2.0000      -0.743922       -20.2431
  31   2.0000      -0.722793       -19.6682
  32   2.0000      -0.676418       -18.4063
  33   2.0000      -0.660655       -17.9773
  34   2.0000      -0.620139       -16.8748
  35   2.0000      -0.602381       -16.3916
  36   2.0000      -0.587703       -15.9922
  37   2.0000      -0.565559       -15.3896
  38   2.0000      -0.536090       -14.5877
  39   2.0000      -0.521452       -14.1894
  40   2.0000      -0.514181       -13.9916
  41   2.0000      -0.485645       -13.2151
  42   2.0000      -0.474062       -12.8999
  43   2.0000      -0.469557       -12.7773
  44   2.0000      -0.457677       -12.4540
  45   2.0000      -0.445965       -12.1353
  46   2.0000      -0.441851       -12.0234
  47   2.0000      -0.435724       -11.8567
  48   2.0000      -0.433204       -11.7881
  49   2.0000      -0.425968       -11.5912
  50   2.0000      -0.421467       -11.4687
  51   2.0000      -0.407666       -11.0932
  52   2.0000      -0.403571       -10.9817
  53   2.0000      -0.395679       -10.7670
  54   2.0000      -0.393328       -10.7030
  55   2.0000      -0.380879       -10.3642
  56   2.0000      -0.379569       -10.3286
  57   2.0000      -0.373023       -10.1505
  58   2.0000      -0.368288       -10.0216
  59   2.0000      -0.352037        -9.5794
  60   2.0000      -0.308521        -8.3953
  61   2.0000      -0.271962        -7.4005
  62   2.0000      -0.260342        -7.0843
  63   2.0000      -0.253882        -6.9085
  64   2.0000      -0.252412        -6.8685
  65   2.0000      -0.242415        -6.5965
  66   2.0000      -0.229172        -6.2361
  67   0.0000      -0.082334        -2.2404
  68   0.0000      -0.067072        -1.8251
  69   0.0000      -0.013563        -0.3691
  70   0.0000       0.029968         0.8155
  71   0.0000       0.032456         0.8832

MULLIKEN ATOMIC CHARGES
-----------------------
   0 C :   -0.112591
   1 S :    0.132156
   2 C :   -0.021912
   3 C :    0.152864
   4 O :   -0.183043
   5 C :   -0.026885
   6 C :    0.017533
   7 N :   -0.168991
   8 C :    0.113484
   9 C :   -0.009124
  10 C :    0.016143
  11 C :   -0.009037
  12 C :    0.144974
  13 O :   -0.194369
  14 C :    0.054219
  15 C :   -0.177956
  16 C :    0.013633
  17 C :   -0.021932
  18 H :    0.038366
  19 H :    0.009777
  20 H :    0.027145
  21 H :    0.024506
  22 H :    0.029267
  23 H :    0.033328
  24 H :    0.032760
  25 H :    0.008212
  26 H :    0.026479
  27 H :    0.020857
  28 H :    0.030137
Sum of atomic charges:   -0.0000000

LOEWDIN ATOMIC CHARGES
----------------------
   0 C :   -0.143471
   1 S :    0.459002
   2 C :   -0.092243
   3 C :    0.072615
   4 O :   -0.173290
   5 C :   -0.098094
   6 C :    0.028374
   7 N :    0.074754
   8 C :    0.048277
   9 C :   -0.058636
  10 C :    0.028038
  11 C :   -0.094118
  12 C :    0.078093
  13 O :   -0.173124
  14 C :   -0.087112
  15 C :   -0.137107
  16 C :   -0.037008
  17 C :   -0.037979
  18 H :    0.036266
  19 H :    0.030374
  20 H :    0.031252
  21 H :    0.031144
  22 H :    0.030187
  23 H :    0.034011
  24 H :    0.031428
  25 H :    0.029843
  26 H :    0.041381
  27 H :    0.017207
  28 H :    0.029934

  Mayer bond orders larger than 0.100000
B(  0-C ,  1-S ) :   1.1700 B(  0-C ,  2-C ) :   1.5366 B(  0-C , 18-H ) :   0.9594
B(  1-S , 15-C ) :   1.1276 B(  2-C ,  3-C ) :   0.9354 B(  2-C , 14-C ) :   1.1883
B(  3-C ,  4-O ) :   2.2254 B(  3-C ,  5-C ) :   0.9711 B(  5-C ,  6-C ) :   1.4107
B(  5-C , 11-C ) :   1.2848 B(  6-C ,  7-N ) :   1.2129 B(  6-C , 19-H ) :   0.9892
B(  7-N ,  8-C ) :   0.9552 B(  7-N , 10-C ) :   1.2114 B(  8-C ,  9-C ) :   1.1104
B(  8-C , 20-H ) :   0.9476 B(  8-C , 21-H ) :   0.9474 B(  9-C , 22-H ) :   0.9657
B(  9-C , 23-H ) :   0.9647 B(  9-C , 24-H ) :   0.9662 B( 10-C , 11-C ) :   1.4071
B( 10-C , 25-H ) :   0.9911 B( 11-C , 12-C ) :   0.9933 B( 12-C , 13-O ) :   2.1378
B( 12-C , 14-C ) :   0.9519 B( 14-C , 15-C ) :   1.4702 B( 15-C , 16-C ) :   1.1567
B( 16-C , 17-C ) :   1.8685 B( 16-C , 26-H ) :   0.9359 B( 17-C , 27-H ) :   0.9517
B( 17-C , 28-H ) :   0.9472

Dispersion correction           -0.066775468
FINAL SINGLE POINT ENERGY     -1142.912140970865

DIPOLE MOMENT
-------------
                                X             Y             Z
Electronic contribution:    -16.10109       5.27111       3.11865
Nuclear contribution   :     17.57000      -5.47653      -3.27145
                        -----------------------------------------
Total Dipole Moment    :      1.46891      -0.20541      -0.15280
                        -----------------------------------------
Magnitude (a.u.)       :      1.49105
Magnitude (Debye)      :      3.78996

Rotational constants in cm-1:     0.027439     0.007665     0.006142
Rotational constants in MHz :   822.609014   229.782894   184.125445

                             ****ORCA TERMINATED NORMALLY****
TOTAL RUN TIME: 0 days 0 hours 25 minutes 39 seconds 814 msec
