                         Program Version 4.2.0 -  RELEASE  -
|  1> # ORCA input file
|  2> # SCF done        -34.609690604235          0.000874506204
|  3> ! B3LYP/G D3BJ Opt RIJCOSX def2-SVP def2/J
|  4> * xyz 0 1
|  5>    C       -0.94103        -0.03936        -1.00457
|  6>    S       -1.67002        -1.56459        -0.68516
|  7>    C       -0.46493        -1.93608         0.47836
|  8>    C        0.46204        -0.94611         0.60947
|  9>    C        0.18282         0.16395        -0.26338
| 10>    O        0.99543         1.25675        -0.29963
| 11>    C        0.64061         2.29135        -1.19587
| 12>    C        1.69937         3.37739        -1.09610
| 13>    O        1.50115        -1.10323         1.46767
| 14>    C        2.23700         0.04036         1.87488
| 15>    C        3.15226        -0.39231         3.00929
| 16>    H       -1.39083         0.60457        -1.73053
| 17>    H       -0.48371        -2.86951         1.00101
| 18>    H       -0.34803         2.69052        -0.92955
| 19>    H        0.59128         1.89622        -2.22000
| 20>    H        2.66979         2.97690        -1.37607
| 21>    H        1.75787         3.74761        -0.07626
| 22>    H        1.44809         4.19851        -1.76057
| 23>    H        1.55206         0.82739         2.21352
| 24>    H        2.82471         0.42995         1.03570
| 25>    H        2.56378        -0.77913         3.83698
| 26>    H        3.73988         0.45460         3.35262
| 27>    H        3.82111        -1.17666         2.66582
| 28> *
| 29>
| 30>                          ****END OF INPUT****
 Total Charge           Charge          ....    0
 Multiplicity           Mult            ....    1
 Number of Electrons    NEL             ....   92
Dispersion correction           -0.038216998
FINAL SINGLE POINT ENERGY      -860.266370095950
Dispersion correction            ... done
Dispersion correction           -0.037929900
FINAL SINGLE POINT ENERGY      -860.268543679023
Dispersion correction            ... done
Dispersion correction           -0.037967429
FINAL SINGLE POINT ENERGY      -860.268870500092
Dispersion correction            ... done
FINAL SINGLE POINT ENERGY      -860.269063228761
FINAL SINGLE POINT ENERGY      -860.269353811965
FINAL SINGLE POINT ENERGY      -860.269650504698
FINAL SINGLE POINT ENERGY      -860.269738990701
FINAL SINGLE POINT ENERGY      -860.269749278781
Dispersion correction            ... done
Dispersion correction           -0.037951110
FINAL SINGLE POINT ENERGY      -860.269743069707
Dispersion correction            ... done
Dispersion correction           -0.037950931
FINAL SINGLE POINT ENERGY      -860.269741767294
Dispersion correction            ... done
                    ***********************HURRAY********************

CARTESIAN COORDINATES (ANGSTROEM)
---------------------------------
  C     -0.974156    0.004063   -0.953562
  S     -1.707206   -1.499122   -0.485132
  C     -0.370655   -1.892662    0.539515
  C      0.604377   -0.927038    0.513662
  C      0.256517    0.173018   -0.361036
  O      1.111935    1.211568   -0.515496
  C      0.641393    2.321956   -1.265142
  C      1.720880    3.382765   -1.301095
  O      1.763832   -1.048390    1.202363
  C      2.178341    0.047101    2.025614
  C      3.093364   -0.510409    3.096416
  H     -1.482200    0.664146   -1.651050
  H     -0.339156   -2.819811    1.106634
  H     -0.283656    2.710666   -0.798405
  H      0.379652    1.993139   -2.288693
  H      2.633609    2.993972   -1.776999
  H      1.976154    3.719447   -0.284803
  H      1.371092    4.253821   -1.876436
  H      1.291108    0.530931    2.473565
  H      2.692337    0.802021    1.409135
  H      2.550563   -1.222591    3.737181
  H      3.491269    0.300449    3.726608
  H      3.941307   -1.039948    2.634787

 Multiplicity           Mult            ....    1
 Number of Electrons    NEL             ....   92
 Basis Dimension        Dim             ....  218

ORBITAL ENERGIES
----------------

  NO   OCC          E(Eh)            E(eV)
   0   2.0000     -88.864772     -2418.1334
   1   2.0000     -19.167580      -521.5764
   2   2.0000     -19.146590      -521.0052
   3   2.0000     -10.249766      -278.9103
   4   2.0000     -10.245046      -278.7819
   5   2.0000     -10.238171      -278.5948
   6   2.0000     -10.233935      -278.4795
   7   2.0000     -10.200827      -277.5786
   8   2.0000     -10.198172      -277.5064
   9   2.0000     -10.192938      -277.3639
  10   2.0000     -10.180847      -277.0349
  11   2.0000      -7.959572      -216.5910
  12   2.0000      -5.927841      -161.3048
  13   2.0000      -5.924029      -161.2010
  14   2.0000      -5.920400      -161.1023
  15   2.0000      -1.065093       -28.9826
  16   2.0000      -1.038813       -28.2675
  17   2.0000      -0.866255       -23.5720
  18   2.0000      -0.775134       -21.0925
  19   2.0000      -0.761771       -20.7288
  20   2.0000      -0.705158       -19.1883
  21   2.0000      -0.700726       -19.0677
  22   2.0000      -0.639639       -17.4055
  23   2.0000      -0.613024       -16.6812
  24   2.0000      -0.566049       -15.4030
  25   2.0000      -0.556194       -15.1348
  26   2.0000      -0.538928       -14.6650
  27   2.0000      -0.491612       -13.3774
  28   2.0000      -0.477897       -13.0042
  29   2.0000      -0.475130       -12.9289
  30   2.0000      -0.455549       -12.3961
  31   2.0000      -0.425436       -11.5767
  32   2.0000      -0.411600       -11.2002
  33   2.0000      -0.403086       -10.9685
  34   2.0000      -0.394544       -10.7361
  35   2.0000      -0.391801       -10.6615
  36   2.0000      -0.385475       -10.4893
  37   2.0000      -0.380010       -10.3406
  38   2.0000      -0.361305        -9.8316
  39   2.0000      -0.358024        -9.7423
  40   2.0000      -0.340500        -9.2655
  41   2.0000      -0.334091        -9.0911
  42   2.0000      -0.319710        -8.6998
  43   2.0000      -0.284395        -7.7388
  44   2.0000      -0.221893        -6.0380
  45   2.0000      -0.214044        -5.8244
  46   0.0000      -0.003415        -0.0929
  47   0.0000       0.048475         1.3191
  48   0.0000       0.056272         1.5313
  49   0.0000       0.067755         1.8437
  50   0.0000       0.077233         2.1016

MULLIKEN ATOMIC CHARGES
-----------------------
   0 C :   -0.214990
   1 S :    0.089988
   2 C :   -0.152073
   3 C :    0.196569
   4 C :    0.182569
   5 O :   -0.316993
   6 C :    0.158764
   7 C :    0.021475
   8 O :   -0.333087
   9 C :    0.196198
  10 C :    0.002956
  11 H :    0.018492
  12 H :    0.012694
  13 H :    0.004549
  14 H :    0.009970
  15 H :    0.027269
  16 H :    0.020832
  17 H :    0.014516
  18 H :   -0.004212
  19 H :    0.016017
  20 H :    0.016406
  21 H :    0.008326
  22 H :    0.023767
Sum of atomic charges:    0.0000000

LOEWDIN ATOMIC CHARGES
----------------------
   0 C :   -0.260054
   1 S :    0.410734
   2 C :   -0.219054
   3 C :   -0.013211
   4 C :   -0.010954
   5 O :   -0.101082
   6 C :    0.086926
   7 C :   -0.058516
   8 O :   -0.120915
   9 C :    0.091520
  10 C :   -0.062806
  11 H :    0.020159
  12 H :    0.026220
  13 H :    0.010424
  14 H :    0.011110
  15 H :    0.030140
  16 H :    0.027836
  17 H :    0.031703
  18 H :    0.008935
  19 H :    0.009773
  20 H :    0.025251
  21 H :    0.027284
  22 H :    0.028577

  Mayer bond orders larger than 0.100000
B(  0-C ,  1-S ) :   1.1157 B(  0-C ,  4-C ) :   1.4769 B(  0-C , 11-H ) :   0.9691
B(  1-S ,  2-C ) :   1.1409 B(  2-C ,  3-C ) :   1.5593 B(  2-C , 12-H ) :   0.9635
B(  3-C ,  4-C ) :   1.1900 B(  3-C ,  8-O ) :   1.1413 B(  4-C ,  5-O ) :   1.1389
B(  5-O ,  6-C ) :   0.9449 B(  6-C ,  7-C ) :   1.1101 B(  6-C , 13-H ) :   0.9433
B(  6-C , 14-H ) :   0.9422 B(  7-C , 15-H ) :   0.9672 B(  7-C , 16-H ) :   0.9658
B(  7-C , 17-H ) :   0.9572 B(  8-O ,  9-C ) :   0.9199 B(  9-C , 10-C ) :   1.1150
B(  9-C , 18-H ) :   0.9399 B(  9-C , 19-H ) :   0.9493 B( 10-C , 20-H ) :   0.9667
B( 10-C , 21-H ) :   0.9594 B( 10-C , 22-H ) :   0.9675

Dispersion correction           -0.037952706
FINAL SINGLE POINT ENERGY      -860.269741360629

DIPOLE MOMENT
-------------
                                X             Y             Z
Electronic contribution:    -10.94233     -11.26105      -4.13893
Nuclear contribution   :     10.94350      12.21694       4.11390
                        -----------------------------------------
Total Dipole Moment    :      0.00117       0.95589      -0.02503
                        -----------------------------------------
Magnitude (a.u.)       :      0.95622
Magnitude (Debye)      :      2.43052

Rotational constants in cm-1:     0.030157     0.027808     0.014870
Rotational constants in MHz :   904.070803   833.657151   445.796643

                             ****ORCA TERMINATED NORMALLY****
TOTAL RUN TIME: 0 days 0 hours 13 minutes 32 seconds 263 msec
