                         Program Version 4.2.0 -  RELEASE  -
|  1> # ORCA input file
|  2> # SCF done        -38.300528173886          0.000556466295
|  3> ! B3LYP/G D3BJ Opt RIJCOSX def2-SVP def2/J
|  4> * xyz 0 1
|  5>    C        0.67964        -1.83824         0.03593
|  6>    C        1.38037        -0.65902        -0.07367
|  7>    C        0.69968         0.55346        -0.19228
|  8>    S        1.75034         1.94830        -0.31725
|  9>    C        3.20401         0.93936         0.17382
| 10>    C        2.87435        -0.51709        -0.13817
| 11>    C       -0.68292         0.55970        -0.20446
| 12>    C       -1.39359        -0.63418        -0.09926
| 13>    C       -2.88485        -0.44672        -0.16177
| 14>    C       -3.17797         1.02314         0.12495
| 15>    S       -1.69299         1.98639        -0.35104
| 16>    C       -0.72249        -1.85041         0.02354
| 17>    C       -1.46965        -3.10067         0.10754
| 18>    C       -1.02001        -4.23972         0.62065
| 19>    H        1.21896        -2.76970         0.10518
| 20>    H        3.35373         1.09718         1.24269
| 21>    H        4.07061         1.30909        -0.36888
| 22>    H        3.37515        -1.18603         0.56307
| 23>    H        3.20801        -0.77422        -1.14869
| 24>    H       -3.40408        -1.07850         0.56006
| 25>    H       -3.23331        -0.71445        -1.16509
| 26>    H       -3.34253         1.19779         1.18908
| 27>    H       -4.02630         1.40764        -0.43635
| 28>    H       -2.47580        -3.06649        -0.28899
| 29>    H       -0.03896        -4.33315         1.05408
| 30>    H       -1.62967        -5.12671         0.63645
| 31> *
| 32>
| 33>                          ****END OF INPUT****
 Total Charge           Charge          ....    0
 Multiplicity           Mult            ....    1
 Number of Electrons    NEL             ....  116
Dispersion correction           -0.063185236
FINAL SINGLE POINT ENERGY     -1260.385010375963
Dispersion correction            ... done
Dispersion correction           -0.062755273
FINAL SINGLE POINT ENERGY     -1260.388394131105
Dispersion correction            ... done
Dispersion correction           -0.062676869
FINAL SINGLE POINT ENERGY     -1260.388587174411
Dispersion correction            ... done
FINAL SINGLE POINT ENERGY     -1260.388669115154
FINAL SINGLE POINT ENERGY     -1260.388727504202
FINAL SINGLE POINT ENERGY     -1260.388775368668
FINAL SINGLE POINT ENERGY     -1260.388811132372
FINAL SINGLE POINT ENERGY     -1260.388831192271
FINAL SINGLE POINT ENERGY     -1260.388850638986
FINAL SINGLE POINT ENERGY     -1260.388871236846
FINAL SINGLE POINT ENERGY     -1260.388917275287
FINAL SINGLE POINT ENERGY     -1260.388917969154
FINAL SINGLE POINT ENERGY     -1260.388921785138
FINAL SINGLE POINT ENERGY     -1260.388930447756
FINAL SINGLE POINT ENERGY     -1260.388974709052
FINAL SINGLE POINT ENERGY     -1260.388986068806
FINAL SINGLE POINT ENERGY     -1260.388990058541
Dispersion correction            ... done
Dispersion correction           -0.062718362
FINAL SINGLE POINT ENERGY     -1260.388990505312
Dispersion correction            ... done
Dispersion correction           -0.062718090
FINAL SINGLE POINT ENERGY     -1260.388990294398
Dispersion correction            ... done
                    ***********************HURRAY********************

CARTESIAN COORDINATES (ANGSTROEM)
---------------------------------
  C      0.685081   -1.838412    0.141304
  C      1.391962   -0.658567   -0.029374
  C      0.706134    0.560698   -0.210677
  S      1.765956    1.960939   -0.406642
  C      3.217988    0.971101    0.173351
  C      2.893892   -0.502348   -0.119222
  C     -0.686262    0.565503   -0.228410
  C     -1.405603   -0.635440   -0.060129
  C     -2.902041   -0.427460   -0.192982
  C     -3.189380    1.055779    0.081033
  S     -1.700365    1.996077   -0.472827
  C     -0.731636   -1.856730    0.128002
  C     -1.490921   -3.107573    0.287557
  C     -1.000937   -4.343674    0.473209
  H      1.234395   -2.771182    0.282082
  H      3.337936    1.150757    1.252839
  H      4.114701    1.330901   -0.347533
  H      3.426665   -1.172016    0.572689
  H      3.217927   -0.763815   -1.142934
  H     -3.489450   -1.061658    0.486725
  H     -3.204355   -0.684925   -1.224837
  H     -3.326969    1.244161    1.157007
  H     -4.066500    1.433589   -0.460022
  H     -2.578514   -2.999684    0.232665
  H      0.069410   -4.557357    0.543045
  H     -1.669381   -5.201913    0.575222

 Multiplicity           Mult            ....    1
 Number of Electrons    NEL             ....  116
 Basis Dimension        Dim             ....  264

ORBITAL ENERGIES
----------------

  NO   OCC          E(Eh)            E(eV)
   0   2.0000     -88.844654     -2417.5859
   1   2.0000     -88.842514     -2417.5277
   2   2.0000     -10.222368      -278.1648
   3   2.0000     -10.221308      -278.1359
   4   2.0000     -10.214584      -277.9530
   5   2.0000     -10.214205      -277.9427
   6   2.0000     -10.205527      -277.7065
   7   2.0000     -10.205299      -277.7003
   8   2.0000     -10.199353      -277.5385
   9   2.0000     -10.198020      -277.5022
  10   2.0000     -10.197408      -277.4856
  11   2.0000     -10.195918      -277.4450
  12   2.0000     -10.188574      -277.2452
  13   2.0000     -10.186952      -277.2011
  14   2.0000      -7.939653      -216.0489
  15   2.0000      -7.937609      -215.9933
  16   2.0000      -5.908872      -160.7886
  17   2.0000      -5.906852      -160.7336
  18   2.0000      -5.905018      -160.6837
  19   2.0000      -5.903033      -160.6297
  20   2.0000      -5.898429      -160.5044
  21   2.0000      -5.896294      -160.4463
  22   2.0000      -0.885229       -24.0883
  23   2.0000      -0.844945       -22.9921
  24   2.0000      -0.811504       -22.0821
  25   2.0000      -0.769753       -20.9461
  26   2.0000      -0.750867       -20.4321
  27   2.0000      -0.730477       -19.8773
  28   2.0000      -0.701411       -19.0864
  29   2.0000      -0.688060       -18.7231
  30   2.0000      -0.623137       -16.9564
  31   2.0000      -0.610634       -16.6162
  32   2.0000      -0.579144       -15.7593
  33   2.0000      -0.570767       -15.5314
  34   2.0000      -0.535386       -14.5686
  35   2.0000      -0.509784       -13.8719
  36   2.0000      -0.483610       -13.1597
  37   2.0000      -0.472972       -12.8702
  38   2.0000      -0.461154       -12.5486
  39   2.0000      -0.444928       -12.1071
  40   2.0000      -0.440124       -11.9764
  41   2.0000      -0.423968       -11.5367
  42   2.0000      -0.407424       -11.0866
  43   2.0000      -0.397995       -10.8300
  44   2.0000      -0.390353       -10.6221
  45   2.0000      -0.385274       -10.4838
  46   2.0000      -0.381630       -10.3847
  47   2.0000      -0.371466       -10.1081
  48   2.0000      -0.365870        -9.9558
  49   2.0000      -0.349230        -9.5030
  50   2.0000      -0.341166        -9.2836
  51   2.0000      -0.332742        -9.0544
  52   2.0000      -0.321068        -8.7367
  53   2.0000      -0.317128        -8.6295
  54   2.0000      -0.277889        -7.5617
  55   2.0000      -0.256755        -6.9866
  56   2.0000      -0.213835        -5.8187
  57   2.0000      -0.195081        -5.3084
  58   0.0000      -0.041642        -1.1331
  59   0.0000      -0.012191        -0.3317
  60   0.0000       0.009303         0.2531
  61   0.0000       0.045053         1.2260
  62   0.0000       0.052979         1.4416

MULLIKEN ATOMIC CHARGES
-----------------------
   0 C :   -0.089717
   1 C :   -0.018909
   2 C :   -0.088787
   3 S :    0.000456
   4 C :   -0.067410
   5 C :    0.124045
   6 C :   -0.086583
   7 C :   -0.093583
   8 C :    0.108379
   9 C :   -0.057524
  10 S :   -0.005791
  11 C :    0.081699
  12 C :   -0.031867
  13 C :   -0.024767
  14 H :   -0.049613
  15 H :    0.057876
  16 H :    0.043080
  17 H :    0.015284
  18 H :    0.024472
  19 H :    0.025561
  20 H :    0.025497
  21 H :    0.055909
  22 H :    0.041958
  23 H :   -0.018809
  24 H :    0.010494
  25 H :    0.018649
Sum of atomic charges:   -0.0000000

LOEWDIN ATOMIC CHARGES
----------------------
   0 C :   -0.025652
   1 C :   -0.044170
   2 C :   -0.173591
   3 S :    0.266733
   4 C :   -0.108322
   5 C :   -0.029680
   6 C :   -0.171371
   7 C :   -0.039353
   8 C :   -0.033842
   9 C :   -0.108135
  10 S :    0.261423
  11 C :   -0.037275
  12 C :   -0.024681
  13 C :   -0.052373
  14 H :    0.023309
  15 H :    0.022788
  16 H :    0.024014
  17 H :    0.032177
  18 H :    0.035429
  19 H :    0.031209
  20 H :    0.035876
  21 H :    0.022317
  22 H :    0.024100
  23 H :    0.025552
  24 H :    0.018311
  25 H :    0.025207

  Mayer bond orders larger than 0.100000
B(  0-C ,  1-C ) :   1.4406 B(  0-C , 11-C ) :   1.2713 B(  0-C , 14-H ) :   0.9913
B(  1-C ,  2-C ) :   1.3655 B(  1-C ,  5-C ) :   1.0271 B(  2-C ,  3-S ) :   1.0109
B(  2-C ,  6-C ) :   1.4865 B(  3-S ,  4-C ) :   0.9886 B(  4-C ,  5-C ) :   1.0551
B(  4-C , 15-H ) :   0.9511 B(  4-C , 16-H ) :   0.9514 B(  5-C , 17-H ) :   0.9281
B(  5-C , 18-H ) :   0.9171 B(  6-C ,  7-C ) :   1.3878 B(  6-C , 10-S ) :   1.0059
B(  7-C ,  8-C ) :   1.0485 B(  7-C , 11-C ) :   1.3970 B(  8-C ,  9-C ) :   1.0552
B(  8-C , 19-H ) :   0.9163 B(  8-C , 20-H ) :   0.9119 B(  9-C , 10-S ) :   0.9905
B(  9-C , 21-H ) :   0.9511 B(  9-C , 22-H ) :   0.9496 B( 11-C , 12-C ) :   1.0838
B( 12-C , 13-C ) :   1.9250 B( 12-C , 23-H ) :   0.9565 B( 13-C , 24-H ) :   0.9467
B( 13-C , 25-H ) :   0.9436

Dispersion correction           -0.062718216
FINAL SINGLE POINT ENERGY     -1260.388990590681

DIPOLE MOMENT
-------------
                                X             Y             Z
Electronic contribution:      1.22516      12.14740      -2.63530
Nuclear contribution   :     -1.17774     -12.78949       2.89687
                        -----------------------------------------
Total Dipole Moment    :      0.04742      -0.64209       0.26157
                        -----------------------------------------
Magnitude (a.u.)       :      0.69494
Magnitude (Debye)      :      1.76640

Rotational constants in cm-1:     0.023148     0.017493     0.010099
Rotational constants in MHz :   693.968632   524.424024   302.764219

                             ****ORCA TERMINATED NORMALLY****
TOTAL RUN TIME: 0 days 0 hours 49 minutes 27 seconds 369 msec
