                         Program Version 4.2.0 -  RELEASE  -
|  1> # ORCA input file
|  2> # SCF done        -36.118404474081          0.000994105701
|  3> ! B3LYP/G D3BJ Opt RIJCOSX def2-SVP def2/J
|  4> * xyz 0 1
|  5>    C       -1.42453         1.34702        -0.17791
|  6>    S       -2.64415         0.15303        -0.07545
|  7>    C       -1.50474        -1.14657         0.08507
|  8>    C       -0.21352        -0.64184         0.05388
|  9>    C       -0.17522         0.78895        -0.09226
| 10>    N        1.00373         1.47006        -0.10547
| 11>    C        2.08673         0.75594        -0.01197
| 12>    N        3.30053         1.39829        -0.05770
| 13>    C        2.05235        -0.69659         0.06518
| 14>    N        3.23380        -1.39266         0.15534
| 15>    N        0.93575        -1.36458         0.11375
| 16>    C       -1.97802        -2.49308         0.22284
| 17>    C       -1.19160        -3.55695         0.37234
| 18>    H       -1.68214         2.38025        -0.28756
| 19>    H        3.21708         2.40275         0.00508
| 20>    H        4.03736         1.00332         0.50553
| 21>    H        4.01153        -1.02220        -0.36801
| 22>    H        3.11428        -2.39223         0.07837
| 23>    H       -3.05513        -2.60205         0.20315
| 24>    H       -0.12190        -3.45039         0.39320
| 25>    H       -1.60185        -4.54654         0.47485
| 26> *
| 27>
| 28>                          ****END OF INPUT****
 Total Charge           Charge          ....    0
 Multiplicity           Mult            ....    1
 Number of Electrons    NEL             ....  100
Dispersion correction           -0.046284589
FINAL SINGLE POINT ENERGY      -926.404391129971
Dispersion correction            ... done
Dispersion correction           -0.045998302
FINAL SINGLE POINT ENERGY      -926.407378298532
Dispersion correction            ... done
Dispersion correction           -0.045973259
FINAL SINGLE POINT ENERGY      -926.407606730473
Dispersion correction            ... done
FINAL SINGLE POINT ENERGY      -926.407670462961
Dispersion correction            ... done
Dispersion correction           -0.045979940
FINAL SINGLE POINT ENERGY      -926.407685443202
Dispersion correction            ... done
Dispersion correction           -0.045981928
FINAL SINGLE POINT ENERGY      -926.407713354719
Dispersion correction            ... done
                    ***********************HURRAY********************

CARTESIAN COORDINATES (ANGSTROEM)
---------------------------------
  C     -1.441492    1.358777   -0.186329
  S     -2.651638    0.146822   -0.067081
  C     -1.506530   -1.153711    0.100975
  C     -0.205695   -0.637556    0.063581
  C     -0.174414    0.801845   -0.102218
  N      1.010930    1.487607   -0.129189
  C      2.097627    0.781229   -0.024018
  N      3.339069    1.391477   -0.060772
  C      2.071469   -0.687556    0.077354
  N      3.289209   -1.335625    0.160398
  N      0.956331   -1.358048    0.136977
  C     -1.997327   -2.511277    0.241885
  C     -1.250947   -3.624458    0.356857
  H     -1.698230    2.407962   -0.312271
  H      3.282905    2.405772   -0.024966
  H      4.029048    1.001852    0.575932
  H      4.021505   -0.952694   -0.431331
  H      3.212040   -2.347581    0.111044
  H     -3.089769   -2.608242    0.251052
  H     -0.160918   -3.573092    0.354397
  H     -1.732832   -4.599572    0.459972

 Multiplicity           Mult            ....    1
 Number of Electrons    NEL             ....  100
 Basis Dimension        Dim             ....  226

ORBITAL ENERGIES
----------------

  NO   OCC          E(Eh)            E(eV)
   0   2.0000     -88.873851     -2418.3804
   1   2.0000     -14.354788      -390.6136
   2   2.0000     -14.353179      -390.5699
   3   2.0000     -14.323709      -389.7679
   4   2.0000     -14.321532      -389.7087
   5   2.0000     -10.270303      -279.4691
   6   2.0000     -10.269183      -279.4387
   7   2.0000     -10.216599      -278.0078
   8   2.0000     -10.215311      -277.9727
   9   2.0000     -10.208061      -277.7755
  10   2.0000     -10.202165      -277.6150
  11   2.0000     -10.191642      -277.3287
  12   2.0000     -10.172555      -276.8093
  13   2.0000      -7.968456      -216.8327
  14   2.0000      -5.936221      -161.5328
  15   2.0000      -5.932420      -161.4294
  16   2.0000      -5.930356      -161.3732
  17   2.0000      -0.990433       -26.9511
  18   2.0000      -0.932786       -25.3824
  19   2.0000      -0.915984       -24.9252
  20   2.0000      -0.864751       -23.5311
  21   2.0000      -0.859889       -23.3988
  22   2.0000      -0.768550       -20.9133
  23   2.0000      -0.726467       -19.7682
  24   2.0000      -0.696821       -18.9615
  25   2.0000      -0.659308       -17.9407
  26   2.0000      -0.619503       -16.8575
  27   2.0000      -0.584731       -15.9114
  28   2.0000      -0.578751       -15.7486
  29   2.0000      -0.541063       -14.7231
  30   2.0000      -0.514350       -13.9962
  31   2.0000      -0.508875       -13.8472
  32   2.0000      -0.501308       -13.6413
  33   2.0000      -0.481207       -13.0943
  34   2.0000      -0.450267       -12.2524
  35   2.0000      -0.447093       -12.1660
  36   2.0000      -0.434397       -11.8205
  37   2.0000      -0.429361       -11.6835
  38   2.0000      -0.386492       -10.5170
  39   2.0000      -0.380863       -10.3638
  40   2.0000      -0.367934       -10.0120
  41   2.0000      -0.357269        -9.7218
  42   2.0000      -0.346827        -9.4376
  43   2.0000      -0.313789        -8.5386
  44   2.0000      -0.304025        -8.2729
  45   2.0000      -0.299431        -8.1479
  46   2.0000      -0.272379        -7.4118
  47   2.0000      -0.248274        -6.7559
  48   2.0000      -0.218172        -5.9368
  49   2.0000      -0.194457        -5.2914
  50   0.0000      -0.064002        -1.7416
  51   0.0000      -0.009614        -0.2616
  52   0.0000       0.024680         0.6716
  53   0.0000       0.040279         1.0960
  54   0.0000       0.042859         1.1662

MULLIKEN ATOMIC CHARGES
-----------------------
   0 C :   -0.156487
   1 S :    0.123155
   2 C :   -0.183229
   3 C :    0.065971
   4 C :    0.069647
   5 N :   -0.041513
   6 C :   -0.097295
   7 N :   -0.074558
   8 C :   -0.087125
   9 N :   -0.069017
  10 N :   -0.040018
  11 C :    0.015006
  12 C :   -0.020406
  13 H :    0.006866
  14 H :    0.119218
  15 H :    0.120281
  16 H :    0.120607
  17 H :    0.120677
  18 H :   -0.021609
  19 H :    0.020576
  20 H :    0.009253
Sum of atomic charges:    0.0000000

LOEWDIN ATOMIC CHARGES
----------------------
   0 C :   -0.216812
   1 S :    0.463617
   2 C :   -0.198438
   3 C :   -0.046587
   4 C :   -0.051026
   5 N :   -0.103619
   6 C :    0.007779
   7 N :   -0.029414
   8 C :    0.010651
   9 N :   -0.025091
  10 N :   -0.097688
  11 C :   -0.048662
  12 C :   -0.052614
  13 H :    0.025394
  14 H :    0.077215
  15 H :    0.071192
  16 H :    0.071725
  17 H :    0.077380
  18 H :    0.024017
  19 H :    0.020379
  20 H :    0.020601

  Mayer bond orders larger than 0.100000
B(  0-C ,  1-S ) :   1.1634 B(  0-C ,  2-C ) :   0.1140 B(  0-C ,  4-C ) :   1.4083
B(  0-C , 13-H ) :   0.9705 B(  1-S ,  2-C ) :   1.1553 B(  2-C ,  3-C ) :   1.3621
B(  2-C , 11-C ) :   1.1334 B(  3-C ,  4-C ) :   1.1996 B(  3-C , 10-N ) :   1.3252
B(  4-C ,  5-N ) :   1.2963 B(  5-N ,  6-C ) :   1.7301 B(  6-C ,  7-N ) :   1.2462
B(  6-C ,  8-C ) :   1.0308 B(  7-N , 14-H ) :   0.9327 B(  7-N , 15-H ) :   0.9234
B(  8-C ,  9-N ) :   1.2545 B(  8-C , 10-N ) :   1.7103 B(  9-N , 16-H ) :   0.9221
B(  9-N , 17-H ) :   0.9322 B( 11-C , 12-C ) :   1.9113 B( 11-C , 18-H ) :   0.9420
B( 12-C , 19-H ) :   0.9356 B( 12-C , 20-H ) :   0.9385

Dispersion correction           -0.045982831
FINAL SINGLE POINT ENERGY      -926.407717312952

DIPOLE MOMENT
-------------
                                X             Y             Z
Electronic contribution:     -5.50234       5.21304      -0.65124
Nuclear contribution   :      6.94005      -5.06008       0.66465
                        -----------------------------------------
Total Dipole Moment    :      1.43771       0.15296       0.01341
                        -----------------------------------------
Magnitude (a.u.)       :      1.44588
Magnitude (Debye)      :      3.67514

Rotational constants in cm-1:     0.041014     0.018944     0.012976
Rotational constants in MHz :  1229.579900   567.938943   388.996500

                             ****ORCA TERMINATED NORMALLY****
TOTAL RUN TIME: 0 days 0 hours 10 minutes 1 seconds 780 msec
