                         Program Version 4.2.0 -  RELEASE  -
|  1> # ORCA input file
|  2> # SCF done        -27.540980114863          0.000882088070
|  3> ! B3LYP/G D3BJ Opt RIJCOSX def2-SVP def2/J
|  4> * xyz 0 1
|  5>    C        0.97714        -0.23457         0.17273
|  6>    C        2.17294        -0.11252         0.12960
|  7>    C        3.56069         0.03997         0.07915
|  8>    S        4.28480         1.62192         0.12704
|  9>    C        5.87859         0.91928         0.02149
| 10>    C        5.81787        -0.45272        -0.04271
| 11>    C        4.50948        -0.94839        -0.00977
| 12>    C        7.01185         1.72426         0.01166
| 13>    C        7.99142         2.43647         0.00331
| 14>    C        9.12773         3.25837        -0.00593
| 15>    C       10.36983         2.79715        -0.13717
| 16>    H       -0.06419        -0.35172         0.20892
| 17>    H        6.69593        -1.06993        -0.11052
| 18>    H        4.25844        -1.99358        -0.04911
| 19>    H        8.93297         4.31877         0.10267
| 20>    H       10.57187         1.74476        -0.24716
| 21>    H       11.21811         3.45941        -0.13966
| 22> *
| 23>
| 24>                          ****END OF INPUT****
 Total Charge           Charge          ....    0
 Multiplicity           Mult            ....    1
 Number of Electrons    NEL             ....   82
Dispersion correction           -0.033330992
FINAL SINGLE POINT ENERGY      -782.354374466579
Dispersion correction            ... done
Dispersion correction           -0.033062772
FINAL SINGLE POINT ENERGY      -782.357915783842
Dispersion correction            ... done
Dispersion correction           -0.033013759
FINAL SINGLE POINT ENERGY      -782.358012473118
Dispersion correction            ... done
FINAL SINGLE POINT ENERGY      -782.358059465975
FINAL SINGLE POINT ENERGY      -782.358057745773
FINAL SINGLE POINT ENERGY      -782.358058914527
FINAL SINGLE POINT ENERGY      -782.358055489372
FINAL SINGLE POINT ENERGY      -782.358051260891
Dispersion correction            ... done
Dispersion correction           -0.033007560
FINAL SINGLE POINT ENERGY      -782.358045367905
Dispersion correction            ... done
Dispersion correction           -0.033007309
FINAL SINGLE POINT ENERGY      -782.358042198318
Dispersion correction            ... done
                    ***********************HURRAY********************

CARTESIAN COORDINATES (ANGSTROEM)
---------------------------------
  C      0.915374   -0.253732    0.210857
  C      2.121574   -0.123561    0.141532
  C      3.523356    0.030717    0.065316
  S      4.259776    1.615061    0.088237
  C      5.865007    0.925160   -0.016098
  C      5.804556   -0.462679   -0.068562
  C      4.485980   -0.965214   -0.022623
  C      7.010297    1.741246   -0.023980
  C      8.017994    2.432190   -0.025991
  C      9.168903    3.260869   -0.020584
  C     10.439693    2.822081   -0.099414
  H     -0.147720   -0.385751    0.280176
  H      6.700628   -1.078804   -0.137160
  H      4.223697   -2.023199   -0.051904
  H      8.977465    4.338474    0.060983
  H     10.674514    1.758039   -0.181278
  H     11.274375    3.526033   -0.084965

 Multiplicity           Mult            ....    1
 Number of Electrons    NEL             ....   82
 Basis Dimension        Dim             ....  188

ORBITAL ENERGIES
----------------

  NO   OCC          E(Eh)            E(eV)
   0   2.0000     -88.886709     -2418.7303
   1   2.0000     -10.243617      -278.7430
   2   2.0000     -10.242689      -278.7177
   3   2.0000     -10.221674      -278.1459
   4   2.0000     -10.209997      -277.8282
   5   2.0000     -10.209240      -277.8075
   6   2.0000     -10.206189      -277.7245
   7   2.0000     -10.205220      -277.6982
   8   2.0000     -10.204028      -277.6657
   9   2.0000     -10.201866      -277.6069
  10   2.0000     -10.200579      -277.5719
  11   2.0000      -7.981788      -217.1955
  12   2.0000      -5.949986      -161.9073
  13   2.0000      -5.945937      -161.7972
  14   2.0000      -5.942730      -161.7099
  15   2.0000      -0.896264       -24.3886
  16   2.0000      -0.807224       -21.9657
  17   2.0000      -0.787074       -21.4174
  18   2.0000      -0.753797       -20.5119
  19   2.0000      -0.741433       -20.1754
  20   2.0000      -0.709950       -19.3187
  21   2.0000      -0.638379       -17.3712
  22   2.0000      -0.606083       -16.4924
  23   2.0000      -0.582993       -15.8640
  24   2.0000      -0.538458       -14.6522
  25   2.0000      -0.522809       -14.2263
  26   2.0000      -0.504753       -13.7350
  27   2.0000      -0.466147       -12.6845
  28   2.0000      -0.452642       -12.3170
  29   2.0000      -0.434761       -11.8305
  30   2.0000      -0.415651       -11.3104
  31   2.0000      -0.411351       -11.1934
  32   2.0000      -0.387323       -10.5396
  33   2.0000      -0.364059        -9.9065
  34   2.0000      -0.356734        -9.7072
  35   2.0000      -0.322104        -8.7649
  36   2.0000      -0.292876        -7.9696
  37   2.0000      -0.281203        -7.6519
  38   2.0000      -0.272802        -7.4233
  39   2.0000      -0.268555        -7.3077
  40   2.0000      -0.214896        -5.8476
  41   0.0000      -0.076087        -2.0704
  42   0.0000      -0.019275        -0.5245
  43   0.0000       0.002206         0.0600
  44   0.0000       0.014615         0.3977
  45   0.0000       0.031940         0.8691

MULLIKEN ATOMIC CHARGES
-----------------------
   0 C :   -0.436290
   1 C :    0.404657
   2 C :   -0.130308
   3 S :    0.179606
   4 C :   -0.147362
   5 C :    0.048219
   6 C :    0.051100
   7 C :    0.084863
   8 C :   -0.066492
   9 C :   -0.097063
  10 C :   -0.002851
  11 H :    0.020119
  12 H :   -0.004581
  13 H :   -0.002071
  14 H :    0.035335
  15 H :    0.029813
  16 H :    0.033306
Sum of atomic charges:    0.0000000

LOEWDIN ATOMIC CHARGES
----------------------
   0 C :   -0.053221
   1 C :   -0.037997
   2 C :   -0.187627
   3 S :    0.463073
   4 C :   -0.183325
   5 C :   -0.037939
   6 C :   -0.037509
   7 C :   -0.058850
   8 C :   -0.023951
   9 C :   -0.044520
  10 C :   -0.018588
  11 H :    0.041936
  12 H :    0.036716
  13 H :    0.037545
  14 H :    0.045844
  15 H :    0.029214
  16 H :    0.029200

  Mayer bond orders larger than 0.100000
B(  0-C ,  1-C ) :   2.2987 B(  0-C , 11-H ) :   1.0836 B(  1-C ,  2-C ) :   1.0026
B(  2-C ,  3-S ) :   1.1132 B(  2-C ,  4-C ) :   0.1036 B(  2-C ,  6-C ) :   1.4770
B(  3-S ,  4-C ) :   1.1096 B(  4-C ,  5-C ) :   1.4733 B(  4-C ,  7-C ) :   1.0091
B(  5-C ,  6-C ) :   1.2693 B(  5-C , 12-H ) :   0.9933 B(  6-C , 13-H ) :   0.9936
B(  7-C ,  8-C ) :   2.3269 B(  7-C , 10-C ) :   0.1029 B(  8-C ,  9-C ) :   1.0561
B(  9-C , 10-C ) :   1.9022 B(  9-C , 14-H ) :   0.9517 B( 10-C , 15-H ) :   0.9601
B( 10-C , 16-H ) :   0.9494

Dispersion correction           -0.033007755
FINAL SINGLE POINT ENERGY      -782.358041547693

DIPOLE MOMENT
-------------
                                X             Y             Z
Electronic contribution:     -8.05720       0.19598       0.26530
Nuclear contribution   :      8.29745      -0.34204      -0.26541
                        -----------------------------------------
Total Dipole Moment    :      0.24025      -0.14606      -0.00011
                        -----------------------------------------
Magnitude (a.u.)       :      0.28116
Magnitude (Debye)      :      0.71466

Rotational constants in cm-1:     0.146681     0.012502     0.011521
Rotational constants in MHz :  4397.385859   374.795081   345.385647

                             ****ORCA TERMINATED NORMALLY****
TOTAL RUN TIME: 0 days 0 hours 8 minutes 55 seconds 902 msec
