                         Program Version 4.2.0 -  RELEASE  -
|  1> # ORCA input file
|  2> # SCF done        -27.479243622839          0.000566191956
|  3> ! B3LYP/G D3BJ Opt RIJCOSX def2-SVP def2/J
|  4> * xyz 0 1
|  5>    C       -1.51805        -1.23180         0.14005
|  6>    S       -2.69151         0.00902         0.22938
|  7>    C       -1.50548         1.23388         0.15205
|  8>    C       -0.23568         0.71414         0.06299
|  9>    C       -0.24286        -0.72595         0.05585
| 10>    C        0.98182        -1.43143        -0.03195
| 11>    C        2.14905        -0.72956        -0.10826
| 12>    C        2.15549         0.69542        -0.10070
| 13>    C        1.00118         1.40252        -0.01769
| 14>    O        3.36733        -1.33073        -0.19590
| 15>    H       -1.82643        -2.25773         0.15535
| 16>    H       -1.79913         2.26411         0.17695
| 17>    H        0.97395        -2.51312        -0.03762
| 18>    H        3.11537         1.18265        -0.16426
| 19>    H        1.00539         2.48191        -0.01230
| 20>    H        3.26046        -2.28950        -0.19471
| 21> *
| 22>
| 23>                          ****END OF INPUT****
 Total Charge           Charge          ....    0
 Multiplicity           Mult            ....    1
 Number of Electrons    NEL             ....   78
Dispersion correction           -0.034654467
FINAL SINGLE POINT ENERGY      -781.507954445565
Dispersion correction            ... done
Dispersion correction           -0.034547821
FINAL SINGLE POINT ENERGY      -781.510270669775
Dispersion correction            ... done
Dispersion correction           -0.034533731
FINAL SINGLE POINT ENERGY      -781.510343765672
Dispersion correction            ... done
Dispersion correction           -0.034532632
FINAL SINGLE POINT ENERGY      -781.510348471904
Dispersion correction            ... done
Dispersion correction           -0.034532932
FINAL SINGLE POINT ENERGY      -781.510352301507
Dispersion correction            ... done
                    ***********************HURRAY********************

CARTESIAN COORDINATES (ANGSTROEM)
---------------------------------
  C     -1.544815   -1.244223    0.146484
  S     -2.710952    0.016002    0.237900
  C     -1.526493    1.250287    0.153598
  C     -0.245912    0.717441    0.059250
  C     -0.253723   -0.737436    0.054056
  C      0.985545   -1.447061   -0.037225
  C      2.162521   -0.741447   -0.110485
  C      2.170760    0.696466   -0.098051
  C      1.005652    1.406837   -0.021082
  O      3.386115   -1.323537   -0.200697
  H     -1.858038   -2.286110    0.161878
  H     -1.815008    2.299442    0.174032
  H      0.988515   -2.541248   -0.048016
  H      3.140854    1.193444   -0.154851
  H      1.020964    2.499378   -0.016629
  H      3.284917   -2.284403   -0.190931

 Multiplicity           Mult            ....    1
 Number of Electrons    NEL             ....   78
 Basis Dimension        Dim             ....  174

ORBITAL ENERGIES
----------------

  NO   OCC          E(Eh)            E(eV)
   0   2.0000     -88.880456     -2418.5602
   1   2.0000     -19.165883      -521.5302
   2   2.0000     -10.250986      -278.9435
   3   2.0000     -10.210334      -277.8373
   4   2.0000     -10.204982      -277.6917
   5   2.0000     -10.199221      -277.5349
   6   2.0000     -10.198344      -277.5110
   7   2.0000     -10.196521      -277.4614
   8   2.0000     -10.191255      -277.3181
   9   2.0000     -10.186805      -277.1971
  10   2.0000      -7.975055      -217.0123
  11   2.0000      -5.942814      -161.7122
  12   2.0000      -5.938678      -161.5996
  13   2.0000      -5.937370      -161.5641
  14   2.0000      -1.053092       -28.6561
  15   2.0000      -0.886305       -24.1176
  16   2.0000      -0.821802       -22.3624
  17   2.0000      -0.757952       -20.6249
  18   2.0000      -0.728096       -19.8125
  19   2.0000      -0.692508       -18.8441
  20   2.0000      -0.635421       -17.2907
  21   2.0000      -0.579029       -15.7562
  22   2.0000      -0.572053       -15.5664
  23   2.0000      -0.531233       -14.4556
  24   2.0000      -0.514108       -13.9896
  25   2.0000      -0.476834       -12.9753
  26   2.0000      -0.438939       -11.9441
  27   2.0000      -0.426980       -11.6187
  28   2.0000      -0.418322       -11.3831
  29   2.0000      -0.413167       -11.2429
  30   2.0000      -0.401301       -10.9200
  31   2.0000      -0.386470       -10.5164
  32   2.0000      -0.372752       -10.1431
  33   2.0000      -0.347825        -9.4648
  34   2.0000      -0.344024        -9.3614
  35   2.0000      -0.314713        -8.5638
  36   2.0000      -0.281991        -7.6734
  37   2.0000      -0.235734        -6.4147
  38   2.0000      -0.198443        -5.3999
  39   0.0000      -0.053713        -1.4616
  40   0.0000       0.023929         0.6511
  41   0.0000       0.034015         0.9256
  42   0.0000       0.046455         1.2641
  43   0.0000       0.053197         1.4476

MULLIKEN ATOMIC CHARGES
-----------------------
   0 C :   -0.158789
   1 S :    0.128185
   2 C :   -0.141187
   3 C :    0.095144
   4 C :    0.100161
   5 C :   -0.092561
   6 C :    0.162374
   7 C :   -0.006998
   8 C :   -0.001725
   9 O :   -0.190028
  10 H :    0.011404
  11 H :    0.015164
  12 H :   -0.054495
  13 H :   -0.016567
  14 H :   -0.023147
  15 H :    0.173066
Sum of atomic charges:   -0.0000000

LOEWDIN ATOMIC CHARGES
----------------------
   0 C :   -0.226704
   1 S :    0.471689
   2 C :   -0.209678
   3 C :   -0.060055
   4 C :   -0.041591
   5 C :   -0.098267
   6 C :    0.046607
   7 C :   -0.042876
   8 C :   -0.008805
   9 O :   -0.051275
  10 H :    0.021346
  11 H :    0.023982
  12 H :    0.021179
  13 H :    0.032548
  14 H :    0.030157
  15 H :    0.091745

  Mayer bond orders larger than 0.100000
B(  0-C ,  1-S ) :   1.1834 B(  0-C ,  2-C ) :   0.1175 B(  0-C ,  4-C ) :   1.4145
B(  0-C , 10-H ) :   0.9649 B(  1-S ,  2-C ) :   1.2109 B(  2-C ,  3-C ) :   1.4076
B(  2-C , 11-H ) :   0.9649 B(  3-C ,  4-C ) :   1.2023 B(  3-C ,  8-C ) :   1.1659
B(  4-C ,  5-C ) :   1.1665 B(  5-C ,  6-C ) :   1.4732 B(  5-C , 12-H ) :   0.9873
B(  6-C ,  7-C ) :   1.1820 B(  6-C ,  9-O ) :   1.1813 B(  7-C ,  8-C ) :   1.5497
B(  7-C , 13-H ) :   0.9850 B(  8-C , 14-H ) :   0.9944 B(  9-O , 15-H ) :   0.9656

Dispersion correction           -0.034533573
FINAL SINGLE POINT ENERGY      -781.510351302543

DIPOLE MOMENT
-------------
                                X             Y             Z
Electronic contribution:     -4.44997      -0.14493       0.31374
Nuclear contribution   :      4.40440      -0.21118      -0.30785
                        -----------------------------------------
Total Dipole Moment    :     -0.04557      -0.35611       0.00589
                        -----------------------------------------
Magnitude (a.u.)       :      0.35906
Magnitude (Debye)      :      0.91267

Rotational constants in cm-1:     0.109487     0.025596     0.020746
Rotational constants in MHz :  3282.346853   767.361610   621.961399

                             ****ORCA TERMINATED NORMALLY****
TOTAL RUN TIME: 0 days 0 hours 4 minutes 44 seconds 27 msec
