                         Program Version 4.2.0 -  RELEASE  -
|  1> # ORCA input file
|  2> # SCF done        -37.215678439372          0.000467170626
|  3> ! B3LYP/G D3BJ Opt RIJCOSX def2-SVP def2/J
|  4> * xyz 0 1
|  5>    C        1.59148         0.91177        -0.25893
|  6>    S        2.71605        -0.31217         0.17805
|  7>    C        1.43437        -1.39820         0.54028
|  8>    C        0.21200        -0.84058         0.33755
|  9>    C        0.30296         0.50029        -0.12982
| 10>    C       -0.90423         1.30776        -0.48543
| 11>    C       -2.16843         0.72225         0.16392
| 12>    C       -2.17193         0.97500         1.58367
| 13>    N       -2.17140         1.18625         2.70711
| 14>    C       -2.24954        -0.79394        -0.11279
| 15>    O       -2.22826        -0.93467        -1.51773
| 16>    C       -2.56613        -2.21075        -1.99629
| 17>    C       -1.09854        -1.51150         0.60621
| 18>    H        1.95128         1.86527        -0.59058
| 19>    H        1.66205        -2.38566         0.88953
| 20>    H       -1.04510         1.27702        -1.56922
| 21>    H       -0.77247         2.34983        -0.18519
| 22>    H       -3.05072         1.20733        -0.26964
| 23>    H       -3.20613        -1.18664         0.27775
| 24>    H       -2.67366        -2.10899        -3.07465
| 25>    H       -3.51354        -2.55833        -1.56612
| 26>    H       -1.78671        -2.95076        -1.78519
| 27>    H       -1.05716        -2.56035         0.30585
| 28>    H       -1.30463        -1.48754         1.68128
| 29> *
| 30>
| 31>                          ****END OF INPUT****
 Total Charge           Charge          ....    0
 Multiplicity           Mult            ....    1
 Number of Electrons    NEL             ....  102
Dispersion correction           -0.052068068
FINAL SINGLE POINT ENERGY      -915.377672656479
Dispersion correction            ... done
Dispersion correction           -0.051631768
FINAL SINGLE POINT ENERGY      -915.380995480276
Dispersion correction            ... done
Dispersion correction           -0.051521861
FINAL SINGLE POINT ENERGY      -915.381195850827
Dispersion correction            ... done
FINAL SINGLE POINT ENERGY      -915.381157892525
FINAL SINGLE POINT ENERGY      -915.381222676046
FINAL SINGLE POINT ENERGY      -915.381211369413
Dispersion correction            ... done
Dispersion correction           -0.051499159
FINAL SINGLE POINT ENERGY      -915.381183902253
Dispersion correction            ... done
Dispersion correction           -0.051503398
FINAL SINGLE POINT ENERGY      -915.381176966321
Dispersion correction            ... done
                    ***********************HURRAY********************

CARTESIAN COORDINATES (ANGSTROEM)
---------------------------------
  C      1.630976    0.897611   -0.268183
  S      2.743472   -0.373752    0.099808
  C      1.451523   -1.462830    0.461075
  C      0.220715   -0.871445    0.306785
  C      0.324643    0.497052   -0.125264
  C     -0.888075    1.328096   -0.453508
  C     -2.181726    0.744399    0.163009
  C     -2.288990    1.031205    1.596773
  N     -2.372691    1.260846    2.729266
  C     -2.265266   -0.778999   -0.092209
  O     -2.259295   -0.916933   -1.496580
  C     -2.513730   -2.213670   -1.977702
  C     -1.110824   -1.505137    0.610167
  H      1.998534    1.869949   -0.592876
  H      1.666675   -2.476447    0.796122
  H     -1.036684    1.336617   -1.544393
  H     -0.755201    2.371078   -0.128850
  H     -3.047451    1.212811   -0.331239
  H     -3.222093   -1.163247    0.315586
  H     -2.746310   -2.129610   -3.049070
  H     -3.381065   -2.675067   -1.466173
  H     -1.644687   -2.886832   -1.860269
  H     -1.114651   -2.571885    0.341402
  H     -1.306191   -1.461121    1.695943

 Multiplicity           Mult            ....    1
 Number of Electrons    NEL             ....  102
 Basis Dimension        Dim             ....  241

ORBITAL ENERGIES
----------------

  NO   OCC          E(Eh)            E(eV)
   0   2.0000     -88.872640     -2418.3475
   1   2.0000     -19.152488      -521.1657
   2   2.0000     -14.325716      -389.8225
   3   2.0000     -10.263030      -279.2712
   4   2.0000     -10.246196      -278.8132
   5   2.0000     -10.241507      -278.6856
   6   2.0000     -10.225317      -278.2450
   7   2.0000     -10.210638      -277.8456
   8   2.0000     -10.208643      -277.7913
   9   2.0000     -10.208586      -277.7897
  10   2.0000     -10.203507      -277.6515
  11   2.0000     -10.198140      -277.5055
  12   2.0000     -10.197916      -277.4994
  13   2.0000      -7.967833      -216.8158
  14   2.0000      -5.935914      -161.5244
  15   2.0000      -5.931811      -161.4128
  16   2.0000      -5.929246      -161.3430
  17   2.0000      -1.046782       -28.4844
  18   2.0000      -0.900035       -24.4912
  19   2.0000      -0.883099       -24.0304
  20   2.0000      -0.834237       -22.7007
  21   2.0000      -0.773138       -21.0382
  22   2.0000      -0.749259       -20.3884
  23   2.0000      -0.711290       -19.3552
  24   2.0000      -0.689000       -18.7486
  25   2.0000      -0.652110       -17.7448
  26   2.0000      -0.602388       -16.3918
  27   2.0000      -0.574717       -15.6388
  28   2.0000      -0.547696       -14.9036
  29   2.0000      -0.518391       -14.1061
  30   2.0000      -0.505038       -13.7428
  31   2.0000      -0.493834       -13.4379
  32   2.0000      -0.476049       -12.9540
  33   2.0000      -0.458457       -12.4753
  34   2.0000      -0.445316       -12.1177
  35   2.0000      -0.428413       -11.6577
  36   2.0000      -0.424027       -11.5384
  37   2.0000      -0.417147       -11.3511
  38   2.0000      -0.405799       -11.0424
  39   2.0000      -0.401507       -10.9256
  40   2.0000      -0.368877       -10.0377
  41   2.0000      -0.364893        -9.9292
  42   2.0000      -0.363063        -9.8795
  43   2.0000      -0.355597        -9.6763
  44   2.0000      -0.345891        -9.4122
  45   2.0000      -0.340189        -9.2570
  46   2.0000      -0.325523        -8.8579
  47   2.0000      -0.317678        -8.6445
  48   2.0000      -0.277283        -7.5453
  49   2.0000      -0.245028        -6.6675
  50   2.0000      -0.236319        -6.4306
  51   0.0000      -0.022308        -0.6070
  52   0.0000       0.026792         0.7291
  53   0.0000       0.027890         0.7589
  54   0.0000       0.043646         1.1877
  55   0.0000       0.048261         1.3133

MULLIKEN ATOMIC CHARGES
-----------------------
   0 C :   -0.143854
   1 S :    0.100724
   2 C :   -0.139634
   3 C :   -0.028982
   4 C :   -0.032829
   5 C :    0.185039
   6 C :   -0.071362
   7 C :   -0.213087
   8 N :    0.060989
   9 C :    0.138618
  10 O :   -0.378579
  11 C :    0.190143
  12 C :    0.145046
  13 H :    0.012895
  14 H :    0.010104
  15 H :    0.037212
  16 H :    0.017217
  17 H :    0.033844
  18 H :   -0.007306
  19 H :    0.028863
  20 H :   -0.002716
  21 H :    0.019216
  22 H :   -0.000540
  23 H :    0.038978
Sum of atomic charges:   -0.0000000

LOEWDIN ATOMIC CHARGES
----------------------
   0 C :   -0.198213
   1 S :    0.430322
   2 C :   -0.200790
   3 C :   -0.065644
   4 C :   -0.065253
   5 C :   -0.001666
   6 C :   -0.049749
   7 C :   -0.029380
   8 N :   -0.075371
   9 C :    0.082315
  10 O :   -0.166004
  11 C :    0.073474
  12 C :   -0.034369
  13 H :    0.022799
  14 H :    0.021924
  15 H :    0.041563
  16 H :    0.035549
  17 H :    0.054783
  18 H :    0.010873
  19 H :    0.024604
  20 H :    0.005931
  21 H :    0.008376
  22 H :    0.030151
  23 H :    0.043774

  Mayer bond orders larger than 0.100000
B(  0-C ,  1-S ) :   1.1646 B(  0-C ,  4-C ) :   1.5550 B(  0-C , 13-H ) :   0.9642
B(  1-S ,  2-C ) :   1.1638 B(  2-C ,  3-C ) :   1.5574 B(  2-C , 14-H ) :   0.9614
B(  3-C ,  4-C ) :   1.2927 B(  3-C , 12-C ) :   1.0150 B(  4-C ,  5-C ) :   1.0302
B(  5-C ,  6-C ) :   1.0640 B(  5-C , 15-H ) :   0.9025 B(  5-C , 16-H ) :   0.9223
B(  6-C ,  7-C ) :   1.0229 B(  6-C ,  9-C ) :   1.0156 B(  6-C , 17-H ) :   0.8714
B(  7-C ,  8-N ) :   3.0727 B(  9-C , 10-O ) :   1.0400 B(  9-C , 12-C ) :   1.0423
B(  9-C , 18-H ) :   0.9234 B( 10-O , 11-C ) :   0.9876 B( 11-C , 19-H ) :   0.9778
B( 11-C , 20-H ) :   0.9587 B( 11-C , 21-H ) :   0.9659 B( 12-C , 22-H ) :   0.9078
B( 12-C , 23-H ) :   0.9029

Dispersion correction           -0.051506081
FINAL SINGLE POINT ENERGY      -915.381175225991

DIPOLE MOMENT
-------------
                                X             Y             Z
Electronic contribution:      8.97556       4.81799       4.98595
Nuclear contribution   :     -9.13592      -5.60314      -6.23502
                        -----------------------------------------
Total Dipole Moment    :     -0.16035      -0.78515      -1.24907
                        -----------------------------------------
Magnitude (a.u.)       :      1.48403
Magnitude (Debye)      :      3.77210

Rotational constants in cm-1:     0.033019     0.018910     0.014894
Rotational constants in MHz :   989.893488   566.916796   446.518535

                             ****ORCA TERMINATED NORMALLY****
TOTAL RUN TIME: 0 days 0 hours 15 minutes 22 seconds 73 msec
