                         Program Version 4.2.0 -  RELEASE  -
|  1> # ORCA input file
|  2> # SCF done        -22.538887557581          0.000283476141
|  3> ! B3LYP/G D3BJ Opt RIJCOSX def2-SVP def2/J
|  4> * xyz 0 1
|  5>    C       -0.05042         1.10275        -0.18065
|  6>    S       -1.19235        -0.18459        -0.17030
|  7>    C        0.07232        -1.34066        -0.06935
|  8>    C        1.29920        -0.76771        -0.04477
|  9>    C        1.24091         0.65488        -0.10918
| 10>    N        2.32389         1.50404        -0.10240
| 11>    C        3.65042         1.15981        -0.03546
| 12>    C        4.64361         2.04248        -0.01588
| 13>    H       -0.39429         2.11567        -0.23834
| 14>    H       -0.16896        -2.38404        -0.03348
| 15>    H        2.20883        -1.33569         0.01722
| 16>    H        2.11740         2.49148        -0.14118
| 17>    H        3.84641         0.09934        -0.00046
| 18>    H        4.46178         3.10308        -0.05006
| 19>    H        5.66675         1.72489         0.03501
| 20> *
| 21>
| 22>                          ****END OF INPUT****
 Total Charge           Charge          ....    0
 Multiplicity           Mult            ....    1
 Number of Electrons    NEL             ....   66
Dispersion correction           -0.026889837
FINAL SINGLE POINT ENERGY      -685.465343359917
Dispersion correction            ... done
Dispersion correction           -0.026774229
FINAL SINGLE POINT ENERGY      -685.467919554413
Dispersion correction            ... done
Dispersion correction           -0.026765763
FINAL SINGLE POINT ENERGY      -685.468018460335
Dispersion correction            ... done
FINAL SINGLE POINT ENERGY      -685.468039497004
Dispersion correction            ... done
Dispersion correction           -0.026769920
FINAL SINGLE POINT ENERGY      -685.468039632053
Dispersion correction            ... done
Dispersion correction           -0.026769899
FINAL SINGLE POINT ENERGY      -685.468041995986
Dispersion correction            ... done
                    ***********************HURRAY********************

CARTESIAN COORDINATES (ANGSTROEM)
---------------------------------
  C     -0.092711    1.106061   -0.173042
  S     -1.211576   -0.217744   -0.183161
  C      0.072923   -1.362760   -0.085432
  C      1.303832   -0.761313   -0.048250
  C      1.218307    0.673983   -0.100070
  N      2.309545    1.533630   -0.083506
  C      3.642725    1.185376   -0.018063
  C      4.680626    2.038526   -0.029121
  H     -0.450678    2.132407   -0.225735
  H     -0.145838   -2.429004   -0.053455
  H      2.234216   -1.322437    0.016698
  H      2.099451    2.522964   -0.141584
  H      3.823881    0.110449    0.051077
  H      4.542277    3.122285   -0.096674
  H      5.698519    1.653307    0.031039

 Multiplicity           Mult            ....    1
 Number of Electrons    NEL             ....   66
 Basis Dimension        Dim             ....  151

ORBITAL ENERGIES
----------------

  NO   OCC          E(Eh)            E(eV)
   0   2.0000     -88.870600     -2418.2920
   1   2.0000     -14.360968      -390.7818
   2   2.0000     -10.235682      -278.5271
   3   2.0000     -10.226645      -278.2812
   4   2.0000     -10.214112      -277.9401
   5   2.0000     -10.200455      -277.5685
   6   2.0000     -10.195094      -277.4226
   7   2.0000     -10.168516      -276.6994
   8   2.0000      -7.965496      -216.7522
   9   2.0000      -5.933708      -161.4644
  10   2.0000      -5.929649      -161.3540
  11   2.0000      -5.926736      -161.2747
  12   2.0000      -0.947885       -25.7933
  13   2.0000      -0.868817       -23.6417
  14   2.0000      -0.757953       -20.6250
  15   2.0000      -0.726504       -19.7692
  16   2.0000      -0.695621       -18.9288
  17   2.0000      -0.611963       -16.6524
  18   2.0000      -0.578933       -15.7536
  19   2.0000      -0.550276       -14.9738
  20   2.0000      -0.530763       -14.4428
  21   2.0000      -0.484387       -13.1808
  22   2.0000      -0.446331       -12.1453
  23   2.0000      -0.419215       -11.4074
  24   2.0000      -0.412315       -11.2197
  25   2.0000      -0.404396       -11.0042
  26   2.0000      -0.395785       -10.7699
  27   2.0000      -0.370438       -10.0801
  28   2.0000      -0.355437        -9.6719
  29   2.0000      -0.348994        -9.4966
  30   2.0000      -0.264068        -7.1857
  31   2.0000      -0.246315        -6.7026
  32   2.0000      -0.189361        -5.1528
  33   0.0000      -0.013920        -0.3788
  34   0.0000       0.020038         0.5453
  35   0.0000       0.046534         1.2662
  36   0.0000       0.053818         1.4645
  37   0.0000       0.070741         1.9250

MULLIKEN ATOMIC CHARGES
-----------------------
   0 C :   -0.173125
   1 S :    0.094351
   2 C :   -0.090491
   3 C :    0.002425
   4 C :    0.114549
   5 N :   -0.060266
   6 C :    0.043044
   7 C :   -0.082887
   8 H :    0.001716
   9 H :    0.031415
  10 H :   -0.014148
  11 H :    0.108579
  12 H :    0.008399
  13 H :    0.001961
  14 H :    0.014478
Sum of atomic charges:    0.0000000

LOEWDIN ATOMIC CHARGES
----------------------
   0 C :   -0.256426
   1 S :    0.422570
   2 C :   -0.184666
   3 C :   -0.088612
   4 C :   -0.011277
   5 N :    0.015888
   6 C :    0.023228
   7 C :   -0.146599
   8 H :    0.018101
   9 H :    0.026350
  10 H :    0.027481
  11 H :    0.085013
  12 H :    0.027040
  13 H :    0.016087
  14 H :    0.025823

  Mayer bond orders larger than 0.100000
B(  0-C ,  1-S ) :   1.1171 B(  0-C ,  4-C ) :   1.5008 B(  0-C ,  8-H ) :   0.9706
B(  1-S ,  2-C ) :   1.1978 B(  2-C ,  3-C ) :   1.5544 B(  2-C ,  9-H ) :   0.9623
B(  3-C ,  4-C ) :   1.2397 B(  3-C , 10-H ) :   0.9919 B(  4-C ,  5-N ) :   1.1267
B(  5-N ,  6-C ) :   1.1434 B(  5-N , 11-H ) :   0.9287 B(  6-C ,  7-C ) :   1.8792
B(  6-C , 12-H ) :   0.9599 B(  7-C , 13-H ) :   0.9582 B(  7-C , 14-H ) :   0.9472

Dispersion correction           -0.026769069
FINAL SINGLE POINT ENERGY      -685.468041241059

DIPOLE MOMENT
-------------
                                X             Y             Z
Electronic contribution:     -9.37381      -2.51793      -0.29030
Nuclear contribution   :      9.35379       2.57565       0.28726
                        -----------------------------------------
Total Dipole Moment    :     -0.02002       0.05772      -0.00305
                        -----------------------------------------
Magnitude (a.u.)       :      0.06117
Magnitude (Debye)      :      0.15548

Rotational constants in cm-1:     0.215908     0.029008     0.025573
Rotational constants in MHz :  6472.753221   869.639522   766.663037

                             ****ORCA TERMINATED NORMALLY****
TOTAL RUN TIME: 0 days 0 hours 3 minutes 55 seconds 197 msec
