                         Program Version 4.2.0 -  RELEASE  -
|  1> # ORCA input file
|  2> # SCF done        -40.698583700536          0.000754155154
|  3> ! B3LYP/G D3BJ Opt RIJCOSX def2-SVP def2/J
|  4> * xyz 0 1
|  5>    C        2.50037         0.84860         0.05970
|  6>    C        3.10713        -0.36425        -0.02042
|  7>    S        2.01371        -1.70131        -0.19387
|  8>    C        0.67602        -0.61235        -0.16200
|  9>    C        1.09822         0.71697        -0.02028
| 10>    N        0.01106         1.55152         0.01700
| 11>    C        0.08632         2.98694         0.08767
| 12>    C        0.10462         3.62126        -1.30301
| 13>    C       -1.10788         0.76871        -0.13207
| 14>    C       -0.72234        -0.57786        -0.22868
| 15>    S       -2.08117        -1.63088        -0.37493
| 16>    C       -3.13984        -0.26882        -0.29318
| 17>    C       -2.52146         0.94806        -0.16696
| 18>    C       -3.23026         2.21455        -0.10562
| 19>    C       -4.49476         2.36162         0.27130
| 20>    H        3.03436         1.77548         0.16690
| 21>    H        4.15806        -0.57132         0.01021
| 22>    H        1.00318         3.24662         0.62395
| 23>    H       -0.76359         3.35660         0.66804
| 24>    H        0.97057         3.27324        -1.86125
| 25>    H        0.15207         4.70390        -1.22062
| 26>    H       -0.79032         3.34996        -1.85832
| 27>    H       -4.19332        -0.44611        -0.37639
| 28>    H       -2.66312         3.08759        -0.39701
| 29>    H       -5.09738         1.52968         0.59271
| 30>    H       -4.96727         3.32837         0.28202
| 31> *
| 32>
| 33>                          ****END OF INPUT****
 Total Charge           Charge          ....    0
 Multiplicity           Mult            ....    1
 Number of Electrons    NEL             ....  122
Dispersion correction           -0.061958187
FINAL SINGLE POINT ENERGY     -1314.456230186521
Dispersion correction            ... done
Dispersion correction           -0.061600131
FINAL SINGLE POINT ENERGY     -1314.460517000772
Dispersion correction            ... done
Dispersion correction           -0.061538476
FINAL SINGLE POINT ENERGY     -1314.460709601130
Dispersion correction            ... done
FINAL SINGLE POINT ENERGY     -1314.460701613155
FINAL SINGLE POINT ENERGY     -1314.460586549304
FINAL SINGLE POINT ENERGY     -1314.460548097984
FINAL SINGLE POINT ENERGY     -1314.460559293235
FINAL SINGLE POINT ENERGY     -1314.460566126383
FINAL SINGLE POINT ENERGY     -1314.460582453632
Dispersion correction            ... done
Dispersion correction           -0.061496468
FINAL SINGLE POINT ENERGY     -1314.460597348426
Dispersion correction            ... done
Dispersion correction           -0.061503024
FINAL SINGLE POINT ENERGY     -1314.460611329415
Dispersion correction            ... done
                    ***********************HURRAY********************

CARTESIAN COORDINATES (ANGSTROEM)
---------------------------------
  C      2.493985    0.877608    0.103563
  C      3.131409   -0.337685    0.022425
  S      2.043871   -1.689774   -0.197635
  C      0.675825   -0.620259   -0.187107
  C      1.082701    0.714731   -0.010536
  N     -0.026665    1.544744    0.014678
  C      0.031609    2.995737    0.035956
  C      0.232690    3.606557   -1.350876
  C     -1.144205    0.742829   -0.178807
  C     -0.738282   -0.600416   -0.295454
  S     -2.103263   -1.657406   -0.468438
  C     -3.190828   -0.300684   -0.375739
  C     -2.569665    0.925890   -0.218107
  C     -3.289514    2.201740   -0.114004
  C     -4.481239    2.371791    0.476744
  H      3.015840    1.824124    0.243207
  H      4.201200   -0.529979    0.088772
  H      0.853274    3.287333    0.708911
  H     -0.892390    3.368965    0.500235
  H      1.163150    3.236623   -1.807645
  H      0.289503    4.705192   -1.291076
  H     -0.599642    3.338471   -2.020606
  H     -4.259188   -0.469477   -0.499497
  H     -2.805017    3.070421   -0.572881
  H     -4.992382    1.545397    0.978045
  H     -4.979795    3.344295    0.480762

 Multiplicity           Mult            ....    1
 Number of Electrons    NEL             ....  122
 Basis Dimension        Dim             ....  273

ORBITAL ENERGIES
----------------

  NO   OCC          E(Eh)            E(eV)
   0   2.0000     -88.870372     -2418.2858
   1   2.0000     -88.869367     -2418.2584
   2   2.0000     -14.377190      -391.2232
   3   2.0000     -10.241208      -278.6774
   4   2.0000     -10.219924      -278.0983
   5   2.0000     -10.218368      -278.0559
   6   2.0000     -10.211113      -277.8585
   7   2.0000     -10.208986      -277.8006
   8   2.0000     -10.205680      -277.7107
   9   2.0000     -10.204911      -277.6897
  10   2.0000     -10.203662      -277.6557
  11   2.0000     -10.202953      -277.6365
  12   2.0000     -10.198367      -277.5117
  13   2.0000     -10.196672      -277.4655
  14   2.0000     -10.190611      -277.3006
  15   2.0000      -7.964440      -216.7234
  16   2.0000      -7.963356      -216.6939
  17   2.0000      -5.932938      -161.4434
  18   2.0000      -5.931890      -161.4149
  19   2.0000      -5.928881      -161.3331
  20   2.0000      -5.927882      -161.3059
  21   2.0000      -5.925176      -161.2322
  22   2.0000      -5.923989      -161.1999
  23   2.0000      -0.985574       -26.8188
  24   2.0000      -0.869891       -23.6709
  25   2.0000      -0.865171       -23.5425
  26   2.0000      -0.798973       -21.7412
  27   2.0000      -0.780379       -21.2352
  28   2.0000      -0.741324       -20.1724
  29   2.0000      -0.726630       -19.7726
  30   2.0000      -0.705360       -19.1938
  31   2.0000      -0.681642       -18.5484
  32   2.0000      -0.639559       -17.4033
  33   2.0000      -0.601325       -16.3629
  34   2.0000      -0.585869       -15.9423
  35   2.0000      -0.574198       -15.6247
  36   2.0000      -0.544440       -14.8150
  37   2.0000      -0.519827       -14.1452
  38   2.0000      -0.496894       -13.5212
  39   2.0000      -0.481119       -13.0919
  40   2.0000      -0.461418       -12.5558
  41   2.0000      -0.460486       -12.5305
  42   2.0000      -0.451891       -12.2966
  43   2.0000      -0.439842       -11.9687
  44   2.0000      -0.423433       -11.5222
  45   2.0000      -0.410489       -11.1700
  46   2.0000      -0.403889       -10.9904
  47   2.0000      -0.398751       -10.8506
  48   2.0000      -0.386781       -10.5249
  49   2.0000      -0.378002       -10.2859
  50   2.0000      -0.372742       -10.1428
  51   2.0000      -0.364363        -9.9148
  52   2.0000      -0.360887        -9.8202
  53   2.0000      -0.347227        -9.4485
  54   2.0000      -0.337733        -9.1902
  55   2.0000      -0.325374        -8.8539
  56   2.0000      -0.301074        -8.1926
  57   2.0000      -0.265916        -7.2359
  58   2.0000      -0.243393        -6.6231
  59   2.0000      -0.206282        -5.6132
  60   2.0000      -0.194346        -5.2884
  61   0.0000      -0.038771        -1.0550
  62   0.0000      -0.009504        -0.2586
  63   0.0000       0.033567         0.9134
  64   0.0000       0.040502         1.1021
  65   0.0000       0.043737         1.1901

MULLIKEN ATOMIC CHARGES
-----------------------
   0 C :    0.002253
   1 C :   -0.107424
   2 S :    0.117715
   3 C :   -0.124565
   4 C :    0.101201
   5 N :   -0.204041
   6 C :    0.116285
   7 C :   -0.011466
   8 C :    0.082373
   9 C :   -0.132943
  10 S :    0.123855
  11 C :   -0.164883
  12 C :    0.089495
  13 C :   -0.042627
  14 C :   -0.028829
  15 H :   -0.024798
  16 H :    0.028563
  17 H :    0.017435
  18 H :    0.021661
  19 H :    0.024553
  20 H :    0.025194
  21 H :    0.031711
  22 H :    0.019618
  23 H :   -0.002263
  24 H :    0.021238
  25 H :    0.020689
Sum of atomic charges:    0.0000000

LOEWDIN ATOMIC CHARGES
----------------------
   0 C :   -0.085986
   1 C :   -0.186135
   2 S :    0.402099
   3 C :   -0.227787
   4 C :   -0.024764
   5 N :    0.024608
   6 C :    0.044546
   7 C :   -0.064043
   8 C :   -0.017456
   9 C :   -0.226310
  10 S :    0.412003
  11 C :   -0.185094
  12 C :   -0.080063
  13 C :   -0.027944
  14 C :   -0.048203
  15 H :    0.028751
  16 H :    0.023813
  17 H :    0.027263
  18 H :    0.027514
  19 H :    0.028924
  20 H :    0.029932
  21 H :    0.027985
  22 H :    0.022920
  23 H :    0.025602
  24 H :    0.023503
  25 H :    0.024321

  Mayer bond orders larger than 0.100000
B(  0-C ,  1-C ) :   1.5375 B(  0-C ,  4-C ) :   1.2233 B(  0-C , 15-H ) :   1.0017
B(  1-C ,  2-S ) :   1.1440 B(  1-C , 16-H ) :   0.9611 B(  2-S ,  3-C ) :   1.0433
B(  3-C ,  4-C ) :   1.4017 B(  3-C ,  9-C ) :   1.3816 B(  4-C ,  5-N ) :   1.1311
B(  5-N ,  6-C ) :   0.9739 B(  5-N ,  8-C ) :   1.1448 B(  6-C ,  7-C ) :   1.1053
B(  6-C , 17-H ) :   0.9428 B(  6-C , 18-H ) :   0.9432 B(  7-C , 19-H ) :   0.9633
B(  7-C , 20-H ) :   0.9636 B(  7-C , 21-H ) :   0.9662 B(  8-C ,  9-C ) :   1.3966
B(  8-C , 12-C ) :   1.2055 B(  9-C , 10-S ) :   1.0457 B( 10-S , 11-C ) :   1.1388
B( 11-C , 12-C ) :   1.5007 B( 11-C , 22-H ) :   0.9584 B( 12-C , 13-C ) :   1.0457
B( 13-C , 14-C ) :   1.9562 B( 13-C , 23-H ) :   0.9487 B( 14-C , 24-H ) :   0.9533
B( 14-C , 25-H ) :   0.9451

Dispersion correction           -0.061505049
FINAL SINGLE POINT ENERGY     -1314.460610745806

DIPOLE MOMENT
-------------
                                X             Y             Z
Electronic contribution:      3.96323     -19.98177       0.81474
Nuclear contribution   :     -3.84343      21.11194      -0.79736
                        -----------------------------------------
Total Dipole Moment    :      0.11981       1.13017       0.01738
                        -----------------------------------------
Magnitude (a.u.)       :      1.13664
Magnitude (Debye)      :      2.88910

Rotational constants in cm-1:     0.025126     0.013454     0.009128
Rotational constants in MHz :   753.251832   403.355342   273.653457

                             ****ORCA TERMINATED NORMALLY****
TOTAL RUN TIME: 0 days 0 hours 24 minutes 6 seconds 431 msec
