                         Program Version 4.2.0 -  RELEASE  -
|  1> # ORCA input file
|  2> # SCF done        -42.494557956090          0.000620962386
|  3> ! B3LYP/G D3BJ Opt RIJCOSX def2-SVP def2/J
|  4> * xyz 0 1
|  5>    C        1.56105        -1.45837        -0.17316
|  6>    S        2.63349        -0.18957         0.24580
|  7>    C        1.32723         0.96851         0.26094
|  8>    C        0.12925         0.36116        -0.02195
|  9>    C        0.27376        -1.03161        -0.27199
| 10>    C       -0.87056        -1.91182        -0.70097
| 11>    C       -0.74405        -2.10826        -2.13038
| 12>    N       -0.63750        -2.24575        -3.26015
| 13>    C       -2.22692        -1.26967        -0.38159
| 14>    C       -2.22675         0.19767        -0.79613
| 15>    C       -1.24294         0.97760         0.07878
| 16>    O       -1.73619         0.89513         1.41268
| 17>    C       -1.14995         1.78660         2.32052
| 18>    C        1.68458         2.34743         0.52791
| 19>    C        1.13951         3.42351        -0.02604
| 20>    H        1.94437        -2.44698        -0.33277
| 21>    H       -0.78991        -2.89679        -0.22481
| 22>    H       -2.40742        -1.32533         0.69226
| 23>    H       -3.01954        -1.81167        -0.90052
| 24>    H       -3.22256         0.61913        -0.65897
| 25>    H       -1.94144         0.29904        -1.84522
| 26>    H       -1.22181         2.03247        -0.22632
| 27>    H       -1.68656         1.65820         3.25918
| 28>    H       -1.24885         2.82481         1.98013
| 29>    H       -0.08700         1.57142         2.47882
| 30>    H        2.52312         2.46562         1.20429
| 31>    H        0.34761         3.36453        -0.75227
| 32>    H        1.48931         4.41093         0.22009
| 33> *
| 34>
| 35>                          ****END OF INPUT****
 Total Charge           Charge          ....    0
 Multiplicity           Mult            ....    1
 Number of Electrons    NEL             ....  116
Dispersion correction           -0.064047886
FINAL SINGLE POINT ENERGY      -992.726492131095
Dispersion correction            ... done
Dispersion correction           -0.063077298
FINAL SINGLE POINT ENERGY      -992.730642116182
Dispersion correction            ... done
Dispersion correction           -0.063266570
FINAL SINGLE POINT ENERGY      -992.730993951316
Dispersion correction            ... done
FINAL SINGLE POINT ENERGY      -992.730953394676
FINAL SINGLE POINT ENERGY      -992.730921410675
Dispersion correction            ... done
Dispersion correction           -0.063124312
FINAL SINGLE POINT ENERGY      -992.730945177703
Dispersion correction            ... done
Dispersion correction           -0.063120297
FINAL SINGLE POINT ENERGY      -992.730940681870
Dispersion correction            ... done
                    ***********************HURRAY********************

CARTESIAN COORDINATES (ANGSTROEM)
---------------------------------
  C      1.568892   -1.453904   -0.110404
  S      2.644590   -0.162639    0.264772
  C      1.347020    1.010633    0.243235
  C      0.131947    0.392872   -0.016895
  C      0.273547   -1.018978   -0.238627
  C     -0.885144   -1.895999   -0.692774
  C     -0.713598   -2.229524   -2.117866
  N     -0.583922   -2.482719   -3.241071
  C     -2.256429   -1.223641   -0.448219
  C     -2.230114    0.261264   -0.813241
  C     -1.249232    1.010216    0.086400
  O     -1.764024    0.881942    1.408287
  C     -1.139571    1.662438    2.393537
  C      1.707153    2.411106    0.462232
  C      1.134901    3.482898   -0.106477
  H      1.949512   -2.462618   -0.264302
  H     -0.856171   -2.852496   -0.146240
  H     -2.500031   -1.316132    0.619729
  H     -3.029970   -1.757067   -1.018159
  H     -3.230635    0.699362   -0.680309
  H     -1.937109    0.399448   -1.867836
  H     -1.221827    2.077749   -0.186848
  H     -1.691936    1.501333    3.330515
  H     -1.164512    2.741051    2.140856
  H     -0.083675    1.373466    2.551698
  H      2.563198    2.574826    1.127696
  H      0.318682    3.393491   -0.826268
  H      1.491787    4.489562    0.124738

 Multiplicity           Mult            ....    1
 Number of Electrons    NEL             ....  116
 Basis Dimension        Dim             ....  279

ORBITAL ENERGIES
----------------

  NO   OCC          E(Eh)            E(eV)
   0   2.0000     -88.883300     -2418.6376
   1   2.0000     -19.141563      -520.8684
   2   2.0000     -14.320826      -389.6895
   3   2.0000     -10.250499      -278.9303
   4   2.0000     -10.245437      -278.7925
   5   2.0000     -10.233902      -278.4786
   6   2.0000     -10.230165      -278.3769
   7   2.0000     -10.221713      -278.1469
   8   2.0000     -10.221655      -278.1454
   9   2.0000     -10.216092      -277.9940
  10   2.0000     -10.213715      -277.9293
  11   2.0000     -10.205151      -277.6963
  12   2.0000     -10.204145      -277.6689
  13   2.0000     -10.202523      -277.6248
  14   2.0000     -10.196511      -277.4612
  15   2.0000      -7.978551      -217.1074
  16   2.0000      -5.946585      -161.8148
  17   2.0000      -5.942511      -161.7039
  18   2.0000      -5.939978      -161.6350
  19   2.0000      -1.033280       -28.1170
  20   2.0000      -0.902517       -24.5587
  21   2.0000      -0.889230       -24.1972
  22   2.0000      -0.835301       -22.7297
  23   2.0000      -0.797617       -21.7043
  24   2.0000      -0.772532       -21.0217
  25   2.0000      -0.744553       -20.2603
  26   2.0000      -0.709784       -19.3142
  27   2.0000      -0.683847       -18.6084
  28   2.0000      -0.641121       -17.4458
  29   2.0000      -0.619822       -16.8662
  30   2.0000      -0.592059       -16.1107
  31   2.0000      -0.575977       -15.6731
  32   2.0000      -0.536202       -14.5908
  33   2.0000      -0.519132       -14.1263
  34   2.0000      -0.500910       -13.6304
  35   2.0000      -0.496540       -13.5116
  36   2.0000      -0.473976       -12.8976
  37   2.0000      -0.466570       -12.6960
  38   2.0000      -0.459432       -12.5018
  39   2.0000      -0.450515       -12.2591
  40   2.0000      -0.432890       -11.7795
  41   2.0000      -0.418168       -11.3789
  42   2.0000      -0.415681       -11.3112
  43   2.0000      -0.407432       -11.0868
  44   2.0000      -0.390322       -10.6212
  45   2.0000      -0.379700       -10.3322
  46   2.0000      -0.372074       -10.1247
  47   2.0000      -0.362190        -9.8557
  48   2.0000      -0.360017        -9.7966
  49   2.0000      -0.354999        -9.6600
  50   2.0000      -0.344949        -9.3865
  51   2.0000      -0.327360        -8.9079
  52   2.0000      -0.321817        -8.7571
  53   2.0000      -0.316987        -8.6257
  54   2.0000      -0.306124        -8.3300
  55   2.0000      -0.271788        -7.3957
  56   2.0000      -0.258191        -7.0257
  57   2.0000      -0.232658        -6.3309
  58   0.0000      -0.055474        -1.5095
  59   0.0000      -0.004703        -0.1280
  60   0.0000       0.023888         0.6500
  61   0.0000       0.030792         0.8379
  62   0.0000       0.036852         1.0028

MULLIKEN ATOMIC CHARGES
-----------------------
   0 C :   -0.111362
   1 S :    0.118001
   2 C :   -0.172201
   3 C :   -0.005053
   4 C :   -0.024521
   5 C :    0.052519
   6 C :   -0.242101
   7 N :    0.055439
   8 C :    0.066977
   9 C :    0.069119
  10 C :    0.230316
  11 O :   -0.388081
  12 C :    0.196573
  13 C :   -0.000219
  14 C :   -0.026384
  15 H :    0.023063
  16 H :    0.029774
  17 H :    0.022298
  18 H :    0.015044
  19 H :    0.005940
  20 H :    0.017186
  21 H :   -0.029807
  22 H :    0.019564
  23 H :   -0.001884
  24 H :    0.011361
  25 H :    0.006468
  26 H :    0.033707
  27 H :    0.028263
Sum of atomic charges:   -0.0000000

LOEWDIN ATOMIC CHARGES
----------------------
   0 C :   -0.184466
   1 S :    0.443828
   2 C :   -0.177401
   3 C :   -0.071830
   4 C :   -0.051574
   5 C :   -0.036383
   6 C :   -0.030125
   7 N :   -0.081851
   8 C :   -0.007905
   9 C :   -0.026748
  10 C :    0.079242
  11 O :   -0.166328
  12 C :    0.068041
  13 C :   -0.044929
  14 C :   -0.041810
  15 H :    0.028052
  16 H :    0.056656
  17 H :    0.030609
  18 H :    0.030505
  19 H :    0.030141
  20 H :    0.030074
  21 H :    0.009921
  22 H :    0.020446
  23 H :    0.004791
  24 H :    0.006984
  25 H :    0.030845
  26 H :    0.022857
  27 H :    0.028360

  Mayer bond orders larger than 0.100000
B(  0-C ,  1-S ) :   1.1578 B(  0-C ,  4-C ) :   1.5498 B(  0-C , 15-H ) :   0.9656
B(  1-S ,  2-C ) :   1.1361 B(  2-C ,  3-C ) :   1.5206 B(  2-C , 13-C ) :   1.0649
B(  3-C ,  4-C ) :   1.2919 B(  3-C , 10-C ) :   0.9911 B(  4-C ,  5-C ) :   0.9873
B(  5-C ,  6-C ) :   1.0387 B(  5-C ,  8-C ) :   1.0788 B(  5-C , 16-H ) :   0.8606
B(  6-C ,  7-N ) :   3.0812 B(  8-C ,  9-C ) :   1.0666 B(  8-C , 17-H ) :   0.9243
B(  8-C , 18-H ) :   0.9336 B(  9-C , 10-C ) :   1.0494 B(  9-C , 19-H ) :   0.9195
B(  9-C , 20-H ) :   0.9404 B( 10-C , 11-O ) :   1.0104 B( 10-C , 21-H ) :   0.9075
B( 11-O , 12-C ) :   0.9910 B( 12-C , 22-H ) :   0.9764 B( 12-C , 23-H ) :   0.9613
B( 12-C , 24-H ) :   0.9613 B( 13-C , 14-C ) :   1.9438 B( 13-C , 25-H ) :   0.9458
B( 14-C , 26-H ) :   0.9528 B( 14-C , 27-H ) :   0.9445

Dispersion correction           -0.063108248
FINAL SINGLE POINT ENERGY      -992.730933631252

DIPOLE MOMENT
-------------
                                X             Y             Z
Electronic contribution:      9.57665      -8.64527      -4.66673
Nuclear contribution   :     -9.53825       9.41601       6.02879
                        -----------------------------------------
Total Dipole Moment    :      0.03841       0.77074       1.36206
                        -----------------------------------------
Magnitude (a.u.)       :      1.56548
Magnitude (Debye)      :      3.97913

Rotational constants in cm-1:     0.023622     0.016727     0.012052
Rotational constants in MHz :   708.156253   501.465600   361.304204

                             ****ORCA TERMINATED NORMALLY****
TOTAL RUN TIME: 0 days 0 hours 19 minutes 35 seconds 483 msec
