                         Program Version 4.2.0 -  RELEASE  -
|  1> # ORCA input file
|  2> # SCF done        -46.385067855990          0.000980438945
|  3> ! B3LYP/G D3BJ Opt RIJCOSX def2-SVP def2/J
|  4> * xyz 0 1
|  5>    C        1.47440         1.27508        -0.20097
|  6>    S        2.69762         0.08809        -0.00796
|  7>    C        1.51679        -1.13952         0.19551
|  8>    C        0.24834        -0.65518         0.11782
|  9>    C        0.22383         0.74703        -0.11299
| 10>    C       -1.04741         1.52396        -0.27692
| 11>    C       -2.25619         0.74017         0.23294
| 12>    N       -2.34704         0.83670         1.72316
| 13>    O       -2.12436         1.91350         2.20851
| 14>    O       -2.67102        -0.15475         2.32799
| 15>    C       -2.22992        -0.72738        -0.19869
| 16>    N       -2.33618        -0.76205        -1.69413
| 17>    O       -3.14894        -0.01679        -2.18494
| 18>    O       -1.63939        -1.53229        -2.29492
| 19>    C       -0.99464        -1.47330         0.28841
| 20>    H        1.74525         2.29763        -0.37052
| 21>    H        1.82394        -2.15229         0.36123
| 22>    H       -1.20023         1.76154        -1.33413
| 23>    H       -0.98413         2.47232         0.26204
| 24>    H       -3.17226         1.21394        -0.14500
| 25>    H       -3.13303        -1.23010         0.17043
| 26>    H       -0.89869        -2.41543        -0.25499
| 27>    H       -1.13463        -1.71625         1.34585
| 28> *
| 29>
| 30>                          ****END OF INPUT****
 Total Charge           Charge          ....    0
 Multiplicity           Mult            ....    1
 Number of Electrons    NEL             ....  118
Dispersion correction           -0.053817008
FINAL SINGLE POINT ENERGY     -1117.467928569641
Dispersion correction            ... done
Dispersion correction           -0.053137326
FINAL SINGLE POINT ENERGY     -1117.471694002424
Dispersion correction            ... done
Dispersion correction           -0.053064621
FINAL SINGLE POINT ENERGY     -1117.470593682702
Dispersion correction            ... done
FINAL SINGLE POINT ENERGY     -1117.472368247455
FINAL SINGLE POINT ENERGY     -1117.472402004002
FINAL SINGLE POINT ENERGY     -1117.471942875127
FINAL SINGLE POINT ENERGY     -1117.472146742784
FINAL SINGLE POINT ENERGY     -1117.472172169605
FINAL SINGLE POINT ENERGY     -1117.472194958107
FINAL SINGLE POINT ENERGY     -1117.472148205570
Dispersion correction            ... done
Dispersion correction           -0.053077870
FINAL SINGLE POINT ENERGY     -1117.472094345318
Dispersion correction            ... done
Dispersion correction           -0.053081922
FINAL SINGLE POINT ENERGY     -1117.472097088150
Dispersion correction            ... done
                    ***********************HURRAY********************

CARTESIAN COORDINATES (ANGSTROEM)
---------------------------------
  C      1.511597    1.318975   -0.038082
  S      2.734998    0.132707    0.231593
  C      1.565341   -1.137437    0.278397
  C      0.286249   -0.666723    0.097014
  C      0.259152    0.756845   -0.098661
  C     -1.023934    1.494970   -0.368026
  C     -2.224925    0.745434    0.201256
  N     -2.264014    0.882885    1.722185
  O     -2.066693    1.994503    2.166812
  O     -2.533308   -0.106185    2.380963
  C     -2.234713   -0.737100   -0.189542
  N     -2.520255   -0.773772   -1.699831
  O     -3.488121   -0.131973   -2.071141
  O     -1.800889   -1.440642   -2.412211
  C     -0.967908   -1.501563    0.179312
  H      1.778519    2.368379   -0.151923
  H      1.877982   -2.163689    0.465308
  H     -1.191802    1.600336   -1.453917
  H     -1.004225    2.509152    0.049331
  H     -3.161402    1.212291   -0.131737
  H     -3.118561   -1.218290    0.246547
  H     -0.895285   -2.391474   -0.459141
  H     -1.105692   -1.852997    1.213226

 Multiplicity           Mult            ....    1
 Number of Electrons    NEL             ....  118
 Basis Dimension        Dim             ....  254

ORBITAL ENERGIES
----------------

  NO   OCC          E(Eh)            E(eV)
   0   2.0000     -88.884921     -2418.6817
   1   2.0000     -19.190628      -522.2035
   2   2.0000     -19.187927      -522.1300
   3   2.0000     -19.186587      -522.0936
   4   2.0000     -19.185983      -522.0771
   5   2.0000     -14.577381      -396.6707
   6   2.0000     -14.577230      -396.6666
   7   2.0000     -10.278676      -279.6970
   8   2.0000     -10.277417      -279.6627
   9   2.0000     -10.227710      -278.3101
  10   2.0000     -10.221566      -278.1429
  11   2.0000     -10.221381      -278.1379
  12   2.0000     -10.220354      -278.1100
  13   2.0000     -10.212141      -277.8865
  14   2.0000     -10.211846      -277.8785
  15   2.0000      -7.979988      -217.1465
  16   2.0000      -5.948024      -161.8540
  17   2.0000      -5.943880      -161.7412
  18   2.0000      -5.941568      -161.6783
  19   2.0000      -1.247346       -33.9420
  20   2.0000      -1.246002       -33.9054
  21   2.0000      -1.075183       -29.2572
  22   2.0000      -1.074599       -29.2413
  23   2.0000      -0.909156       -24.7394
  24   2.0000      -0.879038       -23.9198
  25   2.0000      -0.812602       -22.1120
  26   2.0000      -0.776626       -21.1331
  27   2.0000      -0.755033       -20.5455
  28   2.0000      -0.700727       -19.0678
  29   2.0000      -0.684385       -18.6231
  30   2.0000      -0.627201       -17.0670
  31   2.0000      -0.596963       -16.2442
  32   2.0000      -0.594511       -16.1775
  33   2.0000      -0.581395       -15.8206
  34   2.0000      -0.567655       -15.4467
  35   2.0000      -0.557409       -15.1679
  36   2.0000      -0.547623       -14.9016
  37   2.0000      -0.529475       -14.4078
  38   2.0000      -0.528370       -14.3777
  39   2.0000      -0.517373       -14.0784
  40   2.0000      -0.503095       -13.6899
  41   2.0000      -0.471272       -12.8240
  42   2.0000      -0.455256       -12.3881
  43   2.0000      -0.442353       -12.0370
  44   2.0000      -0.433289       -11.7904
  45   2.0000      -0.431875       -11.7519
  46   2.0000      -0.417688       -11.3659
  47   2.0000      -0.379018       -10.3136
  48   2.0000      -0.377859       -10.2821
  49   2.0000      -0.369316       -10.0496
  50   2.0000      -0.355114        -9.6631
  51   2.0000      -0.338161        -9.2018
  52   2.0000      -0.335733        -9.1358
  53   2.0000      -0.333450        -9.0736
  54   2.0000      -0.324274        -8.8240
  55   2.0000      -0.316883        -8.6228
  56   2.0000      -0.312289        -8.4978
  57   2.0000      -0.258675        -7.0389
  58   2.0000      -0.248284        -6.7561
  59   0.0000      -0.090807        -2.4710
  60   0.0000      -0.084142        -2.2896
  61   0.0000      -0.033301        -0.9062
  62   0.0000       0.030590         0.8324
  63   0.0000       0.036933         1.0050

MULLIKEN ATOMIC CHARGES
-----------------------
   0 C :   -0.135404
   1 S :    0.116858
   2 C :   -0.136560
   3 C :   -0.050467
   4 C :   -0.054772
   5 C :    0.179365
   6 C :   -0.001595
   7 N :    0.223831
   8 O :   -0.218328
   9 O :   -0.230630
  10 C :    0.038927
  11 N :    0.199906
  12 O :   -0.234913
  13 O :   -0.207165
  14 C :    0.203773
  15 H :    0.019675
  16 H :    0.017690
  17 H :    0.043423
  18 H :    0.033120
  19 H :    0.066371
  20 H :    0.051433
  21 H :    0.033600
  22 H :    0.041864
Sum of atomic charges:   -0.0000000

LOEWDIN ATOMIC CHARGES
----------------------
   0 C :   -0.193566
   1 S :    0.447289
   2 C :   -0.193531
   3 C :   -0.070559
   4 C :   -0.078842
   5 C :   -0.020821
   6 C :    0.013689
   7 N :    0.269965
   8 O :   -0.182696
   9 O :   -0.194043
  10 C :    0.016867
  11 N :    0.265445
  12 O :   -0.202909
  13 O :   -0.174726
  14 C :   -0.027601
  15 H :    0.026265
  16 H :    0.025395
  17 H :    0.044952
  18 H :    0.042775
  19 H :    0.048914
  20 H :    0.048454
  21 H :    0.042632
  22 H :    0.046653

  Mayer bond orders larger than 0.100000
B(  0-C ,  1-S ) :   1.1755 B(  0-C ,  4-C ) :   1.5507 B(  0-C , 15-H ) :   0.9644
B(  1-S ,  2-C ) :   1.1745 B(  2-C ,  3-C ) :   1.5542 B(  2-C , 16-H ) :   0.9662
B(  3-C ,  4-C ) :   1.2975 B(  3-C , 14-C ) :   1.0251 B(  4-C ,  5-C ) :   1.0172
B(  5-C ,  6-C ) :   1.0579 B(  5-C , 17-H ) :   0.9079 B(  5-C , 18-H ) :   0.9004
B(  6-C ,  7-N ) :   0.8029 B(  6-C , 10-C ) :   1.0247 B(  6-C , 19-H ) :   0.8985
B(  7-N ,  8-O ) :   1.5605 B(  7-N ,  9-O ) :   1.5433 B(  8-O ,  9-O ) :   0.2880
B( 10-C , 11-N ) :   0.7892 B( 10-C , 14-C ) :   1.0412 B( 10-C , 20-H ) :   0.8946
B( 11-N , 12-O ) :   1.5132 B( 11-N , 13-O ) :   1.5890 B( 12-O , 13-O ) :   0.2878
B( 14-C , 21-H ) :   0.8921 B( 14-C , 22-H ) :   0.8936

Dispersion correction           -0.053082836
FINAL SINGLE POINT ENERGY     -1117.472107230251

DIPOLE MOMENT
-------------
                                X             Y             Z
Electronic contribution:      1.13389       0.29339       0.49020
Nuclear contribution   :     -0.75143      -0.40776      -0.52123
                        -----------------------------------------
Total Dipole Moment    :      0.38246      -0.11436      -0.03102
                        -----------------------------------------
Magnitude (a.u.)       :      0.40039
Magnitude (Debye)      :      1.01772

Rotational constants in cm-1:     0.024980     0.015414     0.011868
Rotational constants in MHz :   748.879168   462.110581   355.780271

                             ****ORCA TERMINATED NORMALLY****
TOTAL RUN TIME: 0 days 0 hours 26 minutes 22 seconds 833 msec
