                         Program Version 4.2.0 -  RELEASE  -
|  1> # ORCA input file
|  2> # SCF done        -30.101959088119          0.000365577647
|  3> ! B3LYP/G D3BJ Opt RIJCOSX def2-SVP def2/J
|  4> * xyz 0 1
|  5>    C       -1.28294         1.13862        -0.00201
|  6>    C        0.00483         0.73095        -0.00119
|  7>    C       -0.01355        -0.71971        -0.00072
|  8>    C       -1.41693        -1.11702        -0.00096
|  9>    O       -1.96263        -2.17640        -0.00118
| 10>    O       -2.13066         0.09348        -0.00224
| 11>    C        1.27423        -1.12737         0.00009
| 12>    O        2.12195        -0.08222         0.00020
| 13>    C        1.40821         1.12827        -0.00059
| 14>    O        1.95389         2.18765        -0.00073
| 15>    H       -1.72559         2.11812        -0.00275
| 16>    H        1.71691        -2.10686         0.00069
| 17> *
| 18>
| 19>                          ****END OF INPUT****
 Total Charge           Charge          ....    0
 Multiplicity           Mult            ....    1
 Number of Electrons    NEL             ....   70
Dispersion correction           -0.021630054
FINAL SINGLE POINT ENERGY      -530.320967812875
Dispersion correction            ... done
Dispersion correction           -0.021609597
FINAL SINGLE POINT ENERGY      -530.322468308864
Dispersion correction            ... done
Dispersion correction           -0.021606468
FINAL SINGLE POINT ENERGY      -530.322928422482
Dispersion correction            ... done
FINAL SINGLE POINT ENERGY      -530.323083310607
FINAL SINGLE POINT ENERGY      -530.323107506788
FINAL SINGLE POINT ENERGY      -530.323152213019
Dispersion correction            ... done
Dispersion correction           -0.021623918
FINAL SINGLE POINT ENERGY      -530.323160121039
Dispersion correction            ... done
Dispersion correction           -0.021624179
FINAL SINGLE POINT ENERGY      -530.323165902965
Dispersion correction            ... done
                    ***********************HURRAY********************

CARTESIAN COORDINATES (ANGSTROEM)
---------------------------------
  C     -1.286022    1.143581   -0.002027
  C      0.005848    0.725939   -0.001240
  C     -0.014560   -0.714685   -0.000710
  C     -1.409551   -1.145426   -0.001262
  O     -1.982994   -2.187546   -0.001119
  O     -2.143867    0.099397   -0.002175
  C      1.277308   -1.132330    0.000169
  O      2.135154   -0.088145    0.000282
  C      1.400840    1.156677   -0.000712
  O      1.974281    2.198799   -0.000785
  H     -1.735225    2.136195   -0.002592
  H      1.726507   -2.124946    0.000779

 Multiplicity           Mult            ....    1
 Number of Electrons    NEL             ....   70
 Basis Dimension        Dim             ....  150

ORBITAL ENERGIES
----------------

  NO   OCC          E(Eh)            E(eV)
   0   2.0000     -19.222249      -523.0640
   1   2.0000     -19.222242      -523.0638
   2   2.0000     -19.161002      -521.3974
   3   2.0000     -19.161000      -521.3973
   4   2.0000     -10.352550      -281.7072
   5   2.0000     -10.352534      -281.7068
   6   2.0000     -10.309044      -280.5233
   7   2.0000     -10.308995      -280.5220
   8   2.0000     -10.232429      -278.4385
   9   2.0000     -10.232259      -278.4339
  10   2.0000      -1.139155       -30.9980
  11   2.0000      -1.131970       -30.8025
  12   2.0000      -1.062902       -28.9230
  13   2.0000      -1.062672       -28.9168
  14   2.0000      -0.862389       -23.4668
  15   2.0000      -0.776193       -21.1213
  16   2.0000      -0.732077       -19.9208
  17   2.0000      -0.685810       -18.6618
  18   2.0000      -0.640600       -17.4316
  19   2.0000      -0.571418       -15.5491
  20   2.0000      -0.543233       -14.7821
  21   2.0000      -0.539492       -14.6803
  22   2.0000      -0.517093       -14.0708
  23   2.0000      -0.484636       -13.1876
  24   2.0000      -0.472876       -12.8676
  25   2.0000      -0.470979       -12.8160
  26   2.0000      -0.447538       -12.1781
  27   2.0000      -0.435462       -11.8495
  28   2.0000      -0.408240       -11.1088
  29   2.0000      -0.405996       -11.0477
  30   2.0000      -0.393809       -10.7161
  31   2.0000      -0.335204        -9.1214
  32   2.0000      -0.324197        -8.8218
  33   2.0000      -0.310066        -8.4373
  34   2.0000      -0.256480        -6.9792
  35   0.0000      -0.115365        -3.1392
  36   0.0000      -0.053079        -1.4443
  37   0.0000       0.052168         1.4196
  38   0.0000       0.064650         1.7592
  39   0.0000       0.073299         1.9946

MULLIKEN ATOMIC CHARGES
-----------------------
   0 C :    0.131620
   1 C :   -0.066421
   2 C :   -0.066418
   3 C :    0.265325
   4 O :   -0.112897
   5 O :   -0.262485
   6 C :    0.131622
   7 O :   -0.262484
   8 C :    0.265323
   9 O :   -0.112898
  10 H :    0.044855
  11 H :    0.044858
Sum of atomic charges:   -0.0000000

LOEWDIN ATOMIC CHARGES
----------------------
   0 C :    0.140686
   1 C :   -0.136392
   2 C :   -0.136392
   3 C :    0.119651
   4 O :   -0.101432
   5 O :   -0.064371
   6 C :    0.140686
   7 O :   -0.064370
   8 C :    0.119650
   9 O :   -0.101433
  10 H :    0.041858
  11 H :    0.041858

  Mayer bond orders larger than 0.100000
B(  0-C ,  1-C ) :   1.5173 B(  0-C ,  5-O ) :   1.1636 B(  0-C , 10-H ) :   0.9969
B(  1-C ,  2-C ) :   1.1495 B(  1-C ,  8-C ) :   0.9522 B(  2-C ,  3-C ) :   0.9522
B(  2-C ,  6-C ) :   1.5172 B(  3-C ,  4-O ) :   2.2504 B(  3-C ,  5-O ) :   0.9314
B(  6-C ,  7-O ) :   1.1636 B(  6-C , 11-H ) :   0.9969 B(  7-O ,  8-C ) :   0.9314
B(  8-C ,  9-O ) :   2.2504

Dispersion correction           -0.021624450
FINAL SINGLE POINT ENERGY      -530.323167062218

DIPOLE MOMENT
-------------
                                X             Y             Z
Electronic contribution:      0.00001      -0.00001      -0.00010
Nuclear contribution   :     -0.00001      -0.00000       0.00009
                        -----------------------------------------
Total Dipole Moment    :      0.00000      -0.00001      -0.00001
                        -----------------------------------------
Magnitude (a.u.)       :      0.00001
Magnitude (Debye)      :      0.00004

Rotational constants in cm-1:     0.106583     0.037861     0.027937
Rotational constants in MHz :  3195.264078  1135.033364   837.524763

                             ****ORCA TERMINATED NORMALLY****
TOTAL RUN TIME: 0 days 0 hours 4 minutes 57 seconds 37 msec
