                         Program Version 4.2.0 -  RELEASE  -
|  1> # ORCA input file
|  2> # SCF done        -33.321755183546          0.000286168742
|  3> ! B3LYP/G D3BJ Opt RIJCOSX def2-SVP def2/J
|  4> * xyz 0 1
|  5>    C        0.33730         1.32246         0.96684
|  6>    S       -0.15398        -0.14480         1.71255
|  7>    C        1.40799         1.16315         0.14428
|  8>    C        2.03818         2.30428        -0.59370
|  9>    C        2.78049         3.25362         0.35714
| 10>    N        1.83810         3.95496         1.20995
| 11>    C        1.85147        -0.19484         0.10129
| 12>    C        3.02048        -0.70322        -0.68445
| 13>    C        4.34381        -0.45882         0.05290
| 14>    N        4.39950        -1.28372         1.24718
| 15>    C        1.09827        -0.99779         0.90053
| 16>    H       -0.18104         2.23128         1.19327
| 17>    H        1.26455         2.87404        -1.11503
| 18>    H        2.74267         1.92745        -1.33543
| 19>    H        3.40864         3.93371        -0.24586
| 20>    H        3.44262         2.67444         1.00726
| 21>    H        1.25519         4.57315         0.65485
| 22>    H        2.32666         4.51873         1.89608
| 23>    H        3.05942        -0.21618        -1.66050
| 24>    H        2.91240        -1.77763        -0.83614
| 25>    H        4.44705         0.61995         0.26184
| 26>    H        5.17562        -0.75790        -0.59254
| 27>    H        3.61484        -1.06366         1.85292
| 28>    H        5.25292        -1.10536         1.76476
| 29>    H        1.20425        -2.05346         1.05425
| 30> *
| 31>
| 32>                          ****END OF INPUT****
 Total Charge           Charge          ....    0
 Multiplicity           Mult            ....    1
 Number of Electrons    NEL             ....   92
Dispersion correction           -0.047937398
FINAL SINGLE POINT ENERGY      -820.582726532831
Dispersion correction            ... done
Dispersion correction           -0.047293628
FINAL SINGLE POINT ENERGY      -820.585698057537
Dispersion correction            ... done
Dispersion correction           -0.047210005
FINAL SINGLE POINT ENERGY      -820.585967277207
Dispersion correction            ... done
FINAL SINGLE POINT ENERGY      -820.585785987731
FINAL SINGLE POINT ENERGY      -820.585941713435
FINAL SINGLE POINT ENERGY      -820.586023881852
FINAL SINGLE POINT ENERGY      -820.585951539889
FINAL SINGLE POINT ENERGY      -820.586047877533
FINAL SINGLE POINT ENERGY      -820.586078953528
FINAL SINGLE POINT ENERGY      -820.586077235235
FINAL SINGLE POINT ENERGY      -820.586084603654
FINAL SINGLE POINT ENERGY      -820.586075494351
Dispersion correction            ... done
Dispersion correction           -0.048007843
FINAL SINGLE POINT ENERGY      -820.586069331836
Dispersion correction            ... done
Dispersion correction           -0.048005178
FINAL SINGLE POINT ENERGY      -820.586064232395
Dispersion correction            ... done
                    ***********************HURRAY********************

CARTESIAN COORDINATES (ANGSTROEM)
---------------------------------
  C      0.207552    1.229576    0.912066
  S     -0.328467   -0.276332    1.573202
  C      1.329330    1.090079    0.129346
  C      2.041886    2.241980   -0.528900
  C      2.870373    3.098324    0.445844
  N      2.005075    3.894921    1.307276
  C      1.775696   -0.283614    0.066674
  C      2.992496   -0.773618   -0.674937
  C      4.324681   -0.347036   -0.039724
  N      4.386946   -0.788031    1.345668
  C      0.973177   -1.118044    0.809672
  H     -0.306611    2.156302    1.156854
  H      1.315322    2.901768   -1.035324
  H      2.707526    1.863868   -1.319294
  H      3.594027    3.699504   -0.146172
  H      3.471118    2.429338    1.084923
  H      1.574763    4.648284    0.769418
  H      2.541754    4.341578    2.049880
  H      2.967877   -0.418597   -1.719874
  H      2.961375   -1.873573   -0.704425
  H      4.454254    0.747444   -0.181169
  H      5.144312   -0.825070   -0.603352
  H      3.576911   -0.436094    1.857708
  H      5.213820   -0.417136    1.811699
  H      1.092207   -2.191980    0.947180

 Multiplicity           Mult            ....    1
 Number of Electrons    NEL             ....   92
 Basis Dimension        Dim             ....  228

ORBITAL ENERGIES
----------------

  NO   OCC          E(Eh)            E(eV)
   0   2.0000     -88.859348     -2417.9858
   1   2.0000     -14.309947      -389.3934
   2   2.0000     -14.297265      -389.0484
   3   2.0000     -10.213335      -277.9190
   4   2.0000     -10.205462      -277.7047
   5   2.0000     -10.195574      -277.4357
   6   2.0000     -10.193509      -277.3795
   7   2.0000     -10.188945      -277.2553
   8   2.0000     -10.185227      -277.1541
   9   2.0000     -10.184520      -277.1349
  10   2.0000     -10.182675      -277.0847
  11   2.0000      -7.954539      -216.4540
  12   2.0000      -5.922626      -161.1628
  13   2.0000      -5.918489      -161.0503
  14   2.0000      -5.916034      -160.9835
  15   2.0000      -0.879631       -23.9360
  16   2.0000      -0.870933       -23.6993
  17   2.0000      -0.858800       -23.3691
  18   2.0000      -0.766287       -20.8517
  19   2.0000      -0.749615       -20.3981
  20   2.0000      -0.685281       -18.6474
  21   2.0000      -0.684127       -18.6161
  22   2.0000      -0.603936       -16.4339
  23   2.0000      -0.595068       -16.1926
  24   2.0000      -0.555761       -15.1230
  25   2.0000      -0.512237       -13.9387
  26   2.0000      -0.495130       -13.4732
  27   2.0000      -0.487151       -13.2561
  28   2.0000      -0.471681       -12.8351
  29   2.0000      -0.466585       -12.6964
  30   2.0000      -0.446584       -12.1522
  31   2.0000      -0.427046       -11.6205
  32   2.0000      -0.407433       -11.0868
  33   2.0000      -0.393990       -10.7210
  34   2.0000      -0.391244       -10.6463
  35   2.0000      -0.384272       -10.4566
  36   2.0000      -0.366243        -9.9660
  37   2.0000      -0.354969        -9.6592
  38   2.0000      -0.348610        -9.4861
  39   2.0000      -0.343294        -9.3415
  40   2.0000      -0.338216        -9.2033
  41   2.0000      -0.326608        -8.8875
  42   2.0000      -0.242931        -6.6105
  43   2.0000      -0.233565        -6.3556
  44   2.0000      -0.226667        -6.1679
  45   2.0000      -0.223192        -6.0734
  46   0.0000      -0.005323        -0.1448
  47   0.0000       0.043447         1.1822
  48   0.0000       0.050086         1.3629
  49   0.0000       0.062725         1.7068
  50   0.0000       0.068529         1.8648

MULLIKEN ATOMIC CHARGES
-----------------------
   0 C :   -0.118319
   1 S :    0.081709
   2 C :   -0.024130
   3 C :    0.103859
   4 C :    0.094957
   5 N :   -0.216211
   6 C :   -0.082327
   7 C :    0.110059
   8 C :    0.099199
   9 N :   -0.231363
  10 C :   -0.138271
  11 H :    0.008902
  12 H :   -0.008019
  13 H :   -0.012089
  14 H :   -0.015168
  15 H :   -0.003106
  16 H :    0.086088
  17 H :    0.089079
  18 H :    0.003451
  19 H :   -0.004527
  20 H :   -0.021179
  21 H :   -0.007658
  22 H :    0.102509
  23 H :    0.085411
  24 H :    0.017145
Sum of atomic charges:   -0.0000000

LOEWDIN ATOMIC CHARGES
----------------------
   0 C :   -0.189568
   1 S :    0.413022
   2 C :   -0.067303
   3 C :   -0.031582
   4 C :    0.021871
   5 N :   -0.115495
   6 C :   -0.072223
   7 C :   -0.027935
   8 C :    0.020799
   9 N :   -0.123239
  10 C :   -0.207424
  11 H :    0.019517
  12 H :    0.026141
  13 H :    0.022945
  14 H :   -0.002847
  15 H :    0.014378
  16 H :    0.051492
  17 H :    0.055529
  18 H :    0.026961
  19 H :    0.030202
  20 H :   -0.008225
  21 H :    0.015299
  22 H :    0.052613
  23 H :    0.053031
  24 H :    0.022041

  Mayer bond orders larger than 0.100000
B(  0-C ,  1-S ) :   1.1601 B(  0-C ,  2-C ) :   1.5669 B(  0-C , 11-H ) :   0.9561
B(  1-S , 10-C ) :   1.1562 B(  2-C ,  3-C ) :   1.0710 B(  2-C ,  6-C ) :   1.2688
B(  3-C ,  4-C ) :   1.0760 B(  3-C , 12-H ) :   0.9166 B(  3-C , 13-H ) :   0.9093
B(  4-C ,  5-N ) :   1.0880 B(  4-C , 14-H ) :   0.9379 B(  4-C , 15-H ) :   0.9336
B(  5-N , 16-H ) :   0.9684 B(  5-N , 17-H ) :   0.9672 B(  6-C ,  7-C ) :   1.0845
B(  6-C , 10-C ) :   1.5536 B(  7-C ,  8-C ) :   1.0783 B(  7-C , 18-H ) :   0.9135
B(  7-C , 19-H ) :   0.9067 B(  8-C ,  9-N ) :   1.0847 B(  8-C , 20-H ) :   0.9260
B(  8-C , 21-H ) :   0.9345 B(  9-N , 22-H ) :   0.9683 B(  9-N , 23-H ) :   0.9660
B( 10-C , 24-H ) :   0.9578

Dispersion correction           -0.048003794
FINAL SINGLE POINT ENERGY      -820.586063003184

DIPOLE MOMENT
-------------
                                X             Y             Z
Electronic contribution:    -12.78499      -5.83900       4.25488
Nuclear contribution   :     13.36538       6.90858      -4.40035
                        -----------------------------------------
Total Dipole Moment    :      0.58039       1.06959      -0.14547
                        -----------------------------------------
Magnitude (a.u.)       :      1.22557
Magnitude (Debye)      :      3.11516

Rotational constants in cm-1:     0.030705     0.029980     0.018130
Rotational constants in MHz :   920.516535   898.777353   543.537928

                             ****ORCA TERMINATED NORMALLY****
TOTAL RUN TIME: 0 days 0 hours 20 minutes 48 seconds 670 msec
