                         Program Version 4.2.0 -  RELEASE  -
|  1> # ORCA input file
|  2> # SCF done        -32.442189892139          0.000849062040
|  3> ! B3LYP/G D3BJ Opt RIJCOSX def2-SVP def2/J
|  4> * xyz 0 1
|  5>    C       -1.47334        -1.23285         0.15371
|  6>    S       -2.64753        -0.00002         0.23910
|  7>    C       -1.47335         1.23282         0.15364
|  8>    C       -0.19806         0.72172         0.06022
|  9>    C       -0.19805        -0.72174         0.06027
| 10>    C        1.02519        -1.42235        -0.02974
| 11>    C        2.19703        -0.71895        -0.11637
| 12>    C        3.42999        -1.40546        -0.20776
| 13>    N        4.41564        -1.98535        -0.28148
| 14>    C        2.19703         0.71893        -0.11642
| 15>    C        3.42998         1.40546        -0.20801
| 16>    N        4.41575         1.98545        -0.28096
| 17>    C        1.02519         1.42232        -0.02982
| 18>    H       -1.76968        -2.26228         0.17532
| 19>    H       -1.76970         2.26225         0.17519
| 20>    H        1.03054        -2.50206        -0.02982
| 21>    H        1.03053         2.50204        -0.02994
| 22> *
| 23>
| 24>                          ****END OF INPUT****
 Total Charge           Charge          ....    0
 Multiplicity           Mult            ....    1
 Number of Electrons    NEL             ....   94
Dispersion correction           -0.042776509
FINAL SINGLE POINT ENERGY      -890.688174976789
Dispersion correction            ... done
Dispersion correction           -0.042484203
FINAL SINGLE POINT ENERGY      -890.691677880035
Dispersion correction            ... done
Dispersion correction           -0.042437079
FINAL SINGLE POINT ENERGY      -890.691761590234
Dispersion correction            ... done
Dispersion correction           -0.042415186
FINAL SINGLE POINT ENERGY      -890.691741981763
Dispersion correction            ... done
Dispersion correction           -0.042428582
FINAL SINGLE POINT ENERGY      -890.691770174407
Dispersion correction            ... done
                    ***********************HURRAY********************

CARTESIAN COORDINATES (ANGSTROEM)
---------------------------------
  C     -1.496163   -1.247963    0.160447
  S     -2.663662   -0.000017    0.262484
  C     -1.496182    1.247939    0.160332
  C     -0.211045    0.727049    0.051715
  C     -0.211033   -0.727062    0.051787
  C      1.024990   -1.428239   -0.042500
  C      2.208674   -0.727407   -0.124309
  C      3.450861   -1.437190   -0.204033
  N      4.446901   -2.029449   -0.267809
  C      2.208664    0.727412   -0.124375
  C      3.450851    1.437198   -0.204074
  N      4.446945    2.029453   -0.267009
  C      1.024968    1.428235   -0.042659
  H     -1.796759   -2.293652    0.183604
  H     -1.796799    2.293625    0.183391
  H      1.037997   -2.519490   -0.044783
  H      1.037952    2.519487   -0.045078

 Multiplicity           Mult            ....    1
 Number of Electrons    NEL             ....   94
 Basis Dimension        Dim             ....  206

ORBITAL ENERGIES
----------------

  NO   OCC          E(Eh)            E(eV)
   0   2.0000     -88.923898     -2419.7423
   1   2.0000     -14.337485      -390.1428
   2   2.0000     -14.337431      -390.1413
   3   2.0000     -10.262161      -279.2476
   4   2.0000     -10.261959      -279.2421
   5   2.0000     -10.250565      -278.9321
   6   2.0000     -10.250495      -278.9302
   7   2.0000     -10.244977      -278.7800
   8   2.0000     -10.244856      -278.7767
   9   2.0000     -10.240502      -278.6582
  10   2.0000     -10.240348      -278.6540
  11   2.0000     -10.236839      -278.5585
  12   2.0000     -10.236727      -278.5555
  13   2.0000      -8.018488      -218.1941
  14   2.0000      -5.986082      -162.8896
  15   2.0000      -5.981827      -162.7738
  16   2.0000      -5.981146      -162.7553
  17   2.0000      -0.934251       -25.4222
  18   2.0000      -0.913123       -24.8473
  19   2.0000      -0.903549       -24.5868
  20   2.0000      -0.874331       -23.7918
  21   2.0000      -0.810818       -22.0635
  22   2.0000      -0.789575       -21.4854
  23   2.0000      -0.749724       -20.4010
  24   2.0000      -0.680006       -18.5039
  25   2.0000      -0.656799       -17.8724
  26   2.0000      -0.619720       -16.8634
  27   2.0000      -0.573650       -15.6098
  28   2.0000      -0.549544       -14.9538
  29   2.0000      -0.538930       -14.6650
  30   2.0000      -0.485345       -13.2069
  31   2.0000      -0.482628       -13.1330
  32   2.0000      -0.454696       -12.3729
  33   2.0000      -0.451528       -12.2867
  34   2.0000      -0.438049       -11.9199
  35   2.0000      -0.412018       -11.2116
  36   2.0000      -0.399812       -10.8794
  37   2.0000      -0.390127       -10.6159
  38   2.0000      -0.374615       -10.1938
  39   2.0000      -0.367376        -9.9968
  40   2.0000      -0.366790        -9.9809
  41   2.0000      -0.348676        -9.4880
  42   2.0000      -0.344240        -9.3673
  43   2.0000      -0.342883        -9.3303
  44   2.0000      -0.322479        -8.7751
  45   2.0000      -0.282864        -7.6971
  46   2.0000      -0.246257        -6.7010
  47   0.0000      -0.106934        -2.9098
  48   0.0000      -0.064736        -1.7615
  49   0.0000      -0.021001        -0.5715
  50   0.0000       0.014538         0.3956
  51   0.0000       0.014661         0.3989

MULLIKEN ATOMIC CHARGES
-----------------------
   0 C :   -0.129025
   1 S :    0.176184
   2 C :   -0.129013
   3 C :    0.105506
   4 C :    0.105527
   5 C :   -0.014339
   6 C :   -0.054241
   7 C :   -0.147971
   8 N :    0.119058
   9 C :   -0.054251
  10 C :   -0.147986
  11 N :    0.119089
  12 C :   -0.014337
  13 H :    0.036138
  14 H :    0.036138
  15 H :   -0.003238
  16 H :   -0.003238
Sum of atomic charges:   -0.0000000

LOEWDIN ATOMIC CHARGES
----------------------
   0 C :   -0.192244
   1 S :    0.521632
   2 C :   -0.192244
   3 C :   -0.049777
   4 C :   -0.049776
   5 C :    0.029680
   6 C :   -0.053667
   7 C :   -0.027671
   8 N :   -0.045438
   9 C :   -0.053667
  10 C :   -0.027676
  11 N :   -0.045432
  12 C :    0.029678
  13 H :    0.033192
  14 H :    0.033192
  15 H :    0.045108
  16 H :    0.045108

  Mayer bond orders larger than 0.100000
B(  0-C ,  1-S ) :   1.2208 B(  0-C ,  2-C ) :   0.1059 B(  0-C ,  4-C ) :   1.3905
B(  0-C , 13-H ) :   0.9659 B(  1-S ,  2-C ) :   1.2208 B(  2-C ,  3-C ) :   1.3905
B(  2-C , 14-H ) :   0.9659 B(  3-C ,  4-C ) :   1.1908 B(  3-C , 12-C ) :   1.1687
B(  4-C ,  5-C ) :   1.1687 B(  5-C ,  6-C ) :   1.5488 B(  5-C , 15-H ) :   1.0002
B(  6-C ,  7-C ) :   1.0858 B(  6-C ,  9-C ) :   1.2025 B(  7-C ,  8-N ) :   3.0066
B(  9-C , 10-C ) :   1.0858 B(  9-C , 12-C ) :   1.5488 B( 10-C , 11-N ) :   3.0066
B( 12-C , 16-H ) :   1.0002

Dispersion correction           -0.042430407
FINAL SINGLE POINT ENERGY      -890.691770551853

DIPOLE MOMENT
-------------
                                X             Y             Z
Electronic contribution:      1.20393       0.00001      -0.07286
Nuclear contribution   :     -4.48503      -0.00001       0.30242
                        -----------------------------------------
Total Dipole Moment    :     -3.28110       0.00000       0.22956
                        -----------------------------------------
Magnitude (a.u.)       :      3.28912
Magnitude (Debye)      :      8.36028

Rotational constants in cm-1:     0.056146     0.014715     0.011659
Rotational constants in MHz :  1683.200968   441.135354   349.542513

                             ****ORCA TERMINATED NORMALLY****
TOTAL RUN TIME: 0 days 0 hours 6 minutes 50 seconds 74 msec
