                         Program Version 4.2.0 -  RELEASE  -
|  1> # ORCA input file
|  2> # SCF done        -26.435916328550          0.000795667452
|  3> ! B3LYP/G D3BJ Opt RIJCOSX def2-SVP def2/J
|  4> * xyz 0 1
|  5>    C        1.17037         0.01965        -0.07337
|  6>    C        0.40716        -1.07200         0.13630
|  7>    C       -0.96459        -0.66525         0.14563
|  8>    C       -1.04696         0.68539        -0.06083
|  9>    C        0.32019         1.25067        -0.22076
| 10>    C       -2.40905         1.09294        -0.04801
| 11>    C       -3.19465        -0.00277         0.16944
| 12>    C       -2.32775        -1.23424         0.31025
| 13>    C       -4.62554        -0.00592         0.25880
| 14>    C       -5.38583        -1.07768         0.48748
| 15>    H        2.24332         0.05162        -0.13411
| 16>    H        0.75843        -2.07934         0.27459
| 17>    H        0.55714         1.99464         0.54273
| 18>    H        0.46724         1.72477        -1.19343
| 19>    H       -2.76341         2.09974        -0.18527
| 20>    H       -2.56276        -1.97492        -0.45624
| 21>    H       -2.46429        -1.70946         1.28300
| 22>    H       -5.09647         0.96086         0.12569
| 23>    H       -4.96419        -2.05920         0.62420
| 24>    H       -6.45830        -1.00781         0.54234
| 25> *
| 26>
| 27>                          ****END OF INPUT****
 Total Charge           Charge          ....    0
 Multiplicity           Mult            ....    1
 Number of Electrons    NEL             ....   70
Dispersion correction           -0.035838434
FINAL SINGLE POINT ENERGY      -386.771821594229
Dispersion correction            ... done
Dispersion correction           -0.035688755
FINAL SINGLE POINT ENERGY      -386.775404952116
Dispersion correction            ... done
Dispersion correction           -0.035660684
FINAL SINGLE POINT ENERGY      -386.775482091411
Dispersion correction            ... done
FINAL SINGLE POINT ENERGY      -386.775481318351
Dispersion correction            ... done
Dispersion correction           -0.035648256
FINAL SINGLE POINT ENERGY      -386.775475716976
Dispersion correction            ... done
Dispersion correction           -0.035649522
FINAL SINGLE POINT ENERGY      -386.775475391453
Dispersion correction            ... done
                    ***********************HURRAY********************

CARTESIAN COORDINATES (ANGSTROEM)
---------------------------------
  C      1.216824    0.023640   -0.093213
  C      0.447367   -1.075308    0.135399
  C     -0.947042   -0.663105    0.165174
  C     -1.033342    0.687011   -0.048751
  C      0.342706    1.252520   -0.238646
  C     -2.419388    1.097770   -0.019251
  C     -3.211128   -0.002226    0.204443
  C     -2.323353   -1.231935    0.350047
  C     -4.654941   -0.007449    0.277917
  C     -5.441541   -1.088038    0.441052
  H      2.304320    0.046653   -0.174733
  H      0.817600   -2.091947    0.276560
  H      0.595412    2.026868    0.508371
  H      0.475338    1.730208   -1.227360
  H     -2.795528    2.112175   -0.163193
  H     -2.570560   -2.001614   -0.401550
  H     -2.457557   -1.708711    1.337416
  H     -5.130164    0.975640    0.176667
  H     -5.025458   -2.094433    0.542187
  H     -6.529503   -0.996029    0.479894

 Multiplicity           Mult            ....    1
 Number of Electrons    NEL             ....   70
 Basis Dimension        Dim             ....  190

ORBITAL ENERGIES
----------------

  NO   OCC          E(Eh)            E(eV)
   0   2.0000     -10.198725      -277.5214
   1   2.0000     -10.196447      -277.4594
   2   2.0000     -10.189998      -277.2839
   3   2.0000     -10.189892      -277.2811
   4   2.0000     -10.189320      -277.2655
   5   2.0000     -10.187972      -277.2288
   6   2.0000     -10.186490      -277.1885
   7   2.0000     -10.180624      -277.0289
   8   2.0000     -10.179305      -276.9930
   9   2.0000     -10.179181      -276.9896
  10   2.0000      -0.875973       -23.8364
  11   2.0000      -0.814186       -22.1551
  12   2.0000      -0.755142       -20.5484
  13   2.0000      -0.719852       -19.5882
  14   2.0000      -0.674071       -18.3424
  15   2.0000      -0.665790       -18.1171
  16   2.0000      -0.592674       -16.1275
  17   2.0000      -0.549675       -14.9574
  18   2.0000      -0.517437       -14.0802
  19   2.0000      -0.507873       -13.8199
  20   2.0000      -0.495194       -13.4749
  21   2.0000      -0.453768       -12.3477
  22   2.0000      -0.451306       -12.2807
  23   2.0000      -0.426052       -11.5935
  24   2.0000      -0.425390       -11.5755
  25   2.0000      -0.385979       -10.5030
  26   2.0000      -0.379869       -10.3368
  27   2.0000      -0.373653       -10.1676
  28   2.0000      -0.360206        -9.8017
  29   2.0000      -0.348019        -9.4701
  30   2.0000      -0.337029        -9.1710
  31   2.0000      -0.314916        -8.5693
  32   2.0000      -0.301095        -8.1932
  33   2.0000      -0.261796        -7.1238
  34   2.0000      -0.185402        -5.0450
  35   0.0000      -0.053387        -1.4527
  36   0.0000       0.005877         0.1599
  37   0.0000       0.056276         1.5314
  38   0.0000       0.074315         2.0222
  39   0.0000       0.076991         2.0950

MULLIKEN ATOMIC CHARGES
-----------------------
   0 C :   -0.110968
   1 C :    0.030932
   2 C :   -0.144882
   3 C :   -0.105213
   4 C :    0.206514
   5 C :   -0.031156
   6 C :   -0.109374
   7 C :    0.252878
   8 C :    0.019065
   9 C :   -0.050067
  10 H :   -0.009726
  11 H :   -0.031214
  12 H :    0.031837
  13 H :    0.028943
  14 H :   -0.037055
  15 H :    0.030113
  16 H :    0.027253
  17 H :   -0.026982
  18 H :    0.008397
  19 H :    0.020707
Sum of atomic charges:   -0.0000000

LOEWDIN ATOMIC CHARGES
----------------------
   0 C :   -0.035336
   1 C :   -0.029901
   2 C :   -0.033500
   3 C :   -0.042536
   4 C :   -0.022094
   5 C :   -0.020155
   6 C :   -0.035050
   7 C :   -0.014191
   8 C :   -0.029009
   9 C :   -0.070591
  10 H :    0.019318
  11 H :    0.021996
  12 H :    0.050468
  13 H :    0.050677
  14 H :    0.020900
  15 H :    0.050405
  16 H :    0.050769
  17 H :    0.027234
  18 H :    0.017257
  19 H :    0.023338

  Mayer bond orders larger than 0.100000
B(  0-C ,  1-C ) :   1.7014 B(  0-C ,  4-C ) :   1.0398 B(  0-C , 10-H ) :   0.9855
B(  1-C ,  2-C ) :   1.1030 B(  1-C , 11-H ) :   1.0082 B(  2-C ,  3-C ) :   1.6904
B(  2-C ,  7-C ) :   1.0234 B(  3-C ,  4-C ) :   1.0375 B(  3-C ,  5-C ) :   1.0890
B(  4-C , 12-H ) :   0.8853 B(  4-C , 13-H ) :   0.8837 B(  5-C ,  6-C ) :   1.5917
B(  5-C ,  9-C ) :   0.1036 B(  5-C , 14-H ) :   1.0102 B(  6-C ,  7-C ) :   1.0421
B(  6-C ,  8-C ) :   1.1484 B(  7-C , 15-H ) :   0.8709 B(  7-C , 16-H ) :   0.8700
B(  8-C ,  9-C ) :   1.8632 B(  8-C , 17-H ) :   0.9575 B(  9-C , 18-H ) :   0.9466
B(  9-C , 19-H ) :   0.9457

Dispersion correction           -0.035650348
FINAL SINGLE POINT ENERGY      -386.775476771171

DIPOLE MOMENT
-------------
                                X             Y             Z
Electronic contribution:      2.25858       0.95123      -0.19311
Nuclear contribution   :     -1.98404      -0.86041       0.15587
                        -----------------------------------------
Total Dipole Moment    :      0.27454       0.09083      -0.03724
                        -----------------------------------------
Magnitude (a.u.)       :      0.29157
Magnitude (Debye)      :      0.74110

Rotational constants in cm-1:     0.145265     0.026935     0.022920
Rotational constants in MHz :  4354.929585   807.484328   687.113811

                             ****ORCA TERMINATED NORMALLY****
TOTAL RUN TIME: 0 days 0 hours 7 minutes 35 seconds 465 msec
