                         Program Version 4.2.0 -  RELEASE  -
|  1> # ORCA input file
|  2> # SCF done        -19.163988001884          0.000761492625
|  3> ! B3LYP/G D3BJ Opt RIJCOSX def2-SVP def2/J
|  4> * xyz 0 1
|  5>    C        0.55275        -1.03676         0.01052
|  6>    O        1.81481        -0.60553        -0.00370
|  7>    C        1.78351         0.73872        -0.01059
|  8>    C        0.50473         1.19443        -0.00245
|  9>    C       -0.31519         0.02618         0.01377
| 10>    C       -1.71823        -0.02089         0.02702
| 11>    N       -2.86408        -0.04393         0.04040
| 12>    H        0.37604        -2.09423         0.01776
| 13>    H        2.72352         1.25341        -0.02242
| 14>    H        0.16701         2.20989        -0.00596
| 15> *
| 16>
| 17>                          ****END OF INPUT****
 Total Charge           Charge          ....    0
 Multiplicity           Mult            ....    1
 Number of Electrons    NEL             ....   48
Dispersion correction           -0.015125407
FINAL SINGLE POINT ENERGY      -322.041679164120
Dispersion correction            ... done
Dispersion correction           -0.015130125
FINAL SINGLE POINT ENERGY      -322.043649729807
Dispersion correction            ... done
Dispersion correction           -0.015130287
FINAL SINGLE POINT ENERGY      -322.043733313651
Dispersion correction            ... done
FINAL SINGLE POINT ENERGY      -322.043766116989
Dispersion correction            ... done
Dispersion correction           -0.015130323
FINAL SINGLE POINT ENERGY      -322.043773190095
Dispersion correction            ... done
Dispersion correction           -0.015130711
FINAL SINGLE POINT ENERGY      -322.043775049973
Dispersion correction            ... done
                    ***********************HURRAY********************

CARTESIAN COORDINATES (ANGSTROEM)
---------------------------------
  C      0.543349   -1.042529    0.010841
  O      1.815416   -0.608432   -0.003947
  C      1.795768    0.753601   -0.011425
  C      0.512269    1.209181   -0.001636
  C     -0.318383    0.028682    0.012950
  C     -1.739918   -0.028092    0.026727
  N     -2.900251   -0.063825    0.040125
  H      0.381986   -2.116902    0.019200
  H      2.762864    1.248264   -0.023932
  H      0.171771    2.241342   -0.004552

 Multiplicity           Mult            ....    1
 Number of Electrons    NEL             ....   48
 Basis Dimension        Dim             ....  113

ORBITAL ENERGIES
----------------

  NO   OCC          E(Eh)            E(eV)
   0   2.0000     -19.236203      -523.4437
   1   2.0000     -14.331880      -389.9903
   2   2.0000     -10.277573      -279.6670
   3   2.0000     -10.267817      -279.4015
   4   2.0000     -10.242203      -278.7045
   5   2.0000     -10.234956      -278.5073
   6   2.0000     -10.222188      -278.1599
   7   2.0000      -1.140812       -31.0431
   8   2.0000      -0.902105       -24.5475
   9   2.0000      -0.834441       -22.7063
  10   2.0000      -0.778915       -21.1953
  11   2.0000      -0.667306       -18.1583
  12   2.0000      -0.609255       -16.5787
  13   2.0000      -0.588401       -16.0112
  14   2.0000      -0.499004       -13.5786
  15   2.0000      -0.490654       -13.3514
  16   2.0000      -0.465011       -12.6536
  17   2.0000      -0.445277       -12.1166
  18   2.0000      -0.413236       -11.2447
  19   2.0000      -0.380419       -10.3517
  20   2.0000      -0.364154        -9.9091
  21   2.0000      -0.340024        -9.2525
  22   2.0000      -0.301705        -8.2098
  23   2.0000      -0.264646        -7.2014
  24   0.0000      -0.041430        -1.1274
  25   0.0000      -0.000451        -0.0123
  26   0.0000       0.021211         0.5772
  27   0.0000       0.065803         1.7906
  28   0.0000       0.090192         2.4543

MULLIKEN ATOMIC CHARGES
-----------------------
   0 C :    0.132240
   1 O :   -0.189881
   2 C :    0.146619
   3 C :    0.008540
   4 C :   -0.136893
   5 C :   -0.104037
   6 N :    0.084403
   7 H :    0.028633
   8 H :    0.024898
   9 H :    0.005478
Sum of atomic charges:   -0.0000000

LOEWDIN ATOMIC CHARGES
----------------------
   0 C :    0.072029
   1 O :    0.023035
   2 C :    0.045458
   3 C :   -0.044530
   4 C :   -0.113403
   5 C :   -0.028962
   6 N :   -0.062301
   7 H :    0.035754
   8 H :    0.030564
   9 H :    0.042355

  Mayer bond orders larger than 0.100000
B(  0-C ,  1-O ) :   1.1822 B(  0-C ,  4-C ) :   1.5071 B(  0-C ,  7-H ) :   1.0102
B(  1-O ,  2-C ) :   1.1176 B(  2-C ,  3-C ) :   1.5635 B(  2-C ,  8-H ) :   0.9942
B(  3-C ,  4-C ) :   1.2205 B(  3-C ,  9-H ) :   1.0124 B(  4-C ,  5-C ) :   1.1164
B(  5-C ,  6-N ) :   3.0101

Dispersion correction           -0.015131014
FINAL SINGLE POINT ENERGY      -322.043775613794

DIPOLE MOMENT
-------------
                                X             Y             Z
Electronic contribution:     -1.58098      -1.05506       0.02058
Nuclear contribution   :      3.08317       1.22320      -0.03716
                        -----------------------------------------
Total Dipole Moment    :      1.50219       0.16813      -0.01658
                        -----------------------------------------
Magnitude (a.u.)       :      1.51166
Magnitude (Debye)      :      3.84232

Rotational constants in cm-1:     0.309783     0.064447     0.053349
Rotational constants in MHz :  9287.060437  1932.076828  1599.349082

                             ****ORCA TERMINATED NORMALLY****
TOTAL RUN TIME: 0 days 0 hours 2 minutes 47 seconds 614 msec
