                         Program Version 4.2.0 -  RELEASE  -
|  1> # ORCA input file
|  2> # SCF done        -22.271448039591          0.000483749438
|  3> ! B3LYP/G D3BJ Opt RIJCOSX def2-SVP def2/J
|  4> * xyz 0 1
|  5>    C        0.24067        -1.05471         0.16152
|  6>    C        1.17624        -0.07725         0.01502
|  7>    C        2.64464        -0.31621        -0.11145
|  8>    C        0.58702         1.20900         0.00218
|  9>    C       -0.77447         1.19700         0.13759
| 10>    S       -1.35827        -0.43655         0.28622
| 11>    C       -1.65557         2.33324         0.16453
| 12>    C       -2.97640         2.27290         0.30044
| 13>    H        0.39524        -2.11495         0.20483
| 14>    H        2.85983        -1.38138        -0.12943
| 15>    H        3.17302         0.13380         0.72860
| 16>    H        3.02335         0.13557        -1.02731
| 17>    H        1.15630         2.11596        -0.10458
| 18>    H       -1.15738         3.28996         0.06519
| 19>    H       -3.48669         1.32952         0.40135
| 20>    H       -3.58572         3.15903         0.31417
| 21> *
| 22>
| 23>                          ****END OF INPUT****
 Total Charge           Charge          ....    0
 Multiplicity           Mult            ....    1
 Number of Electrons    NEL             ....   66
Dispersion correction           -0.029613947
FINAL SINGLE POINT ENERGY      -669.449806044857
Dispersion correction            ... done
Dispersion correction           -0.029377296
FINAL SINGLE POINT ENERGY      -669.452518385025
Dispersion correction            ... done
Dispersion correction           -0.029329733
FINAL SINGLE POINT ENERGY      -669.452613229624
Dispersion correction            ... done
FINAL SINGLE POINT ENERGY      -669.452621089267
FINAL SINGLE POINT ENERGY      -669.452600078151
FINAL SINGLE POINT ENERGY      -669.452605771357
FINAL SINGLE POINT ENERGY      -669.452595240974
FINAL SINGLE POINT ENERGY      -669.452578967311
Dispersion correction            ... done
Dispersion correction           -0.029324156
FINAL SINGLE POINT ENERGY      -669.452569062385
Dispersion correction            ... done
Dispersion correction           -0.029320900
FINAL SINGLE POINT ENERGY      -669.452565693329
Dispersion correction            ... done
                    ***********************HURRAY********************

CARTESIAN COORDINATES (ANGSTROEM)
---------------------------------
  C      0.251792   -1.089698    0.134102
  C      1.192006   -0.092878    0.021806
  C      2.670104   -0.319749   -0.113861
  C      0.578715    1.199400    0.032161
  C     -0.795921    1.173908    0.150458
  S     -1.364328   -0.477142    0.253080
  C     -1.681614    2.325063    0.187092
  C     -3.019339    2.315140    0.296510
  H      0.430807   -2.164569    0.155430
  H      2.928832   -1.380776    0.013481
  H      3.235466    0.259251    0.633372
  H      3.032637    0.001373   -1.105621
  H      1.137942    2.133608   -0.049708
  H     -1.160528    3.286186    0.111098
  H     -3.583768    1.380852    0.374992
  H     -3.590992    3.244960    0.314477

 Multiplicity           Mult            ....    1
 Number of Electrons    NEL             ....   66
 Basis Dimension        Dim             ....  156

ORBITAL ENERGIES
----------------

  NO   OCC          E(Eh)            E(eV)
   0   2.0000     -88.867255     -2418.2010
   1   2.0000     -10.214474      -277.9500
   2   2.0000     -10.207106      -277.7495
   3   2.0000     -10.202071      -277.6125
   4   2.0000     -10.196636      -277.4646
   5   2.0000     -10.192704      -277.3576
   6   2.0000     -10.189624      -277.2738
   7   2.0000     -10.188077      -277.2317
   8   2.0000      -7.962489      -216.6703
   9   2.0000      -5.930605      -161.3800
  10   2.0000      -5.926630      -161.2718
  11   2.0000      -5.923677      -161.1914
  12   2.0000      -0.877537       -23.8790
  13   2.0000      -0.786150       -21.3922
  14   2.0000      -0.752155       -20.4672
  15   2.0000      -0.714436       -19.4408
  16   2.0000      -0.664521       -18.0825
  17   2.0000      -0.603303       -16.4167
  18   2.0000      -0.542571       -14.7641
  19   2.0000      -0.523929       -14.2568
  20   2.0000      -0.494231       -13.4487
  21   2.0000      -0.445249       -12.1158
  22   2.0000      -0.424325       -11.5465
  23   2.0000      -0.423712       -11.5298
  24   2.0000      -0.417718       -11.3667
  25   2.0000      -0.382704       -10.4139
  26   2.0000      -0.376330       -10.2405
  27   2.0000      -0.369235       -10.0474
  28   2.0000      -0.362638        -9.8679
  29   2.0000      -0.335736        -9.1358
  30   2.0000      -0.299729        -8.1560
  31   2.0000      -0.247036        -6.7222
  32   2.0000      -0.215790        -5.8719
  33   0.0000      -0.043426        -1.1817
  34   0.0000       0.035453         0.9647
  35   0.0000       0.038874         1.0578
  36   0.0000       0.067855         1.8464
  37   0.0000       0.073718         2.0060

MULLIKEN ATOMIC CHARGES
-----------------------
   0 C :   -0.126024
   1 C :   -0.041054
   2 C :    0.109156
   3 C :   -0.000585
   4 C :   -0.088861
   5 S :    0.091473
   6 C :    0.023925
   7 C :   -0.036839
   8 H :    0.016581
   9 H :    0.005376
  10 H :    0.019738
  11 H :    0.022060
  12 H :   -0.028690
  13 H :   -0.011466
  14 H :    0.021654
  15 H :    0.023558
Sum of atomic charges:    0.0000000

LOEWDIN ATOMIC CHARGES
----------------------
   0 C :   -0.196201
   1 C :   -0.068001
   2 C :   -0.042431
   3 C :   -0.059801
   4 C :   -0.175161
   5 S :    0.414205
   6 C :   -0.037271
   7 C :   -0.058815
   8 H :    0.022122
   9 H :    0.029507
  10 H :    0.032833
  11 H :    0.033906
  12 H :    0.025449
  13 H :    0.033286
  14 H :    0.019751
  15 H :    0.026624

  Mayer bond orders larger than 0.100000
B(  0-C ,  1-C ) :   1.5688 B(  0-C ,  5-S ) :   1.1387 B(  0-C ,  8-H ) :   0.9656
B(  1-C ,  2-C ) :   1.0836 B(  1-C ,  3-C ) :   1.2402 B(  2-C ,  9-H ) :   0.9568
B(  2-C , 10-H ) :   0.9514 B(  2-C , 11-H ) :   0.9512 B(  3-C ,  4-C ) :   1.4963
B(  3-C , 12-H ) :   0.9973 B(  4-C ,  5-S ) :   1.1237 B(  4-C ,  6-C ) :   1.1317
B(  6-C ,  7-C ) :   1.9064 B(  6-C , 13-H ) :   0.9588 B(  7-C , 14-H ) :   0.9512
B(  7-C , 15-H ) :   0.9448

Dispersion correction           -0.029319605
FINAL SINGLE POINT ENERGY      -669.452566183279

DIPOLE MOMENT
-------------
                                X             Y             Z
Electronic contribution:     -4.98323      -2.84118       0.57031
Nuclear contribution   :      5.38667       2.88262      -0.61514
                        -----------------------------------------
Total Dipole Moment    :      0.40344       0.04144      -0.04483
                        -----------------------------------------
Magnitude (a.u.)       :      0.40804
Magnitude (Debye)      :      1.03714

Rotational constants in cm-1:     0.133068     0.039462     0.030611
Rotational constants in MHz :  3989.268111  1183.037797   917.689570

                             ****ORCA TERMINATED NORMALLY****
TOTAL RUN TIME: 0 days 0 hours 7 minutes 41 seconds 766 msec
