                         Program Version 4.2.0 -  RELEASE  -
|  1> # ORCA input file
|  2> # SCF done        -21.893124630641          0.000808130022
|  3> ! B3LYP/G D3BJ Opt RIJCOSX def2-SVP def2/J
|  4> * xyz 0 1
|  5>    C        0.66198        -1.30137         0.03021
|  6>    C        1.85435        -0.72590         0.01764
|  7>    C        1.84732         0.73763        -0.01463
|  8>    C        0.64956         1.30171        -0.02740
|  9>    S       -0.59369        -0.00580         0.00117
| 10>    O       -1.33395        -0.03666        -1.22845
| 11>    O       -1.33487         0.01798         1.23039
| 12>    H        0.40776        -2.34059         0.05304
| 13>    H        2.79629        -1.25176         0.02933
| 14>    H        2.78424         1.27245        -0.02616
| 15>    H        0.38544         2.33846        -0.05027
| 16> *
| 17>
| 18>                          ****END OF INPUT****
 Total Charge           Charge          ....    0
 Multiplicity           Mult            ....    1
 Number of Electrons    NEL             ....   60
Dispersion correction           -0.021290357
FINAL SINGLE POINT ENERGY      -703.011827313581
Dispersion correction            ... done
Dispersion correction           -0.021220549
FINAL SINGLE POINT ENERGY      -703.015578323764
Dispersion correction            ... done
Dispersion correction           -0.021204035
FINAL SINGLE POINT ENERGY      -703.016199972988
Dispersion correction            ... done
FINAL SINGLE POINT ENERGY      -703.016263702382
FINAL SINGLE POINT ENERGY      -703.016275674544
Dispersion correction            ... done
Dispersion correction           -0.021218746
FINAL SINGLE POINT ENERGY      -703.016272782257
Dispersion correction            ... done
Dispersion correction           -0.021219432
FINAL SINGLE POINT ENERGY      -703.016265127706
Dispersion correction            ... done
                    ***********************HURRAY********************

CARTESIAN COORDINATES (ANGSTROEM)
---------------------------------
  C      0.663577   -1.293458    0.033166
  C      1.880542   -0.736013    0.016186
  C      1.873460    0.748131   -0.013028
  C      0.651239    1.294011   -0.030799
  S     -0.599996   -0.005881    0.001116
  O     -1.334493   -0.059600   -1.265630
  O     -1.334937    0.040229    1.267894
  H      0.365490   -2.340982    0.045786
  H      2.814120   -1.301820    0.019890
  H      2.801674    1.322701   -0.016195
  H      0.343755    2.338831   -0.043516

 Multiplicity           Mult            ....    1
 Number of Electrons    NEL             ....   60
 Basis Dimension        Dim             ....  122

ORBITAL ENERGIES
----------------

  NO   OCC          E(Eh)            E(eV)
   0   2.0000     -89.064382     -2423.5650
   1   2.0000     -19.127553      -520.4872
   2   2.0000     -19.127469      -520.4849
   3   2.0000     -10.243684      -278.7448
   4   2.0000     -10.243622      -278.7431
   5   2.0000     -10.236410      -278.5469
   6   2.0000     -10.236391      -278.5464
   7   2.0000      -8.129958      -221.2274
   8   2.0000      -6.097689      -165.9266
   9   2.0000      -6.097564      -165.9232
  10   2.0000      -6.097015      -165.9082
  11   2.0000      -1.101907       -29.9844
  12   2.0000      -0.990688       -26.9580
  13   2.0000      -0.882441       -24.0124
  14   2.0000      -0.763255       -20.7692
  15   2.0000      -0.711430       -19.3590
  16   2.0000      -0.595906       -16.2154
  17   2.0000      -0.588700       -16.0194
  18   2.0000      -0.541674       -14.7397
  19   2.0000      -0.471477       -12.8296
  20   2.0000      -0.470329       -12.7983
  21   2.0000      -0.459872       -12.5137
  22   2.0000      -0.454130       -12.3575
  23   2.0000      -0.429075       -11.6757
  24   2.0000      -0.382258       -10.4018
  25   2.0000      -0.337014        -9.1706
  26   2.0000      -0.330408        -8.9909
  27   2.0000      -0.302665        -8.2359
  28   2.0000      -0.298822        -8.1314
  29   2.0000      -0.272122        -7.4048
  30   0.0000      -0.096044        -2.6135
  31   0.0000       0.027344         0.7441
  32   0.0000       0.035497         0.9659
  33   0.0000       0.061553         1.6749
  34   0.0000       0.064300         1.7497

MULLIKEN ATOMIC CHARGES
-----------------------
   0 C :   -0.030475
   1 C :    0.034741
   2 C :    0.034336
   3 C :   -0.030014
   4 S :    0.743184
   5 O :   -0.461934
   6 O :   -0.461924
   7 H :    0.060795
   8 H :    0.025295
   9 H :    0.025467
  10 H :    0.060528
Sum of atomic charges:   -0.0000000

LOEWDIN ATOMIC CHARGES
----------------------
   0 C :   -0.147062
   1 C :   -0.020682
   2 C :   -0.020703
   3 C :   -0.147025
   4 S :    1.166634
   5 O :   -0.496314
   6 O :   -0.496312
   7 H :    0.040702
   8 H :    0.040034
   9 H :    0.040064
  10 H :    0.040663

  Mayer bond orders larger than 0.100000
B(  0-C ,  1-C ) :   1.7746 B(  0-C ,  4-S ) :   0.8244 B(  0-C ,  7-H ) :   0.9669
B(  1-C ,  2-C ) :   1.0668 B(  1-C ,  8-H ) :   0.9887 B(  2-C ,  3-C ) :   1.7747
B(  2-C ,  9-H ) :   0.9887 B(  3-C ,  4-S ) :   0.8242 B(  3-C , 10-H ) :   0.9670
B(  4-S ,  5-O ) :   1.6567 B(  4-S ,  6-O ) :   1.6567

Dispersion correction           -0.021218802
FINAL SINGLE POINT ENERGY      -703.016257696916

DIPOLE MOMENT
-------------
                                X             Y             Z
Electronic contribution:     -3.87382      -0.01875      -0.00072
Nuclear contribution   :      5.74018       0.02804       0.00093
                        -----------------------------------------
Total Dipole Moment    :      1.86635       0.00929       0.00021
                        -----------------------------------------
Magnitude (a.u.)       :      1.86638
Magnitude (Debye)      :      4.74395

Rotational constants in cm-1:     0.141178     0.073029     0.068109
Rotational constants in MHz :  4232.413790  2189.360471  2041.852322

                             ****ORCA TERMINATED NORMALLY****
TOTAL RUN TIME: 0 days 0 hours 3 minutes 28 seconds 312 msec
