                         Program Version 4.2.0 -  RELEASE  -
|  1> # ORCA input file
|  2> # SCF done        -21.422869599090          0.000507290788
|  3> ! B3LYP/G D3BJ Opt RIJCOSX def2-SVP def2/J
|  4> * xyz 0 1
|  5>    C        1.17333         0.28738        -0.00563
|  6>    C        0.69127        -0.97155        -0.02222
|  7>    C       -0.73974        -0.90121        -0.02624
|  8>    C       -1.12692         0.40885        -0.01191
|  9>    C        0.06070         1.29811         0.00205
| 10>    N       -2.50008         0.56820        -0.01371
| 11>    C       -2.99909        -0.61504        -0.02951
| 12>    C       -1.97469        -1.72828        -0.04035
| 13>    H        2.20930         0.57445         0.00165
| 14>    H        1.26869        -1.87895        -0.03066
| 15>    H        0.09677         1.93508         0.88731
| 16>    H        0.10261         1.95329        -0.86974
| 17>    H       -4.06310        -0.77369        -0.03432
| 18>    H       -2.07553        -2.34840        -0.93240
| 19>    H       -2.08103        -2.37454         0.83198
| 20> *
| 21>
| 22>                          ****END OF INPUT****
 Total Charge           Charge          ....    0
 Multiplicity           Mult            ....    1
 Number of Electrons    NEL             ....   56
Dispersion correction           -0.024891326
FINAL SINGLE POINT ENERGY      -325.434746656920
Dispersion correction            ... done
Dispersion correction           -0.024919093
FINAL SINGLE POINT ENERGY      -325.437464041903
Dispersion correction            ... done
Dispersion correction           -0.024907390
FINAL SINGLE POINT ENERGY      -325.437564702555
Dispersion correction            ... done
Dispersion correction           -0.024894520
FINAL SINGLE POINT ENERGY      -325.437595437584
Dispersion correction            ... done
Dispersion correction           -0.024889737
FINAL SINGLE POINT ENERGY      -325.437601632786
Dispersion correction            ... done
                    ***********************HURRAY********************

CARTESIAN COORDINATES (ANGSTROEM)
---------------------------------
  C      1.202191    0.296120   -0.005661
  C      0.717355   -0.975960   -0.021892
  C     -0.738071   -0.906993   -0.025808
  C     -1.128311    0.399163   -0.011385
  C      0.065408    1.299674    0.002235
  N     -2.520539    0.579142   -0.013433
  C     -3.026513   -0.612569   -0.029901
  C     -1.988591   -1.727846   -0.040635
  H      2.254052    0.586157    0.000633
  H      1.317687   -1.886779   -0.030722
  H      0.100738    1.953985    0.892794
  H      0.105981    1.973039   -0.873924
  H     -4.108391   -0.785031   -0.035636
  H     -2.101930   -2.366862   -0.935435
  H     -2.108574   -2.391539    0.835071

 Multiplicity           Mult            ....    1
 Number of Electrons    NEL             ....   56
 Basis Dimension        Dim             ....  147

ORBITAL ENERGIES
----------------

  NO   OCC          E(Eh)            E(eV)
   0   2.0000     -14.320970      -389.6934
   1   2.0000     -10.224335      -278.2183
   2   2.0000     -10.208035      -277.7748
   3   2.0000     -10.199223      -277.5350
   4   2.0000     -10.198525      -277.5160
   5   2.0000     -10.194781      -277.4141
   6   2.0000     -10.189444      -277.2689
   7   2.0000     -10.183014      -277.0939
   8   2.0000      -0.945962       -25.7409
   9   2.0000      -0.840119       -22.8608
  10   2.0000      -0.754501       -20.5310
  11   2.0000      -0.694426       -18.8963
  12   2.0000      -0.678779       -18.4705
  13   2.0000      -0.580572       -15.7982
  14   2.0000      -0.550695       -14.9852
  15   2.0000      -0.518271       -14.1029
  16   2.0000      -0.484333       -13.1794
  17   2.0000      -0.462940       -12.5972
  18   2.0000      -0.441988       -12.0271
  19   2.0000      -0.430596       -11.7171
  20   2.0000      -0.405852       -11.0438
  21   2.0000      -0.383511       -10.4359
  22   2.0000      -0.366115        -9.9625
  23   2.0000      -0.351201        -9.5567
  24   2.0000      -0.338616        -9.2142
  25   2.0000      -0.298421        -8.1204
  26   2.0000      -0.264801        -7.2056
  27   2.0000      -0.206246        -5.6122
  28   0.0000      -0.046791        -1.2733
  29   0.0000       0.011088         0.3017
  30   0.0000       0.073024         1.9871
  31   0.0000       0.080457         2.1893
  32   0.0000       0.081478         2.2171

MULLIKEN ATOMIC CHARGES
-----------------------
   0 C :   -0.118532
   1 C :    0.024198
   2 C :   -0.092704
   3 C :   -0.141883
   4 C :    0.183519
   5 N :   -0.097893
   6 C :   -0.024781
   7 C :    0.127165
   8 H :   -0.007639
   9 H :   -0.024447
  10 H :    0.039332
  11 H :    0.039904
  12 H :    0.006703
  13 H :    0.043331
  14 H :    0.043725
Sum of atomic charges:   -0.0000000

LOEWDIN ATOMIC CHARGES
----------------------
   0 C :   -0.032216
   1 C :   -0.030104
   2 C :   -0.061946
   3 C :   -0.026484
   4 C :   -0.025860
   5 N :   -0.083362
   6 C :    0.025740
   7 C :   -0.044357
   8 H :    0.019737
   9 H :    0.022738
  10 H :    0.054698
  11 H :    0.054862
  12 H :    0.015304
  13 H :    0.055673
  14 H :    0.055579

  Mayer bond orders larger than 0.100000
B(  0-C ,  1-C ) :   1.7239 B(  0-C ,  4-C ) :   1.0333 B(  0-C ,  8-H ) :   0.9832
B(  1-C ,  2-C ) :   1.0930 B(  1-C ,  9-H ) :   1.0062 B(  2-C ,  3-C ) :   1.6828
B(  2-C ,  7-C ) :   1.0489 B(  3-C ,  4-C ) :   1.0775 B(  3-C ,  5-N ) :   1.1937
B(  4-C , 10-H ) :   0.8855 B(  4-C , 11-H ) :   0.8857 B(  5-N ,  6-C ) :   1.8541
B(  6-C ,  7-C ) :   1.0010 B(  6-C , 12-H ) :   0.9757 B(  7-C , 13-H ) :   0.8858
B(  7-C , 14-H ) :   0.8862

Dispersion correction           -0.024888810
FINAL SINGLE POINT ENERGY      -325.437603308069

DIPOLE MOMENT
-------------
                                X             Y             Z
Electronic contribution:     -1.59061       0.73115       0.00864
Nuclear contribution   :      1.89618      -1.38358      -0.01725
                        -----------------------------------------
Total Dipole Moment    :      0.30557      -0.65244      -0.00862
                        -----------------------------------------
Magnitude (a.u.)       :      0.72050
Magnitude (Debye)      :      1.83136

Rotational constants in cm-1:     0.163828     0.068947     0.049422
Rotational constants in MHz :  4911.451625  2066.973241  1481.646113

                             ****ORCA TERMINATED NORMALLY****
TOTAL RUN TIME: 0 days 0 hours 3 minutes 3 seconds 672 msec
