                         Program Version 4.2.0 -  RELEASE  -
|  1> # ORCA input file
|  2> # SCF done        -23.567118544345          0.000918953880
|  3> ! B3LYP/G D3BJ Opt RIJCOSX def2-SVP def2/J
|  4> * xyz 0 1
|  5>    C        1.14350         1.15644        -0.11840
|  6>    C       -0.22379         1.73313         0.13572
|  7>    N       -1.16023         0.82774         0.26535
|  8>    C       -0.50759        -0.36358         0.11197
|  9>    C       -0.53137        -1.71762         0.05786
| 10>    S        1.21321        -1.94457        -0.24151
| 11>    C        0.91652        -0.15210        -0.12081
| 12>    C       -0.45717         3.14778         0.22203
| 13>    C       -1.65775         3.67510         0.46403
| 14>    H        2.03618         1.73472        -0.25323
| 15>    H       -1.28066        -2.48054         0.14582
| 16>    H        0.41032         3.77858         0.07795
| 17>    H       -2.51136         3.03521         0.60709
| 18>    H       -1.81043         4.73873         0.52452
| 19> *
| 20>
| 21>                          ****END OF INPUT****
 Total Charge           Charge          ....    0
 Multiplicity           Mult            ....    1
 Number of Electrons    NEL             ....   70
Dispersion correction           -0.026856680
FINAL SINGLE POINT ENERGY      -722.236740234893
Dispersion correction            ... done
Dispersion correction           -0.026779585
FINAL SINGLE POINT ENERGY      -722.239790248578
Dispersion correction            ... done
Dispersion correction           -0.026753957
FINAL SINGLE POINT ENERGY      -722.240176721128
Dispersion correction            ... done
FINAL SINGLE POINT ENERGY      -722.240306825384
FINAL SINGLE POINT ENERGY      -722.240344250540
Dispersion correction            ... done
Dispersion correction           -0.026765960
FINAL SINGLE POINT ENERGY      -722.240348060143
Dispersion correction            ... done
Dispersion correction           -0.026770353
FINAL SINGLE POINT ENERGY      -722.240350160469
Dispersion correction            ... done
                    ***********************HURRAY********************

CARTESIAN COORDINATES (ANGSTROEM)
---------------------------------
  C      1.155214    1.147647   -0.132174
  C     -0.220841    1.725664    0.160949
  N     -1.163402    0.816964    0.306339
  C     -0.486721   -0.376066    0.119949
  C     -0.542977   -1.732995    0.068407
  S      1.252557   -1.966344   -0.304054
  C      0.925109   -0.177069   -0.152059
  C     -0.461059    3.160821    0.257664
  C     -1.677731    3.699975    0.443723
  H      2.061105    1.732457   -0.287612
  H     -1.306709   -2.502460    0.191717
  H      0.418824    3.804316    0.158216
  H     -2.554265    3.054634    0.538923
  H     -1.819724    4.781478    0.508403

 Multiplicity           Mult            ....    1
 Number of Electrons    NEL             ....   70
 Basis Dimension        Dim             ....  155

ORBITAL ENERGIES
----------------

  NO   OCC          E(Eh)            E(eV)
   0   2.0000     -88.870909     -2418.3004
   1   2.0000     -14.319856      -389.6631
   2   2.0000     -10.251962      -278.9701
   3   2.0000     -10.245636      -278.7979
   4   2.0000     -10.224865      -278.2327
   5   2.0000     -10.224595      -278.2254
   6   2.0000     -10.213872      -277.9336
   7   2.0000     -10.206595      -277.7356
   8   2.0000     -10.205411      -277.7033
   9   2.0000      -7.964304      -216.7197
  10   2.0000      -5.933846      -161.4682
  11   2.0000      -5.930668      -161.3817
  12   2.0000      -5.921887      -161.1427
  13   2.0000      -0.964062       -26.2335
  14   2.0000      -0.865140       -23.5417
  15   2.0000      -0.784351       -21.3433
  16   2.0000      -0.761394       -20.7186
  17   2.0000      -0.680231       -18.5100
  18   2.0000      -0.654376       -17.8065
  19   2.0000      -0.591855       -16.1052
  20   2.0000      -0.552383       -15.0311
  21   2.0000      -0.517030       -14.0691
  22   2.0000      -0.506503       -13.7827
  23   2.0000      -0.463153       -12.6030
  24   2.0000      -0.440334       -11.9821
  25   2.0000      -0.432037       -11.7563
  26   2.0000      -0.407182       -11.0800
  27   2.0000      -0.395305       -10.7568
  28   2.0000      -0.369787       -10.0624
  29   2.0000      -0.347822        -9.4647
  30   2.0000      -0.338617        -9.2142
  31   2.0000      -0.283657        -7.7187
  32   2.0000      -0.274061        -7.4576
  33   2.0000      -0.272303        -7.4097
  34   2.0000      -0.210386        -5.7249
  35   0.0000      -0.105726        -2.8770
  36   0.0000      -0.014045        -0.3822
  37   0.0000      -0.013446        -0.3659
  38   0.0000       0.043223         1.1762
  39   0.0000       0.072035         1.9602

MULLIKEN ATOMIC CHARGES
-----------------------
   0 C :   -0.158779
   1 C :   -0.017880
   2 N :   -0.110013
   3 C :    0.190041
   4 C :   -0.157398
   5 S :    0.040667
   6 C :    0.097184
   7 C :   -0.006526
   8 C :    0.030027
   9 H :   -0.004663
  10 H :    0.033823
  11 H :   -0.011830
  12 H :    0.044763
  13 H :    0.030584
Sum of atomic charges:   -0.0000000

LOEWDIN ATOMIC CHARGES
----------------------
   0 C :   -0.059977
   1 C :    0.039067
   2 N :   -0.123664
   3 C :   -0.057580
   4 C :   -0.055825
   5 S :    0.254290
   6 C :   -0.112335
   7 C :   -0.048854
   8 C :    0.015623
   9 H :    0.028339
  10 H :    0.027069
  11 H :    0.029417
  12 H :    0.035280
  13 H :    0.029149

  Mayer bond orders larger than 0.100000
B(  0-C ,  1-C ) :   0.9809 B(  0-C ,  4-C ) :   0.1010 B(  0-C ,  6-C ) :   1.7554
B(  0-C ,  9-H ) :   0.9971 B(  1-C ,  2-N ) :   1.7170 B(  1-C ,  4-C ) :   0.1099
B(  1-C ,  7-C ) :   1.0996 B(  2-N ,  3-C ) :   1.2110 B(  3-C ,  4-C ) :   1.5228
B(  3-C ,  6-C ) :   1.0633 B(  4-C ,  5-S ) :   0.9724 B(  4-C , 10-H ) :   1.0018
B(  5-S ,  6-C ) :   0.9242 B(  7-C ,  8-C ) :   1.9038 B(  7-C , 11-H ) :   0.9547
B(  8-C , 12-H ) :   0.9430 B(  8-C , 13-H ) :   0.9434

Dispersion correction           -0.026772654
FINAL SINGLE POINT ENERGY      -722.240350978180

DIPOLE MOMENT
-------------
                                X             Y             Z
Electronic contribution:      3.40348      -8.24736      -0.91889
Nuclear contribution   :     -3.21516       8.57431       0.88348
                        -----------------------------------------
Total Dipole Moment    :      0.18832       0.32694      -0.03542
                        -----------------------------------------
Magnitude (a.u.)       :      0.37896
Magnitude (Debye)      :      0.96324

Rotational constants in cm-1:     0.181639     0.027309     0.023745
Rotational constants in MHz :  5445.385764   818.702518   711.848772

                             ****ORCA TERMINATED NORMALLY****
TOTAL RUN TIME: 0 days 0 hours 5 minutes 14 seconds 77 msec
