                         Program Version 4.2.0 -  RELEASE  -
|  1> # ORCA input file
|  2> # SCF done        -23.388511161859          0.000252292586
|  3> ! B3LYP/G D3BJ Opt RIJCOSX def2-SVP def2/J
|  4> * xyz 0 1
|  5>    C       -0.30789         1.08433         0.18137
|  6>    N       -1.08323        -0.03393         0.08387
|  7>    C       -0.30169        -1.11422        -0.12441
|  8>    C        1.01464        -0.69422        -0.16329
|  9>    C        0.99412         0.71433         0.03396
| 10>    C        2.22040        -1.49411        -0.36500
| 11>    O        3.33010        -1.00625        -0.38414
| 12>    C        1.99678        -2.98047        -0.55043
| 13>    H       -0.74337         2.04958         0.34732
| 14>    H       -2.08778        -0.04832         0.15585
| 15>    H       -0.72309        -2.09434        -0.22958
| 16>    H        1.85938         1.34427         0.05771
| 17>    H        1.36679        -3.15390        -1.41986
| 18>    H        1.50027        -3.39153         0.32540
| 19>    H        2.95288        -3.47744        -0.69138
| 20> *
| 21>
| 22>                          ****END OF INPUT****
 Total Charge           Charge          ....    0
 Multiplicity           Mult            ....    1
 Number of Electrons    NEL             ....   58
Dispersion correction           -0.023573907
FINAL SINGLE POINT ENERGY      -362.581578949158
Dispersion correction            ... done
Dispersion correction           -0.023501675
FINAL SINGLE POINT ENERGY      -362.583744207937
Dispersion correction            ... done
Dispersion correction           -0.023484928
FINAL SINGLE POINT ENERGY      -362.583815951957
Dispersion correction            ... done
FINAL SINGLE POINT ENERGY      -362.583775438066
FINAL SINGLE POINT ENERGY      -362.583793714786
FINAL SINGLE POINT ENERGY      -362.583789670122
FINAL SINGLE POINT ENERGY      -362.583757129768
FINAL SINGLE POINT ENERGY      -362.583645042419
Dispersion correction            ... done
Dispersion correction           -0.023475088
FINAL SINGLE POINT ENERGY      -362.583650628481
Dispersion correction            ... done
Dispersion correction           -0.023474346
FINAL SINGLE POINT ENERGY      -362.583652894630
Dispersion correction            ... done
                    ***********************HURRAY********************

CARTESIAN COORDINATES (ANGSTROEM)
---------------------------------
  C     -0.317665    1.121543    0.150967
  N     -1.101645   -0.013285    0.077589
  C     -0.318193   -1.115141   -0.096992
  C      1.007349   -0.690890   -0.138288
  C      0.996227    0.732873    0.024887
  C      2.215379   -1.517403   -0.312863
  O      3.330620   -1.033720   -0.244728
  C      2.018711   -2.999693   -0.583507
  H     -0.766949    2.102522    0.288014
  H     -2.109798   -0.027158    0.161723
  H     -0.749031   -2.110304   -0.172992
  H      1.878929    1.366850    0.035491
  H      1.314971   -3.164528   -1.414283
  H      1.599660   -3.497441    0.306811
  H      2.989747   -3.450445   -0.824439

 Multiplicity           Mult            ....    1
 Number of Electrons    NEL             ....   58
 Basis Dimension        Dim             ....  147

ORBITAL ENERGIES
----------------

  NO   OCC          E(Eh)            E(eV)
   0   2.0000     -19.102710      -519.8112
   1   2.0000     -14.391940      -391.6246
   2   2.0000     -10.259997      -279.1887
   3   2.0000     -10.226992      -278.2906
   4   2.0000     -10.218502      -278.0596
   5   2.0000     -10.183687      -277.1122
   6   2.0000     -10.179077      -276.9868
   7   2.0000     -10.178843      -276.9804
   8   2.0000      -1.010247       -27.4902
   9   2.0000      -0.983500       -26.7624
  10   2.0000      -0.786063       -21.3899
  11   2.0000      -0.742344       -20.2002
  12   2.0000      -0.713591       -19.4178
  13   2.0000      -0.624594       -16.9961
  14   2.0000      -0.585116       -15.9218
  15   2.0000      -0.555878       -15.1262
  16   2.0000      -0.501289       -13.6408
  17   2.0000      -0.460399       -12.5281
  18   2.0000      -0.439888       -11.9700
  19   2.0000      -0.438556       -11.9337
  20   2.0000      -0.425101       -11.5676
  21   2.0000      -0.417828       -11.3697
  22   2.0000      -0.416154       -11.3241
  23   2.0000      -0.381754       -10.3880
  24   2.0000      -0.370537       -10.0828
  25   2.0000      -0.351014        -9.5516
  26   2.0000      -0.256812        -6.9882
  27   2.0000      -0.238705        -6.4955
  28   2.0000      -0.232007        -6.3132
  29   0.0000      -0.028951        -0.7878
  30   0.0000       0.028886         0.7860
  31   0.0000       0.037141         1.0107
  32   0.0000       0.069797         1.8993
  33   0.0000       0.101480         2.7614

MULLIKEN ATOMIC CHARGES
-----------------------
   0 C :    0.053275
   1 N :   -0.060536
   2 C :    0.011778
   3 C :   -0.013058
   4 C :   -0.025294
   5 C :    0.015763
   6 O :   -0.207534
   7 C :    0.031926
   8 H :   -0.001791
   9 H :    0.126018
  10 H :   -0.004149
  11 H :   -0.006879
  12 H :    0.025147
  13 H :    0.030047
  14 H :    0.025285
Sum of atomic charges:    0.0000000

LOEWDIN ATOMIC CHARGES
----------------------
   0 C :   -0.021187
   1 N :    0.090335
   2 C :   -0.005728
   3 C :   -0.117071
   4 C :   -0.044911
   5 C :    0.074008
   6 O :   -0.167728
   7 C :   -0.079020
   8 H :    0.020608
   9 H :    0.089483
  10 H :    0.020682
  11 H :    0.032569
  12 H :    0.033265
  13 H :    0.039212
  14 H :    0.035484

  Mayer bond orders larger than 0.100000
B(  0-C ,  1-N ) :   1.1838 B(  0-C ,  4-C ) :   1.5031 B(  0-C ,  8-H ) :   0.9870
B(  1-N ,  2-C ) :   1.2617 B(  1-N ,  9-H ) :   0.9406 B(  2-C ,  3-C ) :   1.4222
B(  2-C , 10-H ) :   0.9777 B(  3-C ,  4-C ) :   1.2937 B(  3-C ,  5-C ) :   0.9733
B(  4-C , 11-H ) :   1.0126 B(  5-C ,  6-O ) :   2.1643 B(  5-C ,  7-C ) :   1.0538
B(  7-C , 12-H ) :   0.9483 B(  7-C , 13-H ) :   0.9434 B(  7-C , 14-H ) :   0.9501

Dispersion correction           -0.023473756
FINAL SINGLE POINT ENERGY      -362.583642143584

DIPOLE MOMENT
-------------
                                X             Y             Z
Electronic contribution:      0.59147       3.28750       0.62564
Nuclear contribution   :     -2.65603      -3.46914      -0.56043
                        -----------------------------------------
Total Dipole Moment    :     -2.06457      -0.18164       0.06521
                        -----------------------------------------
Magnitude (a.u.)       :      2.07357
Magnitude (Debye)      :      5.27059

Rotational constants in cm-1:     0.160561     0.051239     0.039163
Rotational constants in MHz :  4813.499233  1536.112777  1174.091935

                             ****ORCA TERMINATED NORMALLY****
TOTAL RUN TIME: 0 days 0 hours 6 minutes 7 seconds 3 msec
