                         Program Version 4.2.0 -  RELEASE  -
|  1> # ORCA input file
|  2> # SCF done        -37.139275392769          0.000416610019
|  3> ! B3LYP/G D3BJ Opt RIJCOSX def2-SVP def2/J
|  4> * xyz 0 1
|  5>    C       -1.24095         1.35743        -0.08966
|  6>    S       -2.46810         0.14708        -0.18150
|  7>    C       -0.00869         0.79220        -0.04951
|  8>    C        1.40084         1.21749         0.02751
|  9>    O        1.88511         2.31878         0.08078
| 10>    N        2.12552         0.02905         0.02675
| 11>    C        3.56533        -0.01077         0.09249
| 12>    C        1.34299        -1.12208        -0.04327
| 13>    O        1.77685        -2.24655        -0.05687
| 14>    C       -0.03978        -0.62910        -0.09263
| 15>    C       -1.29831        -1.16126        -0.16623
| 16>    C       -1.66169        -2.54819        -0.22486
| 17>    C       -2.91131        -2.99876        -0.29268
| 18>    H       -1.51413         2.39353        -0.07193
| 19>    H        3.92546         1.01627         0.11242
| 20>    H        3.96405        -0.53166        -0.77880
| 21>    H        3.88503        -0.53657         0.99318
| 22>    H       -0.81656        -3.22442        -0.21005
| 23>    H       -3.75293        -2.32427        -0.30615
| 24>    H       -3.12972        -4.05066        -0.33433
| 25> *
| 26>
| 27>                          ****END OF INPUT****
 Total Charge           Charge          ....    0
 Multiplicity           Mult            ....    1
 Number of Electrons    NEL             ....  100
Dispersion correction           -0.043580485
FINAL SINGLE POINT ENERGY      -950.093989740336
Dispersion correction            ... done
Dispersion correction           -0.043364798
FINAL SINGLE POINT ENERGY      -950.096558457839
Dispersion correction            ... done
Dispersion correction           -0.043326597
FINAL SINGLE POINT ENERGY      -950.096642653146
Dispersion correction            ... done
FINAL SINGLE POINT ENERGY      -950.096605016754
FINAL SINGLE POINT ENERGY      -950.096610997065
FINAL SINGLE POINT ENERGY      -950.096621606711
FINAL SINGLE POINT ENERGY      -950.096621569746
FINAL SINGLE POINT ENERGY      -950.096595152178
FINAL SINGLE POINT ENERGY      -950.096486334623
FINAL SINGLE POINT ENERGY      -950.096526444950
Dispersion correction            ... done
Dispersion correction           -0.043316030
FINAL SINGLE POINT ENERGY      -950.096538968325
Dispersion correction            ... done
Dispersion correction           -0.043318441
FINAL SINGLE POINT ENERGY      -950.096540152770
Dispersion correction            ... done
                    ***********************HURRAY********************

CARTESIAN COORDINATES (ANGSTROEM)
---------------------------------
  C     -1.247051    1.399959   -0.152377
  S     -2.482504    0.179624   -0.271284
  C     -0.013584    0.816844   -0.078249
  C      1.407647    1.242650    0.047240
  O      1.885201    2.347012    0.146344
  N      2.140957    0.034632    0.040518
  C      3.584115   -0.027178    0.104313
  C      1.335505   -1.116440   -0.052460
  O      1.752202   -2.252663   -0.069792
  C     -0.053536   -0.603571   -0.122599
  C     -1.316765   -1.141351   -0.213727
  C     -1.676427   -2.547200   -0.237364
  C     -2.923046   -3.044797   -0.231164
  H     -1.512376    2.456117   -0.142445
  H      3.955669    0.976950    0.345331
  H      4.007832   -0.355598   -0.858843
  H      3.899057   -0.743567    0.875611
  H     -0.809068   -3.215459   -0.245157
  H     -3.803813   -2.396379   -0.208071
  H     -3.101003   -4.122045   -0.241163

 Multiplicity           Mult            ....    1
 Number of Electrons    NEL             ....  100
 Basis Dimension        Dim             ....  221

ORBITAL ENERGIES
----------------

  NO   OCC          E(Eh)            E(eV)
   0   2.0000     -88.901625     -2419.1362
   1   2.0000     -19.133395      -520.6461
   2   2.0000     -19.133293      -520.6434
   3   2.0000     -14.380961      -391.3258
   4   2.0000     -10.315152      -280.6896
   5   2.0000     -10.313350      -280.6405
   6   2.0000     -10.251575      -278.9595
   7   2.0000     -10.248109      -278.8652
   8   2.0000     -10.231049      -278.4010
   9   2.0000     -10.219661      -278.0911
  10   2.0000     -10.218612      -278.0626
  11   2.0000     -10.215763      -277.9850
  12   2.0000     -10.210717      -277.8477
  13   2.0000      -7.996258      -217.5892
  14   2.0000      -5.964397      -162.2995
  15   2.0000      -5.960192      -162.1851
  16   2.0000      -5.957653      -162.1160
  17   2.0000      -1.064779       -28.9741
  18   2.0000      -1.045732       -28.4558
  19   2.0000      -0.956945       -26.0398
  20   2.0000      -0.907308       -24.6891
  21   2.0000      -0.810356       -22.0509
  22   2.0000      -0.794728       -21.6257
  23   2.0000      -0.737253       -20.0617
  24   2.0000      -0.712473       -19.3874
  25   2.0000      -0.662797       -18.0356
  26   2.0000      -0.629130       -17.1195
  27   2.0000      -0.595875       -16.2146
  28   2.0000      -0.587941       -15.9987
  29   2.0000      -0.534294       -14.5389
  30   2.0000      -0.502848       -13.6832
  31   2.0000      -0.493983       -13.4419
  32   2.0000      -0.483111       -13.1461
  33   2.0000      -0.469020       -12.7627
  34   2.0000      -0.454577       -12.3697
  35   2.0000      -0.447924       -12.1886
  36   2.0000      -0.436789       -11.8856
  37   2.0000      -0.430106       -11.7038
  38   2.0000      -0.411944       -11.2096
  39   2.0000      -0.406670       -11.0660
  40   2.0000      -0.405091       -11.0231
  41   2.0000      -0.394322       -10.7301
  42   2.0000      -0.391456       -10.6521
  43   2.0000      -0.369507       -10.0548
  44   2.0000      -0.326357        -8.8806
  45   2.0000      -0.294129        -8.0036
  46   2.0000      -0.291527        -7.9328
  47   2.0000      -0.276049        -7.5117
  48   2.0000      -0.271905        -7.3989
  49   2.0000      -0.246643        -6.7115
  50   0.0000      -0.082563        -2.2466
  51   0.0000      -0.067767        -1.8440
  52   0.0000       0.008203         0.2232
  53   0.0000       0.019641         0.5345
  54   0.0000       0.059614         1.6222

MULLIKEN ATOMIC CHARGES
-----------------------
   0 C :   -0.129852
   1 S :    0.128147
   2 C :    0.017659
   3 C :    0.217467
   4 O :   -0.169016
   5 N :   -0.332320
   6 C :    0.143210
   7 C :    0.206595
   8 O :   -0.183371
   9 C :    0.016182
  10 C :   -0.154899
  11 C :    0.009312
  12 C :   -0.020641
  13 H :    0.044231
  14 H :    0.046255
  15 H :    0.035111
  16 H :    0.038008
  17 H :    0.023580
  18 H :    0.024838
  19 H :    0.039502
Sum of atomic charges:   -0.0000000

LOEWDIN ATOMIC CHARGES
----------------------
   0 C :   -0.140926
   1 S :    0.450307
   2 C :   -0.094886
   3 C :    0.089933
   4 O :   -0.159486
   5 N :   -0.046081
   6 C :    0.038709
   7 C :    0.088227
   8 O :   -0.167536
   9 C :   -0.093348
  10 C :   -0.138986
  11 C :   -0.034738
  12 C :   -0.029829
  13 H :    0.038369
  14 H :    0.035842
  15 H :    0.030307
  16 H :    0.032644
  17 H :    0.046221
  18 H :    0.021654
  19 H :    0.033601

  Mayer bond orders larger than 0.100000
B(  0-C ,  1-S ) :   1.1651 B(  0-C ,  2-C ) :   1.5463 B(  0-C , 13-H ) :   0.9653
B(  1-S , 10-C ) :   1.1129 B(  2-C ,  3-C ) :   0.8956 B(  2-C ,  9-C ) :   1.2522
B(  3-C ,  4-O ) :   2.1873 B(  3-C ,  5-N ) :   1.0418 B(  5-N ,  6-C ) :   0.9489
B(  5-N ,  7-C ) :   1.0531 B(  6-C , 14-H ) :   0.9609 B(  6-C , 15-H ) :   0.9754
B(  6-C , 16-H ) :   0.9696 B(  7-C ,  8-O ) :   2.1467 B(  7-C ,  9-C ) :   0.9174
B(  9-C , 10-C ) :   1.5082 B( 10-C , 11-C ) :   1.1557 B( 11-C , 12-C ) :   1.8799
B( 11-C , 17-H ) :   0.9481 B( 12-C , 18-H ) :   0.9546 B( 12-C , 19-H ) :   0.9481

Dispersion correction           -0.043320611
FINAL SINGLE POINT ENERGY      -950.096541188301

DIPOLE MOMENT
-------------
                                X             Y             Z
Electronic contribution:     -3.41182       4.78093      -0.26101
Nuclear contribution   :      2.59702      -4.90441       0.19764
                        -----------------------------------------
Total Dipole Moment    :     -0.81480      -0.12349      -0.06338
                        -----------------------------------------
Magnitude (a.u.)       :      0.82654
Magnitude (Debye)      :      2.10089

Rotational constants in cm-1:     0.042302     0.018862     0.013084
Rotational constants in MHz :  1268.185274   565.455046   392.257658

                             ****ORCA TERMINATED NORMALLY****
TOTAL RUN TIME: 0 days 0 hours 15 minutes 7 seconds 228 msec
