                         Program Version 4.2.0 -  RELEASE  -
|  1> # ORCA input file
|  2> # SCF done        -31.678472847799          0.000602937779
|  3> ! B3LYP/G D3BJ Opt RIJCOSX def2-SVP def2/J
|  4> * xyz 0 1
|  5>    C        1.81221         0.47691         0.08585
|  6>    O        1.70579        -0.87060         0.15634
|  7>    C        0.40416        -1.19000         0.09372
|  8>    C       -0.35613        -0.03464        -0.02010
|  9>    C        0.57611         1.05213        -0.02366
| 10>    O        0.21252         2.34432        -0.11831
| 11>    C        1.26118         3.28497        -0.09666
| 12>    C       -1.75036         0.04589        -0.11154
| 13>    N       -2.89392         0.09460        -0.18611
| 14>    C       -0.03837        -2.55845         0.14715
| 15>    C        0.78293        -3.59845         0.26653
| 16>    H        2.80054         0.88729         0.12317
| 17>    H        0.78788         4.26172        -0.17274
| 18>    H        1.94105         3.13818        -0.94168
| 19>    H        1.82863         3.22225         0.83710
| 20>    H       -1.10999        -2.68417         0.08180
| 21>    H        1.84951        -3.46357         0.32828
| 22>    H        0.41266        -4.60723         0.30121
| 23> *
| 24>
| 25>                          ****END OF INPUT****
 Total Charge           Charge          ....    0
 Multiplicity           Mult            ....    1
 Number of Electrons    NEL             ....   78
Dispersion correction           -0.030117912
FINAL SINGLE POINT ENERGY      -513.841708579411
Dispersion correction            ... done
Dispersion correction           -0.030056146
FINAL SINGLE POINT ENERGY      -513.844146138195
Dispersion correction            ... done
Dispersion correction           -0.030046378
FINAL SINGLE POINT ENERGY      -513.844265665260
Dispersion correction            ... done
FINAL SINGLE POINT ENERGY      -513.844296017965
Dispersion correction            ... done
Dispersion correction           -0.030041203
FINAL SINGLE POINT ENERGY      -513.844298627783
Dispersion correction            ... done
Dispersion correction           -0.030041029
FINAL SINGLE POINT ENERGY      -513.844296412717
Dispersion correction            ... done
                    ***********************HURRAY********************

CARTESIAN COORDINATES (ANGSTROEM)
---------------------------------
  C      1.826803    0.488409    0.084466
  O      1.696198   -0.873405    0.150544
  C      0.387329   -1.190830    0.091725
  C     -0.362035   -0.027784   -0.017954
  C      0.583957    1.060658   -0.020513
  O      0.214524    2.342001   -0.114417
  C      1.256002    3.297810   -0.097046
  C     -1.773189    0.063554   -0.110510
  N     -2.931098    0.119929   -0.186292
  C     -0.031752   -2.571486    0.149543
  C      0.796393   -3.621662    0.260557
  H      2.835819    0.881878    0.129671
  H      0.783628    4.282064   -0.204683
  H      1.960510    3.133421   -0.932304
  H      1.815972    3.259035    0.854941
  H     -1.114643   -2.716791    0.093625
  H      1.879744   -3.486453    0.318734
  H      0.402239   -4.639198    0.300262

 Multiplicity           Mult            ....    1
 Number of Electrons    NEL             ....   78
 Basis Dimension        Dim             ....  189

ORBITAL ENERGIES
----------------

  NO   OCC          E(Eh)            E(eV)
   0   2.0000     -19.223880      -523.1084
   1   2.0000     -19.189081      -522.1614
   2   2.0000     -14.324940      -389.8014
   3   2.0000     -10.276411      -279.6354
   4   2.0000     -10.272734      -279.5353
   5   2.0000     -10.263163      -279.2749
   6   2.0000     -10.254678      -279.0440
   7   2.0000     -10.232222      -278.4329
   8   2.0000     -10.228446      -278.3302
   9   2.0000     -10.217395      -278.0295
  10   2.0000     -10.208594      -277.7900
  11   2.0000      -1.130474       -30.7618
  12   2.0000      -1.086279       -29.5592
  13   2.0000      -0.895328       -24.3631
  14   2.0000      -0.831898       -22.6371
  15   2.0000      -0.814776       -22.1712
  16   2.0000      -0.746036       -20.3007
  17   2.0000      -0.726047       -19.7567
  18   2.0000      -0.660657       -17.9774
  19   2.0000      -0.633146       -17.2288
  20   2.0000      -0.588565       -16.0157
  21   2.0000      -0.553406       -15.0589
  22   2.0000      -0.521823       -14.1995
  23   2.0000      -0.501859       -13.6563
  24   2.0000      -0.501566       -13.6483
  25   2.0000      -0.474445       -12.9103
  26   2.0000      -0.473012       -12.8713
  27   2.0000      -0.450237       -12.2516
  28   2.0000      -0.442986       -12.0543
  29   2.0000      -0.408929       -11.1275
  30   2.0000      -0.387035       -10.5318
  31   2.0000      -0.382619       -10.4116
  32   2.0000      -0.361855        -9.8466
  33   2.0000      -0.360573        -9.8117
  34   2.0000      -0.357266        -9.7217
  35   2.0000      -0.332246        -9.0409
  36   2.0000      -0.321695        -8.7538
  37   2.0000      -0.264475        -7.1967
  38   2.0000      -0.231166        -6.2903
  39   0.0000      -0.067359        -1.8329
  40   0.0000       0.019257         0.5240
  41   0.0000       0.023695         0.6448
  42   0.0000       0.045029         1.2253
  43   0.0000       0.049406         1.3444

MULLIKEN ATOMIC CHARGES
-----------------------
   0 C :   -0.001261
   1 O :   -0.206283
   2 C :    0.134398
   3 C :   -0.111917
   4 C :    0.220482
   5 O :   -0.285415
   6 C :    0.186916
   7 C :   -0.187423
   8 N :    0.109656
   9 C :   -0.045767
  10 C :    0.002045
  11 H :    0.005881
  12 H :    0.043503
  13 H :    0.023932
  14 H :    0.022037
  15 H :    0.020690
  16 H :    0.037584
  17 H :    0.030944
Sum of atomic charges:   -0.0000000

LOEWDIN ATOMIC CHARGES
----------------------
   0 C :   -0.022472
   1 O :    0.012775
   2 C :    0.063068
   3 C :   -0.123982
   4 C :    0.020355
   5 O :   -0.082252
   6 C :    0.088182
   7 C :   -0.027136
   8 N :   -0.065314
   9 C :   -0.040714
  10 C :   -0.017951
  11 H :    0.024439
  12 H :    0.031535
  13 H :    0.015717
  14 H :    0.015624
  15 H :    0.045562
  16 H :    0.030508
  17 H :    0.032056

  Mayer bond orders larger than 0.100000
B(  0-C ,  1-O ) :   1.0589 B(  0-C ,  4-C ) :   1.4248 B(  0-C , 11-H ) :   1.0147
B(  1-O ,  2-C ) :   1.1863 B(  2-C ,  3-C ) :   1.4055 B(  2-C ,  9-C ) :   1.1748
B(  3-C ,  4-C ) :   1.2307 B(  3-C ,  7-C ) :   1.1326 B(  4-C ,  5-O ) :   1.2171
B(  5-O ,  6-C ) :   0.9477 B(  6-C , 12-H ) :   0.9803 B(  6-C , 13-H ) :   0.9643
B(  6-C , 14-H ) :   0.9652 B(  7-C ,  8-N ) :   2.9961 B(  9-C , 10-C ) :   1.8799
B(  9-C , 15-H ) :   0.9474 B( 10-C , 16-H ) :   0.9560 B( 10-C , 17-H ) :   0.9394

Dispersion correction           -0.030040949
FINAL SINGLE POINT ENERGY      -513.844295811949

DIPOLE MOMENT
-------------
                                X             Y             Z
Electronic contribution:     -4.79020      -0.62655      -0.29488
Nuclear contribution   :      6.70128       0.87581       0.40913
                        -----------------------------------------
Total Dipole Moment    :      1.91108       0.24926       0.11424
                        -----------------------------------------
Magnitude (a.u.)       :      1.93065
Magnitude (Debye)      :      4.90732

Rotational constants in cm-1:     0.057113     0.028720     0.019181
Rotational constants in MHz :  1712.212614   860.992726   575.031370

                             ****ORCA TERMINATED NORMALLY****
TOTAL RUN TIME: 0 days 0 hours 6 minutes 19 seconds 989 msec
