                         Program Version 4.2.0 -  RELEASE  -
|  1> # ORCA input file
|  2> # SCF done        -32.994408298061          0.000697016426
|  3> ! B3LYP/G D3BJ Opt RIJCOSX def2-SVP def2/J
|  4> * xyz 0 1
|  5>    N        2.12631        -0.07410         0.16890
|  6>    C        0.79347         0.13566         0.04907
|  7>    S       -0.29361        -1.21015         0.09903
|  8>    C       -1.64082        -0.11654        -0.04125
|  9>    N       -2.92134        -0.65945        -0.05270
| 10>    O       -3.86469         0.10725        -0.15321
| 11>    O       -3.00823        -1.87537         0.03743
| 12>    C       -1.25450         1.19534        -0.12332
| 13>    C        0.13911         1.36568        -0.07116
| 14>    C        0.83518         2.63676        -0.12639
| 15>    C        0.26330         3.82083        -0.31354
| 16>    H        2.47099        -1.01536         0.09497
| 17>    H        2.75691         0.66568        -0.08950
| 18>    H       -1.96964         1.99200        -0.21116
| 19>    H        1.90913         2.58901         0.00423
| 20>    H       -0.79762         3.93579        -0.44757
| 21>    H        0.84760         4.72371        -0.33931
| 22> *
| 23>
| 24>                          ****END OF INPUT****
 Total Charge           Charge          ....    0
 Multiplicity           Mult            ....    1
 Number of Electrons    NEL             ....   88
Dispersion correction           -0.034878992
FINAL SINGLE POINT ENERGY      -889.821539670325
Dispersion correction            ... done
Dispersion correction           -0.034652842
FINAL SINGLE POINT ENERGY      -889.824106423804
Dispersion correction            ... done
Dispersion correction           -0.034611821
FINAL SINGLE POINT ENERGY      -889.824246691158
Dispersion correction            ... done
FINAL SINGLE POINT ENERGY      -889.824154014073
FINAL SINGLE POINT ENERGY      -889.824231395541
FINAL SINGLE POINT ENERGY      -889.824281749534
FINAL SINGLE POINT ENERGY      -889.824282999865
FINAL SINGLE POINT ENERGY      -889.824278613875
FINAL SINGLE POINT ENERGY      -889.824226399847
FINAL SINGLE POINT ENERGY      -889.824205005368
FINAL SINGLE POINT ENERGY      -889.824189211350
FINAL SINGLE POINT ENERGY      -889.824201219617
Dispersion correction            ... done
Dispersion correction           -0.034608103
FINAL SINGLE POINT ENERGY      -889.824199490688
Dispersion correction            ... done
Dispersion correction           -0.034606663
FINAL SINGLE POINT ENERGY      -889.824198997337
Dispersion correction            ... done
                    ***********************HURRAY********************

CARTESIAN COORDINATES (ANGSTROEM)
---------------------------------
  N      2.143182   -0.047151    0.137006
  C      0.793453    0.140858    0.055119
  S     -0.284304   -1.229554    0.077592
  C     -1.649922   -0.144196   -0.033611
  N     -2.961546   -0.697807   -0.040800
  O     -3.911504    0.073607   -0.088394
  O     -3.039962   -1.925336   -0.003548
  C     -1.288831    1.177748   -0.084951
  C      0.120462    1.370678   -0.034299
  C      0.824256    2.650898   -0.037706
  C      0.324618    3.847502   -0.383089
  H      2.509942   -0.986306    0.047182
  H      2.741257    0.678331   -0.238811
  H     -2.029314    1.974930   -0.136556
  H      1.863768    2.613690    0.309513
  H     -0.700002    3.968788   -0.744447
  H      0.935996    4.750059   -0.315681

 Multiplicity           Mult            ....    1
 Number of Electrons    NEL             ....   88
 Basis Dimension        Dim             ....  188

ORBITAL ENERGIES
----------------

  NO   OCC          E(Eh)            E(eV)
   0   2.0000     -88.899499     -2419.0783
   1   2.0000     -19.147732      -521.0363
   2   2.0000     -19.147411      -521.0275
   3   2.0000     -14.552335      -395.9892
   4   2.0000     -14.385444      -391.4478
   5   2.0000     -10.285969      -279.8955
   6   2.0000     -10.254941      -279.0511
   7   2.0000     -10.224374      -278.2194
   8   2.0000     -10.214466      -277.9497
   9   2.0000     -10.213786      -277.9312
  10   2.0000     -10.198917      -277.5266
  11   2.0000      -7.994615      -217.5445
  12   2.0000      -5.963206      -162.2671
  13   2.0000      -5.959051      -162.1540
  14   2.0000      -5.954862      -162.0400
  15   2.0000      -1.208605       -32.8878
  16   2.0000      -1.034299       -28.1447
  17   2.0000      -0.964245       -26.2384
  18   2.0000      -0.892662       -24.2906
  19   2.0000      -0.810270       -22.0486
  20   2.0000      -0.777011       -21.1435
  21   2.0000      -0.742055       -20.1923
  22   2.0000      -0.685171       -18.6445
  23   2.0000      -0.617746       -16.8097
  24   2.0000      -0.582408       -15.8481
  25   2.0000      -0.570279       -15.5181
  26   2.0000      -0.538546       -14.6546
  27   2.0000      -0.536283       -14.5930
  28   2.0000      -0.532197       -14.4818
  29   2.0000      -0.501435       -13.6447
  30   2.0000      -0.486496       -13.2382
  31   2.0000      -0.459173       -12.4947
  32   2.0000      -0.451555       -12.2874
  33   2.0000      -0.429255       -11.6806
  34   2.0000      -0.409950       -11.1553
  35   2.0000      -0.385845       -10.4994
  36   2.0000      -0.369588       -10.0570
  37   2.0000      -0.347950        -9.4682
  38   2.0000      -0.322180        -8.7670
  39   2.0000      -0.301437        -8.2025
  40   2.0000      -0.299675        -8.1546
  41   2.0000      -0.283082        -7.7031
  42   2.0000      -0.263229        -7.1628
  43   2.0000      -0.220312        -5.9950
  44   0.0000      -0.082672        -2.2496
  45   0.0000      -0.038252        -1.0409
  46   0.0000      -0.003654        -0.0994
  47   0.0000       0.017898         0.4870
  48   0.0000       0.028887         0.7861

MULLIKEN ATOMIC CHARGES
-----------------------
   0 N :   -0.059187
   1 C :   -0.149011
   2 S :    0.147337
   3 C :    0.002255
   4 N :    0.258966
   5 O :   -0.261524
   6 O :   -0.280764
   7 C :    0.006950
   8 C :    0.108453
   9 C :   -0.045025
  10 C :   -0.025931
  11 H :    0.129421
  12 H :    0.136132
  13 H :    0.008067
  14 H :   -0.020592
  15 H :    0.018392
  16 H :    0.026062
Sum of atomic charges:   -0.0000000

LOEWDIN ATOMIC CHARGES
----------------------
   0 N :   -0.007782
   1 C :   -0.098455
   2 S :    0.429622
   3 C :   -0.207276
   4 N :    0.265210
   5 O :   -0.226591
   6 O :   -0.244062
   7 C :   -0.000493
   8 C :   -0.113403
   9 C :   -0.033482
  10 C :   -0.049262
  11 H :    0.082611
  12 H :    0.084340
  13 H :    0.044883
  14 H :    0.022946
  15 H :    0.023509
  16 H :    0.027685

  Mayer bond orders larger than 0.100000
B(  0-N ,  1-C ) :   1.2895 B(  0-N , 11-H ) :   0.9405 B(  0-N , 12-H ) :   0.9404
B(  1-C ,  2-S ) :   1.1271 B(  1-C ,  8-C ) :   1.3422 B(  2-S ,  3-C ) :   1.0603
B(  3-C ,  4-N ) :   0.9677 B(  3-C ,  7-C ) :   1.4721 B(  4-N ,  5-O ) :   1.5084
B(  4-N ,  6-O ) :   1.4784 B(  5-O ,  6-O ) :   0.2593 B(  7-C ,  8-C ) :   1.2355
B(  7-C , 13-H ) :   0.9948 B(  8-C ,  9-C ) :   1.0826 B(  9-C , 10-C ) :   1.9412
B(  9-C , 14-H ) :   0.9513 B( 10-C , 15-H ) :   0.9494 B( 10-C , 16-H ) :   0.9456

Dispersion correction           -0.034604764
FINAL SINGLE POINT ENERGY      -889.824193158911

DIPOLE MOMENT
-------------
                                X             Y             Z
Electronic contribution:     -6.71345     -10.14846       0.64286
Nuclear contribution   :      9.43271      10.79975      -0.85107
                        -----------------------------------------
Total Dipole Moment    :      2.71926       0.65129      -0.20821
                        -----------------------------------------
Magnitude (a.u.)       :      2.80391
Magnitude (Debye)      :      7.12697

Rotational constants in cm-1:     0.053722     0.023663     0.016458
Rotational constants in MHz :  1610.536595   709.399787   493.409479

                             ****ORCA TERMINATED NORMALLY****
TOTAL RUN TIME: 0 days 0 hours 13 minutes 12 seconds 925 msec
