                         Program Version 4.2.0 -  RELEASE  -
|  1> # ORCA input file
|  2> # SCF done        -35.778017771887          0.000446298640
|  3> ! B3LYP/G D3BJ Opt RIJCOSX def2-SVP def2/J
|  4> * xyz 0 1
|  5>    C       -0.21807         1.04466         0.11900
|  6>    O       -0.97641        -0.04825         0.14591
|  7>    C       -0.16268        -1.12698         0.06343
|  8>    C        1.14419        -0.71344        -0.01812
|  9>    C        1.10297         0.70240         0.01888
| 10>    C        2.26753         1.62180        -0.04011
| 11>    F        1.90145         2.91162         0.01719
| 12>    F        3.13207         1.42413         0.97141
| 13>    F        2.98201         1.47672        -1.17068
| 14>    C       -0.71088        -2.46163         0.07010
| 15>    C       -2.00898        -2.73300         0.15393
| 16>    H       -0.69806         2.00154         0.17540
| 17>    H        2.01891        -1.32502        -0.09370
| 18>    H        0.02666        -3.24800        -0.00068
| 19>    H       -2.74200        -1.94729         0.22185
| 20>    H       -2.37407        -3.74441         0.15319
| 21> *
| 22>
| 23>                          ****END OF INPUT****
 Total Charge           Charge          ....    0
 Multiplicity           Mult            ....    1
 Number of Electrons    NEL             ....   82
Dispersion correction           -0.024733067
FINAL SINGLE POINT ENERGY      -644.018374122855
Dispersion correction            ... done
Dispersion correction           -0.024748377
FINAL SINGLE POINT ENERGY      -644.020408357070
Dispersion correction            ... done
Dispersion correction           -0.024745901
FINAL SINGLE POINT ENERGY      -644.020594808049
Dispersion correction            ... done
FINAL SINGLE POINT ENERGY      -644.020560239058
FINAL SINGLE POINT ENERGY      -644.020559424294
FINAL SINGLE POINT ENERGY      -644.020502143054
FINAL SINGLE POINT ENERGY      -644.019919456466
FINAL SINGLE POINT ENERGY      -644.020402571210
FINAL SINGLE POINT ENERGY      -644.019422149989
FINAL SINGLE POINT ENERGY      -644.020473664785
FINAL SINGLE POINT ENERGY      -644.020361128709
FINAL SINGLE POINT ENERGY      -644.020356351567
FINAL SINGLE POINT ENERGY      -644.020328007831
FINAL SINGLE POINT ENERGY      -644.020189621460
FINAL SINGLE POINT ENERGY      -644.020360000506
FINAL SINGLE POINT ENERGY      -644.020364677644
FINAL SINGLE POINT ENERGY      -644.020346995155
Dispersion correction            ... done
Dispersion correction           -0.024750200
FINAL SINGLE POINT ENERGY      -644.020333719903
Dispersion correction            ... done
Dispersion correction           -0.024750817
FINAL SINGLE POINT ENERGY      -644.020331719961
Dispersion correction            ... done
                    ***********************HURRAY********************

CARTESIAN COORDINATES (ANGSTROEM)
---------------------------------
  C     -0.182861    1.041517    0.248532
  O     -0.942623   -0.071804    0.281722
  C     -0.128124   -1.153692    0.089614
  C      1.168875   -0.721624   -0.056038
  C      1.128089    0.705599    0.042961
  C      2.276134    1.649976   -0.063096
  F      1.858073    2.877013   -0.422750
  F      2.946226    1.787476    1.097007
  F      3.168984    1.225983   -0.977755
  C     -0.725985   -2.469568    0.035546
  C     -2.038827   -2.728643    0.134117
  H     -0.691219    1.992113    0.381274
  H      2.043095   -1.340410   -0.239142
  H     -0.010944   -3.283291   -0.113876
  H     -2.765751   -1.925510    0.276811
  H     -2.418503   -3.750284    0.072073

 Multiplicity           Mult            ....    1
 Number of Electrons    NEL             ....   82
 Basis Dimension        Dim             ....  179

ORBITAL ENERGIES
----------------

  NO   OCC          E(Eh)            E(eV)
   0   2.0000     -24.720014      -672.6658
   1   2.0000     -24.718103      -672.6138
   2   2.0000     -24.714233      -672.5085
   3   2.0000     -19.222699      -523.0762
   4   2.0000     -10.438679      -284.0509
   5   2.0000     -10.267070      -279.3812
   6   2.0000     -10.261664      -279.2341
   7   2.0000     -10.217090      -278.0212
   8   2.0000     -10.213661      -277.9278
   9   2.0000     -10.211431      -277.8672
  10   2.0000     -10.201736      -277.6033
  11   2.0000      -1.296673       -35.2843
  12   2.0000      -1.206897       -32.8413
  13   2.0000      -1.201659       -32.6988
  14   2.0000      -1.128549       -30.7094
  15   2.0000      -0.833385       -22.6776
  16   2.0000      -0.813958       -22.1489
  17   2.0000      -0.744336       -20.2544
  18   2.0000      -0.708576       -19.2813
  19   2.0000      -0.636047       -17.3077
  20   2.0000      -0.627484       -17.0747
  21   2.0000      -0.605394       -16.4736
  22   2.0000      -0.590853       -16.0779
  23   2.0000      -0.583244       -15.8709
  24   2.0000      -0.537583       -14.6284
  25   2.0000      -0.511733       -13.9250
  26   2.0000      -0.482657       -13.1338
  27   2.0000      -0.475325       -12.9342
  28   2.0000      -0.468199       -12.7404
  29   2.0000      -0.465978       -12.6799
  30   2.0000      -0.448560       -12.2059
  31   2.0000      -0.435033       -11.8378
  32   2.0000      -0.429744       -11.6939
  33   2.0000      -0.426892       -11.6163
  34   2.0000      -0.408266       -11.1095
  35   2.0000      -0.395512       -10.7624
  36   2.0000      -0.390899       -10.6369
  37   2.0000      -0.379248       -10.3199
  38   2.0000      -0.325227        -8.8499
  39   2.0000      -0.307039        -8.3550
  40   2.0000      -0.234832        -6.3901
  41   0.0000      -0.051401        -1.3987
  42   0.0000       0.005693         0.1549
  43   0.0000       0.063507         1.7281
  44   0.0000       0.076117         2.0713
  45   0.0000       0.086175         2.3449

MULLIKEN ATOMIC CHARGES
-----------------------
   0 C :    0.119306
   1 O :   -0.207333
   2 C :    0.146109
   3 C :   -0.049278
   4 C :   -0.108255
   5 C :    0.555514
   6 F :   -0.172109
   7 F :   -0.169102
   8 F :   -0.173189
   9 C :   -0.014190
  10 C :   -0.005133
  11 H :    0.022336
  12 H :   -0.002885
  13 H :   -0.001030
  14 H :    0.032840
  15 H :    0.026398
Sum of atomic charges:    0.0000000

LOEWDIN ATOMIC CHARGES
----------------------
   0 C :    0.064012
   1 O :    0.014250
   2 C :    0.032851
   3 C :   -0.048636
   4 C :   -0.130416
   5 C :    0.174745
   6 F :   -0.064485
   7 F :   -0.067745
   8 F :   -0.065398
   9 C :   -0.041642
  10 C :   -0.032583
  11 H :    0.031715
  12 H :    0.037527
  13 H :    0.038414
  14 H :    0.028492
  15 H :    0.028898

  Mayer bond orders larger than 0.100000
B(  0-C ,  1-O ) :   1.1562 B(  0-C ,  4-C ) :   1.5291 B(  0-C , 11-H ) :   1.0069
B(  1-O ,  2-C ) :   1.1225 B(  2-C ,  3-C ) :   1.4827 B(  2-C ,  9-C ) :   1.1246
B(  3-C ,  4-C ) :   1.2188 B(  3-C , 12-H ) :   1.0098 B(  4-C ,  5-C ) :   0.9619
B(  5-C ,  6-F ) :   1.1533 B(  5-C ,  7-F ) :   1.1698 B(  5-C ,  8-F ) :   1.1539
B(  9-C , 10-C ) :   1.9032 B(  9-C , 13-H ) :   0.9541 B( 10-C , 14-H ) :   0.9536
B( 10-C , 15-H ) :   0.9427

Dispersion correction           -0.024751316
FINAL SINGLE POINT ENERGY      -644.020333873654

DIPOLE MOMENT
-------------
                                X             Y             Z
Electronic contribution:     12.20302      13.33095      -0.57281
Nuclear contribution   :    -12.79536     -13.94438       0.58803
                        -----------------------------------------
Total Dipole Moment    :     -0.59234      -0.61343       0.01522
                        -----------------------------------------
Magnitude (a.u.)       :      0.85287
Magnitude (Debye)      :      2.16783

Rotational constants in cm-1:     0.104546     0.018904     0.017477
Rotational constants in MHz :  3134.196905   566.714152   523.948188

                             ****ORCA TERMINATED NORMALLY****
TOTAL RUN TIME: 0 days 0 hours 14 minutes 7 seconds 92 msec
