                         Program Version 4.2.0 -  RELEASE  -
|  1> # ORCA input file
|  2> # SCF done        -44.310484713866          0.000333386244
|  3> ! B3LYP/G D3BJ Opt RIJCOSX def2-SVP def2/J
|  4> * xyz 0 1
|  5>    C       -1.44603        -1.23181         0.29555
|  6>    S       -2.62928        -0.00755         0.25882
|  7>    C       -1.47174         1.22126         0.03638
|  8>    C       -0.19145         0.71543        -0.01176
|  9>    C       -0.17643        -0.72097         0.14088
| 10>    C        1.05430        -1.41290         0.09374
| 11>    C        2.21178        -0.70954        -0.07472
| 12>    N        3.43406        -1.45895        -0.29470
| 13>    O        3.57099        -2.48180         0.33162
| 14>    O        4.17938        -1.03627        -1.14646
| 15>    C        2.20074         0.71329        -0.17719
| 16>    N        3.43984         1.46556        -0.15370
| 17>    O        4.32679         1.02395         0.53799
| 18>    O        3.46144         2.50756        -0.76328
| 19>    C        1.02823         1.41221        -0.15885
| 20>    H       -1.72989        -2.25615         0.42934
| 21>    H       -1.77706         2.24445        -0.05060
| 22>    H        1.08292        -2.48975         0.16191
| 23>    H        1.04234         2.48927        -0.22875
| 24> *
| 25>
| 26>                          ****END OF INPUT****
 Total Charge           Charge          ....    0
 Multiplicity           Mult            ....    1
 Number of Electrons    NEL             ....  114
Dispersion correction           -0.045919394
FINAL SINGLE POINT ENERGY     -1115.029449514179
Dispersion correction            ... done
Dispersion correction           -0.045606722
FINAL SINGLE POINT ENERGY     -1115.032145980327
Dispersion correction            ... done
Dispersion correction           -0.045572084
FINAL SINGLE POINT ENERGY     -1115.031749341877
Dispersion correction            ... done
FINAL SINGLE POINT ENERGY     -1115.030784123671
FINAL SINGLE POINT ENERGY     -1115.032137665777
FINAL SINGLE POINT ENERGY     -1115.032468355830
FINAL SINGLE POINT ENERGY     -1115.032535058826
Dispersion correction            ... done
Dispersion correction           -0.045658250
FINAL SINGLE POINT ENERGY     -1115.032215653141
Dispersion correction            ... done
Dispersion correction           -0.045636054
FINAL SINGLE POINT ENERGY     -1115.032546937550
Dispersion correction            ... done
                    ***********************HURRAY********************

CARTESIAN COORDINATES (ANGSTROEM)
---------------------------------
  C     -1.473339   -1.248156    0.275164
  S     -2.651474   -0.004805    0.254205
  C     -1.492114    1.238023    0.050644
  C     -0.203957    0.719631   -0.003862
  C     -0.191763   -0.728308    0.136941
  C      1.054012   -1.424204    0.101944
  C      2.211836   -0.715091   -0.059738
  N      3.448836   -1.479565   -0.294268
  O      3.633850   -2.472887    0.384908
  O      4.160322   -1.084121   -1.199672
  C      2.200661    0.716174   -0.175673
  N      3.455059    1.487517   -0.153085
  O      4.358297    1.039594    0.529954
  O      3.476817    2.537766   -0.769455
  C      1.028969    1.420296   -0.155975
  H     -1.767014   -2.289089    0.395314
  H     -1.800404    2.278696   -0.028871
  H      1.100656   -2.511546    0.171444
  H      1.061679    2.507362   -0.233700

 Multiplicity           Mult            ....    1
 Number of Electrons    NEL             ....  114
 Basis Dimension        Dim             ....  234

ORBITAL ENERGIES
----------------

  NO   OCC          E(Eh)            E(eV)
   0   2.0000     -88.926801     -2419.8213
   1   2.0000     -19.174822      -521.7734
   2   2.0000     -19.174336      -521.7602
   3   2.0000     -19.174152      -521.7552
   4   2.0000     -19.173960      -521.7500
   5   2.0000     -14.573118      -396.5547
   6   2.0000     -14.572724      -396.5440
   7   2.0000     -10.277646      -279.6690
   8   2.0000     -10.277258      -279.6584
   9   2.0000     -10.254329      -279.0345
  10   2.0000     -10.254131      -279.0291
  11   2.0000     -10.249087      -278.8918
  12   2.0000     -10.248931      -278.8876
  13   2.0000     -10.245510      -278.7945
  14   2.0000     -10.245238      -278.7871
  15   2.0000      -8.021438      -218.2744
  16   2.0000      -5.989047      -162.9703
  17   2.0000      -5.984787      -162.8543
  18   2.0000      -5.984043      -162.8341
  19   2.0000      -1.239286       -33.7227
  20   2.0000      -1.233427       -33.5633
  21   2.0000      -1.065634       -28.9974
  22   2.0000      -1.061455       -28.8837
  23   2.0000      -0.938577       -25.5400
  24   2.0000      -0.898734       -24.4558
  25   2.0000      -0.830275       -22.5929
  26   2.0000      -0.808964       -22.0130
  27   2.0000      -0.773407       -21.0455
  28   2.0000      -0.711636       -19.3646
  29   2.0000      -0.706039       -19.2123
  30   2.0000      -0.643954       -17.5229
  31   2.0000      -0.605245       -16.4695
  32   2.0000      -0.595043       -16.1919
  33   2.0000      -0.570724       -15.5302
  34   2.0000      -0.565863       -15.3979
  35   2.0000      -0.553405       -15.0589
  36   2.0000      -0.543618       -14.7926
  37   2.0000      -0.533355       -14.5133
  38   2.0000      -0.517569       -14.0838
  39   2.0000      -0.516176       -14.0459
  40   2.0000      -0.492206       -13.3936
  41   2.0000      -0.482161       -13.1203
  42   2.0000      -0.463040       -12.5999
  43   2.0000      -0.448428       -12.2023
  44   2.0000      -0.444730       -12.1017
  45   2.0000      -0.404706       -11.0126
  46   2.0000      -0.394240       -10.7278
  47   2.0000      -0.388482       -10.5711
  48   2.0000      -0.339664        -9.2427
  49   2.0000      -0.331831        -9.0296
  50   2.0000      -0.320727        -8.7274
  51   2.0000      -0.320066        -8.7094
  52   2.0000      -0.317946        -8.6518
  53   2.0000      -0.311200        -8.4682
  54   2.0000      -0.308753        -8.4016
  55   2.0000      -0.286887        -7.8066
  56   2.0000      -0.253050        -6.8859
  57   0.0000      -0.111716        -3.0399
  58   0.0000      -0.097100        -2.6422
  59   0.0000      -0.065295        -1.7768
  60   0.0000      -0.018578        -0.5055
  61   0.0000      -0.007445        -0.2026

MULLIKEN ATOMIC CHARGES
-----------------------
   0 C :   -0.124657
   1 S :    0.180016
   2 C :   -0.121323
   3 C :    0.102380
   4 C :    0.105074
   5 C :   -0.024461
   6 C :    0.121563
   7 N :    0.238707
   8 O :   -0.229583
   9 O :   -0.224305
  10 C :    0.141555
  11 N :    0.239449
  12 O :   -0.225058
  13 O :   -0.231985
  14 C :   -0.033480
  15 H :    0.037930
  16 H :    0.038434
  17 H :    0.003901
  18 H :    0.005843
Sum of atomic charges:    0.0000000

LOEWDIN ATOMIC CHARGES
----------------------
   0 C :   -0.188688
   1 S :    0.523422
   2 C :   -0.187139
   3 C :   -0.049968
   4 C :   -0.048733
   5 C :    0.019103
   6 C :   -0.019386
   7 N :    0.276382
   8 O :   -0.192715
   9 O :   -0.189160
  10 C :   -0.021555
  11 N :    0.276730
  12 O :   -0.189762
  13 O :   -0.195251
  14 C :    0.022460
  15 H :    0.034490
  16 H :    0.034737
  17 H :    0.047385
  18 H :    0.047647

  Mayer bond orders larger than 0.100000
B(  0-C ,  1-S ) :   1.2211 B(  0-C ,  2-C ) :   0.1030 B(  0-C ,  4-C ) :   1.4114
B(  0-C , 15-H ) :   0.9655 B(  1-S ,  2-C ) :   1.2239 B(  2-C ,  3-C ) :   1.4086
B(  2-C , 16-H ) :   0.9653 B(  3-C ,  4-C ) :   1.1924 B(  3-C , 14-C ) :   1.1304
B(  4-C ,  5-C ) :   1.1312 B(  5-C ,  6-C ) :   1.5618 B(  5-C , 17-H ) :   0.9975
B(  6-C ,  7-N ) :   0.8472 B(  6-C , 10-C ) :   1.1918 B(  7-N ,  8-O ) :   1.5319
B(  7-N ,  9-O ) :   1.5399 B(  8-O ,  9-O ) :   0.2899 B( 10-C , 11-N ) :   0.8529
B( 10-C , 14-C ) :   1.5535 B( 11-N , 12-O ) :   1.5397 B( 11-N , 13-O ) :   1.5314
B( 12-O , 13-O ) :   0.2873 B( 14-C , 18-H ) :   0.9976

Dispersion correction           -0.045636887
FINAL SINGLE POINT ENERGY     -1115.032540991650

DIPOLE MOMENT
-------------
                                X             Y             Z
Electronic contribution:      2.83492       0.00543      -0.21715
Nuclear contribution   :     -6.01494      -0.01333       0.47390
                        -----------------------------------------
Total Dipole Moment    :     -3.18003      -0.00790       0.25675
                        -----------------------------------------
Magnitude (a.u.)       :      3.19038
Magnitude (Debye)      :      8.10931

Rotational constants in cm-1:     0.035957     0.012068     0.009384
Rotational constants in MHz :  1077.960169   361.777673   281.327019

                             ****ORCA TERMINATED NORMALLY****
TOTAL RUN TIME: 0 days 0 hours 15 minutes 53 seconds 210 msec
