                         Program Version 4.2.0 -  RELEASE  -
|  1> # ORCA input file
|  2> # SCF done        -33.847507882177          0.000292841989
|  3> ! B3LYP/G D3BJ Opt RIJCOSX def2-SVP def2/J
|  4> * xyz 0 1
|  5>    C        1.17856         0.26150        -0.00194
|  6>    C        0.72477        -1.00651         0.00101
|  7>    F        1.46142        -2.11808         0.00331
|  8>    C       -0.73259        -1.03727         0.00146
|  9>    C       -1.15931         0.23695        -0.00117
| 10>    C        0.00865         1.11918        -0.00346
| 11>    C       -0.00874         2.47910        -0.00627
| 12>    C        1.15921         3.36132        -0.00861
| 13>    C        0.73245         4.63554        -0.01078
| 14>    C       -0.72488         4.60473        -0.00978
| 15>    C       -1.17863         3.33673        -0.00719
| 16>    F       -1.46161         5.71625        -0.01134
| 17>    H        2.19788         0.58929        -0.00289
| 18>    H       -1.31414        -1.93930         0.00355
| 19>    H       -2.17446         0.58127        -0.00167
| 20>    H        2.17435         3.01697        -0.00865
| 21>    H        1.31400         5.53757        -0.01287
| 22>    H       -2.19794         3.00890        -0.00591
| 23> *
| 24>
| 25>                          ****END OF INPUT****
 Total Charge           Charge          ....    0
 Multiplicity           Mult            ....    1
 Number of Electrons    NEL             ....   84
Dispersion correction           -0.034336272
FINAL SINGLE POINT ENERGY      -583.871964446895
Dispersion correction            ... done
Dispersion correction           -0.034300825
FINAL SINGLE POINT ENERGY      -583.874710624529
Dispersion correction            ... done
Dispersion correction           -0.034300810
FINAL SINGLE POINT ENERGY      -583.874797514856
Dispersion correction            ... done
Dispersion correction           -0.034301844
FINAL SINGLE POINT ENERGY      -583.874809126516
Dispersion correction            ... done
                    ***********************HURRAY********************

CARTESIAN COORDINATES (ANGSTROEM)
---------------------------------
  C      1.200070    0.256741   -0.002434
  C      0.735353   -1.018928    0.001110
  F      1.458045   -2.131826    0.004374
  C     -0.735735   -1.054451    0.001420
  C     -1.169261    0.230996   -0.001462
  C      0.014203    1.114893   -0.003864
  C     -0.014317    2.483344   -0.006253
  C      1.169150    3.367241   -0.008539
  C      0.735622    4.652689   -0.010607
  C     -0.735463    4.617166   -0.009716
  C     -1.200185    3.341497   -0.006980
  F     -1.458151    5.730070   -0.011629
  H      2.236679    0.580716   -0.003593
  H     -1.328081   -1.968304    0.003721
  H     -2.199795    0.579599   -0.001880
  H      2.199682    3.018632   -0.008695
  H      1.327969    5.566542   -0.012643
  H     -2.236794    3.017524   -0.005530

 Multiplicity           Mult            ....    1
 Number of Electrons    NEL             ....   84
 Basis Dimension        Dim             ....  198

ORBITAL ENERGIES
----------------

  NO   OCC          E(Eh)            E(eV)
   0   2.0000     -24.713613      -672.4916
   1   2.0000     -24.713600      -672.4912
   2   2.0000     -10.283238      -279.8211
   3   2.0000     -10.283232      -279.8210
   4   2.0000     -10.226552      -278.2786
   5   2.0000     -10.226105      -278.2665
   6   2.0000     -10.209742      -277.8212
   7   2.0000     -10.209741      -277.8212
   8   2.0000     -10.205513      -277.7061
   9   2.0000     -10.205505      -277.7059
  10   2.0000     -10.192515      -277.3524
  11   2.0000     -10.192514      -277.3524
  12   2.0000      -1.224230       -33.3130
  13   2.0000      -1.224229       -33.3130
  14   2.0000      -0.891580       -24.2611
  15   2.0000      -0.868896       -23.6439
  16   2.0000      -0.756709       -20.5911
  17   2.0000      -0.729265       -19.8443
  18   2.0000      -0.716750       -19.5038
  19   2.0000      -0.664215       -18.0742
  20   2.0000      -0.604840       -16.4585
  21   2.0000      -0.588873       -16.0241
  22   2.0000      -0.570885       -15.5346
  23   2.0000      -0.550744       -14.9865
  24   2.0000      -0.541538       -14.7360
  25   2.0000      -0.516059       -14.0427
  26   2.0000      -0.482622       -13.1328
  27   2.0000      -0.481419       -13.1001
  28   2.0000      -0.473608       -12.8875
  29   2.0000      -0.461523       -12.5587
  30   2.0000      -0.445934       -12.1345
  31   2.0000      -0.443569       -12.0701
  32   2.0000      -0.426618       -11.6089
  33   2.0000      -0.408933       -11.1276
  34   2.0000      -0.397090       -10.8054
  35   2.0000      -0.379236       -10.3195
  36   2.0000      -0.368527       -10.0281
  37   2.0000      -0.357242        -9.7210
  38   2.0000      -0.353048        -9.6069
  39   2.0000      -0.259696        -7.0667
  40   2.0000      -0.241715        -6.5774
  41   2.0000      -0.229658        -6.2493
  42   0.0000      -0.117270        -3.1911
  43   0.0000       0.005550         0.1510
  44   0.0000       0.054505         1.4832
  45   0.0000       0.058677         1.5967
  46   0.0000       0.073209         1.9921

MULLIKEN ATOMIC CHARGES
-----------------------
   0 C :   -0.093520
   1 C :    0.278229
   2 F :   -0.171179
   3 C :   -0.029315
   4 C :    0.016043
   5 C :    0.030072
   6 C :    0.030099
   7 C :    0.016013
   8 C :   -0.029298
   9 C :    0.278236
  10 C :   -0.093523
  11 F :   -0.171181
  12 H :   -0.016473
  13 H :   -0.003541
  14 H :   -0.010322
  15 H :   -0.010320
  16 H :   -0.003543
  17 H :   -0.016476
Sum of atomic charges:    0.0000000

LOEWDIN ATOMIC CHARGES
----------------------
   0 C :   -0.098699
   1 C :    0.085028
   2 F :   -0.043319
   3 C :   -0.032455
   4 C :   -0.021990
   5 C :    0.022728
   6 C :    0.022728
   7 C :   -0.021990
   8 C :   -0.032456
   9 C :    0.085027
  10 C :   -0.098698
  11 F :   -0.043319
  12 H :    0.029053
  13 H :    0.032157
  14 H :    0.027497
  15 H :    0.027497
  16 H :    0.032157
  17 H :    0.029053

  Mayer bond orders larger than 0.100000
B(  0-C ,  1-C ) :   1.5739 B(  0-C ,  5-C ) :   1.0656 B(  0-C , 12-H ) :   1.0139
B(  1-C ,  2-F ) :   1.1240 B(  1-C ,  3-C ) :   1.0672 B(  3-C ,  4-C ) :   1.6312
B(  3-C , 13-H ) :   1.0003 B(  4-C ,  5-C ) :   1.0641 B(  4-C , 14-H ) :   1.0029
B(  5-C ,  6-C ) :   1.5519 B(  6-C ,  7-C ) :   1.0641 B(  6-C , 10-C ) :   1.0656
B(  7-C ,  8-C ) :   1.6311 B(  7-C , 15-H ) :   1.0030 B(  8-C ,  9-C ) :   1.0672
B(  8-C , 16-H ) :   1.0003 B(  9-C , 10-C ) :   1.5739 B(  9-C , 11-F ) :   1.1240
B( 10-C , 17-H ) :   1.0139

Dispersion correction           -0.034301421
FINAL SINGLE POINT ENERGY      -583.874812296452

DIPOLE MOMENT
-------------
                                X             Y             Z
Electronic contribution:      0.00001       0.00001       0.00300
Nuclear contribution   :     -0.00001      -0.00001      -0.00322
                        -----------------------------------------
Total Dipole Moment    :     -0.00000      -0.00001      -0.00022
                        -----------------------------------------
Magnitude (a.u.)       :      0.00022
Magnitude (Debye)      :      0.00055

Rotational constants in cm-1:     0.109720     0.014292     0.012645
Rotational constants in MHz :  3289.332997   428.451604   379.075250

                             ****ORCA TERMINATED NORMALLY****
TOTAL RUN TIME: 0 days 0 hours 4 minutes 6 seconds 22 msec
