                         Program Version 4.2.0 -  RELEASE  -
|  1> # ORCA input file
|  2> # SCF done        -36.029245486495          0.000553623486
|  3> ! B3LYP/G D3BJ Opt RIJCOSX def2-SVP def2/J
|  4> * xyz 0 1
|  5>    C        1.54327         1.26886        -0.64036
|  6>    S        2.76515         0.05655        -0.66094
|  7>    C        1.58401        -1.16917        -0.40679
|  8>    C        0.32586        -0.66677        -0.31275
|  9>    C        0.30207         0.75090        -0.44941
| 10>    C       -0.97136         1.53657        -0.41918
| 11>    C       -2.10672         0.74047         0.22832
| 12>    C       -2.16016        -0.65796        -0.40823
| 13>    C       -0.91284        -1.46373        -0.05109
| 14>    C       -2.00961         0.61318         1.73197
| 15>    C       -0.94332         0.95878         2.44638
| 16>    C       -3.21561         0.06713         2.36142
| 17>    C       -3.23693        -0.67147         3.46199
| 18>    H        1.82022         2.29605        -0.77305
| 19>    H        1.89601        -2.19244        -0.33829
| 20>    H       -1.25899         1.77151        -1.44989
| 21>    H       -0.82445         2.48694         0.09838
| 22>    H       -3.05023         1.25486         0.00359
| 23>    H       -2.22967        -0.55066        -1.49328
| 24>    H       -3.04680        -1.19275        -0.06223
| 25>    H       -0.88753        -2.39713        -0.61900
| 26>    H       -0.94598        -1.72573         1.01172
| 27>    H       -0.04432         1.34786         2.00414
| 28>    H       -0.94015         0.86725         3.51928
| 29>    H       -4.14539         0.28055         1.84703
| 30>    H       -2.33483        -0.93914         3.98629
| 31>    H       -4.15764        -1.04469         3.87727
| 32> *
| 33>
| 34>                          ****END OF INPUT****
 Total Charge           Charge          ....    0
 Multiplicity           Mult            ....    1
 Number of Electrons    NEL             ....  102
Dispersion correction           -0.060750898
FINAL SINGLE POINT ENERGY      -863.462988578837
Dispersion correction            ... done
Dispersion correction           -0.059679768
FINAL SINGLE POINT ENERGY      -863.467191969060
Dispersion correction            ... done
Dispersion correction           -0.059418769
FINAL SINGLE POINT ENERGY      -863.467290255226
Dispersion correction            ... done
FINAL SINGLE POINT ENERGY      -863.467192131539
FINAL SINGLE POINT ENERGY      -863.467162147902
Dispersion correction            ... done
Dispersion correction           -0.059292313
FINAL SINGLE POINT ENERGY      -863.467206495705
Dispersion correction            ... done
Dispersion correction           -0.059325757
FINAL SINGLE POINT ENERGY      -863.467210586649
Dispersion correction            ... done
                    ***********************HURRAY********************

CARTESIAN COORDINATES (ANGSTROEM)
---------------------------------
  C      1.596692    1.284020   -0.723093
  S      2.814975    0.064596   -0.858796
  C      1.656288   -1.186822   -0.575148
  C      0.390396   -0.688423   -0.380640
  C      0.354724    0.747784   -0.476436
  C     -0.934980    1.523295   -0.375438
  C     -2.076656    0.716518    0.263942
  C     -2.126336   -0.706869   -0.340406
  C     -0.841411   -1.492626   -0.050852
  C     -2.048798    0.648758    1.782987
  C     -0.997677    1.017657    2.534203
  C     -3.292166    0.125217    2.387939
  C     -3.373930   -0.670966    3.461605
  H      1.859029    2.333917   -0.847550
  H      1.974294   -2.228334   -0.550564
  H     -1.253390    1.810580   -1.392587
  H     -0.780748    2.466932    0.170775
  H     -3.024504    1.215452   -0.006752
  H     -2.277491   -0.622696   -1.430138
  H     -2.991852   -1.255391    0.062314
  H     -0.841356   -2.443319   -0.605608
  H     -0.818759   -1.759788    1.020638
  H     -0.063972    1.370711    2.093406
  H     -1.051139    0.977430    3.625268
  H     -4.219968    0.408150    1.872556
  H     -2.478128   -1.025381    3.979788
  H     -4.339079   -1.004580    3.851878

 Multiplicity           Mult            ....    1
 Number of Electrons    NEL             ....  102
 Basis Dimension        Dim             ....  256

ORBITAL ENERGIES
----------------

  NO   OCC          E(Eh)            E(eV)
   0   2.0000     -88.864166     -2418.1169
   1   2.0000     -10.200048      -277.5574
   2   2.0000     -10.199444      -277.5410
   3   2.0000     -10.197268      -277.4818
   4   2.0000     -10.195170      -277.4247
   5   2.0000     -10.194563      -277.4082
   6   2.0000     -10.190668      -277.3022
   7   2.0000     -10.188495      -277.2430
   8   2.0000     -10.188094      -277.2321
   9   2.0000     -10.188034      -277.2305
  10   2.0000     -10.187633      -277.2196
  11   2.0000     -10.186520      -277.1893
  12   2.0000     -10.179675      -277.0030
  13   2.0000      -7.959276      -216.5829
  14   2.0000      -5.927379      -161.2922
  15   2.0000      -5.923242      -161.1796
  16   2.0000      -5.920750      -161.1118
  17   2.0000      -0.875214       -23.8158
  18   2.0000      -0.833389       -22.6777
  19   2.0000      -0.786594       -21.4043
  20   2.0000      -0.755243       -20.5512
  21   2.0000      -0.729458       -19.8496
  22   2.0000      -0.712050       -19.3759
  23   2.0000      -0.684181       -18.6175
  24   2.0000      -0.638576       -17.3765
  25   2.0000      -0.605211       -16.4686
  26   2.0000      -0.573083       -15.5944
  27   2.0000      -0.561398       -15.2764
  28   2.0000      -0.522528       -14.2187
  29   2.0000      -0.501440       -13.6449
  30   2.0000      -0.493612       -13.4319
  31   2.0000      -0.473281       -12.8786
  32   2.0000      -0.454479       -12.3670
  33   2.0000      -0.448372       -12.2008
  34   2.0000      -0.430125       -11.7043
  35   2.0000      -0.410990       -11.1836
  36   2.0000      -0.406292       -11.0558
  37   2.0000      -0.397893       -10.8272
  38   2.0000      -0.394514       -10.7353
  39   2.0000      -0.392777       -10.6880
  40   2.0000      -0.386468       -10.5163
  41   2.0000      -0.360022        -9.7967
  42   2.0000      -0.345439        -9.3999
  43   2.0000      -0.335474        -9.1287
  44   2.0000      -0.330643        -8.9973
  45   2.0000      -0.329297        -8.9606
  46   2.0000      -0.320931        -8.7330
  47   2.0000      -0.296079        -8.0567
  48   2.0000      -0.241806        -6.5799
  49   2.0000      -0.232179        -6.3179
  50   2.0000      -0.226526        -6.1641
  51   0.0000      -0.028456        -0.7743
  52   0.0000      -0.013149        -0.3578
  53   0.0000       0.040002         1.0885
  54   0.0000       0.055997         1.5237
  55   0.0000       0.056997         1.5510

MULLIKEN ATOMIC CHARGES
-----------------------
   0 C :   -0.152037
   1 S :    0.088919
   2 C :   -0.145791
   3 C :   -0.034480
   4 C :   -0.054579
   5 C :    0.184528
   6 C :   -0.049500
   7 C :    0.036646
   8 C :    0.159414
   9 C :   -0.050830
  10 C :   -0.032495
  11 C :   -0.014988
  12 C :   -0.019749
  13 H :    0.007515
  14 H :    0.006928
  15 H :    0.003159
  16 H :   -0.000894
  17 H :   -0.011579
  18 H :    0.001666
  19 H :   -0.003237
  20 H :   -0.007966
  21 H :    0.017556
  22 H :    0.022990
  23 H :    0.012991
  24 H :   -0.002922
  25 H :    0.019188
  26 H :    0.019545
Sum of atomic charges:   -0.0000000

LOEWDIN ATOMIC CHARGES
----------------------
   0 C :   -0.208829
   1 S :    0.419967
   2 C :   -0.204401
   3 C :   -0.064949
   4 C :   -0.068671
   5 C :   -0.016397
   6 C :   -0.022901
   7 C :   -0.018094
   8 C :   -0.022215
   9 C :   -0.025649
  10 C :   -0.051243
  11 C :   -0.023977
  12 C :   -0.043371
  13 H :    0.019991
  14 H :    0.020114
  15 H :    0.032624
  16 H :    0.028169
  17 H :    0.027206
  18 H :    0.020977
  19 H :    0.022294
  20 H :    0.028096
  21 H :    0.032840
  22 H :    0.024384
  23 H :    0.022286
  24 H :    0.025238
  25 H :    0.022382
  26 H :    0.024130

  Mayer bond orders larger than 0.100000
B(  0-C ,  1-S ) :   1.1597 B(  0-C ,  4-C ) :   1.5414 B(  0-C , 13-H ) :   0.9664
B(  1-S ,  2-C ) :   1.1591 B(  2-C ,  3-C ) :   1.5531 B(  2-C , 14-H ) :   0.9647
B(  3-C ,  4-C ) :   1.2907 B(  3-C ,  8-C ) :   1.0426 B(  4-C ,  5-C ) :   1.0333
B(  5-C ,  6-C ) :   1.0691 B(  5-C , 15-H ) :   0.9026 B(  5-C , 16-H ) :   0.9141
B(  6-C ,  7-C ) :   1.0444 B(  6-C ,  9-C ) :   0.9845 B(  6-C , 17-H ) :   0.8917
B(  7-C ,  8-C ) :   1.0899 B(  7-C , 18-H ) :   0.9381 B(  7-C , 19-H ) :   0.9217
B(  8-C , 20-H ) :   0.9129 B(  8-C , 21-H ) :   0.9060 B(  9-C , 10-C ) :   1.9687
B(  9-C , 11-C ) :   1.0298 B( 10-C , 22-H ) :   0.9247 B( 10-C , 23-H ) :   0.9368
B( 11-C , 12-C ) :   1.9651 B( 11-C , 24-H ) :   0.9503 B( 12-C , 25-H ) :   0.9517
B( 12-C , 26-H ) :   0.9459

Dispersion correction           -0.059337528
FINAL SINGLE POINT ENERGY      -863.467206663318

DIPOLE MOMENT
-------------
                                X             Y             Z
Electronic contribution:     13.82325       0.97012      -6.02926
Nuclear contribution   :    -14.26589      -1.02260       5.99923
                        -----------------------------------------
Total Dipole Moment    :     -0.44264      -0.05247      -0.03003
                        -----------------------------------------
Magnitude (a.u.)       :      0.44675
Magnitude (Debye)      :      1.13556

Rotational constants in cm-1:     0.052859     0.013761     0.013372
Rotational constants in MHz :  1584.666451   412.535148   400.893390

                             ****ORCA TERMINATED NORMALLY****
TOTAL RUN TIME: 0 days 0 hours 14 minutes 10 seconds 638 msec
