                         Program Version 4.2.0 -  RELEASE  -
|  1> # ORCA input file
|  2> # SCF done        -48.762444196610          0.000540888874
|  3> ! B3LYP/G D3BJ Opt RIJCOSX def2-SVP def2/J
|  4> * xyz 0 1
|  5>    C        0.20232         1.50256        -2.96058
|  6>    S       -0.85818         0.16990        -3.16158
|  7>    C       -0.10461        -0.65760        -1.85327
|  8>    C        0.89125         0.06785        -1.29384
|  9>    C        1.07567         1.33599        -1.92069
| 10>    C        2.08071         2.32105        -1.57038
| 11>    C        2.56607         2.57734        -0.34222
| 12>    C        3.70789         3.54707        -0.17715
| 13>    C        5.01881         2.83204         0.04408
| 14>    C        5.39069         1.76963        -0.76936
| 15>    C        6.59599         1.12129        -0.57692
| 16>    C        7.46333         1.51350         0.43424
| 17>    C        8.79072         0.83517         0.61938
| 18>    C        9.88184         1.56764        -0.16396
| 19>    C        7.09319         2.57949         1.24298
| 20>    C        5.88781         3.22951         1.05142
| 21>    C        2.00843         1.97759         0.85852
| 22>    C        2.61089         1.90721         2.04116
| 23>    H        0.10881         2.35167        -3.60855
| 24>    H       -0.44674        -1.63793        -1.58677
| 25>    H        1.50973        -0.28976        -0.49051
| 26>    H        2.46207         2.89049        -2.41016
| 27>    H        3.51005         4.21355         0.66485
| 28>    H        3.79421         4.15858        -1.08030
| 29>    H        4.72638         1.44642        -1.55804
| 30>    H        6.86661         0.29527        -1.21977
| 31>    H        8.72997        -0.19809         0.27148
| 32>    H        9.05598         0.82357         1.67888
| 33>    H        9.64227         1.57866        -1.22499
| 34>    H       10.84307         1.07670        -0.02938
| 35>    H        9.96652         2.59696         0.17734
| 36>    H        7.75396         2.90159         2.03570
| 37>    H        5.62034         4.05764         1.69413
| 38>    H        1.00163         1.59311         0.75652
| 39>    H        3.61834         2.25000         2.19911
| 40>    H        2.11673         1.47362         2.89417
| 41> *
| 42>
| 43>                          ****END OF INPUT****
 Total Charge           Charge          ....    0
 Multiplicity           Mult            ....    1
 Number of Electrons    NEL             ....  136
Dispersion correction           -0.078865772
FINAL SINGLE POINT ENERGY     -1056.294086912786
Dispersion correction            ... done
Dispersion correction           -0.077774862
FINAL SINGLE POINT ENERGY     -1056.299675213780
Dispersion correction            ... done
Dispersion correction           -0.077735075
FINAL SINGLE POINT ENERGY     -1056.299751241981
Dispersion correction            ... done
FINAL SINGLE POINT ENERGY     -1056.299511871420
FINAL SINGLE POINT ENERGY     -1056.299684111356
FINAL SINGLE POINT ENERGY     -1056.299778293767
FINAL SINGLE POINT ENERGY     -1056.299821516429
FINAL SINGLE POINT ENERGY     -1056.299707401248
FINAL SINGLE POINT ENERGY     -1056.299297223378
FINAL SINGLE POINT ENERGY     -1056.298777922133
FINAL SINGLE POINT ENERGY     -1056.299012740328
FINAL SINGLE POINT ENERGY     -1056.299531728985
FINAL SINGLE POINT ENERGY     -1056.299433360786
FINAL SINGLE POINT ENERGY     -1056.299357227457
FINAL SINGLE POINT ENERGY     -1056.299328974349
Dispersion correction            ... done
Dispersion correction           -0.077505500
FINAL SINGLE POINT ENERGY     -1056.299290645633
Dispersion correction            ... done
Dispersion correction           -0.077508368
FINAL SINGLE POINT ENERGY     -1056.299270361815
Dispersion correction            ... done
                    ***********************HURRAY********************

CARTESIAN COORDINATES (ANGSTROEM)
---------------------------------
  C      0.207506    1.395783   -2.998964
  S     -0.793105    0.006971   -3.210961
  C     -0.140313   -0.737203   -1.790003
  C      0.800054    0.054842   -1.189668
  C      1.009250    1.308925   -1.873105
  C      1.985207    2.338884   -1.515455
  C      2.504249    2.627034   -0.291923
  C      3.679620    3.577504   -0.200799
  C      5.009466    2.852656   -0.056623
  C      5.354069    1.808893   -0.925354
  C      6.574239    1.143800   -0.799634
  C      7.489968    1.488161    0.205332
  C      8.797074    0.744442    0.364739
  C     10.043254    1.621501    0.197630
  C      7.145181    2.537558    1.070817
  C      5.928813    3.209844    0.939579
  C      1.984069    2.037663    0.943797
  C      2.576250    2.050894    2.150227
  H      0.154123    2.223099   -3.705810
  H     -0.480815   -1.724490   -1.482458
  H      1.362286   -0.254912   -0.310218
  H      2.360937    2.925607   -2.360958
  H      3.550613    4.266494    0.648253
  H      3.707474    4.195528   -1.114038
  H      4.647444    1.500289   -1.699258
  H      6.815168    0.329933   -1.489115
  H      8.828794   -0.083701   -0.361960
  H      8.821473    0.271977    1.362996
  H     10.074975    2.081120   -0.803130
  H     10.960946    1.026695    0.333456
  H     10.063930    2.440284    0.933984
  H      7.836664    2.830681    1.866093
  H      5.682953    4.021334    1.630484
  H      0.993558    1.581949    0.866122
  H      3.573082    2.464801    2.313922
  H      2.074293    1.614440    3.017541

 Multiplicity           Mult            ....    1
 Number of Electrons    NEL             ....  136
 Basis Dimension        Dim             ....  346

ORBITAL ENERGIES
----------------

  NO   OCC          E(Eh)            E(eV)
   0   2.0000     -88.875922     -2418.4368
   1   2.0000     -10.212957      -277.9087
   2   2.0000     -10.211852      -277.8786
   3   2.0000     -10.201183      -277.5883
   4   2.0000     -10.197696      -277.4934
   5   2.0000     -10.193775      -277.3867
   6   2.0000     -10.193650      -277.3833
   7   2.0000     -10.192432      -277.3502
   8   2.0000     -10.191693      -277.3301
   9   2.0000     -10.189462      -277.2694
  10   2.0000     -10.189016      -277.2572
  11   2.0000     -10.188280      -277.2372
  12   2.0000     -10.186049      -277.1765
  13   2.0000     -10.184901      -277.1452
  14   2.0000     -10.184161      -277.1251
  15   2.0000     -10.184083      -277.1230
  16   2.0000     -10.182168      -277.0709
  17   2.0000     -10.181449      -277.0513
  18   2.0000      -7.971134      -216.9056
  19   2.0000      -5.939176      -161.6132
  20   2.0000      -5.935022      -161.5002
  21   2.0000      -5.932684      -161.4365
  22   2.0000      -0.880196       -23.9514
  23   2.0000      -0.852028       -23.1849
  24   2.0000      -0.821319       -22.3492
  25   2.0000      -0.781423       -21.2636
  26   2.0000      -0.755419       -20.5560
  27   2.0000      -0.738631       -20.0992
  28   2.0000      -0.733018       -19.9464
  29   2.0000      -0.723783       -19.6951
  30   2.0000      -0.705836       -19.2068
  31   2.0000      -0.667002       -18.1500
  32   2.0000      -0.616997       -16.7893
  33   2.0000      -0.603288       -16.4163
  34   2.0000      -0.599182       -16.3046
  35   2.0000      -0.566874       -15.4254
  36   2.0000      -0.562482       -15.3059
  37   2.0000      -0.546583       -14.8733
  38   2.0000      -0.528695       -14.3865
  39   2.0000      -0.498972       -13.5777
  40   2.0000      -0.490733       -13.3535
  41   2.0000      -0.473490       -12.8843
  42   2.0000      -0.465245       -12.6600
  43   2.0000      -0.448322       -12.1995
  44   2.0000      -0.435842       -11.8599
  45   2.0000      -0.429042       -11.6748
  46   2.0000      -0.420204       -11.4343
  47   2.0000      -0.414236       -11.2719
  48   2.0000      -0.410857       -11.1800
  49   2.0000      -0.408270       -11.1096
  50   2.0000      -0.398464       -10.8428
  51   2.0000      -0.393963       -10.7203
  52   2.0000      -0.388024       -10.5587
  53   2.0000      -0.378808       -10.3079
  54   2.0000      -0.375024       -10.2049
  55   2.0000      -0.369917       -10.0659
  56   2.0000      -0.357068        -9.7163
  57   2.0000      -0.349742        -9.5170
  58   2.0000      -0.343577        -9.3492
  59   2.0000      -0.335958        -9.1419
  60   2.0000      -0.333384        -9.0718
  61   2.0000      -0.325667        -8.8618
  62   2.0000      -0.310817        -8.4578
  63   2.0000      -0.272295        -7.4095
  64   2.0000      -0.251779        -6.8513
  65   2.0000      -0.248183        -6.7534
  66   2.0000      -0.234807        -6.3894
  67   2.0000      -0.212312        -5.7773
  68   0.0000      -0.050550        -1.3755
  69   0.0000      -0.010535        -0.2867
  70   0.0000      -0.009618        -0.2617
  71   0.0000      -0.001913        -0.0521
  72   0.0000       0.042796         1.1646

MULLIKEN ATOMIC CHARGES
-----------------------
   0 C :   -0.131668
   1 S :    0.102976
   2 C :   -0.092706
   3 C :    0.024064
   4 C :    0.057421
   5 C :   -0.002306
   6 C :   -0.067336
   7 C :    0.199348
   8 C :   -0.031334
   9 C :   -0.000547
  10 C :   -0.011895
  11 C :   -0.005299
  12 C :    0.070792
  13 C :    0.001713
  14 C :   -0.024815
  15 C :   -0.006161
  16 C :   -0.029828
  17 C :   -0.017863
  18 H :    0.023211
  19 H :    0.027261
  20 H :    0.001634
  21 H :   -0.023793
  22 H :   -0.011295
  23 H :    0.007108
  24 H :   -0.029529
  25 H :   -0.034082
  26 H :   -0.006592
  27 H :    0.009226
  28 H :    0.011142
  29 H :    0.009041
  30 H :    0.014698
  31 H :   -0.033176
  32 H :   -0.030873
  33 H :   -0.000987
  34 H :    0.014955
  35 H :    0.017492
Sum of atomic charges:   -0.0000000

LOEWDIN ATOMIC CHARGES
----------------------
   0 C :   -0.193450
   1 S :    0.430734
   2 C :   -0.190167
   3 C :   -0.059973
   4 C :   -0.068724
   5 C :   -0.029851
   6 C :   -0.022533
   7 C :   -0.009481
   8 C :   -0.023512
   9 C :   -0.022993
  10 C :   -0.027721
  11 C :   -0.024188
  12 C :   -0.028372
  13 C :   -0.050813
  14 C :   -0.027694
  15 C :   -0.031936
  16 C :   -0.028213
  17 C :   -0.047389
  18 H :    0.024382
  19 H :    0.025464
  20 H :    0.032758
  21 H :    0.024579
  22 H :    0.026866
  23 H :    0.035447
  24 H :    0.024894
  25 H :    0.023045
  26 H :    0.023481
  27 H :    0.029187
  28 H :    0.023272
  29 H :    0.022243
  30 H :    0.020652
  31 H :    0.022137
  32 H :    0.021980
  33 H :    0.029584
  34 H :    0.022113
  35 H :    0.024193

  Mayer bond orders larger than 0.100000
B(  0-C ,  1-S ) :   1.1665 B(  0-C ,  4-C ) :   1.5027 B(  0-C , 18-H ) :   0.9681
B(  1-S ,  2-C ) :   1.1651 B(  2-C ,  3-C ) :   1.5666 B(  2-C , 19-H ) :   0.9641
B(  3-C ,  4-C ) :   1.2332 B(  3-C , 20-H ) :   0.9903 B(  4-C ,  5-C ) :   1.0693
B(  5-C ,  6-C ) :   1.7155 B(  5-C , 21-H ) :   0.9542 B(  6-C ,  7-C ) :   1.0567
B(  6-C , 16-C ) :   1.1147 B(  7-C ,  8-C ) :   1.0333 B(  7-C , 22-H ) :   0.9030
B(  7-C , 23-H ) :   0.9007 B(  8-C ,  9-C ) :   1.3819 B(  8-C , 15-C ) :   1.3790
B(  9-C , 10-C ) :   1.3674 B(  9-C , 24-H ) :   0.9817 B( 10-C , 11-C ) :   1.3871
B( 10-C , 25-H ) :   0.9846 B( 11-C , 12-C ) :   1.0391 B( 11-C , 14-C ) :   1.3730
B( 12-C , 13-C ) :   1.1011 B( 12-C , 26-H ) :   0.9340 B( 12-C , 27-H ) :   0.9272
B( 13-C , 28-H ) :   0.9688 B( 13-C , 29-H ) :   0.9651 B( 13-C , 30-H ) :   0.9714
B( 14-C , 15-C ) :   1.3768 B( 14-C , 31-H ) :   0.9867 B( 15-C , 32-H ) :   0.9804
B( 16-C , 17-C ) :   1.9122 B( 16-C , 33-H ) :   0.9489 B( 17-C , 34-H ) :   0.9369
B( 17-C , 35-H ) :   0.9448

Dispersion correction           -0.077506756
FINAL SINGLE POINT ENERGY     -1056.299264516482

DIPOLE MOMENT
-------------
                                X             Y             Z
Electronic contribution:    -24.41507      -3.78800     -11.16160
Nuclear contribution   :     24.55614       3.68996      11.19855
                        -----------------------------------------
Total Dipole Moment    :      0.14107      -0.09804       0.03696
                        -----------------------------------------
Magnitude (a.u.)       :      0.17572
Magnitude (Debye)      :      0.44665

Rotational constants in cm-1:     0.027203     0.004972     0.004620
Rotational constants in MHz :   815.529308   149.047869   138.510422

                             ****ORCA TERMINATED NORMALLY****
TOTAL RUN TIME: 0 days 0 hours 54 minutes 55 seconds 470 msec
