                         Program Version 4.2.0 -  RELEASE  -
|  1> # ORCA input file
|  2> # SCF done        -41.331712296177          0.000445868503
|  3> ! B3LYP/G D3BJ Opt RIJCOSX def2-SVP def2/J
|  4> * xyz 0 1
|  5>    C        1.64802         1.15153         0.06489
|  6>    S        2.78859        -0.12741         0.10443
|  7>    C        1.52852        -1.29411         0.02420
|  8>    C        0.29540        -0.72614        -0.02935
|  9>    C        0.36762         0.69496        -0.00505
| 10>    C       -0.85543         1.56935        -0.01398
| 11>    C       -0.98642         2.25122         1.34764
| 12>    F        0.01008         3.12798         1.55969
| 13>    F       -2.12558         2.95610         1.45880
| 14>    F       -0.96540         1.40588         2.38575
| 15>    C       -2.11666         0.77047        -0.36874
| 16>    C       -2.15541        -0.58374         0.33582
| 17>    C       -1.00197        -1.46097        -0.14499
| 18>    H        1.98736         2.16742         0.10320
| 19>    H        1.77428        -2.33710         0.02064
| 20>    H       -0.72661         2.39327        -0.72654
| 21>    H       -2.12179         0.60918        -1.44876
| 22>    H       -3.00082         1.35674        -0.11290
| 23>    H       -3.10494        -1.07522         0.11857
| 24>    H       -2.08832        -0.44868         1.41546
| 25>    H       -1.16289        -1.72878        -1.19455
| 26>    H       -0.95944        -2.38842         0.42795
| 27> *
| 28>
| 29>                          ****END OF INPUT****
 Total Charge           Charge          ....    0
 Multiplicity           Mult            ....    1
 Number of Electrons    NEL             ....  106
Dispersion correction           -0.046297602
FINAL SINGLE POINT ENERGY     -1045.565273838754
Dispersion correction            ... done
Dispersion correction           -0.045834148
FINAL SINGLE POINT ENERGY     -1045.567927911908
Dispersion correction            ... done
Dispersion correction           -0.045742073
FINAL SINGLE POINT ENERGY     -1045.567963805703
Dispersion correction            ... done
FINAL SINGLE POINT ENERGY     -1045.567921019058
FINAL SINGLE POINT ENERGY     -1045.567938372912
FINAL SINGLE POINT ENERGY     -1045.567964622718
Dispersion correction            ... done
Dispersion correction           -0.045715848
FINAL SINGLE POINT ENERGY     -1045.567958008696
Dispersion correction            ... done
Dispersion correction           -0.045711184
FINAL SINGLE POINT ENERGY     -1045.567940737656
Dispersion correction            ... done
                    ***********************HURRAY********************

CARTESIAN COORDINATES (ANGSTROEM)
---------------------------------
  C      1.679648    1.145482    0.097413
  S      2.820461   -0.148183    0.113849
  C      1.559976   -1.325876    0.010341
  C      0.313846   -0.748198   -0.037542
  C      0.383178    0.689019    0.020850
  C     -0.856847    1.561836    0.027194
  C     -0.988651    2.338729    1.337484
  F      0.029490    3.208663    1.485296
  F     -2.122649    3.067827    1.365316
  F     -1.003650    1.547803    2.424540
  C     -2.136958    0.762389   -0.303517
  C     -2.167778   -0.634184    0.321590
  C     -0.993568   -1.484299   -0.175071
  H      2.019403    2.176420    0.172748
  H      1.803588   -2.386999   -0.023764
  H     -0.742220    2.358810   -0.725532
  H     -2.197803    0.665124   -1.400214
  H     -3.013770    1.348193    0.007065
  H     -3.118004   -1.128437    0.062597
  H     -2.132561   -0.551303    1.419983
  H     -1.157939   -1.734904   -1.239739
  H     -0.949001   -2.444380    0.361292

 Multiplicity           Mult            ....    1
 Number of Electrons    NEL             ....  106
 Basis Dimension        Dim             ....  231

ORBITAL ENERGIES
----------------

  NO   OCC          E(Eh)            E(eV)
   0   2.0000     -88.874754     -2418.4050
   1   2.0000     -24.716126      -672.5600
   2   2.0000     -24.715786      -672.5507
   3   2.0000     -24.715749      -672.5497
   4   2.0000     -10.426673      -283.7242
   5   2.0000     -10.223162      -278.1864
   6   2.0000     -10.211743      -277.8757
   7   2.0000     -10.208562      -277.7891
   8   2.0000     -10.202044      -277.6117
   9   2.0000     -10.201560      -277.5986
  10   2.0000     -10.198129      -277.5052
  11   2.0000     -10.197589      -277.4905
  12   2.0000     -10.193774      -277.3867
  13   2.0000      -7.969804      -216.8694
  14   2.0000      -5.937817      -161.5762
  15   2.0000      -5.933714      -161.4646
  16   2.0000      -5.931442      -161.4027
  17   2.0000      -1.294122       -35.2149
  18   2.0000      -1.202314       -32.7166
  19   2.0000      -1.201239       -32.6874
  20   2.0000      -0.887298       -24.1446
  21   2.0000      -0.831386       -22.6232
  22   2.0000      -0.783798       -21.3282
  23   2.0000      -0.735405       -20.0114
  24   2.0000      -0.712187       -19.3796
  25   2.0000      -0.683540       -18.6001
  26   2.0000      -0.640361       -17.4251
  27   2.0000      -0.600574       -16.3424
  28   2.0000      -0.591577       -16.0976
  29   2.0000      -0.587564       -15.9884
  30   2.0000      -0.575884       -15.6706
  31   2.0000      -0.553829       -15.0705
  32   2.0000      -0.509310       -13.8590
  33   2.0000      -0.493476       -13.4282
  34   2.0000      -0.469642       -12.7796
  35   2.0000      -0.467476       -12.7207
  36   2.0000      -0.464956       -12.6521
  37   2.0000      -0.435949       -11.8628
  38   2.0000      -0.435278       -11.8445
  39   2.0000      -0.431104       -11.7309
  40   2.0000      -0.419346       -11.4110
  41   2.0000      -0.409747       -11.1498
  42   2.0000      -0.407794       -11.0966
  43   2.0000      -0.403179       -10.9711
  44   2.0000      -0.399595       -10.8735
  45   2.0000      -0.393148       -10.6981
  46   2.0000      -0.360531        -9.8106
  47   2.0000      -0.347793        -9.4639
  48   2.0000      -0.342235        -9.3127
  49   2.0000      -0.338575        -9.2131
  50   2.0000      -0.333272        -9.0688
  51   2.0000      -0.248933        -6.7738
  52   2.0000      -0.237431        -6.4608
  53   0.0000      -0.023872        -0.6496
  54   0.0000       0.039714         1.0807
  55   0.0000       0.048056         1.3077
  56   0.0000       0.050748         1.3809
  57   0.0000       0.074682         2.0322

MULLIKEN ATOMIC CHARGES
-----------------------
   0 C :   -0.131741
   1 S :    0.104813
   2 C :   -0.147136
   3 C :   -0.033333
   4 C :   -0.014909
   5 C :   -0.047844
   6 C :    0.508581
   7 F :   -0.174746
   8 F :   -0.177754
   9 F :   -0.172517
  10 C :    0.036366
  11 C :    0.017791
  12 C :    0.137013
  13 H :    0.020303
  14 H :    0.012175
  15 H :    0.023806
  16 H :    0.005750
  17 H :    0.012015
  18 H :   -0.002099
  19 H :    0.016710
  20 H :    0.009118
  21 H :   -0.002362
Sum of atomic charges:   -0.0000000

LOEWDIN ATOMIC CHARGES
----------------------
   0 C :   -0.192648
   1 S :    0.437056
   2 C :   -0.203773
   3 C :   -0.061628
   4 C :   -0.073948
   5 C :   -0.058220
   6 C :    0.174098
   7 F :   -0.066817
   8 F :   -0.068904
   9 F :   -0.063134
  10 C :   -0.022085
  11 C :   -0.030539
  12 C :   -0.021936
  13 H :    0.022873
  14 H :    0.022580
  15 H :    0.045950
  16 H :    0.027213
  17 H :    0.026150
  18 H :    0.024557
  19 H :    0.022895
  20 H :    0.030366
  21 H :    0.029897

  Mayer bond orders larger than 0.100000
B(  0-C ,  1-S ) :   1.1787 B(  0-C ,  4-C ) :   1.5430 B(  0-C , 13-H ) :   0.9624
B(  1-S ,  2-C ) :   1.1610 B(  2-C ,  3-C ) :   1.5537 B(  2-C , 14-H ) :   0.9646
B(  3-C ,  4-C ) :   1.3090 B(  3-C , 12-C ) :   1.0448 B(  4-C ,  5-C ) :   0.9640
B(  5-C ,  6-C ) :   0.9825 B(  5-C , 10-C ) :   1.0546 B(  5-C , 15-H ) :   0.8826
B(  6-C ,  7-F ) :   1.1225 B(  6-C ,  8-F ) :   1.1184 B(  6-C ,  9-F ) :   1.1327
B( 10-C , 11-C ) :   1.0786 B( 10-C , 16-H ) :   0.9318 B( 10-C , 17-H ) :   0.9296
B( 11-C , 12-C ) :   1.0893 B( 11-C , 18-H ) :   0.9310 B( 11-C , 19-H ) :   0.9431
B( 12-C , 20-H ) :   0.9148 B( 12-C , 21-H ) :   0.9162

Dispersion correction           -0.045710510
FINAL SINGLE POINT ENERGY     -1045.567931547963

DIPOLE MOMENT
-------------
                                X             Y             Z
Electronic contribution:      5.44954      12.94535       8.72458
Nuclear contribution   :     -5.66335     -13.47931      -9.39882
                        -----------------------------------------
Total Dipole Moment    :     -0.21381      -0.53396      -0.67423
                        -----------------------------------------
Magnitude (a.u.)       :      0.88624
Magnitude (Debye)      :      2.25264

Rotational constants in cm-1:     0.036573     0.019478     0.014326
Rotational constants in MHz :  1096.437771   583.942853   429.474382

                             ****ORCA TERMINATED NORMALLY****
TOTAL RUN TIME: 0 days 0 hours 11 minutes 8 seconds 943 msec
