                         Program Version 4.2.0 -  RELEASE  -
|  1> # ORCA input file
|  2> # SCF done        -27.634303897250          0.000700332606
|  3> ! B3LYP/G D3BJ Opt RIJCOSX def2-SVP def2/J
|  4> * xyz 0 1
|  5>    C       -1.52596        -1.22445         0.15992
|  6>    S       -2.70308         0.00853         0.24904
|  7>    C       -1.52960         1.24266         0.16088
|  8>    C       -0.25937         0.72459         0.06976
|  9>    C       -0.25066        -0.71589         0.06876
| 10>    C        0.98117        -1.41165        -0.02005
| 11>    C        2.14195        -0.70860        -0.10375
| 12>    C        2.15263         0.70820        -0.10426
| 13>    C        0.98465         1.39565        -0.01962
| 14>    F        0.98481         2.74714        -0.01985
| 15>    H       -1.82635        -2.25266         0.18063
| 16>    H       -1.82117         2.27331         0.18152
| 17>    H        0.97483        -2.49074        -0.02050
| 18>    H        3.08693        -1.22510        -0.17353
| 19>    H        3.08651         1.24275        -0.17258
| 20> *
| 21>
| 22>                          ****END OF INPUT****
 Total Charge           Charge          ....    0
 Multiplicity           Mult            ....    1
 Number of Electrons    NEL             ....   78
Dispersion correction           -0.032925603
FINAL SINGLE POINT ENERGY      -805.500614967400
Dispersion correction            ... done
Dispersion correction           -0.032841041
FINAL SINGLE POINT ENERGY      -805.502845999101
Dispersion correction            ... done
Dispersion correction           -0.032830308
FINAL SINGLE POINT ENERGY      -805.502923365736
Dispersion correction            ... done
FINAL SINGLE POINT ENERGY      -805.502935921921
Dispersion correction            ... done
Dispersion correction           -0.032829528
FINAL SINGLE POINT ENERGY      -805.502930405674
Dispersion correction            ... done
Dispersion correction           -0.032830215
FINAL SINGLE POINT ENERGY      -805.502936320827
Dispersion correction            ... done
                    ***********************HURRAY********************

CARTESIAN COORDINATES (ANGSTROEM)
---------------------------------
  C     -1.548417   -1.236132    0.164130
  S     -2.713592    0.018478    0.259456
  C     -1.539059    1.261812    0.165081
  C     -0.261940    0.725640    0.064496
  C     -0.256976   -0.727583    0.063345
  C      0.988350   -1.428080   -0.027082
  C      2.157100   -0.714744   -0.101090
  C      2.166632    0.718387   -0.100848
  C      0.988587    1.405360   -0.026287
  F      0.970018    2.746434   -0.031328
  H     -1.856269   -2.279680    0.184606
  H     -1.827091    2.310251    0.184995
  H      0.994022   -2.519991   -0.033356
  H      3.112361   -1.240225   -0.165893
  H      3.103564    1.273813   -0.163854

 Multiplicity           Mult            ....    1
 Number of Electrons    NEL             ....   78
 Basis Dimension        Dim             ....  169

ORBITAL ENERGIES
----------------

  NO   OCC          E(Eh)            E(eV)
   0   2.0000     -88.892300     -2418.8825
   1   2.0000     -24.700411      -672.1324
   2   2.0000     -10.275083      -279.5992
   3   2.0000     -10.220387      -278.1109
   4   2.0000     -10.217952      -278.0446
   5   2.0000     -10.208111      -277.7768
   6   2.0000     -10.207339      -277.7558
   7   2.0000     -10.200428      -277.5678
   8   2.0000     -10.196880      -277.4712
   9   2.0000     -10.195536      -277.4346
  10   2.0000      -7.986876      -217.3339
  11   2.0000      -5.954569      -162.0321
  12   2.0000      -5.950397      -161.9185
  13   2.0000      -5.949332      -161.8896
  14   2.0000      -1.209450       -32.9108
  15   2.0000      -0.898037       -24.4368
  16   2.0000      -0.834163       -22.6987
  17   2.0000      -0.762716       -20.7546
  18   2.0000      -0.742038       -20.1919
  19   2.0000      -0.704264       -19.1640
  20   2.0000      -0.623367       -16.9627
  21   2.0000      -0.595795       -16.2124
  22   2.0000      -0.583390       -15.8748
  23   2.0000      -0.542882       -14.7726
  24   2.0000      -0.506036       -13.7699
  25   2.0000      -0.484598       -13.1866
  26   2.0000      -0.471938       -12.8421
  27   2.0000      -0.463635       -12.6162
  28   2.0000      -0.439900       -11.9703
  29   2.0000      -0.420531       -11.4432
  30   2.0000      -0.403629       -10.9833
  31   2.0000      -0.402228       -10.9452
  32   2.0000      -0.372321       -10.1314
  33   2.0000      -0.363585        -9.8937
  34   2.0000      -0.355620        -9.6769
  35   2.0000      -0.339726        -9.2444
  36   2.0000      -0.284498        -7.7416
  37   2.0000      -0.259175        -7.0525
  38   2.0000      -0.209602        -5.7036
  39   0.0000      -0.062796        -1.7088
  40   0.0000       0.012168         0.3311
  41   0.0000       0.025196         0.6856
  42   0.0000       0.043073         1.1721
  43   0.0000       0.066119         1.7992

MULLIKEN ATOMIC CHARGES
-----------------------
   0 C :   -0.146625
   1 S :    0.145331
   2 C :   -0.146669
   3 C :    0.028130
   4 C :    0.103486
   5 C :   -0.000884
   6 C :    0.024331
   7 C :   -0.073519
   8 C :    0.265135
   9 F :   -0.194186
  10 H :    0.020556
  11 H :    0.027701
  12 H :   -0.025943
  13 H :   -0.013032
  14 H :   -0.013813
Sum of atomic charges:   -0.0000000

LOEWDIN ATOMIC CHARGES
----------------------
   0 C :   -0.210565
   1 S :    0.490663
   2 C :   -0.202884
   3 C :   -0.076750
   4 C :   -0.045991
   5 C :   -0.033964
   6 C :   -0.022141
   7 C :   -0.069927
   8 C :    0.086929
   9 F :   -0.064001
  10 H :    0.025848
  11 H :    0.029581
  12 H :    0.028821
  13 H :    0.029433
  14 H :    0.034947

  Mayer bond orders larger than 0.100000
B(  0-C ,  1-S ) :   1.2086 B(  0-C ,  2-C ) :   0.1186 B(  0-C ,  4-C ) :   1.4014
B(  0-C , 10-H ) :   0.9643 B(  1-S ,  2-C ) :   1.2094 B(  2-C ,  3-C ) :   1.3958
B(  2-C , 11-H ) :   0.9716 B(  3-C ,  4-C ) :   1.2037 B(  3-C ,  8-C ) :   1.1500
B(  4-C ,  5-C ) :   1.1775 B(  5-C ,  6-C ) :   1.5513 B(  5-C , 12-H ) :   0.9953
B(  6-C ,  7-C ) :   1.1639 B(  6-C , 13-H ) :   0.9810 B(  7-C ,  8-C ) :   1.5311
B(  7-C , 14-H ) :   0.9826 B(  8-C ,  9-F ) :   1.1221

Dispersion correction           -0.032830327
FINAL SINGLE POINT ENERGY      -805.502937040458

DIPOLE MOMENT
-------------
                                X             Y             Z
Electronic contribution:     -3.43228       5.59875       0.23397
Nuclear contribution   :      3.28985      -6.08503      -0.22159
                        -----------------------------------------
Total Dipole Moment    :     -0.14243      -0.48628       0.01239
                        -----------------------------------------
Magnitude (a.u.)       :      0.50686
Magnitude (Debye)      :      1.28834

Rotational constants in cm-1:     0.069292     0.034701     0.023122
Rotational constants in MHz :  2077.328399  1040.324211   693.192592

                             ****ORCA TERMINATED NORMALLY****
TOTAL RUN TIME: 0 days 0 hours 4 minutes 18 seconds 647 msec
