                         Program Version 4.2.0 -  RELEASE  -
|  1> # ORCA input file
|  2> # SCF done        -29.230897814570          0.000966072941
|  3> ! B3LYP/G D3BJ Opt RIJCOSX def2-SVP def2/J
|  4> * xyz 0 1
|  5>    C       -1.50963         1.27067        -0.08404
|  6>    S       -2.67279         0.02806        -0.10516
|  7>    C       -1.48995        -1.23417        -0.00248
|  8>    C       -0.21258        -0.68394         0.01923
|  9>    C       -0.23284         0.76117        -0.01184
| 10>    N        0.90452         1.49244         0.02435
| 11>    C        2.01013         0.81799         0.06687
| 12>    N        2.15431        -0.52316         0.01502
| 13>    C        1.07935        -1.25597        -0.01834
| 14>    C       -1.94803        -2.59337         0.06898
| 15>    C       -1.25032        -3.63794         0.51318
| 16>    H       -1.80312         2.29992        -0.10946
| 17>    H        2.93143         1.38299         0.12051
| 18>    H        1.22777        -2.32425        -0.10994
| 19>    H       -2.97544        -2.73396        -0.24230
| 20>    H       -0.24510        -3.54835         0.88562
| 21>    H       -1.68581        -4.62173         0.53609
| 22> *
| 23>
| 24>                          ****END OF INPUT****
 Total Charge           Charge          ....    0
 Multiplicity           Mult            ....    1
 Number of Electrons    NEL             ....   84
Dispersion correction           -0.038423975
FINAL SINGLE POINT ENERGY      -815.736599089394
Dispersion correction            ... done
Dispersion correction           -0.038277505
FINAL SINGLE POINT ENERGY      -815.739522521458
Dispersion correction            ... done
Dispersion correction           -0.038233714
FINAL SINGLE POINT ENERGY      -815.739650093461
Dispersion correction            ... done
FINAL SINGLE POINT ENERGY      -815.739665530444
Dispersion correction            ... done
Dispersion correction           -0.038210007
FINAL SINGLE POINT ENERGY      -815.739670305366
Dispersion correction            ... done
Dispersion correction           -0.038212728
FINAL SINGLE POINT ENERGY      -815.739680702149
Dispersion correction            ... done
                    ***********************HURRAY********************

CARTESIAN COORDINATES (ANGSTROEM)
---------------------------------
  C     -1.524503    1.296042   -0.073031
  S     -2.673095    0.030897   -0.084069
  C     -1.489784   -1.232746    0.016881
  C     -0.206499   -0.663029    0.039434
  C     -0.230673    0.785390   -0.007694
  N      0.915708    1.524453   -0.002797
  C      2.031768    0.845704    0.025558
  N      2.179494   -0.517825    0.032184
  C      1.093665   -1.249877    0.039548
  C     -1.954303   -2.607652    0.071921
  C     -1.264300   -3.685435    0.482924
  H     -1.821062    2.341436   -0.116417
  H      2.967475    1.417207    0.033913
  H      1.221808   -2.338131    0.025717
  H     -2.991524   -2.754204   -0.249932
  H     -0.244702   -3.621255    0.865598
  H     -1.727573   -4.674574    0.466551

 Multiplicity           Mult            ....    1
 Number of Electrons    NEL             ....   84
 Basis Dimension        Dim             ....  188

ORBITAL ENERGIES
----------------

  NO   OCC          E(Eh)            E(eV)
   0   2.0000     -88.905156     -2419.2323
   1   2.0000     -14.331086      -389.9687
   2   2.0000     -14.330431      -389.9508
   3   2.0000     -10.254124      -279.0289
   4   2.0000     -10.250745      -278.9370
   5   2.0000     -10.243404      -278.7372
   6   2.0000     -10.239812      -278.6395
   7   2.0000     -10.226348      -278.2731
   8   2.0000     -10.221743      -278.1478
   9   2.0000     -10.216769      -278.0124
  10   2.0000     -10.206625      -277.7364
  11   2.0000      -7.999744      -217.6841
  12   2.0000      -5.967231      -162.3766
  13   2.0000      -5.963309      -162.2699
  14   2.0000      -5.962294      -162.2423
  15   2.0000      -0.980825       -26.6896
  16   2.0000      -0.903803       -24.5937
  17   2.0000      -0.882498       -24.0140
  18   2.0000      -0.798714       -21.7341
  19   2.0000      -0.773582       -21.0502
  20   2.0000      -0.724675       -19.7194
  21   2.0000      -0.666134       -18.1264
  22   2.0000      -0.640873       -17.4390
  23   2.0000      -0.602371       -16.3913
  24   2.0000      -0.566831       -15.4242
  25   2.0000      -0.540285       -14.7019
  26   2.0000      -0.514191       -13.9919
  27   2.0000      -0.479323       -13.0430
  28   2.0000      -0.476715       -12.9721
  29   2.0000      -0.445556       -12.1242
  30   2.0000      -0.432502       -11.7690
  31   2.0000      -0.425132       -11.5684
  32   2.0000      -0.412306       -11.2194
  33   2.0000      -0.388544       -10.5728
  34   2.0000      -0.380397       -10.3511
  35   2.0000      -0.372518       -10.1367
  36   2.0000      -0.343162        -9.3379
  37   2.0000      -0.305535        -8.3140
  38   2.0000      -0.299037        -8.1372
  39   2.0000      -0.281132        -7.6500
  40   2.0000      -0.253710        -6.9038
  41   2.0000      -0.224532        -6.1098
  42   0.0000      -0.094760        -2.5786
  43   0.0000      -0.031759        -0.8642
  44   0.0000      -0.002630        -0.0716
  45   0.0000       0.019617         0.5338
  46   0.0000       0.040390         1.0991

MULLIKEN ATOMIC CHARGES
-----------------------
   0 C :   -0.115379
   1 S :    0.163048
   2 C :   -0.161764
   3 C :    0.064362
   4 C :    0.047669
   5 N :   -0.087475
   6 C :    0.083614
   7 N :   -0.131300
   8 C :    0.034583
   9 C :    0.040487
  10 C :   -0.036276
  11 H :    0.021949
  12 H :    0.015312
  13 H :    0.002938
  14 H :   -0.003235
  15 H :    0.028693
  16 H :    0.032773
Sum of atomic charges:    0.0000000

LOEWDIN ATOMIC CHARGES
----------------------
   0 C :   -0.202684
   1 S :    0.509193
   2 C :   -0.178422
   3 C :   -0.089250
   4 C :   -0.026165
   5 N :   -0.087288
   6 C :    0.044855
   7 N :   -0.104781
   8 C :    0.059423
   9 C :   -0.044412
  10 C :   -0.040827
  11 H :    0.033271
  12 H :    0.018221
  13 H :    0.022790
  14 H :    0.031499
  15 H :    0.023789
  16 H :    0.030787

  Mayer bond orders larger than 0.100000
B(  0-C ,  1-S ) :   1.1908 B(  0-C ,  2-C ) :   0.1144 B(  0-C ,  4-C ) :   1.3951
B(  0-C , 11-H ) :   0.9697 B(  1-S ,  2-C ) :   1.1956 B(  2-C ,  3-C ) :   1.3226
B(  2-C ,  9-C ) :   1.1223 B(  3-C ,  4-C ) :   1.1835 B(  3-C ,  8-C ) :   1.1936
B(  4-C ,  5-N ) :   1.3480 B(  5-N ,  6-C ) :   1.6680 B(  6-C ,  7-N ) :   1.3105
B(  6-C , 12-H ) :   0.9676 B(  7-N ,  8-C ) :   1.7005 B(  8-C , 13-H ) :   0.9753
B(  9-C , 10-C ) :   1.9093 B(  9-C , 14-H ) :   0.9421 B( 10-C , 15-H ) :   0.9519
B( 10-C , 16-H ) :   0.9435

Dispersion correction           -0.038211564
FINAL SINGLE POINT ENERGY      -815.739685185976

DIPOLE MOMENT
-------------
                                X             Y             Z
Electronic contribution:     -1.67612       5.94770      -0.75438
Nuclear contribution   :      0.68733      -6.51033       0.76043
                        -----------------------------------------
Total Dipole Moment    :     -0.98879      -0.56263       0.00605
                        -----------------------------------------
Magnitude (a.u.)       :      1.13767
Magnitude (Debye)      :      2.89173

Rotational constants in cm-1:     0.051778     0.031588     0.019694
Rotational constants in MHz :  1552.258746   946.977681   590.409961

                             ****ORCA TERMINATED NORMALLY****
TOTAL RUN TIME: 0 days 0 hours 6 minutes 4 seconds 156 msec
