                         Program Version 4.2.0 -  RELEASE  -
|  1> # ORCA input file
|  2> # SCF done        -40.492670563546          0.000482707522
|  3> ! B3LYP/G D3BJ Opt RIJCOSX def2-SVP def2/J
|  4> * xyz 0 1
|  5>    C       -1.30439         1.12955        -0.01665
|  6>    N       -2.11280         0.03680        -0.04505
|  7>    C       -3.54640         0.04798        -0.13134
|  8>    C       -1.36427        -1.16637         0.02067
|  9>    O       -1.87360        -2.26764         0.00674
| 10>    C        0.00166        -0.71210         0.09408
| 11>    C       -0.00387         0.72163         0.06764
| 12>    C        1.37097         1.16149         0.13640
| 13>    O        1.88459         2.25807         0.14283
| 14>    N        2.11857        -0.04037         0.20170
| 15>    C        3.55204         0.01820         0.26983
| 16>    C        1.30835        -1.15166         0.17681
| 17>    C        1.67755        -2.54101         0.22670
| 18>    C        2.88594        -3.09456         0.32475
| 19>    H       -1.71608         2.12133        -0.05882
| 20>    H       -3.87851         0.59232        -1.01698
| 21>    H       -3.98833         0.50466         0.75675
| 22>    H       -3.87143        -0.98986        -0.20019
| 23>    H        3.81789         1.07663         0.24480
| 24>    H        4.00795        -0.48342        -0.58558
| 25>    H        3.92164        -0.41774         1.19986
| 26>    H        0.80717        -3.18372         0.17687
| 27>    H        3.80162        -2.53618         0.38280
| 28>    H        2.98694        -4.16618         0.35213
| 29> *
| 30>
| 31>                          ****END OF INPUT****
 Total Charge           Charge          ....    0
 Multiplicity           Mult            ....    1
 Number of Electrons    NEL             ....  100
Dispersion correction           -0.046835875
FINAL SINGLE POINT ENERGY      -646.591642966817
Dispersion correction            ... done
Dispersion correction           -0.046692187
FINAL SINGLE POINT ENERGY      -646.594761598912
Dispersion correction            ... done
Dispersion correction           -0.046665556
FINAL SINGLE POINT ENERGY      -646.594931087391
Dispersion correction            ... done
FINAL SINGLE POINT ENERGY      -646.594959804170
Dispersion correction            ... done
Dispersion correction           -0.046667701
FINAL SINGLE POINT ENERGY      -646.594962072423
Dispersion correction            ... done
Dispersion correction           -0.046668840
FINAL SINGLE POINT ENERGY      -646.594965115224
Dispersion correction            ... done
                    ***********************HURRAY********************

CARTESIAN COORDINATES (ANGSTROEM)
---------------------------------
  C     -1.313009    1.144750   -0.018424
  N     -2.138607    0.045179   -0.055637
  C     -3.580449    0.055428   -0.133430
  C     -1.376229   -1.179553    0.005795
  O     -1.878123   -2.286071   -0.021972
  C     -0.002786   -0.704248    0.092877
  C     -0.008269    0.726301    0.070117
  C      1.374133    1.187256    0.146031
  O      1.884163    2.286605    0.160928
  N      2.133142   -0.038906    0.206747
  C      3.573796    0.005725    0.270647
  C      1.303951   -1.154493    0.180704
  C      1.686307   -2.551030    0.241380
  C      2.912983   -3.100235    0.319568
  H     -1.726249    2.152569   -0.059629
  H     -3.931317    0.583463   -1.034544
  H     -4.031911    0.529953    0.753249
  H     -3.909551   -0.991170   -0.181415
  H      3.854415    1.067099    0.245441
  H      4.035439   -0.504717   -0.589371
  H      3.956001   -0.441022    1.202681
  H      0.812017   -3.209050    0.217466
  H      3.833058   -2.519389    0.346072
  H      3.020294   -4.186594    0.361469

 Multiplicity           Mult            ....    1
 Number of Electrons    NEL             ....  100
 Basis Dimension        Dim             ....  246

ORBITAL ENERGIES
----------------

  NO   OCC          E(Eh)            E(eV)
   0   2.0000     -19.116301      -520.1810
   1   2.0000     -19.114292      -520.1263
   2   2.0000     -14.381205      -391.3325
   3   2.0000     -14.377869      -391.2417
   4   2.0000     -10.296029      -280.1692
   5   2.0000     -10.295759      -280.1618
   6   2.0000     -10.260989      -279.2157
   7   2.0000     -10.256755      -279.1005
   8   2.0000     -10.235463      -278.5211
   9   2.0000     -10.232338      -278.4361
  10   2.0000     -10.217908      -278.0434
  11   2.0000     -10.213594      -277.9260
  12   2.0000     -10.188142      -277.2334
  13   2.0000     -10.186934      -277.2006
  14   2.0000      -1.041327       -28.3360
  15   2.0000      -1.036611       -28.2076
  16   2.0000      -0.971390       -26.4329
  17   2.0000      -0.960391       -26.1336
  18   2.0000      -0.831688       -22.6314
  19   2.0000      -0.800891       -21.7934
  20   2.0000      -0.759497       -20.6670
  21   2.0000      -0.721056       -19.6209
  22   2.0000      -0.687794       -18.7158
  23   2.0000      -0.679342       -18.4858
  24   2.0000      -0.604066       -16.4375
  25   2.0000      -0.593369       -16.1464
  26   2.0000      -0.590218       -16.0606
  27   2.0000      -0.523371       -14.2417
  28   2.0000      -0.506566       -13.7844
  29   2.0000      -0.494472       -13.4553
  30   2.0000      -0.488481       -13.2922
  31   2.0000      -0.487129       -13.2554
  32   2.0000      -0.472459       -12.8563
  33   2.0000      -0.466765       -12.7013
  34   2.0000      -0.439860       -11.9692
  35   2.0000      -0.433050       -11.7839
  36   2.0000      -0.428341       -11.6557
  37   2.0000      -0.420834       -11.4515
  38   2.0000      -0.415381       -11.3031
  39   2.0000      -0.403917       -10.9911
  40   2.0000      -0.398194       -10.8354
  41   2.0000      -0.385537       -10.4910
  42   2.0000      -0.372401       -10.1335
  43   2.0000      -0.359569        -9.7844
  44   2.0000      -0.339805        -9.2466
  45   2.0000      -0.290500        -7.9049
  46   2.0000      -0.280408        -7.6303
  47   2.0000      -0.265101        -7.2138
  48   2.0000      -0.254106        -6.9146
  49   2.0000      -0.203909        -5.5486
  50   0.0000      -0.097135        -2.6432
  51   0.0000      -0.022193        -0.6039
  52   0.0000       0.025307         0.6886
  53   0.0000       0.059795         1.6271
  54   0.0000       0.061628         1.6770

MULLIKEN ATOMIC CHARGES
-----------------------
   0 C :    0.061849
   1 N :   -0.292920
   2 C :    0.123938
   3 C :    0.186601
   4 O :   -0.201614
   5 C :   -0.065088
   6 C :   -0.006382
   7 C :    0.186527
   8 O :   -0.193800
   9 N :   -0.306491
  10 C :    0.116995
  11 C :    0.082765
  12 C :   -0.002992
  13 C :   -0.011007
  14 H :    0.016175
  15 H :    0.029446
  16 H :    0.031306
  17 H :    0.053161
  18 H :    0.049787
  19 H :    0.038044
  20 H :    0.036496
  21 H :    0.015146
  22 H :    0.014757
  23 H :    0.037300
Sum of atomic charges:    0.0000000

LOEWDIN ATOMIC CHARGES
----------------------
   0 C :    0.090733
   1 N :   -0.018092
   2 C :    0.032537
   3 C :    0.080580
   4 O :   -0.190708
   5 C :   -0.117391
   6 C :   -0.125633
   7 C :    0.085580
   8 O :   -0.183917
   9 N :   -0.023333
  10 C :    0.030085
  11 C :    0.071235
  12 C :   -0.028544
  13 C :   -0.019877
  14 H :    0.033358
  15 H :    0.025912
  16 H :    0.025788
  17 H :    0.039102
  18 H :    0.038255
  19 H :    0.024835
  20 H :    0.024540
  21 H :    0.047863
  22 H :    0.023178
  23 H :    0.033912

  Mayer bond orders larger than 0.100000
B(  0-C ,  1-N ) :   1.1935 B(  0-C ,  6-C ) :   1.4361 B(  0-C , 14-H ) :   0.9845
B(  1-N ,  2-C ) :   0.9650 B(  1-N ,  3-C ) :   0.9955 B(  2-C , 15-H ) :   0.9731
B(  2-C , 16-H ) :   0.9735 B(  2-C , 17-H ) :   0.9575 B(  3-C ,  4-O ) :   2.0913
B(  3-C ,  5-C ) :   1.0046 B(  5-C ,  6-C ) :   1.2156 B(  5-C , 11-C ) :   1.3823
B(  6-C ,  7-C ) :   0.9707 B(  7-C ,  8-O ) :   2.1317 B(  7-C ,  9-N ) :   0.9872
B(  9-N , 10-C ) :   0.9724 B(  9-N , 11-C ) :   1.1580 B( 10-C , 18-H ) :   0.9452
B( 10-C , 19-H ) :   0.9674 B( 10-C , 20-H ) :   0.9676 B( 11-C , 12-C ) :   1.1759
B( 12-C , 13-C ) :   1.8410 B( 12-C , 21-H ) :   0.9336 B( 13-C , 22-H ) :   0.9545
B( 13-C , 23-H ) :   0.9385

Dispersion correction           -0.046669324
FINAL SINGLE POINT ENERGY      -646.594965900353

DIPOLE MOMENT
-------------
                                X             Y             Z
Electronic contribution:     -2.50379       3.22360      -0.19933
Nuclear contribution   :      2.53108      -3.36904       0.20905
                        -----------------------------------------
Total Dipole Moment    :      0.02728      -0.14544       0.00973
                        -----------------------------------------
Magnitude (a.u.)       :      0.14829
Magnitude (Debye)      :      0.37693

Rotational constants in cm-1:     0.037200     0.019103     0.012684
Rotational constants in MHz :  1115.214767   572.686327   380.242760

                             ****ORCA TERMINATED NORMALLY****
TOTAL RUN TIME: 0 days 0 hours 10 minutes 37 seconds 381 msec
