                         Program Version 4.2.0 -  RELEASE  -
|  1> # ORCA input file
|  2> # SCF done        -43.510662544176          0.000574294753
|  3> ! B3LYP/G D3BJ Opt RIJCOSX def2-SVP def2/J
|  4> * xyz 0 1
|  5>    C        2.99687         0.97921        -0.73507
|  6>    C        2.26333        -0.06128        -1.21419
|  7>    C        0.96339        -0.07401        -0.66696
|  8>    C        0.76045         0.95106         0.21900
|  9>    S        2.12770         1.97066         0.38252
| 10>    C       -0.64138         0.95242         0.68777
| 11>    C       -1.00573        -0.52515         0.47953
| 12>    C       -0.26984        -0.94683        -0.82051
| 13>    C       -1.07149        -0.53804        -2.06899
| 14>    C       -0.34793        -0.77955        -3.38852
| 15>    C        0.13214        -2.42847        -0.81828
| 16>    C       -1.02970        -3.41434        -0.82506
| 17>    C       -2.50010        -0.56883         0.74903
| 18>    C       -2.65098         0.12010         2.11330
| 19>    S       -1.22251         1.26824         2.38466
| 20>    H        4.01237         1.23344        -0.96534
| 21>    H        2.64666        -0.78265        -1.91297
| 22>    H       -1.24121         1.61954         0.05489
| 23>    H       -0.51551        -1.07748         1.29212
| 24>    H       -1.29817         0.52793        -1.99239
| 25>    H       -2.02032        -1.07745        -2.07160
| 26>    H        0.61546        -0.27546        -3.39464
| 27>    H       -0.94298        -0.38646        -4.21038
| 28>    H       -0.19020        -1.84018        -3.56581
| 29>    H        0.74461        -2.60967         0.06921
| 30>    H        0.76501        -2.61576        -1.68678
| 31>    H       -1.64720        -3.29344         0.06061
| 32>    H       -0.64591        -4.43236        -0.83141
| 33>    H       -1.65410        -3.28406        -1.70476
| 34>    H       -2.89979        -1.58063         0.79892
| 35>    H       -3.04571        -0.01726        -0.01796
| 36>    H       -2.61879        -0.59878         2.93067
| 37>    H       -3.56748         0.70216         2.18969
| 38> *
| 39>
| 40>                          ****END OF INPUT****
 Total Charge           Charge          ....    0
 Multiplicity           Mult            ....    1
 Number of Electrons    NEL             ....  128
Dispersion correction           -0.078832521
FINAL SINGLE POINT ENERGY     -1302.070458553890
Dispersion correction            ... done
Dispersion correction           -0.077980351
FINAL SINGLE POINT ENERGY     -1302.074577104005
Dispersion correction            ... done
Dispersion correction           -0.077851697
FINAL SINGLE POINT ENERGY     -1302.074812627327
Dispersion correction            ... done
FINAL SINGLE POINT ENERGY     -1302.074818764868
Dispersion correction            ... done
Dispersion correction           -0.077844007
FINAL SINGLE POINT ENERGY     -1302.074792041370
Dispersion correction            ... done
Dispersion correction           -0.077866648
FINAL SINGLE POINT ENERGY     -1302.074788635241
Dispersion correction            ... done
                    ***********************HURRAY********************

CARTESIAN COORDINATES (ANGSTROEM)
---------------------------------
  C      3.044669    0.990560   -0.743079
  C      2.291474   -0.051806   -1.232607
  C      0.984409   -0.075669   -0.657983
  C      0.789729    0.937924    0.255626
  S      2.172272    1.954709    0.414706
  C     -0.627100    0.957431    0.717510
  C     -1.015048   -0.514264    0.480474
  C     -0.265855   -0.946777   -0.822504
  C     -1.078801   -0.562322   -2.081556
  C     -0.363951   -0.754037   -3.417686
  C      0.126104   -2.438169   -0.799633
  C     -1.026149   -3.438587   -0.831325
  C     -2.512048   -0.550309    0.760522
  C     -2.674126    0.142026    2.141257
  S     -1.213709    1.287377    2.422596
  H      4.074888    1.246696   -0.984907
  H      2.671151   -0.771221   -1.959326
  H     -1.209658    1.622093    0.055330
  H     -0.519397   -1.072616    1.293502
  H     -1.383192    0.494021   -1.990288
  H     -2.016746   -1.141439   -2.078400
  H      0.563552   -0.163843   -3.461769
  H     -1.004183   -0.424413   -4.250963
  H     -0.099148   -1.807586   -3.601964
  H      0.733101   -2.605201    0.105656
  H      0.803980   -2.639477   -1.645578
  H     -1.711313   -3.303636    0.020156
  H     -0.637146   -4.468281   -0.782151
  H     -1.623540   -3.355406   -1.752886
  H     -2.930320   -1.566598    0.793035
  H     -3.066271    0.006839   -0.011272
  H     -2.671761   -0.594164    2.957682
  H     -3.604908    0.722766    2.208125

 Multiplicity           Mult            ....    1
 Number of Electrons    NEL             ....  128
 Basis Dimension        Dim             ....  308

ORBITAL ENERGIES
----------------

  NO   OCC          E(Eh)            E(eV)
   0   2.0000     -88.872787     -2418.3515
   1   2.0000     -88.824286     -2417.0317
   2   2.0000     -10.219194      -278.0784
   3   2.0000     -10.214561      -277.9523
   4   2.0000     -10.209619      -277.8179
   5   2.0000     -10.205769      -277.7131
   6   2.0000     -10.205676      -277.7106
   7   2.0000     -10.198652      -277.5194
   8   2.0000     -10.195534      -277.4346
   9   2.0000     -10.193018      -277.3661
  10   2.0000     -10.187527      -277.2167
  11   2.0000     -10.185817      -277.1702
  12   2.0000     -10.185559      -277.1631
  13   2.0000     -10.183650      -277.1112
  14   2.0000     -10.180660      -277.0298
  15   2.0000      -7.967255      -216.8000
  16   2.0000      -7.919379      -215.4972
  17   2.0000      -5.935407      -161.5106
  18   2.0000      -5.931313      -161.3992
  19   2.0000      -5.928664      -161.3272
  20   2.0000      -5.888739      -160.2407
  21   2.0000      -5.885459      -160.1515
  22   2.0000      -5.877264      -159.9285
  23   2.0000      -0.895192       -24.3594
  24   2.0000      -0.848658       -23.0932
  25   2.0000      -0.809760       -22.0347
  26   2.0000      -0.761960       -20.7340
  27   2.0000      -0.744752       -20.2657
  28   2.0000      -0.731986       -19.9184
  29   2.0000      -0.715012       -19.4565
  30   2.0000      -0.680263       -18.5109
  31   2.0000      -0.665901       -18.1201
  32   2.0000      -0.620524       -16.8853
  33   2.0000      -0.594420       -16.1750
  34   2.0000      -0.590296       -16.0628
  35   2.0000      -0.547199       -14.8900
  36   2.0000      -0.535996       -14.5852
  37   2.0000      -0.516700       -14.0601
  38   2.0000      -0.490261       -13.3407
  39   2.0000      -0.475855       -12.9487
  40   2.0000      -0.464498       -12.6396
  41   2.0000      -0.453883       -12.3508
  42   2.0000      -0.438249       -11.9254
  43   2.0000      -0.433994       -11.8096
  44   2.0000      -0.414058       -11.2671
  45   2.0000      -0.411886       -11.2080
  46   2.0000      -0.407365       -11.0850
  47   2.0000      -0.393073       -10.6961
  48   2.0000      -0.387276       -10.5383
  49   2.0000      -0.378209       -10.2916
  50   2.0000      -0.370146       -10.0722
  51   2.0000      -0.367233        -9.9929
  52   2.0000      -0.365128        -9.9356
  53   2.0000      -0.356484        -9.7004
  54   2.0000      -0.348039        -9.4706
  55   2.0000      -0.339229        -9.2309
  56   2.0000      -0.333692        -9.0802
  57   2.0000      -0.323377        -8.7995
  58   2.0000      -0.318064        -8.6549
  59   2.0000      -0.314925        -8.5695
  60   2.0000      -0.299591        -8.1523
  61   2.0000      -0.250325        -6.8117
  62   2.0000      -0.228697        -6.2232
  63   2.0000      -0.211839        -5.7644
  64   0.0000      -0.017448        -0.4748
  65   0.0000       0.027894         0.7590
  66   0.0000       0.042699         1.1619
  67   0.0000       0.051447         1.3999
  68   0.0000       0.055029         1.4974

MULLIKEN ATOMIC CHARGES
-----------------------
   0 C :   -0.096633
   1 C :    0.008548
   2 C :    0.017917
   3 C :   -0.100591
   4 S :    0.125306
   5 C :   -0.079975
   6 C :   -0.109370
   7 C :   -0.135170
   8 C :    0.073887
   9 C :    0.022199
  10 C :    0.049920
  11 C :    0.024280
  12 C :    0.149354
  13 C :   -0.055284
  14 S :   -0.068433
  15 H :    0.022407
  16 H :   -0.017999
  17 H :    0.047468
  18 H :    0.002770
  19 H :   -0.013222
  20 H :   -0.005550
  21 H :    0.015084
  22 H :    0.007977
  23 H :    0.005642
  24 H :   -0.005125
  25 H :   -0.002206
  26 H :    0.007110
  27 H :    0.008089
  28 H :    0.012138
  29 H :    0.008203
  30 H :   -0.001853
  31 H :    0.045690
  32 H :    0.037420
Sum of atomic charges:   -0.0000000

LOEWDIN ATOMIC CHARGES
----------------------
   0 C :   -0.189712
   1 C :   -0.070194
   2 C :   -0.049236
   3 C :   -0.203474
   4 S :    0.428152
   5 C :   -0.127526
   6 C :   -0.024806
   7 C :   -0.030620
   8 C :   -0.021511
   9 C :   -0.056097
  10 C :   -0.024016
  11 C :   -0.056435
  12 C :   -0.034543
  13 C :   -0.110564
  14 S :    0.182349
  15 H :    0.022606
  16 H :    0.026775
  17 H :    0.019378
  18 H :    0.023795
  19 H :    0.018941
  20 H :    0.016621
  21 H :    0.024344
  22 H :    0.025116
  23 H :    0.018849
  24 H :    0.022343
  25 H :    0.017736
  26 H :    0.020167
  27 H :    0.025766
  28 H :    0.020864
  29 H :    0.023561
  30 H :    0.021348
  31 H :    0.020975
  32 H :    0.019045

  Mayer bond orders larger than 0.100000
B(  0-C ,  1-C ) :   1.5411 B(  0-C ,  4-S ) :   1.1629 B(  0-C , 15-H ) :   0.9624
B(  1-C ,  2-C ) :   1.2722 B(  1-C , 16-H ) :   0.9912 B(  2-C ,  3-C ) :   1.6009
B(  2-C ,  7-C ) :   0.9493 B(  3-C ,  4-S ) :   1.1228 B(  3-C ,  5-C ) :   1.0291
B(  5-C ,  6-C ) :   0.9801 B(  5-C , 14-S ) :   1.0137 B(  5-C , 17-H ) :   0.8838
B(  6-C ,  7-C ) :   0.9708 B(  6-C , 12-C ) :   1.0673 B(  6-C , 18-H ) :   0.9119
B(  7-C ,  8-C ) :   1.0154 B(  7-C , 10-C ) :   1.0407 B(  8-C ,  9-C ) :   1.1146
B(  8-C , 19-H ) :   0.9280 B(  8-C , 20-H ) :   0.9272 B(  9-C , 21-H ) :   0.9609
B(  9-C , 22-H ) :   0.9596 B(  9-C , 23-H ) :   0.9616 B( 10-C , 11-C ) :   1.1081
B( 10-C , 24-H ) :   0.9282 B( 10-C , 25-H ) :   0.9337 B( 11-C , 26-H ) :   0.9651
B( 11-C , 27-H ) :   0.9587 B( 11-C , 28-H ) :   0.9626 B( 12-C , 13-C ) :   1.0583
B( 12-C , 29-H ) :   0.9323 B( 12-C , 30-H ) :   0.9141 B( 13-C , 14-S ) :   0.9868
B( 13-C , 31-H ) :   0.9489 B( 13-C , 32-H ) :   0.9478

Dispersion correction           -0.077867896
FINAL SINGLE POINT ENERGY     -1302.074794512189

DIPOLE MOMENT
-------------
                                X             Y             Z
Electronic contribution:     11.69987      18.61863      13.61881
Nuclear contribution   :    -12.04267     -19.27183     -14.30020
                        -----------------------------------------
Total Dipole Moment    :     -0.34281      -0.65320      -0.68140
                        -----------------------------------------
Magnitude (a.u.)       :      1.00423
Magnitude (Debye)      :      2.55255

Rotational constants in cm-1:     0.017680     0.017240     0.010216
Rotational constants in MHz :   530.047867   516.851401   306.257306

                             ****ORCA TERMINATED NORMALLY****
TOTAL RUN TIME: 0 days 0 hours 21 minutes 6 seconds 56 msec
