                         Program Version 4.2.0 -  RELEASE  -
|  1> # ORCA input file
|  2> # SCF done        -31.336861227460          0.000633024518
|  3> ! B3LYP/G D3BJ Opt RIJCOSX def2-SVP def2/J
|  4> * xyz 0 2
|  5>    C        2.80242         0.20314        -0.04204
|  6>    S        2.05594        -1.33419         0.17489
|  7>    C        0.49525        -0.58572         0.14091
|  8>    C       -0.83341        -0.92265         0.23137
|  9>    C       -1.63525         0.26630         0.11637
| 10>    C       -2.86085        -0.29651         0.23103
| 11>    S       -2.22453        -1.99382         0.41367
| 12>    C       -0.76628         1.47388        -0.06387
| 13>    C        0.59289         0.81895        -0.03486
| 14>    C        1.91623         1.26384        -0.13965
| 15>    C        2.27817         2.65813        -0.32758
| 16>    C        3.51179         3.13261        -0.44969
| 17>    H        3.87220         0.24336        -0.08571
| 18>    H       -3.88178         0.02091         0.23104
| 19>    H       -0.88624         2.20028         0.74371
| 20>    H       -0.95243         1.98674        -1.01078
| 21>    H        1.43552         3.33592        -0.36686
| 22>    H        4.37996         2.49756        -0.41831
| 23>    H        3.69563         4.18377        -0.58861
| 24> *
| 25>
| 26>                          ****END OF INPUT****
 Total Charge           Charge          ....    0
 Multiplicity           Mult            ....    2
 Number of Electrons    NEL             ....   99
Dispersion correction           -0.044642068
FINAL SINGLE POINT ENERGY     -1181.066892338852
Dispersion correction            ... done
Dispersion correction           -0.044511553
FINAL SINGLE POINT ENERGY     -1181.070354716268
Dispersion correction            ... done
Dispersion correction           -0.044475441
FINAL SINGLE POINT ENERGY     -1181.070607001172
Dispersion correction            ... done
FINAL SINGLE POINT ENERGY     -1181.070657267011
FINAL SINGLE POINT ENERGY     -1181.070663563821
Dispersion correction            ... done
Dispersion correction           -0.044453294
FINAL SINGLE POINT ENERGY     -1181.070667131361
Dispersion correction            ... done
Dispersion correction           -0.044454443
FINAL SINGLE POINT ENERGY     -1181.070663941913
Dispersion correction            ... done
                    ***********************HURRAY********************

CARTESIAN COORDINATES (ANGSTROEM)
---------------------------------
  C      2.829342    0.184099   -0.080890
  S      2.056027   -1.356793    0.154784
  C      0.492581   -0.600828    0.137609
  C     -0.861975   -0.931067    0.253607
  C     -1.656086    0.251577    0.130121
  C     -2.901715   -0.304446    0.261342
  S     -2.261075   -2.026023    0.469301
  C     -0.774658    1.464617   -0.077011
  C      0.598632    0.804285   -0.054903
  C      1.934832    1.253410   -0.172236
  C      2.299377    2.660895   -0.359879
  C      3.538193    3.170824   -0.397591
  H      3.914783    0.224241   -0.152518
  H     -3.937826    0.030551    0.259372
  H     -0.886809    2.218524    0.721219
  H     -0.970726    1.980403   -1.033165
  H      1.449615    3.342284   -0.476554
  H      4.427635    2.546243   -0.280266
  H      3.705083    4.239705   -0.547312

 Multiplicity           Mult            ....    2
 Number of Electrons    NEL             ....   99
 Basis Dimension        Dim             ....  211

ORBITAL ENERGIES
----------------
                 SPIN UP ORBITALS
  NO   OCC          E(Eh)            E(eV)
   0   1.0000     -88.884618     -2418.6734
   1   1.0000     -88.858004     -2417.9492
   2   1.0000     -10.228997      -278.3452
   3   1.0000     -10.224040      -278.2103
   4   1.0000     -10.223836      -278.2047
   5   1.0000     -10.223119      -278.1852
   6   1.0000     -10.217542      -278.0335
   7   1.0000     -10.209440      -277.8130
   8   1.0000     -10.208938      -277.7993
   9   1.0000     -10.205996      -277.7193
  10   1.0000     -10.196148      -277.4513
  11   1.0000     -10.194963      -277.4190
  12   1.0000      -7.978993      -217.1194
  13   1.0000      -7.951253      -216.3646
  14   1.0000      -5.947320      -161.8348
  15   1.0000      -5.943173      -161.7220
  16   1.0000      -5.940154      -161.6398
  17   1.0000      -5.920535      -161.1059
  18   1.0000      -5.917155      -161.0140
  19   1.0000      -5.909575      -160.8077
  20   1.0000      -0.913266       -24.8512
  21   1.0000      -0.872456       -23.7407
  22   1.0000      -0.795346       -21.6425
  23   1.0000      -0.793959       -21.6047
  24   1.0000      -0.729985       -19.8639
  25   1.0000      -0.706324       -19.2200
  26   1.0000      -0.656522       -17.8649
  27   1.0000      -0.645611       -17.5680
  28   1.0000      -0.606490       -16.5034
  29   1.0000      -0.561164       -15.2700
  30   1.0000      -0.535429       -14.5698
  31   1.0000      -0.501133       -13.6365
  32   1.0000      -0.487637       -13.2693
  33   1.0000      -0.463333       -12.6079
  34   1.0000      -0.462581       -12.5875
  35   1.0000      -0.443481       -12.0677
  36   1.0000      -0.419468       -11.4143
  37   1.0000      -0.409138       -11.1332
  38   1.0000      -0.393195       -10.6994
  39   1.0000      -0.390219       -10.6184
  40   1.0000      -0.376581       -10.2473
  41   1.0000      -0.374846       -10.2001
  42   1.0000      -0.364200        -9.9104
  43   1.0000      -0.351525        -9.5655
  44   1.0000      -0.314293        -8.5524
  45   1.0000      -0.312581        -8.5058
  46   1.0000      -0.274941        -7.4815
  47   1.0000      -0.241609        -6.5745
  48   1.0000      -0.217360        -5.9147
  49   1.0000      -0.176367        -4.7992
  50   0.0000      -0.046228        -1.2579
  51   0.0000      -0.012658        -0.3444
  52   0.0000      -0.001029        -0.0280
  53   0.0000       0.034161         0.9296
  54   0.0000       0.056396         1.5346

                 SPIN DOWN ORBITALS
  NO   OCC          E(Eh)            E(eV)
   0   1.0000     -88.884464     -2418.6692
   1   1.0000     -88.858159     -2417.9534
   2   1.0000     -10.231359      -278.4094
   3   1.0000     -10.218082      -278.0481
   4   1.0000     -10.217992      -278.0457
   5   1.0000     -10.217661      -278.0367
   6   1.0000     -10.216473      -278.0044
   7   1.0000     -10.210825      -277.8507
   8   1.0000     -10.205434      -277.7040
   9   1.0000     -10.204877      -277.6888
  10   1.0000     -10.198509      -277.5155
  11   1.0000     -10.195784      -277.4414
  12   1.0000      -7.978844      -217.1154
  13   1.0000      -7.951404      -216.3687
  14   1.0000      -5.947263      -161.8333
  15   1.0000      -5.943152      -161.7214
  16   1.0000      -5.939554      -161.6235
  17   1.0000      -5.920971      -161.1178
  18   1.0000      -5.917517      -161.0238
  19   1.0000      -5.909452      -160.8044
  20   1.0000      -0.908396       -24.7187
  21   1.0000      -0.867385       -23.6027
  22   1.0000      -0.794382       -21.6162
  23   1.0000      -0.790950       -21.5229
  24   1.0000      -0.727374       -19.7929
  25   1.0000      -0.704744       -19.1771
  26   1.0000      -0.652581       -17.7576
  27   1.0000      -0.635576       -17.2949
  28   1.0000      -0.604917       -16.4606
  29   1.0000      -0.555686       -15.1210
  30   1.0000      -0.533248       -14.5104
  31   1.0000      -0.498821       -13.5736
  32   1.0000      -0.485837       -13.2203
  33   1.0000      -0.461731       -12.5643
  34   1.0000      -0.457124       -12.4390
  35   1.0000      -0.442534       -12.0420
  36   1.0000      -0.417206       -11.3528
  37   1.0000      -0.407229       -11.0813
  38   1.0000      -0.388038       -10.5591
  39   1.0000      -0.386600       -10.5199
  40   1.0000      -0.373962       -10.1760
  41   1.0000      -0.363515        -9.8917
  42   1.0000      -0.355893        -9.6844
  43   1.0000      -0.350188        -9.5291
  44   1.0000      -0.313501        -8.5308
  45   1.0000      -0.310053        -8.4370
  46   1.0000      -0.254415        -6.9230
  47   1.0000      -0.235430        -6.4064
  48   1.0000      -0.213542        -5.8108
  49   0.0000      -0.092794        -2.5251
  50   0.0000      -0.035878        -0.9763
  51   0.0000      -0.001640        -0.0446
  52   0.0000       0.005508         0.1499
  53   0.0000       0.036205         0.9852

MULLIKEN ATOMIC CHARGES AND SPIN POPULATIONS
--------------------------------------------
   0 C :   -0.149936    0.343085
   1 S :    0.140264    0.022258
   2 C :   -0.108486   -0.179575
   3 C :   -0.036367    0.495691
   4 C :   -0.046540   -0.192836
   5 C :   -0.148348    0.439547
   6 S :    0.032536   -0.035496
   7 C :    0.317902   -0.010716
   8 C :   -0.202041    0.312195
   9 C :    0.114400   -0.147052
  10 C :   -0.016951    0.045366
  11 C :   -0.018109   -0.063644
  12 H :    0.025393   -0.016037
  13 H :    0.012121   -0.018886
  14 H :    0.033058    0.001170
  15 H :    0.028093    0.001210
  16 H :   -0.012753   -0.002018
  17 H :    0.010024    0.002733
  18 H :    0.025739    0.003004
Sum of atomic charges         :    0.0000000

LOEWDIN ATOMIC CHARGES AND SPIN POPULATIONS
-------------------------------------------
   0 C :   -0.175652    0.283284
   1 S :    0.428476    0.030022
   2 C :   -0.190156   -0.097455
   3 C :   -0.145569    0.395834
   4 C :   -0.087225   -0.103173
   5 C :   -0.121871    0.359590
   6 S :    0.261451   -0.008293
   7 C :   -0.014385   -0.002338
   8 C :   -0.031485    0.242650
   9 C :   -0.067606   -0.078754
  10 C :   -0.023159    0.027144
  11 C :   -0.042494   -0.050482
  12 H :    0.022815    0.000346
  13 H :    0.016280   -0.000245
  14 H :    0.047037    0.000926
  15 H :    0.046215    0.000980
  16 H :    0.028853   -0.000332
  17 H :    0.020824    0.000108
  18 H :    0.027652    0.000188

  Mayer bond orders larger than 0.100000
B(  0-C ,  1-S ) :   1.1452 B(  0-C ,  9-C ) :   1.4004 B(  0-C , 12-H ) :   0.9554
B(  1-S ,  2-C ) :   1.0634 B(  2-C ,  3-C ) :   1.4399 B(  2-C ,  8-C ) :   1.3635
B(  3-C ,  4-C ) :   1.2354 B(  3-C ,  6-S ) :   0.9724 B(  4-C ,  5-C ) :   1.5074
B(  4-C ,  7-C ) :   1.0139 B(  5-C ,  6-S ) :   0.9642 B(  5-C , 13-H ) :   0.9988
B(  7-C ,  8-C ) :   1.0159 B(  7-C , 14-H ) :   0.8822 B(  7-C , 15-H ) :   0.8803
B(  8-C ,  9-C ) :   1.3203 B(  9-C , 10-C ) :   1.0851 B( 10-C , 11-C ) :   1.9369
B( 10-C , 16-H ) :   0.9571 B( 11-C , 17-H ) :   0.9484 B( 11-C , 18-H ) :   0.9453

Dispersion correction           -0.044454678
FINAL SINGLE POINT ENERGY     -1181.070662188976

DIPOLE MOMENT
-------------
                                X             Y             Z
Electronic contribution:     -4.69043     -12.91525       1.78855
Nuclear contribution   :      4.94367      13.71802      -1.91601
                        -----------------------------------------
Total Dipole Moment    :      0.25324       0.80277      -0.12746
                        -----------------------------------------
Magnitude (a.u.)       :      0.85136
Magnitude (Debye)      :      2.16399

Rotational constants in cm-1:     0.054034     0.015721     0.012208
Rotational constants in MHz :  1619.889055   471.307325   365.991901

                             ****ORCA TERMINATED NORMALLY****
TOTAL RUN TIME: 0 days 0 hours 11 minutes 43 seconds 498 msec
