                         Program Version 4.2.0 -  RELEASE  -
|  1> # ORCA input file
|  2> # SCF done        -39.718841273874          0.000737217462
|  3> ! B3LYP/G D3BJ Opt RIJCOSX def2-SVP def2/J
|  4> * xyz 0 1
|  5>    C        0.76083        -0.97931         0.13890
|  6>    C        1.20324         0.29210         0.02760
|  7>    C        0.05777         1.18251        -0.00417
|  8>    C       -1.12400         0.30972         0.10196
|  9>    C       -0.68389        -0.97641         0.18589
| 10>    C       -2.46453         0.70436         0.11735
| 11>    N       -3.57664         0.99411         0.13248
| 12>    C        0.06320         2.54067        -0.11344
| 13>    C       -1.07025         3.42459        -0.15367
| 14>    C       -0.63850         4.71444        -0.27797
| 15>    C        0.82132         4.69716        -0.32045
| 16>    C        1.25199         3.41507        -0.22314
| 17>    C        2.59432         3.02039        -0.22668
| 18>    N        3.70869         2.74115        -0.23055
| 19>    C       -1.47397         5.88119        -0.35439
| 20>    C       -1.03442         7.13358        -0.47563
| 21>    H        1.36089        -1.86890         0.18686
| 22>    H        2.22211         0.62006        -0.03069
| 23>    H       -1.29988        -1.85280         0.27323
| 24>    H       -2.09082         3.10068        -0.09517
| 25>    H        1.44819         5.56421        -0.41391
| 26>    H       -2.53731         5.68432        -0.30787
| 27>    H        0.01298         7.37549        -0.52701
| 28>    H       -1.71635         7.96424        -0.52859
| 29> *
| 30>
| 31>                          ****END OF INPUT****
 Total Charge           Charge          ....    0
 Multiplicity           Mult            ....    1
 Number of Electrons    NEL             ....  106
Dispersion correction           -0.054288477
FINAL SINGLE POINT ENERGY      -647.269810075548
Dispersion correction            ... done
Dispersion correction           -0.053926481
FINAL SINGLE POINT ENERGY      -647.274492467795
Dispersion correction            ... done
Dispersion correction           -0.053887251
FINAL SINGLE POINT ENERGY      -647.274592911612
Dispersion correction            ... done
FINAL SINGLE POINT ENERGY      -647.274617811951
FINAL SINGLE POINT ENERGY      -647.274634541916
Dispersion correction            ... done
Dispersion correction           -0.053901531
FINAL SINGLE POINT ENERGY      -647.274639261861
Dispersion correction            ... done
Dispersion correction           -0.053908055
FINAL SINGLE POINT ENERGY      -647.274644353460
Dispersion correction            ... done
                    ***********************HURRAY********************

CARTESIAN COORDINATES (ANGSTROEM)
---------------------------------
  C      0.772206   -1.010955    0.114332
  C      1.219325    0.271112    0.016912
  C      0.059290    1.169438   -0.000798
  C     -1.133775    0.288968    0.107471
  C     -0.687537   -1.005491    0.173076
  C     -2.493665    0.690592    0.158609
  N     -3.609075    1.017204    0.201799
  C      0.070111    2.537051   -0.107702
  C     -1.079448    3.428221   -0.157630
  C     -0.645710    4.723634   -0.278970
  C      0.829877    4.709672   -0.304406
  C      1.269519    3.422108   -0.206805
  C      2.634489    3.028794   -0.202612
  N      3.756056    2.722818   -0.198840
  C     -1.486487    5.900121   -0.370771
  C     -1.050076    7.166879   -0.493570
  H      1.390021   -1.907537    0.146828
  H      2.254300    0.594439   -0.045714
  H     -1.323847   -1.885292    0.262905
  H     -2.116725    3.109150   -0.110369
  H      1.471022    5.585322   -0.389871
  H     -2.564300    5.708642   -0.335461
  H      0.012817    7.418209   -0.537405
  H     -1.753417    7.999522   -0.560066

 Multiplicity           Mult            ....    1
 Number of Electrons    NEL             ....  106
 Basis Dimension        Dim             ....  264

ORBITAL ENERGIES
----------------

  NO   OCC          E(Eh)            E(eV)
   0   2.0000     -14.339336      -390.1932
   1   2.0000     -14.333600      -390.0371
   2   2.0000     -10.255678      -279.0712
   3   2.0000     -10.251670      -278.9621
   4   2.0000     -10.249841      -278.9124
   5   2.0000     -10.242099      -278.7017
   6   2.0000     -10.241568      -278.6872
   7   2.0000     -10.241139      -278.6755
   8   2.0000     -10.237143      -278.5668
   9   2.0000     -10.235809      -278.5305
  10   2.0000     -10.233390      -278.4647
  11   2.0000     -10.223809      -278.2040
  12   2.0000     -10.222120      -278.1580
  13   2.0000     -10.219398      -278.0840
  14   2.0000     -10.216233      -277.9978
  15   2.0000     -10.215860      -277.9877
  16   2.0000      -0.923859       -25.1395
  17   2.0000      -0.910394       -24.7731
  18   2.0000      -0.899263       -24.4702
  19   2.0000      -0.888417       -24.1750
  20   2.0000      -0.813122       -22.1262
  21   2.0000      -0.777879       -21.1672
  22   2.0000      -0.760863       -20.7041
  23   2.0000      -0.751651       -20.4535
  24   2.0000      -0.689071       -18.7506
  25   2.0000      -0.649332       -17.6692
  26   2.0000      -0.631444       -17.1825
  27   2.0000      -0.603085       -16.4108
  28   2.0000      -0.590583       -16.0706
  29   2.0000      -0.564772       -15.3682
  30   2.0000      -0.548089       -14.9143
  31   2.0000      -0.507453       -13.8085
  32   2.0000      -0.474466       -12.9109
  33   2.0000      -0.471427       -12.8282
  34   2.0000      -0.461924       -12.5696
  35   2.0000      -0.442721       -12.0471
  36   2.0000      -0.442376       -12.0377
  37   2.0000      -0.433887       -11.8067
  38   2.0000      -0.426622       -11.6090
  39   2.0000      -0.413467       -11.2510
  40   2.0000      -0.411403       -11.1948
  41   2.0000      -0.396219       -10.7817
  42   2.0000      -0.384585       -10.4651
  43   2.0000      -0.370762       -10.0889
  44   2.0000      -0.370664       -10.0863
  45   2.0000      -0.366936        -9.9848
  46   2.0000      -0.358214        -9.7475
  47   2.0000      -0.349564        -9.5121
  48   2.0000      -0.333002        -9.0614
  49   2.0000      -0.323565        -8.8047
  50   2.0000      -0.279723        -7.6117
  51   2.0000      -0.253816        -6.9067
  52   2.0000      -0.246462        -6.7066
  53   0.0000      -0.150684        -4.1003
  54   0.0000      -0.052051        -1.4164
  55   0.0000      -0.046466        -1.2644
  56   0.0000       0.006901         0.1878
  57   0.0000       0.008291         0.2256

MULLIKEN ATOMIC CHARGES
-----------------------
   0 C :    0.041639
   1 C :   -0.017470
   2 C :    0.060644
   3 C :   -0.100993
   4 C :    0.020856
   5 C :   -0.144991
   6 N :    0.082762
   7 C :    0.103203
   8 C :   -0.090303
   9 C :    0.092315
  10 C :    0.005695
  11 C :   -0.086281
  12 C :   -0.151726
  13 N :    0.094324
  14 C :    0.000148
  15 C :   -0.010097
  16 H :    0.002941
  17 H :    0.016831
  18 H :    0.001352
  19 H :    0.010633
  20 H :   -0.002032
  21 H :    0.006073
  22 H :    0.024043
  23 H :    0.040432
Sum of atomic charges:    0.0000000

LOEWDIN ATOMIC CHARGES
----------------------
   0 C :   -0.008472
   1 C :   -0.016110
   2 C :    0.035943
   3 C :   -0.092006
   4 C :    0.043533
   5 C :   -0.027885
   6 N :   -0.077913
   7 C :    0.043914
   8 C :   -0.020002
   9 C :   -0.010430
  10 C :    0.055608
  11 C :   -0.076176
  12 C :   -0.027998
  13 N :   -0.068199
  14 C :   -0.020074
  15 C :   -0.016067
  16 H :    0.033321
  17 H :    0.038634
  18 H :    0.037231
  19 H :    0.038492
  20 H :    0.036459
  21 H :    0.039378
  22 H :    0.024882
  23 H :    0.033937

  Mayer bond orders larger than 0.100000
B(  0-C ,  1-C ) :   1.6206 B(  0-C ,  4-C ) :   1.0654 B(  0-C , 16-H ) :   0.9979
B(  1-C ,  2-C ) :   1.0873 B(  1-C , 17-H ) :   0.9942 B(  2-C ,  3-C ) :   1.1063
B(  2-C ,  7-C ) :   1.4692 B(  3-C ,  4-C ) :   1.6134 B(  3-C ,  5-C ) :   1.1213
B(  4-C , 18-H ) :   1.0067 B(  5-C ,  6-N ) :   2.9246 B(  7-C ,  8-C ) :   1.0921
B(  7-C , 11-C ) :   1.0893 B(  8-C ,  9-C ) :   1.5316 B(  8-C , 15-C ) :   0.1047
B(  8-C , 19-H ) :   1.0033 B(  9-C , 10-C ) :   1.0293 B(  9-C , 14-C ) :   1.1223
B( 10-C , 11-C ) :   1.6468 B( 10-C , 20-H ) :   1.0095 B( 11-C , 12-C ) :   1.1045
B( 12-C , 13-N ) :   2.9366 B( 14-C , 15-C ) :   1.8668 B( 14-C , 21-H ) :   0.9613
B( 15-C , 22-H ) :   0.9512 B( 15-C , 23-H ) :   0.9461

Dispersion correction           -0.053910250
FINAL SINGLE POINT ENERGY      -647.274645459219

DIPOLE MOMENT
-------------
                                X             Y             Z
Electronic contribution:      1.65181      -6.02280       0.62329
Nuclear contribution   :     -1.68377       6.46842      -0.72900
                        -----------------------------------------
Total Dipole Moment    :     -0.03196       0.44562      -0.10572
                        -----------------------------------------
Magnitude (a.u.)       :      0.45910
Magnitude (Debye)      :      1.16694

Rotational constants in cm-1:     0.024294     0.014342     0.009020
Rotational constants in MHz :   728.302149   429.968988   270.418915

                             ****ORCA TERMINATED NORMALLY****
TOTAL RUN TIME: 0 days 0 hours 14 minutes 4 seconds 870 msec
