                         Program Version 4.2.0 -  RELEASE  -
|  1> # ORCA input file
|  2> # SCF done        -21.255329763132          0.000461840428
|  3> ! B3LYP/G D3BJ Opt RIJCOSX def2-SVP def2/J
|  4> * xyz 0 1
|  5>    C        1.24323        -1.28575         0.00017
|  6>    S        2.47688        -0.07509        -0.00125
|  7>    C        1.31117         1.20904         0.00328
|  8>    C        0.05485         0.71689         0.00295
|  9>    C        0.01129        -0.71621         0.00118
| 10>    C       -1.37670        -1.11922         0.00099
| 11>    C       -2.14958        -0.02670         0.00274
| 12>    C       -1.34301         1.24491         0.00405
| 13>    H        1.52378        -2.31978        -0.00112
| 14>    H        1.65610         2.22378         0.00453
| 15>    H       -1.70836        -2.14188        -0.00016
| 16>    H       -3.22566        -0.01007         0.00336
| 17>    H       -1.55539         1.85409         0.88613
| 18>    H       -1.55613         1.85662        -0.87611
| 19> *
| 20>
| 21>                          ****END OF INPUT****
 Total Charge           Charge          ....    0
 Multiplicity           Mult            ....    1
 Number of Electrons    NEL             ....   64
Dispersion correction           -0.027754815
FINAL SINGLE POINT ENERGY      -668.235556250445
Dispersion correction            ... done
Dispersion correction           -0.027727231
FINAL SINGLE POINT ENERGY      -668.237996104364
Dispersion correction            ... done
Dispersion correction           -0.027725309
FINAL SINGLE POINT ENERGY      -668.238076291895
Dispersion correction            ... done
FINAL SINGLE POINT ENERGY      -668.238088580806
Dispersion correction            ... done
Dispersion correction           -0.027721649
FINAL SINGLE POINT ENERGY      -668.238103696480
Dispersion correction            ... done
Dispersion correction           -0.027720591
FINAL SINGLE POINT ENERGY      -668.238105447320
Dispersion correction            ... done
                    ***********************HURRAY********************

CARTESIAN COORDINATES (ANGSTROEM)
---------------------------------
  C      1.266041   -1.298370   -0.000164
  S      2.503066   -0.075919    0.000326
  C      1.334953    1.217774    0.002655
  C      0.063238    0.720226    0.002776
  C      0.020616   -0.720618    0.001059
  C     -1.385485   -1.128329    0.001115
  C     -2.168802   -0.026218    0.002774
  C     -1.349563    1.251680    0.004237
  H      1.544398   -2.350812   -0.001572
  H      1.676286    2.251825    0.003832
  H     -1.740204   -2.159839   -0.000106
  H     -3.260703   -0.026581    0.003137
  H     -1.570239    1.876527    0.888616
  H     -1.571131    1.879286   -0.877945

 Multiplicity           Mult            ....    1
 Number of Electrons    NEL             ....   64
 Basis Dimension        Dim             ....  146

ORBITAL ENERGIES
----------------

  NO   OCC          E(Eh)            E(eV)
   0   2.0000     -88.867147     -2418.1980
   1   2.0000     -10.207645      -277.7641
   2   2.0000     -10.206180      -277.7243
   3   2.0000     -10.202566      -277.6259
   4   2.0000     -10.194107      -277.3958
   5   2.0000     -10.193494      -277.3791
   6   2.0000     -10.189509      -277.2706
   7   2.0000     -10.189133      -277.2604
   8   2.0000      -7.961855      -216.6531
   9   2.0000      -5.930133      -161.3671
  10   2.0000      -5.925838      -161.2502
  11   2.0000      -5.923218      -161.1789
  12   2.0000      -0.883999       -24.0548
  13   2.0000      -0.819969       -22.3125
  14   2.0000      -0.732638       -19.9361
  15   2.0000      -0.697988       -18.9932
  16   2.0000      -0.671014       -18.2592
  17   2.0000      -0.574248       -15.6261
  18   2.0000      -0.555431       -15.1141
  19   2.0000      -0.518358       -14.1052
  20   2.0000      -0.501072       -13.6349
  21   2.0000      -0.443661       -12.0726
  22   2.0000      -0.417398       -11.3580
  23   2.0000      -0.412705       -11.2303
  24   2.0000      -0.390013       -10.6128
  25   2.0000      -0.377340       -10.2680
  26   2.0000      -0.369688       -10.0597
  27   2.0000      -0.363794        -9.8993
  28   2.0000      -0.326445        -8.8830
  29   2.0000      -0.298236        -8.1154
  30   2.0000      -0.237624        -6.4661
  31   2.0000      -0.216446        -5.8898
  32   0.0000      -0.026366        -0.7175
  33   0.0000       0.004345         0.1182
  34   0.0000       0.046818         1.2740
  35   0.0000       0.074304         2.0219
  36   0.0000       0.088307         2.4030

MULLIKEN ATOMIC CHARGES
-----------------------
   0 C :   -0.150914
   1 S :    0.078852
   2 C :   -0.146581
   3 C :   -0.057660
   4 C :    0.079050
   5 C :    0.050081
   6 C :   -0.107838
   7 C :    0.197741
   8 H :    0.013429
   9 H :    0.009811
  10 H :   -0.023684
  11 H :   -0.004216
  12 H :    0.030952
  13 H :    0.030976
Sum of atomic charges:   -0.0000000

LOEWDIN ATOMIC CHARGES
----------------------
   0 C :   -0.205197
   1 S :    0.413520
   2 C :   -0.197289
   3 C :   -0.056542
   4 C :   -0.066468
   5 C :   -0.023466
   6 C :   -0.023737
   7 C :   -0.020665
   8 H :    0.022766
   9 H :    0.022216
  10 H :    0.025330
  11 H :    0.021748
  12 H :    0.043899
  13 H :    0.043885

  Mayer bond orders larger than 0.100000
B(  0-C ,  1-S ) :   1.1477 B(  0-C ,  4-C ) :   1.4936 B(  0-C ,  8-H ) :   0.9666
B(  1-S ,  2-C ) :   1.1401 B(  2-C ,  3-C ) :   1.5757 B(  2-C ,  9-H ) :   0.9734
B(  3-C ,  4-C ) :   1.2816 B(  3-C ,  7-C ) :   1.0247 B(  4-C ,  5-C ) :   1.0465
B(  5-C ,  6-C ) :   1.7577 B(  5-C , 10-H ) :   1.0052 B(  6-C ,  7-C ) :   1.0368
B(  6-C , 11-H ) :   0.9844 B(  7-C , 12-H ) :   0.9005 B(  7-C , 13-H ) :   0.9005

Dispersion correction           -0.027720238
FINAL SINGLE POINT ENERGY      -668.238105603760

DIPOLE MOMENT
-------------
                                X             Y             Z
Electronic contribution:      6.54104      -1.24896      -0.00539
Nuclear contribution   :     -6.91887       1.41643       0.00579
                        -----------------------------------------
Total Dipole Moment    :     -0.37783       0.16747       0.00041
                        -----------------------------------------
Magnitude (a.u.)       :      0.41328
Magnitude (Debye)      :      1.05047

Rotational constants in cm-1:     0.155228     0.048235     0.037054
Rotational constants in MHz :  4653.620315  1446.041065  1110.857722

                             ****ORCA TERMINATED NORMALLY****
TOTAL RUN TIME: 0 days 0 hours 3 minutes 15 seconds 596 msec
