                         Program Version 4.2.0 -  RELEASE  -
|  1> # ORCA input file
|  2> # SCF done        -24.968374403075          0.000294396677
|  3> ! B3LYP/G D3BJ Opt RIJCOSX def2-SVP def2/J
|  4> * xyz 0 1
|  5>    C       -0.93213         1.42069        -0.00011
|  6>    C       -2.04803         0.63241        -0.00139
|  7>    N       -2.05110        -0.72120        -0.00185
|  8>    C       -0.94078        -1.38777        -0.00118
|  9>    C        0.30078        -0.70903         0.00014
| 10>    C        0.29742         0.73515         0.00070
| 11>    N        1.56089         1.12594         0.00192
| 12>    O        2.28686         0.01341         0.00200
| 13>    N        1.56357        -1.09697         0.00109
| 14>    H       -0.97203         2.49644         0.00033
| 15>    H       -3.03659         1.07000        -0.00182
| 16>    H       -0.99444        -2.46654        -0.00158
| 17> *
| 18>
| 19>                          ****END OF INPUT****
 Total Charge           Charge          ....    0
 Multiplicity           Mult            ....    1
 Number of Electrons    NEL             ....   62
Dispersion correction           -0.022784251
FINAL SINGLE POINT ENERGY      -431.402132854954
Dispersion correction            ... done
Dispersion correction           -0.022741346
FINAL SINGLE POINT ENERGY      -431.404689378526
Dispersion correction            ... done
Dispersion correction           -0.022734609
FINAL SINGLE POINT ENERGY      -431.405081579047
Dispersion correction            ... done
FINAL SINGLE POINT ENERGY      -431.405142615254
Dispersion correction            ... done
Dispersion correction           -0.022740077
FINAL SINGLE POINT ENERGY      -431.405148634425
Dispersion correction            ... done
Dispersion correction           -0.022740630
FINAL SINGLE POINT ENERGY      -431.405150484675
Dispersion correction            ... done
                    ***********************HURRAY********************

CARTESIAN COORDINATES (ANGSTROEM)
---------------------------------
  C     -0.934582    1.428475   -0.000138
  C     -2.057010    0.639988   -0.001275
  N     -2.062770   -0.739008   -0.001831
  C     -0.942407   -1.402543   -0.001214
  C      0.306807   -0.700349    0.000108
  C      0.308440    0.733738    0.000641
  N      1.564060    1.147342    0.001990
  O      2.300472    0.004509    0.001981
  N      1.558244   -1.122861    0.001193
  H     -0.986665    2.517799    0.000244
  H     -3.048018    1.103579   -0.001791
  H     -0.972153   -2.498138   -0.001660

 Multiplicity           Mult            ....    1
 Number of Electrons    NEL             ....   62
 Basis Dimension        Dim             ....  141

ORBITAL ENERGIES
----------------

  NO   OCC          E(Eh)            E(eV)
   0   2.0000     -19.284931      -524.7697
   1   2.0000     -14.418855      -392.3570
   2   2.0000     -14.412418      -392.1818
   3   2.0000     -14.356853      -390.6698
   4   2.0000     -10.268786      -279.4279
   5   2.0000     -10.261841      -279.2389
   6   2.0000     -10.258473      -279.1472
   7   2.0000     -10.254844      -279.0485
   8   2.0000     -10.236080      -278.5379
   9   2.0000      -1.215943       -33.0875
  10   2.0000      -0.970920       -26.4201
  11   2.0000      -0.933483       -25.4014
  12   2.0000      -0.887639       -24.1539
  13   2.0000      -0.800160       -21.7735
  14   2.0000      -0.717973       -19.5370
  15   2.0000      -0.680170       -18.5084
  16   2.0000      -0.632220       -17.2036
  17   2.0000      -0.573059       -15.5937
  18   2.0000      -0.553047       -15.0492
  19   2.0000      -0.530513       -14.4360
  20   2.0000      -0.496741       -13.5170
  21   2.0000      -0.485125       -13.2009
  22   2.0000      -0.459248       -12.4968
  23   2.0000      -0.428592       -11.6626
  24   2.0000      -0.410405       -11.1677
  25   2.0000      -0.362637        -9.8679
  26   2.0000      -0.354336        -9.6420
  27   2.0000      -0.339087        -9.2270
  28   2.0000      -0.332789        -9.0556
  29   2.0000      -0.287539        -7.8243
  30   2.0000      -0.279159        -7.5963
  31   0.0000      -0.115059        -3.1309
  32   0.0000      -0.025815        -0.7025
  33   0.0000      -0.015921        -0.4332
  34   0.0000       0.061521         1.6741
  35   0.0000       0.082638         2.2487

MULLIKEN ATOMIC CHARGES
-----------------------
   0 C :   -0.009751
   1 C :    0.052619
   2 N :   -0.089080
   3 C :    0.046192
   4 C :   -0.066380
   5 C :    0.027501
   6 N :    0.045247
   7 O :   -0.118409
   8 N :    0.059825
   9 H :    0.009784
  10 H :    0.020518
  11 H :    0.021935
Sum of atomic charges:    0.0000000

LOEWDIN ATOMIC CHARGES
----------------------
   0 C :   -0.030594
   1 C :    0.030602
   2 N :   -0.066677
   3 C :    0.046805
   4 C :   -0.082151
   5 C :   -0.052217
   6 N :   -0.018304
   7 O :    0.065931
   8 N :   -0.003451
   9 H :    0.045226
  10 H :    0.030254
  11 H :    0.034578

  Mayer bond orders larger than 0.100000
B(  0-C ,  1-C ) :   1.5728 B(  0-C ,  3-C ) :   0.1140 B(  0-C ,  5-C ) :   1.1787
B(  0-C ,  9-H ) :   0.9876 B(  1-C ,  2-N ) :   1.3120 B(  1-C , 10-H ) :   0.9716
B(  2-N ,  3-C ) :   1.7517 B(  3-C ,  4-C ) :   1.1261 B(  3-C , 11-H ) :   0.9842
B(  4-C ,  5-C ) :   1.1594 B(  4-C ,  8-N ) :   1.5611 B(  5-C ,  6-N ) :   1.5619
B(  6-N ,  7-O ) :   1.0445 B(  6-N ,  8-N ) :   0.2051 B(  7-O ,  8-N ) :   1.0717

Dispersion correction           -0.022740524
FINAL SINGLE POINT ENERGY      -431.405151382189

DIPOLE MOMENT
-------------
                                X             Y             Z
Electronic contribution:      4.07732      -0.76214       0.00298
Nuclear contribution   :     -4.81578       1.05944      -0.00356
                        -----------------------------------------
Total Dipole Moment    :     -0.73846       0.29730      -0.00058
                        -----------------------------------------
Magnitude (a.u.)       :      0.79606
Magnitude (Debye)      :      2.02341

Rotational constants in cm-1:     0.137030     0.056613     0.040062
Rotational constants in MHz :  4108.060193  1697.210789  1201.019578

                             ****ORCA TERMINATED NORMALLY****
TOTAL RUN TIME: 0 days 0 hours 3 minutes 11 seconds 343 msec
