                         Program Version 4.2.0 -  RELEASE  -
|  1> # ORCA input file
|  2> # SCF done        -43.011968480380          0.000715077045
|  3> ! B3LYP/G D3BJ Opt RIJCOSX def2-SVP def2/J
|  4> * xyz 0 1
|  5>    C        1.41257         0.21967        -0.04288
|  6>    C        0.69147         1.28171        -0.57782
|  7>    O        1.42415         2.34417        -1.02302
|  8>    C        0.74613         3.44960        -1.58093
|  9>    C        1.79200         4.46919        -2.00487
| 10>    C       -0.69468         1.19050        -0.61914
| 11>    C       -1.35517         0.06758        -0.14673
| 12>    C       -2.85234        -0.02136        -0.23912
| 13>    C       -3.27216        -0.72140        -1.53254
| 14>    C       -0.61945        -1.00124         0.37967
| 15>    O       -1.35404        -2.06617         0.83164
| 16>    C       -0.69767        -3.21790         1.31178
| 17>    C       -0.14554        -4.09598         0.19125
| 18>    C        0.76647        -0.90569         0.43015
| 19>    H        2.48793         0.29018        -0.00532
| 20>    H        0.06598         3.89062        -0.83847
| 21>    H        0.15547         3.13112        -2.45161
| 22>    H        2.36921         4.78852        -1.14189
| 23>    H        1.30804         5.33301        -2.45144
| 24>    H        2.46978         4.02448        -2.72820
| 25>    H       -1.29083         1.99689        -1.01799
| 26>    H       -3.28241         0.98178        -0.21243
| 27>    H       -3.23184        -0.58761         0.61171
| 28>    H       -2.89538        -0.17798        -2.39641
| 29>    H       -4.35617        -0.77826        -1.60181
| 30>    H       -2.86846        -1.72981        -1.55682
| 31>    H       -1.47388        -3.76344         1.85721
| 32>    H        0.09415        -2.94936         2.02245
| 33>    H       -0.95240        -4.39418        -0.47359
| 34>    H        0.31192        -4.98682         0.61326
| 35>    H        0.59744        -3.55782        -0.39198
| 36>    H        1.36602        -1.70405         0.83778
| 37> *
| 38>
| 39>                          ****END OF INPUT****
 Total Charge           Charge          ....    0
 Multiplicity           Mult            ....    1
 Number of Electrons    NEL             ....  106
Dispersion correction           -0.054521732
FINAL SINGLE POINT ENERGY      -618.162350518790
Dispersion correction            ... done
Dispersion correction           -0.054198815
FINAL SINGLE POINT ENERGY      -618.164898808592
Dispersion correction            ... done
Dispersion correction           -0.054025050
FINAL SINGLE POINT ENERGY      -618.164840766425
Dispersion correction            ... done
FINAL SINGLE POINT ENERGY      -618.164586136677
FINAL SINGLE POINT ENERGY      -618.164557827686
FINAL SINGLE POINT ENERGY      -618.164548325448
FINAL SINGLE POINT ENERGY      -618.164531405369
Dispersion correction            ... done
Dispersion correction           -0.053926232
FINAL SINGLE POINT ENERGY      -618.164522947141
Dispersion correction            ... done
Dispersion correction           -0.053922194
FINAL SINGLE POINT ENERGY      -618.164518211363
Dispersion correction            ... done
                    ***********************HURRAY********************

CARTESIAN COORDINATES (ANGSTROEM)
---------------------------------
  C      1.413595    0.255288    0.110697
  C      0.681065    1.315076   -0.436495
  O      1.390666    2.397823   -0.858177
  C      0.722800    3.422537   -1.568006
  C      1.768906    4.355514   -2.143685
  C     -0.713292    1.202554   -0.516392
  C     -1.378964    0.045937   -0.089996
  C     -2.880322   -0.052412   -0.221635
  C     -3.323062   -0.496960   -1.623223
  C     -0.626005   -1.028414    0.420991
  O     -1.332795   -2.136993    0.795200
  C     -0.658779   -3.282588    1.285896
  C     -0.040975   -4.125463    0.176924
  C      0.767986   -0.905566    0.532296
  H      2.497979    0.353059    0.189383
  H      0.033788    3.968224   -0.893914
  H      0.109293    2.984645   -2.378286
  H      2.380273    4.797588   -1.342292
  H      1.286285    5.168691   -2.707968
  H      2.438869    3.804946   -2.822170
  H     -1.314808    2.018959   -0.917821
  H     -3.321625    0.932293    0.006752
  H     -3.265136   -0.757974    0.527563
  H     -2.943548    0.193282   -2.392867
  H     -4.421850   -0.525112   -1.707384
  H     -2.932903   -1.500384   -1.854873
  H     -1.430014   -3.861962    1.817066
  H      0.098535   -2.992816    2.036526
  H     -0.819281   -4.461413   -0.524942
  H      0.452316   -5.013881    0.603194
  H      0.708833   -3.558104   -0.394570
  H      1.368481   -1.716423    0.944098

 Multiplicity           Mult            ....    1
 Number of Electrons    NEL             ....  106
 Basis Dimension        Dim             ....  286

ORBITAL ENERGIES
----------------

  NO   OCC          E(Eh)            E(eV)
   0   2.0000     -19.153468      -521.1924
   1   2.0000     -19.152023      -521.1530
   2   2.0000     -10.243291      -278.7341
   3   2.0000     -10.240775      -278.6657
   4   2.0000     -10.234538      -278.4959
   5   2.0000     -10.234363      -278.4912
   6   2.0000     -10.186490      -277.1885
   7   2.0000     -10.185190      -277.1531
   8   2.0000     -10.184152      -277.1249
   9   2.0000     -10.183933      -277.1189
  10   2.0000     -10.179612      -277.0013
  11   2.0000     -10.179515      -276.9987
  12   2.0000     -10.179186      -276.9897
  13   2.0000     -10.174892      -276.8729
  14   2.0000      -1.048454       -28.5299
  15   2.0000      -1.047244       -28.4970
  16   2.0000      -0.841990       -22.9117
  17   2.0000      -0.782738       -21.2994
  18   2.0000      -0.760964       -20.7069
  19   2.0000      -0.755088       -20.5470
  20   2.0000      -0.718300       -19.5459
  21   2.0000      -0.701143       -19.0791
  22   2.0000      -0.648050       -17.6343
  23   2.0000      -0.628387       -17.0993
  24   2.0000      -0.610591       -16.6150
  25   2.0000      -0.580647       -15.8002
  26   2.0000      -0.563711       -15.3393
  27   2.0000      -0.525329       -14.2949
  28   2.0000      -0.517155       -14.0725
  29   2.0000      -0.498195       -13.5566
  30   2.0000      -0.481487       -13.1019
  31   2.0000      -0.459485       -12.5032
  32   2.0000      -0.449742       -12.2381
  33   2.0000      -0.434409       -11.8209
  34   2.0000      -0.428002       -11.6465
  35   2.0000      -0.423183       -11.5154
  36   2.0000      -0.412327       -11.2200
  37   2.0000      -0.399842       -10.8803
  38   2.0000      -0.398269       -10.8375
  39   2.0000      -0.390818       -10.6347
  40   2.0000      -0.388477       -10.5710
  41   2.0000      -0.380086       -10.3427
  42   2.0000      -0.378474       -10.2988
  43   2.0000      -0.360060        -9.7977
  44   2.0000      -0.355237        -9.6665
  45   2.0000      -0.348446        -9.4817
  46   2.0000      -0.336008        -9.1432
  47   2.0000      -0.329773        -8.9736
  48   2.0000      -0.326710        -8.8902
  49   2.0000      -0.307811        -8.3760
  50   2.0000      -0.284532        -7.7425
  51   2.0000      -0.244718        -6.6591
  52   2.0000      -0.196012        -5.3338
  53   0.0000      -0.005951        -0.1619
  54   0.0000       0.023394         0.6366
  55   0.0000       0.057856         1.5743
  56   0.0000       0.060923         1.6578
  57   0.0000       0.074488         2.0269

MULLIKEN ATOMIC CHARGES
-----------------------
   0 C :   -0.034090
   1 C :    0.250579
   2 O :   -0.321403
   3 C :    0.155995
   4 C :    0.020368
   5 C :   -0.142042
   6 C :   -0.073870
   7 C :    0.096807
   8 C :    0.010789
   9 C :    0.204855
  10 O :   -0.327182
  11 C :    0.180154
  12 C :   -0.020285
  13 C :   -0.074822
  14 H :   -0.025316
  15 H :    0.005239
  16 H :    0.004131
  17 H :    0.022866
  18 H :    0.011169
  19 H :    0.022316
  20 H :   -0.039853
  21 H :   -0.011010
  22 H :    0.007858
  23 H :    0.001760
  24 H :    0.013741
  25 H :    0.009641
  26 H :    0.012534
  27 H :    0.006426
  28 H :    0.024941
  29 H :    0.013827
  30 H :    0.025527
  31 H :   -0.031650
Sum of atomic charges:   -0.0000000

LOEWDIN ATOMIC CHARGES
----------------------
   0 C :   -0.047502
   1 C :    0.036427
   2 O :   -0.109873
   3 C :    0.082056
   4 C :   -0.059884
   5 C :   -0.069087
   6 C :   -0.035771
   7 C :   -0.024965
   8 C :   -0.050283
   9 C :    0.035613
  10 O :   -0.108537
  11 C :    0.080950
  12 C :   -0.070813
  13 C :   -0.065847
  14 H :    0.029532
  15 H :    0.008055
  16 H :    0.008628
  17 H :    0.028683
  18 H :    0.028537
  19 H :    0.028211
  20 H :    0.023301
  21 H :    0.022525
  22 H :    0.026801
  23 H :    0.018303
  24 H :    0.021220
  25 H :    0.023084
  26 H :    0.022515
  27 H :    0.008780
  28 H :    0.028643
  29 H :    0.029298
  30 H :    0.026507
  31 H :    0.024892

  Mayer bond orders larger than 0.100000
B(  0-C ,  1-C ) :   1.3698 B(  0-C , 13-C ) :   1.3518 B(  0-C , 14-H ) :   0.9904
B(  1-C ,  2-O ) :   1.1078 B(  1-C ,  5-C ) :   1.2785 B(  2-O ,  3-C ) :   0.9609
B(  3-C ,  4-C ) :   1.0986 B(  3-C , 15-H ) :   0.9464 B(  3-C , 16-H ) :   0.9409
B(  4-C , 17-H ) :   0.9657 B(  4-C , 18-H ) :   0.9596 B(  4-C , 19-H ) :   0.9679
B(  5-C ,  6-C ) :   1.3567 B(  5-C , 20-H ) :   0.9886 B(  6-C ,  7-C ) :   1.0521
B(  6-C ,  9-C ) :   1.3947 B(  7-C ,  8-C ) :   1.1121 B(  7-C , 21-H ) :   0.9221
B(  7-C , 22-H ) :   0.9197 B(  8-C , 23-H ) :   0.9678 B(  8-C , 24-H ) :   0.9665
B(  8-C , 25-H ) :   0.9664 B(  9-C , 10-O ) :   1.1146 B(  9-C , 13-C ) :   1.2976
B( 10-O , 11-C ) :   0.9613 B( 11-C , 12-C ) :   1.1155 B( 11-C , 26-H ) :   0.9524
B( 11-C , 27-H ) :   0.9403 B( 12-C , 28-H ) :   0.9627 B( 12-C , 29-H ) :   0.9580
B( 12-C , 30-H ) :   0.9652 B( 13-C , 31-H ) :   0.9803

Dispersion correction           -0.053920557
FINAL SINGLE POINT ENERGY      -618.164521364596

DIPOLE MOMENT
-------------
                                X             Y             Z
Electronic contribution:      3.30298       1.10049       5.57804
Nuclear contribution   :     -3.33394      -1.23888      -5.69911
                        -----------------------------------------
Total Dipole Moment    :     -0.03096      -0.13839      -0.12106
                        -----------------------------------------
Magnitude (a.u.)       :      0.18646
Magnitude (Debye)      :      0.47394

Rotational constants in cm-1:     0.038277     0.011971     0.009739
Rotational constants in MHz :  1147.525093   358.887272   291.968944

                             ****ORCA TERMINATED NORMALLY****
TOTAL RUN TIME: 0 days 0 hours 18 minutes 49 seconds 668 msec
