                         Program Version 4.2.0 -  RELEASE  -
|  1> # ORCA input file
|  2> # SCF done        -30.961445011473          0.000480283286
|  3> ! B3LYP/G D3BJ Opt RIJCOSX def2-SVP def2/J
|  4> * xyz 0 1
|  5>    C        2.87430        -1.21896        -0.00189
|  6>    S        3.11038         0.49393        -0.00218
|  7>    C        1.39039         0.75528        -0.00222
|  8>    C        0.69402        -0.46413        -0.00181
|  9>    C        1.57338        -1.58278        -0.00159
| 10>    C       -0.71312        -0.42391        -0.00162
| 11>    C       -1.33870         0.83330        -0.00186
| 12>    S       -3.07081         0.67063        -0.00126
| 13>    C       -2.93297        -1.05295        -0.00119
| 14>    C       -1.65496        -1.49049        -0.00110
| 15>    C       -0.62666         2.03291        -0.00234
| 16>    C        0.74805         1.99361        -0.00251
| 17>    H        3.73780        -1.85519        -0.00182
| 18>    H        1.23916        -2.60455        -0.00125
| 19>    H       -3.83141        -1.63880        -0.00095
| 20>    H       -1.37966        -2.52968        -0.00076
| 21>    H       -1.15468         2.97321        -0.00235
| 22>    H        1.32892         2.90221        -0.00268
| 23> *
| 24>
| 25>                          ****END OF INPUT****
 Total Charge           Charge          ....    0
 Multiplicity           Mult            ....    1
 Number of Electrons    NEL             ....   98
Dispersion correction           -0.047486114
FINAL SINGLE POINT ENERGY     -1180.615284312110
Dispersion correction            ... done
Dispersion correction           -0.047359471
FINAL SINGLE POINT ENERGY     -1180.618380081089
Dispersion correction            ... done
Dispersion correction           -0.047339931
FINAL SINGLE POINT ENERGY     -1180.618469423361
Dispersion correction            ... done
Dispersion correction           -0.047337456
FINAL SINGLE POINT ENERGY     -1180.618482918904
Dispersion correction            ... done
Dispersion correction           -0.047337393
FINAL SINGLE POINT ENERGY     -1180.618488424471
Dispersion correction            ... done
                    ***********************HURRAY********************

CARTESIAN COORDINATES (ANGSTROEM)
---------------------------------
  C      2.905366   -1.229695   -0.001637
  S      3.137200    0.497091   -0.002919
  C      1.407021    0.764703   -0.002240
  C      0.701430   -0.462120   -0.002084
  C      1.588966   -1.592922   -0.001800
  C     -0.720183   -0.421708   -0.001920
  C     -1.354526    0.843040   -0.001910
  S     -3.097127    0.675472   -0.002347
  C     -2.964821   -1.061952   -0.000787
  C     -1.671145   -1.499747   -0.001392
  C     -0.631274    2.053592   -0.002011
  C      0.753857    2.014272   -0.002175
  H      3.774711   -1.885698   -0.001180
  H      1.252460   -2.630257   -0.001367
  H     -3.870685   -1.666388   -0.000004
  H     -1.393713   -2.554562   -0.000995
  H     -1.156210    3.010605   -0.002168
  H      1.332101    2.939913   -0.002444

 Multiplicity           Mult            ....    1
 Number of Electrons    NEL             ....   98
 Basis Dimension        Dim             ....  206

ORBITAL ENERGIES
----------------

  NO   OCC          E(Eh)            E(eV)
   0   2.0000     -88.871975     -2418.3294
   1   2.0000     -88.871907     -2418.3275
   2   2.0000     -10.219293      -278.0811
   3   2.0000     -10.219175      -278.0779
   4   2.0000     -10.218128      -278.0494
   5   2.0000     -10.218010      -278.0462
   6   2.0000     -10.203135      -277.6414
   7   2.0000     -10.202953      -277.6365
   8   2.0000     -10.202887      -277.6347
   9   2.0000     -10.202542      -277.6253
  10   2.0000     -10.198846      -277.5247
  11   2.0000     -10.198699      -277.5207
  12   2.0000      -7.967044      -216.7943
  13   2.0000      -7.967025      -216.7938
  14   2.0000      -5.935353      -161.5092
  15   2.0000      -5.935334      -161.5086
  16   2.0000      -5.931462      -161.4033
  17   2.0000      -5.931438      -161.4026
  18   2.0000      -5.927789      -161.3033
  19   2.0000      -5.927764      -161.3027
  20   2.0000      -0.898278       -24.4434
  21   2.0000      -0.870754       -23.6944
  22   2.0000      -0.809384       -22.0244
  23   2.0000      -0.768073       -20.9003
  24   2.0000      -0.737078       -20.0569
  25   2.0000      -0.702714       -19.1218
  26   2.0000      -0.701015       -19.0756
  27   2.0000      -0.614338       -16.7170
  28   2.0000      -0.587479       -15.9861
  29   2.0000      -0.574326       -15.6282
  30   2.0000      -0.540013       -14.6945
  31   2.0000      -0.523897       -14.2560
  32   2.0000      -0.470734       -12.8093
  33   2.0000      -0.469536       -12.7767
  34   2.0000      -0.460374       -12.5274
  35   2.0000      -0.430801       -11.7227
  36   2.0000      -0.416778       -11.3411
  37   2.0000      -0.411967       -11.2102
  38   2.0000      -0.396130       -10.7793
  39   2.0000      -0.377580       -10.2745
  40   2.0000      -0.375489       -10.2176
  41   2.0000      -0.361316        -9.8319
  42   2.0000      -0.349067        -9.4986
  43   2.0000      -0.343514        -9.3475
  44   2.0000      -0.321796        -8.7565
  45   2.0000      -0.289103        -7.8669
  46   2.0000      -0.261300        -7.1103
  47   2.0000      -0.226848        -6.1729
  48   2.0000      -0.214198        -5.8286
  49   0.0000      -0.044841        -1.2202
  50   0.0000      -0.014582        -0.3968
  51   0.0000       0.021884         0.5955
  52   0.0000       0.023466         0.6385
  53   0.0000       0.041394         1.1264

MULLIKEN ATOMIC CHARGES
-----------------------
   0 C :   -0.068455
   1 S :    0.100180
   2 C :   -0.090594
   3 C :    0.069949
   4 C :    0.006315
   5 C :    0.072601
   6 C :   -0.089652
   7 S :    0.099183
   8 C :   -0.066765
   9 C :    0.003128
  10 C :   -0.006537
  11 C :   -0.004353
  12 H :    0.029923
  13 H :   -0.018869
  14 H :    0.029372
  15 H :   -0.016918
  16 H :   -0.024390
  17 H :   -0.024119
Sum of atomic charges:   -0.0000000

LOEWDIN ATOMIC CHARGES
----------------------
   0 C :   -0.170755
   1 S :    0.398887
   2 C :   -0.164187
   3 C :   -0.045274
   4 C :   -0.062714
   5 C :   -0.045165
   6 C :   -0.163972
   7 S :    0.398728
   8 C :   -0.170325
   9 C :   -0.063330
  10 C :   -0.041694
  11 C :   -0.041306
  12 H :    0.026644
  13 H :    0.029315
  14 H :    0.026534
  15 H :    0.029614
  16 H :    0.029474
  17 H :    0.029527

  Mayer bond orders larger than 0.100000
B(  0-C ,  1-S ) :   1.1320 B(  0-C ,  4-C ) :   1.5975 B(  0-C , 12-H ) :   0.9617
B(  1-S ,  2-C ) :   1.0676 B(  2-C ,  3-C ) :   1.3427 B(  2-C , 11-C ) :   1.2982
B(  3-C ,  4-C ) :   1.2039 B(  3-C ,  5-C ) :   1.2262 B(  4-C , 13-H ) :   0.9901
B(  5-C ,  6-C ) :   1.3415 B(  5-C ,  9-C ) :   1.2033 B(  6-C ,  7-S ) :   1.0676
B(  6-C , 10-C ) :   1.2992 B(  7-S ,  8-C ) :   1.1325 B(  8-C ,  9-C ) :   1.5966
B(  8-C , 14-H ) :   0.9619 B(  9-C , 15-H ) :   0.9900 B( 10-C , 11-C ) :   1.4645
B( 10-C , 16-H ) :   0.9887 B( 11-C , 17-H ) :   0.9886

Dispersion correction           -0.047337958
FINAL SINGLE POINT ENERGY     -1180.618489881446

DIPOLE MOMENT
-------------
                                X             Y             Z
Electronic contribution:      0.08959       3.11737      -0.00386
Nuclear contribution   :     -0.09968      -3.45812       0.00400
                        -----------------------------------------
Total Dipole Moment    :     -0.01009      -0.34075       0.00014
                        -----------------------------------------
Magnitude (a.u.)       :      0.34090
Magnitude (Debye)      :      0.86650

Rotational constants in cm-1:     0.063720     0.016854     0.013329
Rotational constants in MHz :  1910.287210   505.282352   399.588765

                             ****ORCA TERMINATED NORMALLY****
TOTAL RUN TIME: 0 days 0 hours 5 minutes 57 seconds 30 msec
