                         Program Version 4.2.0 -  RELEASE  -
|  1> # ORCA input file
|  2> # SCF done        -30.793015169685          0.000781799517
|  3> ! B3LYP/G D3BJ Opt RIJCOSX def2-SVP def2/J
|  4> * xyz 0 1
|  5>    C        1.01351         1.58264         0.14791
|  6>    S        2.42233         0.59296         0.08130
|  7>    C        1.50584        -0.88356        -0.07759
|  8>    C        0.16968        -0.57157        -0.07511
|  9>    C       -0.10385         0.81750         0.05217
| 10>    S       -1.82902         1.07498         0.04260
| 11>    C       -2.07552        -0.68340        -0.13257
| 12>    S       -3.52057        -1.40434        -0.23319
| 13>    O       -0.92674        -1.36017        -0.17283
| 14>    C        2.16430        -2.15786        -0.18499
| 15>    C        1.52721        -3.31859        -0.31227
| 16>    H        1.09866         2.64378         0.25098
| 17>    H        3.24418        -2.11454        -0.15396
| 18>    H        0.45365        -3.37635        -0.34618
| 19>    H        2.06867        -4.24477        -0.38685
| 20> *
| 21>
| 22>                          ****END OF INPUT****
 Total Charge           Charge          ....    0
 Multiplicity           Mult            ....    1
 Number of Electrons    NEL             ....  102
Dispersion correction           -0.039246049
FINAL SINGLE POINT ENERGY     -1538.357352162477
Dispersion correction            ... done
Dispersion correction           -0.038977324
FINAL SINGLE POINT ENERGY     -1538.360067047143
Dispersion correction            ... done
Dispersion correction           -0.038905080
FINAL SINGLE POINT ENERGY     -1538.360251332324
Dispersion correction            ... done
FINAL SINGLE POINT ENERGY     -1538.360178227452
FINAL SINGLE POINT ENERGY     -1538.360275760630
Dispersion correction            ... done
Dispersion correction           -0.038897723
FINAL SINGLE POINT ENERGY     -1538.360290584638
Dispersion correction            ... done
Dispersion correction           -0.038895415
FINAL SINGLE POINT ENERGY     -1538.360291117733
Dispersion correction            ... done
                    ***********************HURRAY********************

CARTESIAN COORDINATES (ANGSTROEM)
---------------------------------
  C      1.021638    1.606203    0.155729
  S      2.427110    0.592760    0.080381
  C      1.495791   -0.883397   -0.098728
  C      0.160660   -0.541714   -0.099463
  C     -0.113729    0.846100    0.046334
  S     -1.852336    1.089965    0.049465
  C     -2.126035   -0.668351   -0.135969
  S     -3.577607   -1.386049   -0.212808
  O     -0.939629   -1.341523   -0.206171
  C      2.163529   -2.169823   -0.193841
  C      1.556258   -3.362940   -0.305297
  H      1.122634    2.681079    0.287020
  H      3.257671   -2.127731   -0.159902
  H      0.468466   -3.458948   -0.342617
  H      2.147910   -4.278920   -0.364714

 Multiplicity           Mult            ....    1
 Number of Electrons    NEL             ....  102
 Basis Dimension        Dim             ....  186

ORBITAL ENERGIES
----------------

  NO   OCC          E(Eh)            E(eV)
   0   2.0000     -88.899980     -2419.0914
   1   2.0000     -88.899507     -2419.0786
   2   2.0000     -88.821508     -2416.9561
   3   2.0000     -19.233756      -523.3771
   4   2.0000     -10.329605      -281.0828
   5   2.0000     -10.278249      -279.6854
   6   2.0000     -10.246595      -278.8240
   7   2.0000     -10.243881      -278.7502
   8   2.0000     -10.242054      -278.7005
   9   2.0000     -10.219289      -278.0810
  10   2.0000     -10.201674      -277.6017
  11   2.0000      -7.995224      -217.5611
  12   2.0000      -7.994099      -217.5305
  13   2.0000      -7.918413      -215.4710
  14   2.0000      -5.963954      -162.2875
  15   2.0000      -5.962375      -162.2445
  16   2.0000      -5.960007      -162.1800
  17   2.0000      -5.958377      -162.1357
  18   2.0000      -5.955013      -162.0441
  19   2.0000      -5.954787      -162.0380
  20   2.0000      -5.886872      -160.1899
  21   2.0000      -5.883781      -160.1058
  22   2.0000      -5.877732      -159.9412
  23   2.0000      -1.134910       -30.8825
  24   2.0000      -0.913239       -24.8505
  25   2.0000      -0.850195       -23.1350
  26   2.0000      -0.802429       -21.8352
  27   2.0000      -0.792498       -21.5650
  28   2.0000      -0.730242       -19.8709
  29   2.0000      -0.713381       -19.4121
  30   2.0000      -0.643844       -17.5199
  31   2.0000      -0.622477       -16.9385
  32   2.0000      -0.585614       -15.9354
  33   2.0000      -0.556460       -15.1421
  34   2.0000      -0.502247       -13.6668
  35   2.0000      -0.497070       -13.5260
  36   2.0000      -0.488583       -13.2950
  37   2.0000      -0.476826       -12.9751
  38   2.0000      -0.428019       -11.6470
  39   2.0000      -0.423571       -11.5259
  40   2.0000      -0.406748       -11.0682
  41   2.0000      -0.401580       -10.9275
  42   2.0000      -0.375696       -10.2232
  43   2.0000      -0.374177       -10.1819
  44   2.0000      -0.366221        -9.9654
  45   2.0000      -0.355326        -9.6689
  46   2.0000      -0.316189        -8.6039
  47   2.0000      -0.299956        -8.1622
  48   2.0000      -0.240747        -6.5511
  49   2.0000      -0.235379        -6.4050
  50   2.0000      -0.233940        -6.3658
  51   0.0000      -0.075252        -2.0477
  52   0.0000      -0.047234        -1.2853
  53   0.0000      -0.001123        -0.0306
  54   0.0000      -0.000212        -0.0058
  55   0.0000       0.004259         0.1159

MULLIKEN ATOMIC CHARGES
-----------------------
   0 C :   -0.185357
   1 S :    0.128259
   2 C :   -0.180938
   3 C :    0.208328
   4 C :    0.017542
   5 S :    0.146070
   6 C :    0.055490
   7 S :   -0.124048
   8 O :   -0.186398
   9 C :    0.036737
  10 C :   -0.024037
  11 H :    0.042737
  12 H :   -0.007298
  13 H :    0.044268
  14 H :    0.028647
Sum of atomic charges:    0.0000000

LOEWDIN ATOMIC CHARGES
----------------------
   0 C :   -0.208840
   1 S :    0.454287
   2 C :   -0.194523
   3 C :   -0.006614
   4 C :   -0.216970
   5 S :    0.381675
   6 C :   -0.237188
   7 S :    0.008925
   8 O :   -0.027450
   9 C :   -0.046437
  10 C :   -0.031499
  11 H :    0.033100
  12 H :    0.031202
  13 H :    0.030329
  14 H :    0.030003

  Mayer bond orders larger than 0.100000
B(  0-C ,  1-S ) :   1.1555 B(  0-C ,  4-C ) :   1.5346 B(  0-C , 11-H ) :   0.9754
B(  1-S ,  2-C ) :   1.1185 B(  2-C ,  3-C ) :   1.5128 B(  2-C ,  9-C ) :   1.1140
B(  3-C ,  4-C ) :   1.2432 B(  3-C ,  8-O ) :   1.0652 B(  4-C ,  5-S ) :   0.9902
B(  5-S ,  6-C ) :   1.0547 B(  5-S ,  7-S ) :   0.1384 B(  6-C ,  7-S ) :   1.7704
B(  6-C ,  8-O ) :   1.0568 B(  9-C , 10-C ) :   1.9189 B(  9-C , 12-H ) :   0.9450
B( 10-C , 13-H ) :   0.9491 B( 10-C , 14-H ) :   0.9423

Dispersion correction           -0.038895004
FINAL SINGLE POINT ENERGY     -1538.360290672801

DIPOLE MOMENT
-------------
                                X             Y             Z
Electronic contribution:     -6.42840       5.90093       0.38395
Nuclear contribution   :      7.63516      -5.27405      -0.28542
                        -----------------------------------------
Total Dipole Moment    :      1.20676       0.62687       0.09853
                        -----------------------------------------
Magnitude (a.u.)       :      1.36343
Magnitude (Debye)      :      3.46557

Rotational constants in cm-1:     0.041946     0.018597     0.012885
Rotational constants in MHz :  1257.514263   557.523590   386.293900

                             ****ORCA TERMINATED NORMALLY****
TOTAL RUN TIME: 0 days 0 hours 6 minutes 0 seconds 464 msec
