                         Program Version 4.2.0 -  RELEASE  -
|  1> # ORCA input file
|  2> # SCF done        -38.241825064778          0.000472979246
|  3> ! B3LYP/G D3BJ Opt RIJCOSX def2-SVP def2/J
|  4> * xyz 0 1
|  5>    C        0.41080         0.91339         0.01087
|  6>    S       -0.83764        -0.26243        -0.13315
|  7>    C        0.26104        -1.55942         0.24956
|  8>    C        1.52605        -1.07004         0.45935
|  9>    C        1.60365         0.34988         0.34049
| 10>    S        3.11209         1.20440         0.62616
| 11>    C        2.52693         2.91634         0.89310
| 12>    C        3.65871         3.74237         1.47287
| 13>    S        2.94326        -2.05407         0.83074
| 14>    C        3.87832        -1.84258        -0.73794
| 15>    C        5.23225        -2.50931        -0.61056
| 16>    C       -0.27094        -2.89857         0.29238
| 17>    C        0.27593        -3.93806         0.91519
| 18>    H        0.17092         1.94472        -0.14686
| 19>    H        1.68250         2.86426         1.58068
| 20>    H        2.20060         3.31634        -0.06759
| 21>    H        3.98778         3.32235         2.42038
| 22>    H        3.32332         4.76355         1.63963
| 23>    H        4.50590         3.75962         0.79117
| 24>    H        3.98024        -0.77380        -0.92026
| 25>    H        3.27946        -2.29965        -1.52668
| 26>    H        5.80141        -2.05377         0.19619
| 27>    H        5.78790        -2.39734        -1.53932
| 28>    H        5.11626        -3.56940        -0.39654
| 29>    H       -1.21842        -3.01198        -0.22004
| 30>    H        1.19711        -3.85665         1.46327
| 31>    H       -0.19264        -4.90654         0.88461
| 32> *
| 33>
| 34>                          ****END OF INPUT****
 Total Charge           Charge          ....    0
 Multiplicity           Mult            ....    1
 Number of Electrons    NEL             ....  122
Dispersion correction           -0.061922601
FINAL SINGLE POINT ENERGY     -1583.482724577594
Dispersion correction            ... done
Dispersion correction           -0.061137748
FINAL SINGLE POINT ENERGY     -1583.487171923541
Dispersion correction            ... done
Dispersion correction           -0.061409722
FINAL SINGLE POINT ENERGY     -1583.487349316736
Dispersion correction            ... done
FINAL SINGLE POINT ENERGY     -1583.488254331288
FINAL SINGLE POINT ENERGY     -1583.488395056508
FINAL SINGLE POINT ENERGY     -1583.488095600367
FINAL SINGLE POINT ENERGY     -1583.487484900332
FINAL SINGLE POINT ENERGY     -1583.487171202859
FINAL SINGLE POINT ENERGY     -1583.487472277625
FINAL SINGLE POINT ENERGY     -1583.487185796055
FINAL SINGLE POINT ENERGY     -1583.487222069446
FINAL SINGLE POINT ENERGY     -1583.487160779516
Dispersion correction            ... done
Dispersion correction           -0.062093191
FINAL SINGLE POINT ENERGY     -1583.487091117609
Dispersion correction            ... done
Dispersion correction           -0.062099911
FINAL SINGLE POINT ENERGY     -1583.487030167641
Dispersion correction            ... done
                    ***********************HURRAY********************

CARTESIAN COORDINATES (ANGSTROEM)
---------------------------------
  C      0.242897    0.836813    0.776924
  S     -1.005913   -0.280904    0.354497
  C      0.088919   -1.645758    0.398174
  C      1.370291   -1.222982    0.732199
  C      1.450562    0.202524    0.950327
  S      2.993187    0.950969    1.378487
  C      2.711859    2.687120    0.861065
  C      4.055452    3.400124    0.759756
  S      2.788902   -2.268888    0.929478
  C      3.804019   -1.786939   -0.544688
  C      5.274113   -1.669805   -0.166986
  C     -0.476822   -2.943293    0.044735
  C      0.077452   -4.162217    0.153428
  H      0.008782    1.890567    0.906460
  H      2.051794    3.188038    1.587290
  H      2.196714    2.669801   -0.111658
  H      4.577921    3.416673    1.729195
  H      3.910650    4.442084    0.433049
  H      4.710878    2.898147    0.031688
  H      3.412835   -0.825558   -0.902562
  H      3.635962   -2.539512   -1.330315
  H      5.414854   -0.885289    0.590866
  H      5.876284   -1.409007   -1.053188
  H      5.668389   -2.613790    0.242854
  H     -1.492342   -2.881422   -0.362668
  H      1.077990   -4.314137    0.558235
  H     -0.482841   -5.039748   -0.178942

 Multiplicity           Mult            ....    1
 Number of Electrons    NEL             ....  122
 Basis Dimension        Dim             ....  264

ORBITAL ENERGIES
----------------

  NO   OCC          E(Eh)            E(eV)
   0   2.0000     -88.875131     -2418.4153
   1   2.0000     -88.847773     -2417.6708
   2   2.0000     -88.838139     -2417.4087
   3   2.0000     -10.225428      -278.2481
   4   2.0000     -10.222816      -278.1770
   5   2.0000     -10.221610      -278.1441
   6   2.0000     -10.216984      -278.0183
   7   2.0000     -10.213435      -277.9217
   8   2.0000     -10.211286      -277.8632
   9   2.0000     -10.201938      -277.6088
  10   2.0000     -10.197540      -277.4892
  11   2.0000     -10.185231      -277.1542
  12   2.0000     -10.184460      -277.1332
  13   2.0000      -7.970368      -216.8847
  14   2.0000      -7.942086      -216.1151
  15   2.0000      -7.932188      -215.8458
  16   2.0000      -5.938396      -161.5920
  17   2.0000      -5.934631      -161.4895
  18   2.0000      -5.931477      -161.4037
  19   2.0000      -5.911228      -160.8527
  20   2.0000      -5.907487      -160.7509
  21   2.0000      -5.901501      -160.5880
  22   2.0000      -5.900914      -160.5720
  23   2.0000      -5.897788      -160.4870
  24   2.0000      -5.890772      -160.2960
  25   2.0000      -0.890885       -24.2422
  26   2.0000      -0.815845       -22.2003
  27   2.0000      -0.800268       -21.7764
  28   2.0000      -0.779002       -21.1977
  29   2.0000      -0.751022       -20.4363
  30   2.0000      -0.727467       -19.7954
  31   2.0000      -0.683011       -18.5857
  32   2.0000      -0.672599       -18.3023
  33   2.0000      -0.611249       -16.6329
  34   2.0000      -0.603680       -16.4270
  35   2.0000      -0.588721       -16.0199
  36   2.0000      -0.548424       -14.9234
  37   2.0000      -0.508104       -13.8262
  38   2.0000      -0.487843       -13.2749
  39   2.0000      -0.467271       -12.7151
  40   2.0000      -0.458035       -12.4638
  41   2.0000      -0.453962       -12.3529
  42   2.0000      -0.443990       -12.0816
  43   2.0000      -0.432248       -11.7621
  44   2.0000      -0.409915       -11.1544
  45   2.0000      -0.406682       -11.0664
  46   2.0000      -0.390169       -10.6170
  47   2.0000      -0.386224       -10.5097
  48   2.0000      -0.382472       -10.4076
  49   2.0000      -0.370811       -10.0903
  50   2.0000      -0.369084       -10.0433
  51   2.0000      -0.364046        -9.9062
  52   2.0000      -0.352609        -9.5950
  53   2.0000      -0.345118        -9.3911
  54   2.0000      -0.322846        -8.7851
  55   2.0000      -0.317779        -8.6472
  56   2.0000      -0.308479        -8.3941
  57   2.0000      -0.277432        -7.5493
  58   2.0000      -0.239360        -6.5133
  59   2.0000      -0.218422        -5.9436
  60   2.0000      -0.208101        -5.6627
  61   0.0000      -0.049165        -1.3378
  62   0.0000       0.009839         0.2677
  63   0.0000       0.021382         0.5818
  64   0.0000       0.029734         0.8091
  65   0.0000       0.049038         1.3344

MULLIKEN ATOMIC CHARGES
-----------------------
   0 C :   -0.137747
   1 S :    0.109056
   2 C :   -0.129089
   3 C :   -0.058862
   4 C :    0.018160
   5 S :   -0.005197
   6 C :   -0.125786
   7 C :    0.020242
   8 S :   -0.027343
   9 C :   -0.091906
  10 C :    0.018498
  11 C :    0.022079
  12 C :   -0.016441
  13 H :    0.022737
  14 H :    0.054853
  15 H :    0.050597
  16 H :    0.027702
  17 H :    0.025356
  18 H :    0.026033
  19 H :    0.049926
  20 H :    0.048751
  21 H :    0.029910
  22 H :    0.016427
  23 H :    0.018825
  24 H :   -0.014817
  25 H :    0.027877
  26 H :    0.020159
Sum of atomic charges:    0.0000000

LOEWDIN ATOMIC CHARGES
----------------------
   0 C :   -0.231667
   1 S :    0.431372
   2 C :   -0.177200
   3 C :   -0.222873
   4 C :   -0.204253
   5 S :    0.296824
   6 C :   -0.131956
   7 C :   -0.068066
   8 S :    0.269265
   9 C :   -0.122699
  10 C :   -0.070920
  11 C :   -0.052997
  12 C :   -0.039567
  13 H :    0.022024
  14 H :    0.018839
  15 H :    0.022466
  16 H :    0.026986
  17 H :    0.031239
  18 H :    0.025766
  19 H :    0.020686
  20 H :    0.019501
  21 H :    0.022471
  22 H :    0.026868
  23 H :    0.022923
  24 H :    0.025895
  25 H :    0.013872
  26 H :    0.025202

  Mayer bond orders larger than 0.100000
B(  0-C ,  1-S ) :   1.1233 B(  0-C ,  4-C ) :   1.5492 B(  0-C , 13-H ) :   0.9658
B(  1-S ,  2-C ) :   1.1482 B(  2-C ,  3-C ) :   1.5353 B(  2-C , 11-C ) :   1.1109
B(  3-C ,  4-C ) :   1.2348 B(  3-C ,  8-S ) :   1.0598 B(  4-C ,  5-S ) :   1.0195
B(  5-S ,  6-C ) :   0.9976 B(  6-C ,  7-C ) :   1.0905 B(  6-C , 14-H ) :   0.9454
B(  6-C , 15-H ) :   0.9457 B(  7-C , 16-H ) :   0.9684 B(  7-C , 17-H ) :   0.9630
B(  7-C , 18-H ) :   0.9693 B(  8-S ,  9-C ) :   0.9645 B(  9-C , 10-C ) :   1.0795
B(  9-C , 19-H ) :   0.9492 B(  9-C , 20-H ) :   0.9512 B( 10-C , 21-H ) :   0.9701
B( 10-C , 22-H ) :   0.9613 B( 10-C , 23-H ) :   0.9692 B( 11-C , 12-C ) :   1.9334
B( 11-C , 24-H ) :   0.9386 B( 12-C , 25-H ) :   0.9383 B( 12-C , 26-H ) :   0.9389

Dispersion correction           -0.062095971
FINAL SINGLE POINT ENERGY     -1583.487024629711

DIPOLE MOMENT
-------------
                                X             Y             Z
Electronic contribution:    -14.17671      -4.67125       5.11181
Nuclear contribution   :     14.28392       5.47221      -5.72198
                        -----------------------------------------
Total Dipole Moment    :      0.10721       0.80095      -0.61017
                        -----------------------------------------
Magnitude (a.u.)       :      1.01258
Magnitude (Debye)      :      2.57378

Rotational constants in cm-1:     0.023120     0.014389     0.009404
Rotational constants in MHz :   693.117432   431.371698   281.924610

                             ****ORCA TERMINATED NORMALLY****
TOTAL RUN TIME: 0 days 0 hours 25 minutes 58 seconds 454 msec
