                         Program Version 4.2.0 -  RELEASE  -
|  1> # ORCA input file
|  2> # SCF done        -41.041799991299          0.000328783289
|  3> ! B3LYP/G D3BJ Opt RIJCOSX def2-SVP def2/J
|  4> * xyz 0 1
|  5>    C        1.63483         1.24464         0.03777
|  6>    S        2.79679        -0.01315        -0.12681
|  7>    C        1.55909        -1.20143        -0.05998
|  8>    C        0.32413        -0.65161         0.08446
|  9>    C        0.36627         0.77014         0.13868
| 10>    C       -0.86509         1.59966         0.32286
| 11>    C       -2.10353         0.80307        -0.08103
| 12>    C       -2.11169        -0.54613         0.63101
| 13>    C       -0.95602        -1.43076         0.12997
| 14>    C       -1.30694        -1.92909        -1.26099
| 15>    O       -1.11934        -1.34142        -2.29083
| 16>    O       -1.90565        -3.13432        -1.17932
| 17>    C       -2.34307        -3.73253        -2.33861
| 18>    C       -2.98062        -4.88707        -2.31021
| 19>    H        1.96289         2.26492         0.04936
| 20>    H        1.81827        -2.23917        -0.13327
| 21>    H       -0.78986         2.51660        -0.26433
| 22>    H       -0.94447         1.88885         1.37655
| 23>    H       -2.09585         0.64401        -1.16061
| 24>    H       -3.00378         1.36437         0.17548
| 25>    H       -3.05953        -1.06267         0.46557
| 26>    H       -1.99293        -0.39282         1.70605
| 27>    H       -0.85541        -2.30840         0.77607
| 28>    H       -2.11914        -3.17977        -3.24215
| 29>    H       -3.17979        -5.39441        -1.38316
| 30>    H       -3.31684        -5.34911        -3.21837
| 31> *
| 32>
| 33>                          ****END OF INPUT****
 Total Charge           Charge          ....    0
 Multiplicity           Mult            ....    1
 Number of Electrons    NEL             ....  110
 Basis Dimension        Dim             ....  260

ORBITAL ENERGIES
----------------

  NO   OCC          E(Eh)            E(eV)
   0   2.0000     -88.866805     -2418.1887
   1   2.0000     -19.198852      -522.4273
   2   2.0000     -19.131761      -520.6017
   3   2.0000     -10.320251      -280.8283
   4   2.0000     -10.250636      -278.9340
   5   2.0000     -10.209911      -277.8258
   6   2.0000     -10.201386      -277.5938
   7   2.0000     -10.197820      -277.4968
   8   2.0000     -10.196593      -277.4634
   9   2.0000     -10.189347      -277.2662
  10   2.0000     -10.188055      -277.2311
  11   2.0000     -10.187774      -277.2234
  12   2.0000     -10.186049      -277.1765
  13   2.0000     -10.183352      -277.1031
  14   2.0000      -7.962371      -216.6671
  15   2.0000      -5.930375      -161.3737
  16   2.0000      -5.926244      -161.2613
  17   2.0000      -5.923965      -161.1993
  18   2.0000      -1.119094       -30.4521
  19   2.0000      -1.025354       -27.9013
  20   2.0000      -0.886876       -24.1331
  21   2.0000      -0.829712       -22.5776
  22   2.0000      -0.790338       -21.5062
  23   2.0000      -0.764901       -20.8140
  24   2.0000      -0.731404       -19.9025
  25   2.0000      -0.700819       -19.0702
  26   2.0000      -0.666337       -18.1319
  27   2.0000      -0.622625       -16.9425
  28   2.0000      -0.591751       -16.1024
  29   2.0000      -0.570149       -15.5145
  30   2.0000      -0.565942       -15.4001
  31   2.0000      -0.534991       -14.5578
  32   2.0000      -0.506072       -13.7709
  33   2.0000      -0.493172       -13.4199
  34   2.0000      -0.484223       -13.1764
  35   2.0000      -0.475480       -12.9385
  36   2.0000      -0.456308       -12.4168
  37   2.0000      -0.443792       -12.0762
  38   2.0000      -0.429665       -11.6918
  39   2.0000      -0.422727       -11.5030
  40   2.0000      -0.412349       -11.2206
  41   2.0000      -0.406085       -11.0501
  42   2.0000      -0.400253       -10.8914
  43   2.0000      -0.399132       -10.8609
  44   2.0000      -0.373233       -10.1562
  45   2.0000      -0.361774        -9.8444
  46   2.0000      -0.361145        -9.8272
  47   2.0000      -0.347590        -9.4584
  48   2.0000      -0.339558        -9.2398
  49   2.0000      -0.332012        -9.0345
  50   2.0000      -0.327162        -8.9025
  51   2.0000      -0.285060        -7.7569
  52   2.0000      -0.261860        -7.1256
  53   2.0000      -0.242440        -6.5971
  54   2.0000      -0.231927        -6.3110
  55   0.0000      -0.018894        -0.5141
  56   0.0000      -0.015070        -0.4101
  57   0.0000       0.030242         0.8229
  58   0.0000       0.052916         1.4399
  59   0.0000       0.054737         1.4895

MULLIKEN ATOMIC CHARGES
-----------------------
   0 C :   -0.141750
   1 S :    0.098869
   2 C :   -0.147257
   3 C :    0.032217
   4 C :   -0.031267
   5 C :    0.161026
   6 C :    0.013174
   7 C :    0.053917
   8 C :    0.041353
   9 C :    0.173207
  10 O :   -0.206720
  11 O :   -0.248148
  12 C :    0.126719
  13 C :   -0.026482
  14 H :   -0.003532
  15 H :   -0.000170
  16 H :   -0.005836
  17 H :    0.002543
  18 H :    0.023289
  19 H :   -0.008701
  20 H :    0.001020
  21 H :    0.007566
  22 H :    0.005237
  23 H :    0.028444
  24 H :    0.024208
  25 H :    0.027075
Sum of atomic charges:    0.0000000

LOEWDIN ATOMIC CHARGES
----------------------
   0 C :   -0.198438
   1 S :    0.435680
   2 C :   -0.192162
   3 C :   -0.062660
   4 C :   -0.060895
   5 C :   -0.016936
   6 C :   -0.029320
   7 C :   -0.008938
   8 C :   -0.043980
   9 C :    0.096957
  10 O :   -0.158060
  11 O :   -0.049780
  12 C :    0.063532
  13 C :   -0.075875
  14 H :    0.015754
  15 H :    0.016476
  16 H :    0.028571
  17 H :    0.027408
  18 H :    0.025358
  19 H :    0.020729
  20 H :    0.023244
  21 H :    0.024455
  22 H :    0.037619
  23 H :    0.021984
  24 H :    0.027394
  25 H :    0.031884

  Mayer bond orders larger than 0.100000
B(  0-C ,  1-S ) :   1.1619 B(  0-C ,  4-C ) :   1.5530 B(  0-C , 14-H ) :   0.9677
B(  1-S ,  2-C ) :   1.1736 B(  2-C ,  3-C ) :   1.5398 B(  2-C , 15-H ) :   0.9694
B(  3-C ,  4-C ) :   1.3135 B(  3-C ,  8-C ) :   0.9737 B(  4-C ,  5-C ) :   1.0412
B(  5-C ,  6-C ) :   1.0985 B(  5-C , 16-H ) :   0.9116 B(  5-C , 17-H ) :   0.9123
B(  6-C ,  7-C ) :   1.0725 B(  6-C , 18-H ) :   0.9352 B(  6-C , 19-H ) :   0.9277
B(  7-C ,  8-C ) :   1.0675 B(  7-C , 20-H ) :   0.9250 B(  7-C , 21-H ) :   0.9386
B(  8-C ,  9-C ) :   0.9244 B(  8-C , 22-H ) :   0.8848 B(  9-C , 10-O ) :   2.0788
B(  9-C , 11-O ) :   1.1329 B( 11-O , 12-C ) :   0.9952 B( 12-C , 13-C ) :   1.9606
B( 12-C , 23-H ) :   0.9617 B( 13-C , 24-H ) :   0.9497 B( 13-C , 25-H ) :   0.9471

Dispersion correction           -0.053969666
FINAL SINGLE POINT ENERGY      -974.540185924960
Dispersion correction            ... done
Dispersion correction           -0.053500497
FINAL SINGLE POINT ENERGY      -974.543447336550
Dispersion correction            ... done
Dispersion correction           -0.053431576
FINAL SINGLE POINT ENERGY      -974.543489173578
Dispersion correction            ... done
FINAL SINGLE POINT ENERGY      -974.543313786391
FINAL SINGLE POINT ENERGY      -974.543383501413
FINAL SINGLE POINT ENERGY      -974.543448715380
FINAL SINGLE POINT ENERGY      -974.543445578631
FINAL SINGLE POINT ENERGY      -974.543448770745
FINAL SINGLE POINT ENERGY      -974.543460187966
FINAL SINGLE POINT ENERGY      -974.543467956159
FINAL SINGLE POINT ENERGY      -974.544731729188
FINAL SINGLE POINT ENERGY      -974.544732591612
FINAL SINGLE POINT ENERGY      -974.544732319177
FINAL SINGLE POINT ENERGY      -974.544733391749
FINAL SINGLE POINT ENERGY      -974.544732758597
FINAL SINGLE POINT ENERGY      -974.544730085032
FINAL SINGLE POINT ENERGY      -974.544728178558
Dispersion correction           -0.053675077
FINAL SINGLE POINT ENERGY      -974.544727072432
Dispersion correction            ... done
Dispersion correction           -0.053671002
FINAL SINGLE POINT ENERGY      -974.544725418834
Dispersion correction            ... done

CARTESIAN COORDINATES (ANGSTROEM)
---------------------------------
  C      1.684408    0.762492   -0.261132
  S      2.516301   -0.742946   -0.465310
  C      1.068077   -1.635750   -0.180871
  C     -0.003021   -0.807670    0.059977
  C      0.349522    0.585464    0.014059
  C     -0.651971    1.676168    0.301097
  C     -2.099048    1.194506    0.136007
  C     -2.327286   -0.160440    0.814597
  C     -1.432636   -1.281164    0.251881
  C     -1.919699   -1.781241   -1.098024
  O     -2.330047   -1.110365   -2.007890
  O     -1.803608   -3.140864   -1.165924
  C     -2.021595   -3.759187   -2.377964
  C     -1.894405   -5.078430   -2.494697
  H      2.227511    1.702764   -0.346924
  H      1.070802   -2.724104   -0.220762
  H     -0.460912    2.549019   -0.342340
  H     -0.504359    2.024994    1.340273
  H     -2.351905    1.105719   -0.930876
  H     -2.784233    1.939977    0.569711
  H     -3.382250   -0.462836    0.716811
  H     -2.116317   -0.070040    1.894173
  H     -1.436808   -2.149461    0.925541
  H     -2.297676   -3.078568   -3.185356
  H     -1.624738   -5.702176   -1.639689
  H     -2.061389   -5.553462   -3.462208

Dispersion correction           -0.053667239
FINAL SINGLE POINT ENERGY      -974.544724403461
Dispersion correction            ... done

DIPOLE MOMENT
-------------
                                X             Y             Z
Electronic contribution:      8.82704      -2.48062      -2.06240
Nuclear contribution   :     -8.81838       2.39122       2.50849
                        -----------------------------------------
Total Dipole Moment    :      0.00866      -0.08940       0.44609
                        -----------------------------------------
Magnitude (a.u.)       :      0.45504
Magnitude (Debye)      :      1.15663

Rotational constants in cm-1:     0.028923     0.015737     0.011259
Rotational constants in MHz :   867.078535   471.778254   337.544535

                             ****ORCA TERMINATED NORMALLY****
TOTAL RUN TIME: 0 days 1 hours 58 minutes 43 seconds 121 msec
