                         Program Version 4.2.0 -  RELEASE  -
|  1> # ORCA input file
|  2> # SCF done        -33.866596433400          0.000461896029
|  3> ! B3LYP/G D3BJ Opt RIJCOSX def2-SVP def2/J
|  4> * xyz 0 1
|  5>    C       -1.58403        -1.21765         0.27377
|  6>    S       -2.72114         0.05004         0.39412
|  7>    C       -1.52372         1.24797         0.24275
|  8>    C       -0.26571         0.70223         0.09921
|  9>    C       -0.30386        -0.74339         0.11821
| 10>    C        0.93472        -1.43581        -0.02271
| 11>    N        0.99288        -2.86476        -0.01632
| 12>    O       -0.04375        -3.48496         0.12773
| 13>    O        2.08205        -3.38773        -0.15438
| 14>    C        2.10441        -0.73139        -0.16841
| 15>    C        2.11954         0.67368        -0.18414
| 16>    C        0.96088         1.38468        -0.05309
| 17>    H       -1.91116        -2.23548         0.32242
| 18>    H       -1.78836         2.28589         0.26361
| 19>    H        3.02680        -1.28290        -0.27351
| 20>    H        3.06326         1.18272        -0.30127
| 21>    H        0.96181         2.46397        -0.06307
| 22> *
| 23>
| 24>                          ****END OF INPUT****
 Total Charge           Charge          ....    0
 Multiplicity           Mult            ....    1
 Number of Electrons    NEL             ....   92
Dispersion correction           -0.039447506
FINAL SINGLE POINT ENERGY      -910.693937672727
Dispersion correction            ... done
Dispersion correction           -0.039246736
FINAL SINGLE POINT ENERGY      -910.696797650154
Dispersion correction            ... done
Dispersion correction           -0.039228195
FINAL SINGLE POINT ENERGY      -910.696831078372
Dispersion correction            ... done
FINAL SINGLE POINT ENERGY      -910.696813212150
FINAL SINGLE POINT ENERGY      -910.696869512756
Dispersion correction            ... done
Dispersion correction           -0.039234467
FINAL SINGLE POINT ENERGY      -910.696997015534
Dispersion correction            ... done
Dispersion correction           -0.039231342
FINAL SINGLE POINT ENERGY      -910.697013430342
Dispersion correction            ... done
                    ***********************HURRAY********************

CARTESIAN COORDINATES (ANGSTROEM)
---------------------------------
  C     -1.610757   -1.225278    0.279802
  S     -2.736621    0.062132    0.404965
  C     -1.542893    1.270882    0.240710
  C     -0.276557    0.711044    0.093106
  C     -0.315164   -0.748267    0.116568
  C      0.940255   -1.432162   -0.023843
  N      1.011411   -2.899241   -0.025920
  O     -0.027463   -3.520010    0.157626
  O      2.099891   -3.422720   -0.209576
  C      2.118235   -0.735772   -0.157552
  C      2.131710    0.686522   -0.173689
  C      0.962703    1.399105   -0.059179
  H     -1.938078   -2.257838    0.330813
  H     -1.806014    2.326735    0.256906
  H      3.041243   -1.305205   -0.258024
  H      3.085163    1.205727   -0.286308
  H      0.967556    2.491456   -0.081483

 Multiplicity           Mult            ....    1
 Number of Electrons    NEL             ....   92
 Basis Dimension        Dim             ....  197

ORBITAL ENERGIES
----------------

  NO   OCC          E(Eh)            E(eV)
   0   2.0000     -88.903615     -2419.1904
   1   2.0000     -19.159317      -521.3515
   2   2.0000     -19.157544      -521.3033
   3   2.0000     -14.557362      -396.1259
   4   2.0000     -10.253113      -279.0014
   5   2.0000     -10.232437      -278.4388
   6   2.0000     -10.226476      -278.2765
   7   2.0000     -10.225966      -278.2627
   8   2.0000     -10.225417      -278.2477
   9   2.0000     -10.223656      -278.1998
  10   2.0000     -10.223540      -278.1967
  11   2.0000     -10.216953      -278.0174
  12   2.0000      -7.998385      -217.6471
  13   2.0000      -5.965985      -162.3427
  14   2.0000      -5.961733      -162.2270
  15   2.0000      -5.961020      -162.2076
  16   2.0000      -1.219273       -33.1781
  17   2.0000      -1.044113       -28.4118
  18   2.0000      -0.913902       -24.8685
  19   2.0000      -0.862212       -23.4620
  20   2.0000      -0.809222       -22.0201
  21   2.0000      -0.756612       -20.5885
  22   2.0000      -0.735439       -20.0123
  23   2.0000      -0.691811       -18.8251
  24   2.0000      -0.619568       -16.8593
  25   2.0000      -0.605122       -16.4662
  26   2.0000      -0.583188       -15.8693
  27   2.0000      -0.542584       -14.7645
  28   2.0000      -0.538629       -14.6569
  29   2.0000      -0.519347       -14.1322
  30   2.0000      -0.508571       -13.8389
  31   2.0000      -0.486059       -13.2263
  32   2.0000      -0.481697       -13.1076
  33   2.0000      -0.441267       -12.0075
  34   2.0000      -0.426612       -11.6087
  35   2.0000      -0.424524       -11.5519
  36   2.0000      -0.392389       -10.6775
  37   2.0000      -0.389516       -10.5993
  38   2.0000      -0.370121       -10.0715
  39   2.0000      -0.362394        -9.8612
  40   2.0000      -0.313019        -8.5177
  41   2.0000      -0.309152        -8.4125
  42   2.0000      -0.308011        -8.3814
  43   2.0000      -0.290799        -7.9131
  44   2.0000      -0.273767        -7.4496
  45   2.0000      -0.231015        -6.2862
  46   0.0000      -0.104305        -2.8383
  47   0.0000      -0.050361        -1.3704
  48   0.0000      -0.003117        -0.0848
  49   0.0000       0.017645         0.4801
  50   0.0000       0.035141         0.9562

MULLIKEN ATOMIC CHARGES
-----------------------
   0 C :   -0.153094
   1 S :    0.163378
   2 C :   -0.138068
   3 C :    0.066627
   4 C :    0.067545
   5 C :    0.172886
   6 N :    0.231111
   7 O :   -0.251643
   8 O :   -0.247023
   9 C :   -0.029599
  10 C :    0.017190
  11 C :    0.032670
  12 H :    0.048540
  13 H :    0.027447
  14 H :    0.007681
  15 H :   -0.004604
  16 H :   -0.011043
Sum of atomic charges:   -0.0000000

LOEWDIN ATOMIC CHARGES
----------------------
   0 C :   -0.196483
   1 S :    0.509202
   2 C :   -0.203344
   3 C :   -0.050184
   4 C :   -0.054044
   5 C :   -0.023612
   6 N :    0.277167
   7 O :   -0.208404
   8 O :   -0.211361
   9 C :    0.009185
  10 C :   -0.032354
  11 C :    0.013120
  12 H :    0.031478
  13 H :    0.028921
  14 H :    0.041712
  15 H :    0.033820
  16 H :    0.035181

  Mayer bond orders larger than 0.100000
B(  0-C ,  1-S ) :   1.1900 B(  0-C ,  2-C ) :   0.1081 B(  0-C ,  4-C ) :   1.4443
B(  0-C , 12-H ) :   0.9539 B(  1-S ,  2-C ) :   1.2290 B(  2-C ,  3-C ) :   1.3850
B(  2-C , 13-H ) :   0.9657 B(  3-C ,  4-C ) :   1.1862 B(  3-C , 11-C ) :   1.1963
B(  4-C ,  5-C ) :   1.1644 B(  5-C ,  6-N ) :   0.8817 B(  5-C ,  9-C ) :   1.5209
B(  6-N ,  7-O ) :   1.5080 B(  6-N ,  8-O ) :   1.5360 B(  7-O ,  8-O ) :   0.2718
B(  9-C , 10-C ) :   1.1785 B(  9-C , 14-H ) :   0.9707 B( 10-C , 11-C ) :   1.5019
B( 10-C , 15-H ) :   0.9830 B( 11-C , 16-H ) :   0.9947

Dispersion correction           -0.039232113
FINAL SINGLE POINT ENERGY      -910.697012232555

DIPOLE MOMENT
-------------
                                X             Y             Z
Electronic contribution:     -3.77870      -4.21141       0.48034
Nuclear contribution   :      3.47103       6.07035      -0.45584
                        -----------------------------------------
Total Dipole Moment    :     -0.30767       1.85894       0.02449
                        -----------------------------------------
Magnitude (a.u.)       :      1.88439
Magnitude (Debye)      :      4.78974

Rotational constants in cm-1:     0.046186     0.024137     0.015856
Rotational constants in MHz :  1384.615083   723.610682   475.337187

                             ****ORCA TERMINATED NORMALLY****
TOTAL RUN TIME: 0 days 0 hours 8 minutes 8 seconds 848 msec
