                         Program Version 4.2.0 -  RELEASE  -
|  1> # ORCA input file
|  2> # SCF done        -27.378089431375          0.000684153423
|  3> ! B3LYP/G D3BJ Opt RIJCOSX def2-SVP def2/J
|  4> * xyz 0 1
|  5>    C       -1.62221        -1.16745        -0.19364
|  6>    C       -2.38540        -0.02360        -0.26703
|  7>    C       -3.86728         0.04489        -0.37870
|  8>    C       -1.54096         1.12928        -0.22328
|  9>    C       -0.25722         0.68579        -0.12499
| 10>    C       -0.26775        -0.78828        -0.10390
| 11>    C        0.93061        -1.44073        -0.01265
| 12>    C        2.10508        -0.66112         0.05561
| 13>    C        2.02683         0.70041         0.03054
| 14>    O        0.89031         1.38239        -0.05589
| 15>    H       -1.98639        -2.17689        -0.20415
| 16>    H       -4.29821        -0.95262        -0.41155
| 17>    H       -4.15371         0.58310        -1.28203
| 18>    H       -4.28674         0.58225         0.47172
| 19>    H       -1.87402         2.14803        -0.26260
| 20>    H        0.99252        -2.51867         0.00797
| 21>    H        3.07115        -1.13165         0.12710
| 22>    H        2.89153         1.34541         0.07879
| 23> *
| 24>
| 25>                          ****END OF INPUT****
 Total Charge           Charge          ....    0
 Multiplicity           Mult            ....    1
 Number of Electrons    NEL             ....   70
Dispersion correction           -0.032432873
FINAL SINGLE POINT ENERGY      -422.674651174570
Dispersion correction            ... done
Dispersion correction           -0.032348718
FINAL SINGLE POINT ENERGY      -422.677443981130
Dispersion correction            ... done
Dispersion correction           -0.032333136
FINAL SINGLE POINT ENERGY      -422.677620096907
Dispersion correction            ... done
FINAL SINGLE POINT ENERGY      -422.677658362961
Dispersion correction            ... done
Dispersion correction           -0.032330000
FINAL SINGLE POINT ENERGY      -422.677661116886
Dispersion correction            ... done
Dispersion correction           -0.032330521
FINAL SINGLE POINT ENERGY      -422.677659743493
Dispersion correction            ... done
                    ***********************HURRAY********************

CARTESIAN COORDINATES (ANGSTROEM)
---------------------------------
  C     -1.635389   -1.182785   -0.202225
  C     -2.397162   -0.025162   -0.271067
  C     -3.886880    0.043542   -0.375330
  C     -1.538696    1.148079   -0.227048
  C     -0.257150    0.679596   -0.130254
  C     -0.261780   -0.795943   -0.109384
  C      0.942583   -1.445182   -0.012044
  C      2.134637   -0.659979    0.059355
  C      2.063005    0.703417    0.033046
  O      0.903084    1.372872   -0.059216
  H     -2.011760   -2.204624   -0.216173
  H     -4.335226   -0.959859   -0.405729
  H     -4.199466    0.586756   -1.283963
  H     -4.324799    0.588226    0.478652
  H     -1.864132    2.185718   -0.266186
  H      1.003230   -2.536523    0.012306
  H      3.114248   -1.132026    0.140186
  H      2.919793    1.374417    0.086396

 Multiplicity           Mult            ....    1
 Number of Electrons    NEL             ....   70
 Basis Dimension        Dim             ....  180

ORBITAL ENERGIES
----------------

  NO   OCC          E(Eh)            E(eV)
   0   2.0000     -19.218937      -522.9739
   1   2.0000     -10.267201      -279.3847
   2   2.0000     -10.241844      -278.6947
   3   2.0000     -10.215140      -277.9681
   4   2.0000     -10.203885      -277.6618
   5   2.0000     -10.193578      -277.3814
   6   2.0000     -10.188174      -277.2343
   7   2.0000     -10.182131      -277.0699
   8   2.0000     -10.165162      -276.6081
   9   2.0000     -10.161381      -276.5052
  10   2.0000      -1.112873       -30.2828
  11   2.0000      -0.859141       -23.3784
  12   2.0000      -0.814760       -22.1708
  13   2.0000      -0.756958       -20.5979
  14   2.0000      -0.701148       -19.0792
  15   2.0000      -0.699007       -19.0210
  16   2.0000      -0.623357       -16.9624
  17   2.0000      -0.610491       -16.6123
  18   2.0000      -0.551817       -15.0157
  19   2.0000      -0.520767       -14.1708
  20   2.0000      -0.494960       -13.4685
  21   2.0000      -0.471704       -12.8357
  22   2.0000      -0.469934       -12.7875
  23   2.0000      -0.448730       -12.2106
  24   2.0000      -0.429297       -11.6818
  25   2.0000      -0.411089       -11.1863
  26   2.0000      -0.409936       -11.1549
  27   2.0000      -0.396642       -10.7932
  28   2.0000      -0.366798        -9.9811
  29   2.0000      -0.351405        -9.5622
  30   2.0000      -0.348692        -9.4884
  31   2.0000      -0.331781        -9.0282
  32   2.0000      -0.319086        -8.6828
  33   2.0000      -0.220104        -5.9893
  34   2.0000      -0.197907        -5.3853
  35   0.0000      -0.065947        -1.7945
  36   0.0000       0.013274         0.3612
  37   0.0000       0.062484         1.7003
  38   0.0000       0.074620         2.0305
  39   0.0000       0.078092         2.1250

MULLIKEN ATOMIC CHARGES
-----------------------
   0 C :   -0.063014
   1 C :   -0.064553
   2 C :    0.104298
   3 C :   -0.117542
   4 C :    0.184855
   5 C :    0.029569
   6 C :    0.027387
   7 C :   -0.048873
   8 C :    0.170499
   9 O :   -0.183687
  10 H :   -0.047773
  11 H :    0.002730
  12 H :    0.018829
  13 H :    0.020698
  14 H :   -0.043609
  15 H :   -0.009960
  16 H :   -0.000699
  17 H :    0.020845
Sum of atomic charges:   -0.0000000

LOEWDIN ATOMIC CHARGES
----------------------
   0 C :   -0.104605
   1 C :   -0.001055
   2 C :   -0.048044
   3 C :   -0.111624
   4 C :    0.042604
   5 C :   -0.031186
   6 C :    0.013035
   7 C :   -0.090086
   8 C :    0.074173
   9 O :    0.024162
  10 H :    0.015656
  11 H :    0.028248
  12 H :    0.034366
  13 H :    0.034754
  14 H :    0.020293
  15 H :    0.033728
  16 H :    0.036312
  17 H :    0.029269

  Mayer bond orders larger than 0.100000
B(  0-C ,  1-C ) :   1.5098 B(  0-C ,  5-C ) :   1.1718 B(  0-C , 10-H ) :   1.0114
B(  1-C ,  2-C ) :   1.0896 B(  1-C ,  3-C ) :   1.1437 B(  2-C , 11-H ) :   0.9569
B(  2-C , 12-H ) :   0.9460 B(  2-C , 13-H ) :   0.9464 B(  3-C ,  4-C ) :   1.5214
B(  3-C , 14-H ) :   1.0275 B(  4-C ,  5-C ) :   1.0708 B(  4-C ,  9-O ) :   1.0902
B(  5-C ,  6-C ) :   1.4904 B(  6-C ,  7-C ) :   1.2047 B(  6-C , 15-H ) :   0.9823
B(  7-C ,  8-C ) :   1.5711 B(  7-C , 16-H ) :   0.9652 B(  8-C ,  9-O ) :   1.1670
B(  8-C , 17-H ) :   0.9787

Dispersion correction           -0.032330527
FINAL SINGLE POINT ENERGY      -422.677659643243

DIPOLE MOMENT
-------------
                                X             Y             Z
Electronic contribution:      6.62206       1.85136       0.43309
Nuclear contribution   :     -6.04537      -2.02871      -0.38411
                        -----------------------------------------
Total Dipole Moment    :      0.57668      -0.17735       0.04898
                        -----------------------------------------
Magnitude (a.u.)       :      0.60532
Magnitude (Debye)      :      1.53860

Rotational constants in cm-1:     0.125037     0.033232     0.026384
Rotational constants in MHz :  3748.514000   996.278831   790.965004

                             ****ORCA TERMINATED NORMALLY****
TOTAL RUN TIME: 0 days 0 hours 6 minutes 2 seconds 765 msec
