                         Program Version 4.2.0 -  RELEASE  -
|  1> # ORCA input file
|  2> # SCF done        -31.783915569983          0.000354707096
|  3> ! B3LYP/G D3BJ Opt RIJCOSX def2-SVP def2/J
|  4> * xyz 0 1
|  5>    C        3.37790         0.22345        -0.00111
|  6>    S        2.70573        -1.37372        -0.00132
|  7>    C        1.08710        -0.72027        -0.00063
|  8>    C       -0.08253        -1.45290        -0.00046
|  9>    C       -1.26825        -0.73025         0.00008
| 10>    C       -2.65506        -1.07845         0.00037
| 11>    C       -3.33274         0.09126         0.00093
| 12>    O       -2.51371         1.16937         0.00095
| 13>    C       -1.24630         0.68829         0.00044
| 14>    C       -0.07836         1.42123         0.00027
| 15>    C        1.11182         0.69856        -0.00028
| 16>    C        2.44925         1.19958        -0.00055
| 17>    H        4.44562         0.32665        -0.00146
| 18>    H       -0.07476        -2.53089        -0.00077
| 19>    H       -3.06990        -2.06524         0.00019
| 20>    H       -4.38607         0.29653         0.00131
| 21>    H       -0.08279         2.49897         0.00056
| 22>    H        2.68195         2.24949        -0.00037
| 23> *
| 24>
| 25>                          ****END OF INPUT****
 Total Charge           Charge          ....    0
 Multiplicity           Mult            ....    1
 Number of Electrons    NEL             ....   90
Dispersion correction           -0.041425522
FINAL SINGLE POINT ENERGY      -857.678840801761
Dispersion correction            ... done
Dispersion correction           -0.041387967
FINAL SINGLE POINT ENERGY      -857.681739128929
Dispersion correction            ... done
Dispersion correction           -0.041376934
FINAL SINGLE POINT ENERGY      -857.681849923452
Dispersion correction            ... done
Dispersion correction           -0.041371960
FINAL SINGLE POINT ENERGY      -857.681862362166
Dispersion correction            ... done
Dispersion correction           -0.041371309
FINAL SINGLE POINT ENERGY      -857.681858293665
Dispersion correction            ... done
                    ***********************HURRAY********************

CARTESIAN COORDINATES (ANGSTROEM)
---------------------------------
  C      3.413310    0.228892   -0.001129
  S      2.737216   -1.382907   -0.001233
  C      1.103670   -0.733077   -0.000642
  C     -0.082457   -1.469915   -0.000509
  C     -1.281598   -0.747538    0.000051
  C     -2.687298   -1.088169    0.000393
  C     -3.360199    0.093711    0.000910
  O     -2.517281    1.170147    0.000995
  C     -1.246297    0.673444    0.000459
  C     -0.083143    1.421532    0.000295
  C      1.124042    0.700073   -0.000270
  C      2.471582    1.210647   -0.000582
  H      4.495501    0.356261   -0.001479
  H     -0.075366   -2.561973   -0.000828
  H     -3.126713   -2.082767    0.000244
  H     -4.420866    0.335476    0.001292
  H     -0.104469    2.512457    0.000601
  H      2.709266    2.275364   -0.000419

 Multiplicity           Mult            ....    1
 Number of Electrons    NEL             ....   90
 Basis Dimension        Dim             ....  202

ORBITAL ENERGIES
----------------

  NO   OCC          E(Eh)            E(eV)
   0   2.0000     -88.867784     -2418.2153
   1   2.0000     -19.199241      -522.4379
   2   2.0000     -10.251394      -278.9546
   3   2.0000     -10.245733      -278.8006
   4   2.0000     -10.219137      -278.0769
   5   2.0000     -10.217232      -278.0250
   6   2.0000     -10.204267      -277.6722
   7   2.0000     -10.203852      -277.6609
   8   2.0000     -10.201299      -277.5915
   9   2.0000     -10.200153      -277.5603
  10   2.0000     -10.196312      -277.4558
  11   2.0000     -10.195704      -277.4392
  12   2.0000      -7.962942      -216.6827
  13   2.0000      -5.931467      -161.4034
  14   2.0000      -5.927484      -161.2950
  15   2.0000      -5.923302      -161.1812
  16   2.0000      -1.104254       -30.0483
  17   2.0000      -0.886689       -24.1280
  18   2.0000      -0.830308       -22.5938
  19   2.0000      -0.794471       -21.6186
  20   2.0000      -0.757595       -20.6152
  21   2.0000      -0.727932       -19.8080
  22   2.0000      -0.699044       -19.0219
  23   2.0000      -0.639372       -17.3982
  24   2.0000      -0.600048       -16.3281
  25   2.0000      -0.580351       -15.7921
  26   2.0000      -0.552418       -15.0321
  27   2.0000      -0.532265       -14.4837
  28   2.0000      -0.494334       -13.4515
  29   2.0000      -0.489803       -13.3282
  30   2.0000      -0.463792       -12.6204
  31   2.0000      -0.453771       -12.3477
  32   2.0000      -0.439629       -11.9629
  33   2.0000      -0.421456       -11.4684
  34   2.0000      -0.407651       -11.0928
  35   2.0000      -0.397333       -10.8120
  36   2.0000      -0.397281       -10.8106
  37   2.0000      -0.379146       -10.3171
  38   2.0000      -0.355420        -9.6715
  39   2.0000      -0.340938        -9.2774
  40   2.0000      -0.327850        -8.9213
  41   2.0000      -0.304901        -8.2968
  42   2.0000      -0.268224        -7.2987
  43   2.0000      -0.232645        -6.3306
  44   2.0000      -0.209279        -5.6948
  45   0.0000      -0.044475        -1.2102
  46   0.0000      -0.002252        -0.0613
  47   0.0000       0.023477         0.6388
  48   0.0000       0.031008         0.8438
  49   0.0000       0.059093         1.6080

MULLIKEN ATOMIC CHARGES
-----------------------
   0 C :   -0.067374
   1 S :    0.085435
   2 C :   -0.068482
   3 C :   -0.063756
   4 C :    0.059354
   5 C :   -0.027279
   6 C :    0.154661
   7 O :   -0.228626
   8 C :    0.187234
   9 C :   -0.097504
  10 C :    0.085154
  11 C :    0.022608
  12 H :    0.031063
  13 H :   -0.030374
  14 H :   -0.014273
  15 H :    0.014982
  16 H :   -0.026659
  17 H :   -0.016165
Sum of atomic charges:   -0.0000000

LOEWDIN ATOMIC CHARGES
----------------------
   0 C :   -0.168279
   1 S :    0.380072
   2 C :   -0.158344
   3 C :   -0.041814
   4 C :   -0.047215
   5 C :   -0.074762
   6 C :    0.059986
   7 O :   -0.023048
   8 C :    0.043460
   9 C :   -0.042203
  10 C :   -0.044162
  11 C :   -0.064303
  12 H :    0.026579
  13 H :    0.029605
  14 H :    0.032269
  15 H :    0.025897
  16 H :    0.035477
  17 H :    0.030783

  Mayer bond orders larger than 0.100000
B(  0-C ,  1-S ) :   1.1096 B(  0-C , 11-C ) :   1.6202 B(  0-C , 12-H ) :   0.9643
B(  1-S ,  2-C ) :   1.0569 B(  2-C ,  3-C ) :   1.3798 B(  2-C , 10-C ) :   1.2795
B(  3-C ,  4-C ) :   1.3176 B(  3-C ,  9-C ) :   0.1210 B(  3-C , 13-H ) :   1.0011
B(  4-C ,  5-C ) :   1.1356 B(  4-C ,  8-C ) :   1.2563 B(  5-C ,  6-C ) :   1.5845
B(  5-C , 14-H ) :   1.0017 B(  6-C ,  7-O ) :   1.0957 B(  6-C , 15-H ) :   0.9983
B(  7-O ,  8-C ) :   1.0975 B(  8-C ,  9-C ) :   1.3751 B(  9-C , 10-C ) :   1.2843
B(  9-C , 16-H ) :   1.0122 B( 10-C , 11-C ) :   1.1760 B( 11-C , 17-H ) :   0.9905

Dispersion correction           -0.041371897
FINAL SINGLE POINT ENERGY      -857.681856182109

DIPOLE MOMENT
-------------
                                X             Y             Z
Electronic contribution:      1.70741      -1.56391      -0.00067
Nuclear contribution   :     -1.87686       1.52687       0.00067
                        -----------------------------------------
Total Dipole Moment    :     -0.16945      -0.03704       0.00001
                        -----------------------------------------
Magnitude (a.u.)       :      0.17345
Magnitude (Debye)      :      0.44087

Rotational constants in cm-1:     0.083040     0.018695     0.015259
Rotational constants in MHz :  2489.488061   560.450534   457.463280

                             ****ORCA TERMINATED NORMALLY****
TOTAL RUN TIME: 0 days 0 hours 6 minutes 23 seconds 508 msec
