                         Program Version 4.2.0 -  RELEASE  -
|  1> # ORCA input file
|  2> # SCF done        -44.537878269311          0.000769165343
|  3> ! B3LYP/G D3BJ Opt RIJCOSX def2-SVP def2/J
|  4> * xyz 0 1
|  5>    C       -1.54321         1.24995        -0.05147
|  6>    S       -2.69293        -0.00211        -0.08852
|  7>    C       -1.48611        -1.24217        -0.03128
|  8>    C       -0.21298        -0.67866        -0.01890
|  9>    C       -0.25528         0.76103        -0.01875
| 10>    C        0.94525         1.50715         0.00679
| 11>    C        2.13248         0.83669         0.00410
| 12>    C        3.43929         1.57154         0.03290
| 13>    F        3.30353         2.90210         0.12285
| 14>    F        4.20961         1.19868         1.07324
| 15>    F        4.17846         1.34134        -1.07052
| 16>    C        2.18760        -0.58068        -0.05213
| 17>    C        1.04643        -1.32148        -0.06643
| 18>    C       -1.92580        -2.61227         0.01254
| 19>    C       -1.26198        -3.63879         0.53863
| 20>    H       -1.85855         2.27392        -0.05097
| 21>    H        0.90486         2.58524         0.02268
| 22>    H        3.15522        -1.05658        -0.08998
| 23>    H        1.09683        -2.39499        -0.14089
| 24>    H       -2.91773        -2.77584        -0.39032
| 25>    H       -0.30588        -3.52731         1.01613
| 26>    H       -1.68021        -4.62991         0.52887
| 27> *
| 28>
| 29>                          ****END OF INPUT****
 Total Charge           Charge          ....    0
 Multiplicity           Mult            ....    1
 Number of Electrons    NEL             ....  116
Dispersion correction           -0.049406450
FINAL SINGLE POINT ENERGY     -1120.489871970609
Dispersion correction            ... done
Dispersion correction           -0.049186125
FINAL SINGLE POINT ENERGY     -1120.492979550970
Dispersion correction            ... done
Dispersion correction           -0.049123971
FINAL SINGLE POINT ENERGY     -1120.493045278901
Dispersion correction            ... done
FINAL SINGLE POINT ENERGY     -1120.493052925305
FINAL SINGLE POINT ENERGY     -1120.493060958464
FINAL SINGLE POINT ENERGY     -1120.493046364369
FINAL SINGLE POINT ENERGY     -1120.492994892469
Dispersion correction            ... done
Dispersion correction           -0.049146706
FINAL SINGLE POINT ENERGY     -1120.492989778066
Dispersion correction            ... done
Dispersion correction           -0.049145192
FINAL SINGLE POINT ENERGY     -1120.492987095326
Dispersion correction            ... done
                    ***********************HURRAY********************

CARTESIAN COORDINATES (ANGSTROEM)
---------------------------------
  C     -1.570719    1.275154   -0.064003
  S     -2.711689    0.004003   -0.101303
  C     -1.506309   -1.242211   -0.033055
  C     -0.225700   -0.665737   -0.010629
  C     -0.267314    0.786262   -0.018279
  C      0.951861    1.532455    0.005742
  C      2.147787    0.859902    0.006601
  C      3.467152    1.581430    0.020139
  F      3.344004    2.907670    0.178020
  F      4.251152    1.129389    1.019719
  F      4.149725    1.375331   -1.124876
  C      2.193604   -0.572160   -0.029148
  C      1.044738   -1.316673   -0.034698
  C     -1.936858   -2.630330    0.015548
  C     -1.258929   -3.670188    0.532575
  H     -1.896202    2.313613   -0.076142
  H      0.924187    2.623526    0.019958
  H      3.165886   -1.066567   -0.058099
  H      1.099803   -2.403718   -0.082568
  H     -2.933488   -2.823692   -0.397950
  H     -0.288731   -3.554785    1.018421
  H     -1.685060   -4.675822    0.502595

 Multiplicity           Mult            ....    1
 Number of Electrons    NEL             ....  116
 Basis Dimension        Dim             ....  249

ORBITAL ENERGIES
----------------

  NO   OCC          E(Eh)            E(eV)
   0   2.0000     -88.897829     -2419.0329
   1   2.0000     -24.718940      -672.6365
   2   2.0000     -24.712047      -672.4490
   3   2.0000     -24.711089      -672.4229
   4   2.0000     -10.430267      -283.8220
   5   2.0000     -10.231890      -278.4239
   6   2.0000     -10.228231      -278.3243
   7   2.0000     -10.217714      -278.0381
   8   2.0000     -10.217215      -278.0245
   9   2.0000     -10.216510      -278.0054
  10   2.0000     -10.215368      -277.9743
  11   2.0000     -10.214193      -277.9423
  12   2.0000     -10.208828      -277.7963
  13   2.0000     -10.208220      -277.7798
  14   2.0000     -10.199759      -277.5496
  15   2.0000      -7.992563      -217.4887
  16   2.0000      -5.960159      -162.1842
  17   2.0000      -5.956177      -162.0758
  18   2.0000      -5.954950      -162.0424
  19   2.0000      -1.293525       -35.1986
  20   2.0000      -1.203869       -32.7589
  21   2.0000      -1.197230       -32.5783
  22   2.0000      -0.907858       -24.7041
  23   2.0000      -0.853601       -23.2277
  24   2.0000      -0.800101       -21.7718
  25   2.0000      -0.775869       -21.1125
  26   2.0000      -0.756672       -20.5901
  27   2.0000      -0.712980       -19.4012
  28   2.0000      -0.689965       -18.7749
  29   2.0000      -0.638414       -17.3721
  30   2.0000      -0.623918       -16.9777
  31   2.0000      -0.604426       -16.4473
  32   2.0000      -0.586538       -15.9605
  33   2.0000      -0.584860       -15.9148
  34   2.0000      -0.560728       -15.2582
  35   2.0000      -0.552546       -15.0355
  36   2.0000      -0.507381       -13.8065
  37   2.0000      -0.487237       -13.2584
  38   2.0000      -0.472550       -12.8587
  39   2.0000      -0.467054       -12.7092
  40   2.0000      -0.465475       -12.6662
  41   2.0000      -0.458679       -12.4813
  42   2.0000      -0.444756       -12.1024
  43   2.0000      -0.430635       -11.7182
  44   2.0000      -0.429561       -11.6889
  45   2.0000      -0.421729       -11.4758
  46   2.0000      -0.419669       -11.4198
  47   2.0000      -0.407191       -11.0802
  48   2.0000      -0.404823       -11.0158
  49   2.0000      -0.385802       -10.4982
  50   2.0000      -0.376791       -10.2530
  51   2.0000      -0.366246        -9.9661
  52   2.0000      -0.355143        -9.6639
  53   2.0000      -0.350866        -9.5475
  54   2.0000      -0.321038        -8.7359
  55   2.0000      -0.282789        -7.6951
  56   2.0000      -0.267267        -7.2727
  57   2.0000      -0.212835        -5.7915
  58   0.0000      -0.082169        -2.2359
  59   0.0000      -0.029830        -0.8117
  60   0.0000       0.001401         0.0381
  61   0.0000       0.023783         0.6472
  62   0.0000       0.039421         1.0727

MULLIKEN ATOMIC CHARGES
-----------------------
   0 C :   -0.122928
   1 S :    0.155021
   2 C :   -0.169918
   3 C :    0.131072
   4 C :    0.087240
   5 C :   -0.025574
   6 C :   -0.093351
   7 C :    0.540674
   8 F :   -0.165394
   9 F :   -0.179621
  10 F :   -0.178240
  11 C :    0.023879
  12 C :   -0.029403
  13 C :    0.024212
  14 C :   -0.039051
  15 H :    0.025204
  16 H :   -0.013236
  17 H :   -0.007410
  18 H :   -0.018045
  19 H :   -0.003071
  20 H :    0.029121
  21 H :    0.028817
Sum of atomic charges:    0.0000000

LOEWDIN ATOMIC CHARGES
----------------------
   0 C :   -0.199648
   1 S :    0.494653
   2 C :   -0.189087
   3 C :   -0.041192
   4 C :   -0.048920
   5 C :    0.002345
   6 C :   -0.085692
   7 C :    0.174379
   8 F :   -0.058161
   9 F :   -0.069524
  10 F :   -0.070892
  11 C :   -0.014984
  12 C :   -0.011010
  13 C :   -0.042980
  14 C :   -0.048463
  15 H :    0.028238
  16 H :    0.034053
  17 H :    0.033167
  18 H :    0.031363
  19 H :    0.030342
  20 H :    0.023488
  21 H :    0.028526

  Mayer bond orders larger than 0.100000
B(  0-C ,  1-S ) :   1.2045 B(  0-C ,  2-C ) :   0.1111 B(  0-C ,  4-C ) :   1.3902
B(  0-C , 15-H ) :   0.9662 B(  1-S ,  2-C ) :   1.1690 B(  2-C ,  3-C ) :   1.3630
B(  2-C , 13-C ) :   1.1094 B(  3-C ,  4-C ) :   1.1992 B(  3-C , 12-C ) :   1.1929
B(  4-C ,  5-C ) :   1.1586 B(  5-C ,  6-C ) :   1.5417 B(  5-C , 16-H ) :   1.0001
B(  6-C ,  7-C ) :   0.9621 B(  6-C , 11-C ) :   1.1892 B(  7-C ,  8-F ) :   1.1473
B(  7-C ,  9-F ) :   1.1329 B(  7-C , 10-F ) :   1.1426 B( 11-C , 12-C ) :   1.5368
B( 11-C , 17-H ) :   0.9841 B( 12-C , 18-H ) :   0.9898 B( 13-C , 14-C ) :   1.9147
B( 13-C , 19-H ) :   0.9444 B( 14-C , 20-H ) :   0.9530 B( 14-C , 21-H ) :   0.9439

Dispersion correction           -0.049147375
FINAL SINGLE POINT ENERGY     -1120.492981570451

DIPOLE MOMENT
-------------
                                X             Y             Z
Electronic contribution:     14.05686      14.33723      -0.76041
Nuclear contribution   :    -15.13470     -14.74244       0.74239
                        -----------------------------------------
Total Dipole Moment    :     -1.07785      -0.40520      -0.01802
                        -----------------------------------------
Magnitude (a.u.)       :      1.15164
Magnitude (Debye)      :      2.92723

Rotational constants in cm-1:     0.039727     0.009596     0.008082
Rotational constants in MHz :  1190.980139   287.692471   242.303297

                             ****ORCA TERMINATED NORMALLY****
TOTAL RUN TIME: 0 days 0 hours 14 minutes 13 seconds 136 msec
