                         Program Version 4.2.0 -  RELEASE  -
|  1> # ORCA input file
|  2> # SCF done        -29.225849539606          0.000359197790
|  3> ! B3LYP/G D3BJ Opt RIJCOSX def2-SVP def2/J
|  4> * xyz 0 1
|  5>    C       -1.07671         1.26662        -0.12205
|  6>    C        0.19863         0.75766        -0.04587
|  7>    N        1.34939         1.46824         0.03938
|  8>    C        2.44183         0.76456         0.09900
|  9>    C        2.45451        -0.65768         0.08044
| 10>    N        1.37111        -1.37641        -0.00092
| 11>    C        0.21255        -0.68560        -0.06790
| 12>    C       -1.05958        -1.23952        -0.16378
| 13>    S       -2.24065         0.02244        -0.22217
| 14>    C       -1.37582        -2.63470        -0.21455
| 15>    C       -2.60320        -3.13898        -0.32664
| 16>    H       -1.37702         2.29446        -0.12529
| 17>    H        3.36873         1.31843         0.16557
| 18>    H        3.38941        -1.19871         0.13525
| 19>    H       -0.50739        -3.27730        -0.15555
| 20>    H       -3.47043        -2.50175        -0.38748
| 21>    H       -2.77552        -4.19963        -0.36153
| 22> *
| 23>
| 24>                          ****END OF INPUT****
 Total Charge           Charge          ....    0
 Multiplicity           Mult            ....    1
 Number of Electrons    NEL             ....   84
Dispersion correction           -0.037760538
FINAL SINGLE POINT ENERGY      -815.736278368232
Dispersion correction            ... done
Dispersion correction           -0.037596905
FINAL SINGLE POINT ENERGY      -815.738948412925
Dispersion correction            ... done
Dispersion correction           -0.037563941
FINAL SINGLE POINT ENERGY      -815.739066750672
Dispersion correction            ... done
FINAL SINGLE POINT ENERGY      -815.739070799268
Dispersion correction            ... done
Dispersion correction           -0.037546237
FINAL SINGLE POINT ENERGY      -815.739093954075
Dispersion correction            ... done
Dispersion correction           -0.037552309
FINAL SINGLE POINT ENERGY      -815.739097303000
Dispersion correction            ... done
                    ***********************HURRAY********************

CARTESIAN COORDINATES (ANGSTROEM)
---------------------------------
  C     -1.078695    1.302789   -0.143649
  C      0.203683    0.778387   -0.048589
  N      1.363615    1.489264    0.071438
  C      2.456262    0.773971    0.131179
  C      2.461678   -0.666908    0.082110
  N      1.369850   -1.380942   -0.021578
  C      0.209130   -0.672135   -0.091751
  C     -1.073607   -1.226619   -0.208815
  S     -2.243160    0.050030   -0.279772
  C     -1.397218   -2.636279   -0.252767
  C     -2.625204   -3.180809   -0.289191
  H     -1.372541    2.350072   -0.135510
  H      3.410311    1.306682    0.227139
  H      3.418778   -1.199372    0.135864
  H     -0.508760   -3.275774   -0.243935
  H     -3.530803   -2.566760   -0.286492
  H     -2.763478   -4.263466   -0.319772

 Multiplicity           Mult            ....    1
 Number of Electrons    NEL             ....   84
 Basis Dimension        Dim             ....  188

ORBITAL ENERGIES
----------------

  NO   OCC          E(Eh)            E(eV)
   0   2.0000     -88.899376     -2419.0750
   1   2.0000     -14.347014      -390.4021
   2   2.0000     -14.344727      -390.3399
   3   2.0000     -10.240392      -278.6552
   4   2.0000     -10.239959      -278.6434
   5   2.0000     -10.235085      -278.5108
   6   2.0000     -10.234322      -278.4900
   7   2.0000     -10.229879      -278.3692
   8   2.0000     -10.225574      -278.2520
   9   2.0000     -10.207650      -277.7643
  10   2.0000     -10.195760      -277.4407
  11   2.0000      -7.993787      -217.5220
  12   2.0000      -5.961368      -162.2171
  13   2.0000      -5.957468      -162.1110
  14   2.0000      -5.956141      -162.0748
  15   2.0000      -0.981759       -26.7150
  16   2.0000      -0.912045       -24.8180
  17   2.0000      -0.889112       -24.1940
  18   2.0000      -0.789810       -21.4918
  19   2.0000      -0.759312       -20.6619
  20   2.0000      -0.719696       -19.5839
  21   2.0000      -0.667130       -18.1535
  22   2.0000      -0.628525       -17.1030
  23   2.0000      -0.614242       -16.7144
  24   2.0000      -0.550985       -14.9931
  25   2.0000      -0.531530       -14.4637
  26   2.0000      -0.509237       -13.8570
  27   2.0000      -0.494136       -13.4461
  28   2.0000      -0.455558       -12.3964
  29   2.0000      -0.447823       -12.1859
  30   2.0000      -0.438973       -11.9451
  31   2.0000      -0.428705       -11.6657
  32   2.0000      -0.406981       -11.0745
  33   2.0000      -0.379727       -10.3329
  34   2.0000      -0.378998       -10.3131
  35   2.0000      -0.356543        -9.7020
  36   2.0000      -0.354838        -9.6556
  37   2.0000      -0.317978        -8.6526
  38   2.0000      -0.303251        -8.2519
  39   2.0000      -0.270604        -7.3635
  40   2.0000      -0.252438        -6.8692
  41   2.0000      -0.217964        -5.9311
  42   0.0000      -0.095347        -2.5945
  43   0.0000      -0.031797        -0.8652
  44   0.0000      -0.002142        -0.0583
  45   0.0000       0.032096         0.8734
  46   0.0000       0.056521         1.5380

MULLIKEN ATOMIC CHARGES
-----------------------
   0 C :   -0.145183
   1 C :    0.078250
   2 N :   -0.043887
   3 C :    0.024398
   4 C :    0.028487
   5 N :   -0.048214
   6 C :    0.040619
   7 C :   -0.167396
   8 S :    0.157852
   9 C :    0.020595
  10 C :   -0.037321
  11 H :    0.021366
  12 H :    0.006698
  13 H :    0.005834
  14 H :    0.008947
  15 H :    0.016829
  16 H :    0.032126
Sum of atomic charges:   -0.0000000

LOEWDIN ATOMIC CHARGES
----------------------
   0 C :   -0.195785
   1 C :   -0.051771
   2 N :   -0.049892
   3 C :    0.000139
   4 C :   -0.000436
   5 N :   -0.048817
   6 C :   -0.046690
   7 C :   -0.191034
   8 S :    0.500971
   9 C :   -0.032586
  10 C :   -0.051575
  11 H :    0.032025
  12 H :    0.023466
  13 H :    0.023389
  14 H :    0.041363
  15 H :    0.017864
  16 H :    0.029367

  Mayer bond orders larger than 0.100000
B(  0-C ,  1-C ) :   1.3788 B(  0-C ,  7-C ) :   0.1214 B(  0-C ,  8-S ) :   1.1973
B(  0-C , 11-H ) :   0.9731 B(  1-C ,  2-N ) :   1.3553 B(  1-C ,  6-C ) :   1.1762
B(  2-N ,  3-C ) :   1.7072 B(  3-C ,  4-C ) :   1.1687 B(  3-C , 12-H ) :   0.9637
B(  4-C ,  5-N ) :   1.6898 B(  4-C , 13-H ) :   0.9642 B(  5-N ,  6-C ) :   1.3996
B(  6-C ,  7-C ) :   1.3263 B(  7-C ,  8-S ) :   1.1662 B(  7-C ,  9-C ) :   1.1749
B(  9-C , 10-C ) :   1.8664 B(  9-C , 14-H ) :   0.9512 B( 10-C , 15-H ) :   0.9540
B( 10-C , 16-H ) :   0.9492

Dispersion correction           -0.037553044
FINAL SINGLE POINT ENERGY      -815.739095737391

DIPOLE MOMENT
-------------
                                X             Y             Z
Electronic contribution:     -0.47419       4.70337      -0.07899
Nuclear contribution   :      0.37760      -4.72126       0.07330
                        -----------------------------------------
Total Dipole Moment    :     -0.09659      -0.01789      -0.00570
                        -----------------------------------------
Magnitude (a.u.)       :      0.09840
Magnitude (Debye)      :      0.25011

Rotational constants in cm-1:     0.064561     0.027633     0.019355
Rotational constants in MHz :  1935.486869   828.420878   580.249651

                             ****ORCA TERMINATED NORMALLY****
TOTAL RUN TIME: 0 days 0 hours 6 minutes 49 seconds 860 msec
