                         Program Version 4.2.0 -  RELEASE  -
|  1> # ORCA input file
|  2> # SCF done        -31.597189670679          0.000565902339
|  3> ! B3LYP/G D3BJ Opt RIJCOSX def2-SVP def2/J
|  4> * xyz 0 1
|  5>    C        1.60348        -1.07690        -0.22069
|  6>    C        0.30237        -0.72099        -0.07399
|  7>    C       -0.87657        -1.50921         0.09171
|  8>    C       -2.07260        -0.89192         0.21768
|  9>    C       -2.19163         0.53746         0.19027
| 10>    C       -1.11001         1.33582         0.03523
| 11>    C        0.18041         0.74939        -0.10398
| 12>    C        1.41861         1.30944        -0.27235
| 13>    C        2.40878         0.14628        -0.35306
| 14>    O        3.60639         0.22142        -0.49290
| 15>    C        1.75154         2.69073        -0.36068
| 16>    C        2.98989         3.17453        -0.53067
| 17>    H        2.02221        -2.06425        -0.24075
| 18>    H       -0.78733        -2.58490         0.11278
| 19>    H       -2.97613        -1.47070         0.34364
| 20>    H       -3.17738         0.96527         0.29740
| 21>    H       -1.20909         2.41078         0.01568
| 22>    H        0.91716         3.37821        -0.28104
| 23>    H        3.84157         2.52324        -0.61351
| 24>    H        3.17217         4.23377        -0.59004
| 25> *
| 26>
| 27>                          ****END OF INPUT****
 Total Charge           Charge          ....    0
 Multiplicity           Mult            ....    1
 Number of Electrons    NEL             ....   82
Dispersion correction           -0.041477365
FINAL SINGLE POINT ENERGY      -498.816632724129
Dispersion correction            ... done
Dispersion correction           -0.041211492
FINAL SINGLE POINT ENERGY      -498.819799716225
Dispersion correction            ... done
Dispersion correction           -0.041176724
FINAL SINGLE POINT ENERGY      -498.819883896215
Dispersion correction            ... done
FINAL SINGLE POINT ENERGY      -498.819845642547
Dispersion correction            ... done
Dispersion correction           -0.041171851
FINAL SINGLE POINT ENERGY      -498.819896470282
Dispersion correction            ... done
Dispersion correction           -0.041173514
FINAL SINGLE POINT ENERGY      -498.819898474979
Dispersion correction            ... done
                    ***********************HURRAY********************

CARTESIAN COORDINATES (ANGSTROEM)
---------------------------------
  C      1.608986   -1.114222   -0.224680
  C      0.307581   -0.745340   -0.078350
  C     -0.890488   -1.534463    0.085437
  C     -2.088874   -0.905295    0.213883
  C     -2.204505    0.546979    0.197627
  C     -1.113561    1.346736    0.047000
  C      0.188250    0.749770   -0.103305
  C      1.428062    1.312704   -0.273746
  C      2.416903    0.130723   -0.346239
  O      3.619711    0.206443   -0.470378
  C      1.764494    2.706788   -0.379984
  C      3.007969    3.212672   -0.530406
  H      2.035075   -2.114693   -0.252363
  H     -0.814223   -2.623995    0.107021
  H     -3.000575   -1.493660    0.342834
  H     -3.195273    0.990449    0.319864
  H     -1.216427    2.434461    0.043591
  H      0.916742    3.400951   -0.334990
  H      3.879342    2.559252   -0.583571
  H      3.164651    4.291210   -0.608515

 Multiplicity           Mult            ....    1
 Number of Electrons    NEL             ....   82
 Basis Dimension        Dim             ....  208

ORBITAL ENERGIES
----------------

  NO   OCC          E(Eh)            E(eV)
   0   2.0000     -19.143666      -520.9256
   1   2.0000     -10.281327      -279.7691
   2   2.0000     -10.219296      -278.0812
   3   2.0000     -10.216557      -278.0066
   4   2.0000     -10.213149      -277.9139
   5   2.0000     -10.212684      -277.9013
   6   2.0000     -10.212089      -277.8851
   7   2.0000     -10.209810      -277.8231
   8   2.0000     -10.205822      -277.7145
   9   2.0000     -10.203798      -277.6595
  10   2.0000     -10.192687      -277.3571
  11   2.0000     -10.188722      -277.2492
  12   2.0000      -1.043461       -28.3940
  13   2.0000      -0.884815       -24.0770
  14   2.0000      -0.822581       -22.3836
  15   2.0000      -0.789646       -21.4874
  16   2.0000      -0.760683       -20.6992
  17   2.0000      -0.698909       -19.0183
  18   2.0000      -0.688698       -18.7404
  19   2.0000      -0.610314       -16.6075
  20   2.0000      -0.589940       -16.0531
  21   2.0000      -0.576437       -15.6856
  22   2.0000      -0.537506       -14.6263
  23   2.0000      -0.506674       -13.7873
  24   2.0000      -0.494716       -13.4619
  25   2.0000      -0.474318       -12.9068
  26   2.0000      -0.456177       -12.4132
  27   2.0000      -0.443755       -12.0752
  28   2.0000      -0.432592       -11.7714
  29   2.0000      -0.427324       -11.6281
  30   2.0000      -0.425837       -11.5876
  31   2.0000      -0.403930       -10.9915
  32   2.0000      -0.389265       -10.5924
  33   2.0000      -0.382758       -10.4154
  34   2.0000      -0.375241       -10.2108
  35   2.0000      -0.348392        -9.4802
  36   2.0000      -0.329022        -8.9532
  37   2.0000      -0.304007        -8.2725
  38   2.0000      -0.277291        -7.5455
  39   2.0000      -0.260487        -7.0882
  40   2.0000      -0.199391        -5.4257
  41   0.0000      -0.130711        -3.5568
  42   0.0000      -0.017986        -0.4894
  43   0.0000      -0.012310        -0.3350
  44   0.0000       0.027536         0.7493
  45   0.0000       0.054899         1.4939

MULLIKEN ATOMIC CHARGES
-----------------------
   0 C :   -0.113703
   1 C :    0.103913
   2 C :    0.011118
   3 C :    0.034087
   4 C :    0.017446
   5 C :    0.007434
   6 C :    0.041680
   7 C :   -0.039010
   8 C :    0.151536
   9 O :   -0.144684
  10 C :   -0.043529
  11 C :   -0.007981
  12 H :   -0.020419
  13 H :   -0.015657
  14 H :   -0.004098
  15 H :   -0.010619
  16 H :   -0.016411
  17 H :   -0.017462
  18 H :    0.043965
  19 H :    0.022396
Sum of atomic charges:   -0.0000000

LOEWDIN ATOMIC CHARGES
----------------------
   0 C :   -0.081924
   1 C :    0.016099
   2 C :   -0.021515
   3 C :   -0.002551
   4 C :   -0.022138
   5 C :   -0.009705
   6 C :   -0.013608
   7 C :   -0.047523
   8 C :    0.098496
   9 O :   -0.102416
  10 C :   -0.031996
  11 C :   -0.017520
  12 H :    0.028516
  13 H :    0.033016
  14 H :    0.031879
  15 H :    0.029885
  16 H :    0.031393
  17 H :    0.027433
  18 H :    0.029125
  19 H :    0.025055

  Mayer bond orders larger than 0.100000
B(  0-C ,  1-C ) :   1.5449 B(  0-C ,  8-C ) :   0.9925 B(  0-C , 12-H ) :   1.0212
B(  1-C ,  2-C ) :   1.1017 B(  1-C ,  6-C ) :   1.0295 B(  2-C ,  3-C ) :   1.6367
B(  2-C , 13-H ) :   0.9927 B(  3-C ,  4-C ) :   1.0955 B(  3-C , 14-H ) :   0.9775
B(  4-C ,  5-C ) :   1.6343 B(  4-C , 15-H ) :   0.9767 B(  5-C ,  6-C ) :   1.1336
B(  5-C , 16-H ) :   0.9833 B(  6-C ,  7-C ) :   1.5186 B(  6-C , 11-C ) :   0.1040
B(  7-C ,  8-C ) :   0.8846 B(  7-C , 10-C ) :   1.1950 B(  8-C ,  9-O ) :   2.1246
B( 10-C , 11-C ) :   1.8330 B( 10-C , 17-H ) :   0.9522 B( 11-C , 18-H ) :   0.9421
B( 11-C , 19-H ) :   0.9426

Dispersion correction           -0.041173699
FINAL SINGLE POINT ENERGY      -498.819899557283

DIPOLE MOMENT
-------------
                                X             Y             Z
Electronic contribution:      2.41591      -3.11395      -0.15795
Nuclear contribution   :     -3.71983       3.16596       0.30136
                        -----------------------------------------
Total Dipole Moment    :     -1.30392       0.05201       0.14341
                        -----------------------------------------
Magnitude (a.u.)       :      1.31281
Magnitude (Debye)      :      3.33690

Rotational constants in cm-1:     0.064151     0.024853     0.017915
Rotational constants in MHz :  1923.194953   745.079280   537.065625

                             ****ORCA TERMINATED NORMALLY****
TOTAL RUN TIME: 0 days 0 hours 8 minutes 42 seconds 134 msec
