                         Program Version 4.2.0 -  RELEASE  -
|  1> # ORCA input file
|  2> # SCF done        -40.781961694830          0.000519769741
|  3> ! B3LYP/G D3BJ Opt RIJCOSX def2-SVP def2/J
|  4> * xyz 0 1
|  5>    C       -2.55440        -1.25616        -0.02377
|  6>    C       -3.34396         0.04577         0.07015
|  7>    O       -4.52712         0.18661         0.10671
|  8>    O       -2.47773         1.09354         0.10890
|  9>    C       -1.19082         0.62655         0.04901
| 10>    C       -1.14597        -0.76813        -0.03359
| 11>    C        0.05962        -1.44052        -0.10469
| 12>    C        1.19352        -0.64767        -0.08716
| 13>    C        1.14875         0.74690        -0.00308
| 14>    C       -0.05689         1.41935         0.06692
| 15>    C        2.55732         1.23461        -0.00881
| 16>    C        3.34672        -0.06728        -0.10534
| 17>    O        4.52987        -0.20811        -0.14223
| 18>    O        2.48046        -1.11470        -0.14729
| 19>    H       -2.83530        -1.79954        -0.92747
| 20>    H       -2.78742        -1.89511         0.82995
| 21>    H        0.12247        -2.51346        -0.16954
| 22>    H       -0.11971         2.49228         0.13182
| 23>    H        2.83605         1.77412         0.89791
| 24>    H        2.79275         1.87705        -0.85913
| 25> *
| 26>
| 27>                          ****END OF INPUT****
 Total Charge           Charge          ....    0
 Multiplicity           Mult            ....    1
 Number of Electrons    NEL             ....   98
Dispersion correction           -0.040583567
FINAL SINGLE POINT ENERGY      -685.130442778222
Dispersion correction            ... done
Dispersion correction           -0.040473272
FINAL SINGLE POINT ENERGY      -685.132591951171
Dispersion correction            ... done
Dispersion correction           -0.040448293
FINAL SINGLE POINT ENERGY      -685.132830704382
Dispersion correction            ... done
FINAL SINGLE POINT ENERGY      -685.132893882119
Dispersion correction            ... done
Dispersion correction           -0.040449185
FINAL SINGLE POINT ENERGY      -685.132896858229
Dispersion correction            ... done
Dispersion correction           -0.040450786
FINAL SINGLE POINT ENERGY      -685.132905145817
Dispersion correction            ... done
                    ***********************HURRAY********************

CARTESIAN COORDINATES (ANGSTROEM)
---------------------------------
  C     -2.573119   -1.262955   -0.024052
  C     -3.378291    0.036642    0.070631
  O     -4.557834    0.196436    0.104600
  O     -2.490179    1.099420    0.113151
  C     -1.200141    0.620570    0.051265
  C     -1.154919   -0.777498   -0.033002
  C      0.067606   -1.446391   -0.103242
  C      1.202960   -0.641956   -0.086390
  C      1.157739    0.756112   -0.002085
  C     -0.064788    1.425006    0.068098
  C      2.575944    1.241560   -0.010898
  C      3.381105   -0.058022   -0.105881
  O      4.560639   -0.217793   -0.140254
  O      2.492996   -1.120805   -0.148356
  H     -2.872236   -1.809598   -0.933416
  H     -2.824716   -1.908894    0.833007
  H      0.144220   -2.532503   -0.171253
  H     -0.141405    2.511120    0.136072
  H      2.874953    1.787688    0.898825
  H      2.827676    1.887962   -0.867550

 Multiplicity           Mult            ....    1
 Number of Electrons    NEL             ....   98
 Basis Dimension        Dim             ....  226

ORBITAL ENERGIES
----------------

  NO   OCC          E(Eh)            E(eV)
   0   2.0000     -19.206250      -522.6286
   1   2.0000     -19.206232      -522.6282
   2   2.0000     -19.143998      -520.9347
   3   2.0000     -19.143996      -520.9346
   4   2.0000     -10.336891      -281.2811
   5   2.0000     -10.336886      -281.2810
   6   2.0000     -10.271726      -279.5079
   7   2.0000     -10.271645      -279.5057
   8   2.0000     -10.235135      -278.5122
   9   2.0000     -10.235122      -278.5118
  10   2.0000     -10.227981      -278.3175
  11   2.0000     -10.227926      -278.3160
  12   2.0000     -10.226231      -278.2699
  13   2.0000     -10.226115      -278.2667
  14   2.0000      -1.125939       -30.6384
  15   2.0000      -1.125306       -30.6211
  16   2.0000      -1.046084       -28.4654
  17   2.0000      -1.045467       -28.4486
  18   2.0000      -0.884715       -24.0743
  19   2.0000      -0.830973       -22.6119
  20   2.0000      -0.791884       -21.5482
  21   2.0000      -0.771712       -20.9994
  22   2.0000      -0.715854       -19.4794
  23   2.0000      -0.661891       -18.0110
  24   2.0000      -0.640303       -17.4235
  25   2.0000      -0.614419       -16.7192
  26   2.0000      -0.580145       -15.7865
  27   2.0000      -0.553339       -15.0571
  28   2.0000      -0.524554       -14.2738
  29   2.0000      -0.516030       -14.0419
  30   2.0000      -0.508586       -13.8393
  31   2.0000      -0.498790       -13.5728
  32   2.0000      -0.475943       -12.9511
  33   2.0000      -0.467832       -12.7304
  34   2.0000      -0.450718       -12.2647
  35   2.0000      -0.442019       -12.0280
  36   2.0000      -0.435279       -11.8445
  37   2.0000      -0.434529       -11.8241
  38   2.0000      -0.431760       -11.7488
  39   2.0000      -0.411013       -11.1842
  40   2.0000      -0.407861       -11.0985
  41   2.0000      -0.401392       -10.9224
  42   2.0000      -0.378886       -10.3100
  43   2.0000      -0.373580       -10.1656
  44   2.0000      -0.329768        -8.9734
  45   2.0000      -0.302512        -8.2318
  46   2.0000      -0.295231        -8.0336
  47   2.0000      -0.285049        -7.7566
  48   2.0000      -0.243556        -6.6275
  49   0.0000      -0.053459        -1.4547
  50   0.0000      -0.030509        -0.8302
  51   0.0000      -0.018464        -0.5024
  52   0.0000       0.006398         0.1741
  53   0.0000       0.053423         1.4537

MULLIKEN ATOMIC CHARGES
-----------------------
   0 C :    0.101775
   1 C :    0.155714
   2 O :   -0.144189
   3 O :   -0.242853
   4 C :    0.211039
   5 C :   -0.091798
   6 C :   -0.106254
   7 C :    0.211030
   8 C :   -0.091779
   9 C :   -0.106270
  10 C :    0.101789
  11 C :    0.155709
  12 O :   -0.144191
  13 O :   -0.242855
  14 H :    0.064642
  15 H :    0.066339
  16 H :   -0.014414
  17 H :   -0.014410
  18 H :    0.064636
  19 H :    0.066340
Sum of atomic charges:    0.0000000

LOEWDIN ATOMIC CHARGES
----------------------
   0 C :   -0.045156
   1 C :    0.105529
   2 O :   -0.124131
   3 O :   -0.062307
   4 C :    0.043985
   5 C :   -0.048801
   6 C :   -0.033477
   7 C :    0.043986
   8 C :   -0.048801
   9 C :   -0.033477
  10 C :   -0.045155
  11 C :    0.105528
  12 O :   -0.124130
  13 O :   -0.062308
  14 H :    0.061429
  15 H :    0.061818
  16 H :    0.041110
  17 H :    0.041110
  18 H :    0.061442
  19 H :    0.061805

  Mayer bond orders larger than 0.100000
B(  0-C ,  1-C ) :   0.9787 B(  0-C ,  5-C ) :   1.0192 B(  0-C , 14-H ) :   0.8950
B(  0-C , 15-H ) :   0.8943 B(  1-C ,  2-O ) :   2.2317 B(  1-C ,  3-O ) :   1.0481
B(  3-O ,  4-C ) :   1.0408 B(  4-C ,  5-C ) :   1.3745 B(  4-C ,  9-C ) :   1.3560
B(  5-C ,  6-C ) :   1.3372 B(  6-C ,  7-C ) :   1.3560 B(  6-C ,  9-C ) :   0.1233
B(  6-C , 16-H ) :   1.0219 B(  7-C ,  8-C ) :   1.3745 B(  7-C , 13-O ) :   1.0408
B(  8-C ,  9-C ) :   1.3372 B(  8-C , 10-C ) :   1.0192 B(  9-C , 17-H ) :   1.0219
B( 10-C , 11-C ) :   0.9787 B( 10-C , 18-H ) :   0.8950 B( 10-C , 19-H ) :   0.8944
B( 11-C , 12-O ) :   2.2317 B( 11-C , 13-O ) :   1.0481

Dispersion correction           -0.040451401
FINAL SINGLE POINT ENERGY      -685.132904854699

DIPOLE MOMENT
-------------
                                X             Y             Z
Electronic contribution:     -0.00003       0.00004      -0.00076
Nuclear contribution   :      0.00004      -0.00007       0.00122
                        -----------------------------------------
Total Dipole Moment    :      0.00001      -0.00003       0.00046
                        -----------------------------------------
Magnitude (a.u.)       :      0.00046
Magnitude (Debye)      :      0.00116

Rotational constants in cm-1:     0.092810     0.012027     0.010690
Rotational constants in MHz :  2782.381997   360.557018   320.472653

                             ****ORCA TERMINATED NORMALLY****
TOTAL RUN TIME: 0 days 0 hours 8 minutes 36 seconds 186 msec
