                         Program Version 4.2.0 -  RELEASE  -
|  1> # ORCA input file
|  2> # SCF done        -27.272484347833          0.000794112756
|  3> ! B3LYP/G D3BJ Opt RIJCOSX def2-SVP def2/J
|  4> * xyz 0 1
|  5>    C        0.11019         1.34598         0.01279
|  6>    S       -1.14473         0.17279        -0.14268
|  7>    C       -0.00834        -1.09938        -0.12819
|  8>    C        1.27651        -0.64235        -0.01190
|  9>    C        2.43466        -1.54786         0.01671
| 10>    O        2.36978        -2.75124        -0.05276
| 11>    O        3.59172        -0.87546         0.13379
| 12>    C        4.76636        -1.67066         0.16575
| 13>    C        1.33633         0.77665         0.07051
| 14>    H       -0.14639         2.38589         0.04954
| 15>    H       -0.32366        -2.12065        -0.20685
| 16>    H        5.59277        -0.98674         0.34079
| 17>    H        4.89620        -2.19297        -0.78482
| 18>    H        4.70255        -2.41129         0.96585
| 19>    H        2.25792         1.31975         0.16585
| 20> *
| 21>
| 22>                          ****END OF INPUT****
 Total Charge           Charge          ....    0
 Multiplicity           Mult            ....    1
 Number of Electrons    NEL             ....   74
Dispersion correction           -0.026760951
FINAL SINGLE POINT ENERGY      -780.522861824061
Dispersion correction            ... done
Dispersion correction           -0.026671511
FINAL SINGLE POINT ENERGY      -780.524420839017
Dispersion correction            ... done
Dispersion correction           -0.026665536
FINAL SINGLE POINT ENERGY      -780.524442966163
Dispersion correction            ... done
Dispersion correction           -0.026666645
FINAL SINGLE POINT ENERGY      -780.524449180278
Dispersion correction            ... done
Dispersion correction           -0.026670405
FINAL SINGLE POINT ENERGY      -780.524468741128
Dispersion correction            ... done
                    ***********************HURRAY********************

CARTESIAN COORDINATES (ANGSTROEM)
---------------------------------
  C      0.087436    1.368789   -0.002742
  S     -1.159811    0.172196   -0.154998
  C     -0.014664   -1.107751   -0.125003
  C      1.274761   -0.634764   -0.001038
  C      2.434532   -1.553452    0.035085
  O      2.369954   -2.758241   -0.049978
  O      3.598212   -0.884616    0.173743
  C      4.778577   -1.683672    0.164387
  C      1.328902    0.796788    0.069310
  H     -0.176586    2.424722    0.034613
  H     -0.318942   -2.149863   -0.201018
  H      5.613878   -0.997281    0.348547
  H      4.901260   -2.183978   -0.809208
  H      4.734968   -2.459529    0.942558
  H      2.259393    1.353110    0.170122

 Multiplicity           Mult            ....    1
 Number of Electrons    NEL             ....   74
 Basis Dimension        Dim             ....  160

ORBITAL ENERGIES
----------------

  NO   OCC          E(Eh)            E(eV)
   0   2.0000     -88.887016     -2418.7387
   1   2.0000     -19.178218      -521.8658
   2   2.0000     -19.118134      -520.2309
   3   2.0000     -10.314390      -280.6688
   4   2.0000     -10.245811      -278.8027
   5   2.0000     -10.225350      -278.2459
   6   2.0000     -10.221378      -278.1378
   7   2.0000     -10.206342      -277.7287
   8   2.0000     -10.203782      -277.6590
   9   2.0000      -7.982156      -217.2055
  10   2.0000      -5.950099      -161.9104
  11   2.0000      -5.945911      -161.7965
  12   2.0000      -5.943965      -161.7435
  13   2.0000      -1.095709       -29.8157
  14   2.0000      -1.004009       -27.3205
  15   2.0000      -0.890115       -24.2213
  16   2.0000      -0.768934       -20.9238
  17   2.0000      -0.732072       -19.9207
  18   2.0000      -0.714290       -19.4368
  19   2.0000      -0.603973       -16.4349
  20   2.0000      -0.573767       -15.6130
  21   2.0000      -0.550017       -14.9667
  22   2.0000      -0.534311       -14.5393
  23   2.0000      -0.485886       -13.2216
  24   2.0000      -0.467375       -12.7179
  25   2.0000      -0.457976       -12.4622
  26   2.0000      -0.424370       -11.5477
  27   2.0000      -0.412354       -11.2207
  28   2.0000      -0.410271       -11.1640
  29   2.0000      -0.400985       -10.9113
  30   2.0000      -0.380205       -10.3459
  31   2.0000      -0.367524       -10.0008
  32   2.0000      -0.351908        -9.5759
  33   2.0000      -0.306116        -8.3298
  34   2.0000      -0.279747        -7.6123
  35   2.0000      -0.266510        -7.2521
  36   2.0000      -0.252563        -6.8726
  37   0.0000      -0.045863        -1.2480
  38   0.0000      -0.001575        -0.0429
  39   0.0000       0.039216         1.0671
  40   0.0000       0.071500         1.9456
  41   0.0000       0.080805         2.1988

MULLIKEN ATOMIC CHARGES
-----------------------
   0 C :   -0.094802
   1 S :    0.118137
   2 C :   -0.090914
   3 C :   -0.039720
   4 C :    0.215466
   5 O :   -0.222683
   6 O :   -0.313292
   7 C :    0.199023
   8 C :    0.067884
   9 H :    0.035660
  10 H :    0.040947
  11 H :    0.026240
  12 H :    0.025348
  13 H :    0.032772
  14 H :   -0.000065
Sum of atomic charges:   -0.0000000

LOEWDIN ATOMIC CHARGES
----------------------
   0 C :   -0.189863
   1 S :    0.451081
   2 C :   -0.153899
   3 C :   -0.112636
   4 C :    0.085836
   5 O :   -0.184334
   6 O :   -0.100400
   7 C :    0.085063
   8 C :   -0.044613
   9 H :    0.027252
  10 H :    0.035189
  11 H :    0.022986
  12 H :    0.021125
  13 H :    0.021950
  14 H :    0.035262

  Mayer bond orders larger than 0.100000
B(  0-C ,  1-S ) :   1.1587 B(  0-C ,  8-C ) :   1.5587 B(  0-C ,  9-H ) :   0.9662
B(  1-S ,  2-C ) :   1.2007 B(  2-C ,  3-C ) :   1.5275 B(  2-C , 10-H ) :   0.9651
B(  3-C ,  4-C ) :   0.9645 B(  3-C ,  8-C ) :   1.2479 B(  4-C ,  5-O ) :   2.0931
B(  4-C ,  6-O ) :   1.2119 B(  6-O ,  7-C ) :   0.9248 B(  7-C , 11-H ) :   0.9789
B(  7-C , 12-H ) :   0.9747 B(  7-C , 13-H ) :   0.9723 B(  8-C , 14-H ) :   0.9947

Dispersion correction           -0.026671308
FINAL SINGLE POINT ENERGY      -780.524474026499

DIPOLE MOMENT
-------------
                                X             Y             Z
Electronic contribution:     -8.17394       0.93975      -0.45507
Nuclear contribution   :      8.39270      -0.23580       0.49430
                        -----------------------------------------
Total Dipole Moment    :      0.21876       0.70395       0.03924
                        -----------------------------------------
Magnitude (a.u.)       :      0.73821
Magnitude (Debye)      :      1.87637

Rotational constants in cm-1:     0.137728     0.026246     0.022140
Rotational constants in MHz :  4128.971231   786.843356   663.726355

                             ****ORCA TERMINATED NORMALLY****
TOTAL RUN TIME: 0 days 0 hours 3 minutes 49 seconds 369 msec
