                         Program Version 4.2.0 -  RELEASE  -
|  1> # ORCA input file
|  2> # SCF done        -26.417257714370          0.000827398153
|  3> ! B3LYP/G D3BJ Opt RIJCOSX def2-SVP def2/J
|  4> * xyz 0 1
|  5>    C       -1.28475        -0.11231         0.10177
|  6>    S       -0.39422         1.35431         0.15741
|  7>    C        1.12276         0.51889        -0.03729
|  8>    C        0.90497        -0.83469        -0.10281
|  9>    C       -0.47238        -1.19667        -0.03100
| 10>    O       -0.93027        -2.46717        -0.08078
| 11>    S        2.13125        -2.10993        -0.19495
| 12>    C        2.32948         1.30526        -0.08941
| 13>    C        3.48308         0.95394        -0.65309
| 14>    H       -2.35196        -0.10311         0.17567
| 15>    H       -0.17809        -3.07298        -0.12928
| 16>    H        3.07524        -1.43338         0.45343
| 17>    H        2.23200         2.28939         0.35100
| 18>    H        3.62209         0.02048        -1.17076
| 19>    H        4.32548         1.62283        -0.64718
| 20> *
| 21>
| 22>                          ****END OF INPUT****
 Total Charge           Charge          ....    0
 Multiplicity           Mult            ....    1
 Number of Electrons    NEL             ....   82
Dispersion correction           -0.034427026
FINAL SINGLE POINT ENERGY     -1103.403257343234
Dispersion correction            ... done
Dispersion correction           -0.034147957
FINAL SINGLE POINT ENERGY     -1103.406762671063
Dispersion correction            ... done
Dispersion correction           -0.034047777
FINAL SINGLE POINT ENERGY     -1103.408073235880
Dispersion correction            ... done
FINAL SINGLE POINT ENERGY     -1103.408921103849
FINAL SINGLE POINT ENERGY     -1103.409512475998
FINAL SINGLE POINT ENERGY     -1103.409940550695
FINAL SINGLE POINT ENERGY     -1103.410263709581
FINAL SINGLE POINT ENERGY     -1103.410318050349
Dispersion correction            ... done
Dispersion correction           -0.033927835
FINAL SINGLE POINT ENERGY     -1103.410340507372
Dispersion correction            ... done
Dispersion correction           -0.033919534
FINAL SINGLE POINT ENERGY     -1103.410345399592
Dispersion correction            ... done
                    ***********************HURRAY********************

CARTESIAN COORDINATES (ANGSTROEM)
---------------------------------
  C     -1.271117   -0.121156    0.257035
  S     -0.396925    1.368609    0.212860
  C      1.117304    0.580842   -0.143201
  C      0.922752   -0.793462   -0.211681
  C     -0.441904   -1.191942    0.015960
  O     -0.849525   -2.474003   -0.000481
  S      2.124040   -2.033632   -0.637438
  C      2.293346    1.424992   -0.300136
  C      3.568646    1.048929   -0.500935
  H     -2.336584   -0.145626    0.470820
  H     -0.070287   -3.014955   -0.227161
  H      2.658039   -2.222031    0.596885
  H      2.081671    2.498829   -0.237788
  H      3.866466    0.003649   -0.582586
  H      4.348757    1.805817   -0.609420

 Multiplicity           Mult            ....    1
 Number of Electrons    NEL             ....   82
 Basis Dimension        Dim             ....  164

ORBITAL ENERGIES
----------------

  NO   OCC          E(Eh)            E(eV)
   0   2.0000     -88.880124     -2418.5511
   1   2.0000     -88.869877     -2418.2723
   2   2.0000     -19.163991      -521.4787
   3   2.0000     -10.256517      -279.0940
   4   2.0000     -10.232497      -278.4404
   5   2.0000     -10.223245      -278.1886
   6   2.0000     -10.210457      -277.8407
   7   2.0000     -10.206159      -277.7237
   8   2.0000     -10.194142      -277.3967
   9   2.0000      -7.974997      -217.0107
  10   2.0000      -7.963298      -216.6924
  11   2.0000      -5.943046      -161.7185
  12   2.0000      -5.939240      -161.6149
  13   2.0000      -5.936195      -161.5321
  14   2.0000      -5.932243      -161.4245
  15   2.0000      -5.928717      -161.3286
  16   2.0000      -5.922698      -161.1648
  17   2.0000      -1.055422       -28.7195
  18   2.0000      -0.888425       -24.1753
  19   2.0000      -0.794920       -21.6309
  20   2.0000      -0.782869       -21.3029
  21   2.0000      -0.716191       -19.4885
  22   2.0000      -0.694332       -18.8937
  23   2.0000      -0.617236       -16.7958
  24   2.0000      -0.572288       -15.5727
  25   2.0000      -0.555015       -15.1027
  26   2.0000      -0.516718       -14.0606
  27   2.0000      -0.475465       -12.9381
  28   2.0000      -0.462531       -12.5861
  29   2.0000      -0.446530       -12.1507
  30   2.0000      -0.423224       -11.5165
  31   2.0000      -0.399740       -10.8775
  32   2.0000      -0.388512       -10.5720
  33   2.0000      -0.378093       -10.2884
  34   2.0000      -0.364647        -9.9225
  35   2.0000      -0.360896        -9.8205
  36   2.0000      -0.348780        -9.4908
  37   2.0000      -0.300234        -8.1698
  38   2.0000      -0.270947        -7.3729
  39   2.0000      -0.246242        -6.7006
  40   2.0000      -0.214734        -5.8432
  41   0.0000      -0.056719        -1.5434
  42   0.0000       0.016065         0.4371
  43   0.0000       0.024075         0.6551
  44   0.0000       0.035636         0.9697
  45   0.0000       0.057943         1.5767

MULLIKEN ATOMIC CHARGES
-----------------------
   0 C :   -0.158562
   1 S :    0.112674
   2 C :   -0.123820
   3 C :   -0.124848
   4 C :    0.188309
   5 O :   -0.185268
   6 S :   -0.001585
   7 C :    0.024585
   8 C :   -0.023204
   9 H :    0.022283
  10 H :    0.162305
  11 H :    0.075345
  12 H :   -0.008446
  13 H :    0.012568
  14 H :    0.027664
Sum of atomic charges:    0.0000000

LOEWDIN ATOMIC CHARGES
----------------------
   0 C :   -0.239824
   1 S :    0.444463
   2 C :   -0.175759
   3 C :   -0.253469
   4 C :   -0.000130
   5 O :   -0.054122
   6 S :    0.230809
   7 C :   -0.050207
   8 C :   -0.042546
   9 H :    0.028609
  10 H :    0.060887
  11 H :   -0.015901
  12 H :    0.028919
  13 H :    0.010431
  14 H :    0.027841

  Mayer bond orders larger than 0.100000
B(  0-C ,  1-S ) :   1.1110 B(  0-C ,  4-C ) :   1.5204 B(  0-C ,  9-H ) :   0.9662
B(  1-S ,  2-C ) :   1.1763 B(  2-C ,  3-C ) :   1.4995 B(  2-C ,  7-C ) :   1.1246
B(  3-C ,  4-C ) :   1.1974 B(  3-C ,  6-S ) :   1.0481 B(  4-C ,  5-O ) :   1.2459
B(  5-O , 10-H ) :   0.9265 B(  6-S , 10-H ) :   0.1056 B(  6-S , 11-H ) :   0.9374
B(  7-C ,  8-C ) :   1.9156 B(  7-C , 12-H ) :   0.9447 B(  8-C , 13-H ) :   0.9418
B(  8-C , 14-H ) :   0.9407

Dispersion correction           -0.033919649
FINAL SINGLE POINT ENERGY     -1103.410344980303

DIPOLE MOMENT
-------------
                                X             Y             Z
Electronic contribution:     -4.86070      -0.75894      -0.09761
Nuclear contribution   :      5.35889       0.76092       0.33562
                        -----------------------------------------
Total Dipole Moment    :      0.49820       0.00198       0.23801
                        -----------------------------------------
Magnitude (a.u.)       :      0.55214
Magnitude (Debye)      :      1.40342

Rotational constants in cm-1:     0.046331     0.042765     0.022347
Rotational constants in MHz :  1388.958023  1282.052100   669.942926

                             ****ORCA TERMINATED NORMALLY****
TOTAL RUN TIME: 0 days 0 hours 8 minutes 7 seconds 804 msec
