                         Program Version 4.2.0 -  RELEASE  -
|  1> # ORCA input file
|  2> # SCF done        -34.926742447489          0.000533654632
|  3> ! B3LYP/G D3BJ Opt RIJCOSX def2-SVP def2/J
|  4> * xyz 0 1
|  5>    C        1.53561         1.05466        -0.04684
|  6>    N        2.20626        -0.11613         0.15904
|  7>    C        1.33263        -1.15899         0.22529
|  8>    C        0.06816        -0.64737         0.05768
|  9>    C        0.20847         0.75677        -0.11454
| 10>    S       -1.42199         1.44141        -0.33260
| 11>    O       -1.58452         1.96967        -1.66063
| 12>    O       -1.77223         2.30285         0.76460
| 13>    C       -2.21448        -0.19089        -0.17400
| 14>    C       -1.28274        -1.13851         0.01908
| 15>    C       -3.63724        -0.31130        -0.26207
| 16>    C       -4.43440         0.73621        -0.46090
| 17>    H        2.04692         1.99198        -0.12823
| 18>    H        3.20638        -0.19689         0.24961
| 19>    H        1.66893        -2.16399         0.38318
| 20>    H       -1.50444        -2.18826         0.13933
| 21>    H       -4.04261        -1.31154        -0.15811
| 22>    H       -4.02881         1.72770        -0.56208
| 23>    H       -5.50368         0.62987        -0.52322
| 24> *
| 25>
| 26>                          ****END OF INPUT****
 Total Charge           Charge          ....    0
 Multiplicity           Mult            ....    1
 Number of Electrons    NEL             ....   94
Dispersion correction           -0.042881341
FINAL SINGLE POINT ENERGY      -911.869051790228
Dispersion correction            ... done
Dispersion correction           -0.042727910
FINAL SINGLE POINT ENERGY      -911.874163453086
Dispersion correction            ... done
Dispersion correction           -0.042669747
FINAL SINGLE POINT ENERGY      -911.874887708388
Dispersion correction            ... done
FINAL SINGLE POINT ENERGY      -911.874970564487
FINAL SINGLE POINT ENERGY      -911.874974902860
Dispersion correction            ... done
Dispersion correction           -0.042651762
FINAL SINGLE POINT ENERGY      -911.874967427406
Dispersion correction            ... done
Dispersion correction           -0.042654744
FINAL SINGLE POINT ENERGY      -911.874973311033
Dispersion correction            ... done
                    ***********************HURRAY********************

CARTESIAN COORDINATES (ANGSTROEM)
---------------------------------
  C      1.544205    1.069417   -0.021318
  N      2.229634   -0.109487    0.174366
  C      1.366039   -1.183204    0.228337
  C      0.086615   -0.682892    0.063378
  C      0.214618    0.731081   -0.093296
  S     -1.384417    1.453036   -0.382673
  O     -1.504751    1.899068   -1.774507
  O     -1.791656    2.356488    0.699119
  C     -2.204833   -0.179350   -0.192728
  C     -1.287533   -1.157721    0.005006
  C     -3.643223   -0.280510   -0.283006
  C     -4.490787    0.755130   -0.402955
  H      2.055196    2.025460   -0.094119
  H      3.234253   -0.179407    0.277396
  H      1.732497   -2.194701    0.384780
  H     -1.566748   -2.207135    0.122910
  H     -4.037638   -1.302087   -0.235279
  H     -4.136775    1.787783   -0.438722
  H     -5.568475    0.586280   -0.462098

 Multiplicity           Mult            ....    1
 Number of Electrons    NEL             ....   94
 Basis Dimension        Dim             ....  207

ORBITAL ENERGIES
----------------

  NO   OCC          E(Eh)            E(eV)
   0   2.0000     -89.053210     -2423.2610
   1   2.0000     -19.111165      -520.0412
   2   2.0000     -19.108927      -519.9803
   3   2.0000     -14.409227      -392.0950
   4   2.0000     -10.249366      -278.8994
   5   2.0000     -10.243469      -278.7390
   6   2.0000     -10.223477      -278.1949
   7   2.0000     -10.220523      -278.1146
   8   2.0000     -10.210542      -277.8430
   9   2.0000     -10.206973      -277.7458
  10   2.0000     -10.205815      -277.7143
  11   2.0000     -10.194345      -277.4022
  12   2.0000      -8.117294      -220.8828
  13   2.0000      -6.085115      -165.5844
  14   2.0000      -6.084897      -165.5785
  15   2.0000      -6.084607      -165.5706
  16   2.0000      -1.085045       -29.5256
  17   2.0000      -1.002071       -27.2677
  18   2.0000      -0.973100       -26.4794
  19   2.0000      -0.862918       -23.4812
  20   2.0000      -0.799597       -21.7581
  21   2.0000      -0.758562       -20.6415
  22   2.0000      -0.743577       -20.2337
  23   2.0000      -0.689630       -18.7658
  24   2.0000      -0.646027       -17.5793
  25   2.0000      -0.586671       -15.9641
  26   2.0000      -0.578590       -15.7442
  27   2.0000      -0.566803       -15.4235
  28   2.0000      -0.531679       -14.4677
  29   2.0000      -0.499596       -13.5947
  30   2.0000      -0.474617       -12.9150
  31   2.0000      -0.465290       -12.6612
  32   2.0000      -0.456976       -12.4349
  33   2.0000      -0.453604       -12.3432
  34   2.0000      -0.443626       -12.0717
  35   2.0000      -0.429637       -11.6910
  36   2.0000      -0.419897       -11.4260
  37   2.0000      -0.402052       -10.9404
  38   2.0000      -0.376307       -10.2398
  39   2.0000      -0.365796        -9.9538
  40   2.0000      -0.322777        -8.7832
  41   2.0000      -0.317359        -8.6358
  42   2.0000      -0.291207        -7.9241
  43   2.0000      -0.289752        -7.8845
  44   2.0000      -0.279997        -7.6191
  45   2.0000      -0.254219        -6.9177
  46   2.0000      -0.223568        -6.0836
  47   0.0000      -0.066510        -1.8098
  48   0.0000      -0.009178        -0.2497
  49   0.0000       0.025013         0.6806
  50   0.0000       0.029849         0.8122
  51   0.0000       0.048975         1.3327

MULLIKEN ATOMIC CHARGES
-----------------------
   0 C :   -0.010827
   1 N :   -0.072624
   2 C :    0.000952
   3 C :    0.048562
   4 C :   -0.013830
   5 S :    0.786780
   6 O :   -0.469632
   7 O :   -0.469439
   8 C :   -0.041746
   9 C :    0.047781
  10 C :   -0.000547
  11 C :   -0.008698
  12 H :    0.017030
  13 H :    0.133662
  14 H :    0.000897
  15 H :   -0.013738
  16 H :   -0.012642
  17 H :    0.046657
  18 H :    0.031401
Sum of atomic charges:   -0.0000000

LOEWDIN ATOMIC CHARGES
----------------------
   0 C :    0.006758
   1 N :    0.092867
   2 C :   -0.007452
   3 C :   -0.081458
   4 C :   -0.220111
   5 S :    1.181988
   6 O :   -0.508554
   7 O :   -0.508180
   8 C :   -0.152143
   9 C :   -0.014286
  10 C :   -0.043807
  11 C :   -0.022678
  12 H :    0.032949
  13 H :    0.093971
  14 H :    0.025895
  15 H :    0.034286
  16 H :    0.033269
  17 H :    0.026972
  18 H :    0.029715

  Mayer bond orders larger than 0.100000
B(  0-C ,  1-N ) :   1.2270 B(  0-C ,  4-C ) :   1.5199 B(  0-C , 12-H ) :   0.9965
B(  1-N ,  2-C ) :   1.2133 B(  1-N , 13-H ) :   0.9371 B(  2-C ,  3-C ) :   1.4374
B(  2-C , 14-H ) :   0.9841 B(  3-C ,  4-C ) :   1.3215 B(  3-C ,  9-C ) :   1.0529
B(  4-C ,  5-S ) :   0.7855 B(  5-S ,  6-O ) :   1.6611 B(  5-S ,  7-O ) :   1.6463
B(  5-S ,  8-C ) :   0.8042 B(  8-C ,  9-C ) :   1.6498 B(  8-C , 10-C ) :   1.1695
B(  9-C , 11-C ) :   0.1090 B(  9-C , 15-H ) :   0.9884 B( 10-C , 11-C ) :   1.8780
B( 10-C , 16-H ) :   0.9627 B( 11-C , 17-H ) :   0.9375 B( 11-C , 18-H ) :   0.9467

Dispersion correction           -0.042657276
FINAL SINGLE POINT ENERGY      -911.874975837053

DIPOLE MOMENT
-------------
                                X             Y             Z
Electronic contribution:      3.19055       3.27763      -0.40439
Nuclear contribution   :     -1.41202      -5.01719       0.87886
                        -----------------------------------------
Total Dipole Moment    :      1.77854      -1.73956       0.47447
                        -----------------------------------------
Magnitude (a.u.)       :      2.53266
Magnitude (Debye)      :      6.43751

Rotational constants in cm-1:     0.060097     0.022697     0.018318
Rotational constants in MHz :  1801.660549   680.430822   549.171237

                             ****ORCA TERMINATED NORMALLY****
TOTAL RUN TIME: 0 days 0 hours 9 minutes 17 seconds 151 msec
