                         Program Version 4.2.0 -  RELEASE  -
|  1> # ORCA input file
|  2> # SCF done        -19.638598862050          0.000958408744
|  3> ! B3LYP/G D3BJ Opt RIJCOSX def2-SVP def2/J
|  4> * xyz 0 1
|  5>    C       -0.18653         1.18451         0.07705
|  6>    S        1.15579         0.10901         0.29600
|  7>    C        0.00323        -1.17244        -0.08886
|  8>    N       -1.17977        -0.71146        -0.32850
|  9>    N       -1.28415         0.59799        -0.23702
| 10>    C        0.39263        -2.55748        -0.12028
| 11>    C       -0.45744        -3.53449        -0.41953
| 12>    H       -0.08970         2.24456         0.19340
| 13>    H        1.42867        -2.75719         0.11510
| 14>    H       -1.48509        -3.31570        -0.65217
| 15>    H       -0.14701        -4.56445        -0.43943
| 16> *
| 17>
| 18>                          ****END OF INPUT****
 Total Charge           Charge          ....    0
 Multiplicity           Mult            ....    1
 Number of Electrons    NEL             ....   58
Dispersion correction           -0.020297695
FINAL SINGLE POINT ENERGY      -662.182408695103
Dispersion correction            ... done
Dispersion correction           -0.020217440
FINAL SINGLE POINT ENERGY      -662.185256320833
Dispersion correction            ... done
Dispersion correction           -0.020214912
FINAL SINGLE POINT ENERGY      -662.185385418996
Dispersion correction            ... done
FINAL SINGLE POINT ENERGY      -662.185361730128
Dispersion correction            ... done
Dispersion correction           -0.020223151
FINAL SINGLE POINT ENERGY      -662.185414580678
Dispersion correction            ... done
Dispersion correction           -0.020224195
FINAL SINGLE POINT ENERGY      -662.185417346172
Dispersion correction            ... done
                    ***********************HURRAY********************

CARTESIAN COORDINATES (ANGSTROEM)
---------------------------------
  C     -0.174999    1.213710    0.076161
  S      1.147126    0.107996    0.280821
  C     -0.008083   -1.161778   -0.087282
  N     -1.212071   -0.702485   -0.317731
  N     -1.305719    0.643694   -0.225493
  C      0.388014   -2.567747   -0.119414
  C     -0.453496   -3.563980   -0.425254
  H     -0.057105    2.291373    0.197525
  H      1.431264   -2.781749    0.128245
  H     -1.496364   -3.355451   -0.675761
  H     -0.107937   -4.600721   -0.436056

 Multiplicity           Mult            ....    1
 Number of Electrons    NEL             ....   58
 Basis Dimension        Dim             ....  122

ORBITAL ENERGIES
----------------

  NO   OCC          E(Eh)            E(eV)
   0   2.0000     -88.897452     -2419.0226
   1   2.0000     -14.361901      -390.8072
   2   2.0000     -14.357112      -390.6769
   3   2.0000     -10.264386      -279.3082
   4   2.0000     -10.258202      -279.1399
   5   2.0000     -10.219584      -278.0890
   6   2.0000     -10.209398      -277.8118
   7   2.0000      -7.993691      -217.5194
   8   2.0000      -5.961178      -162.2119
   9   2.0000      -5.957743      -162.1184
  10   2.0000      -5.955295      -162.0518
  11   2.0000      -1.034698       -28.1556
  12   2.0000      -0.843436       -22.9511
  13   2.0000      -0.818479       -22.2719
  14   2.0000      -0.767642       -20.8886
  15   2.0000      -0.641254       -17.4494
  16   2.0000      -0.621108       -16.9012
  17   2.0000      -0.552988       -15.0476
  18   2.0000      -0.505167       -13.7463
  19   2.0000      -0.478191       -13.0122
  20   2.0000      -0.450641       -12.2626
  21   2.0000      -0.437844       -11.9143
  22   2.0000      -0.416387       -11.3305
  23   2.0000      -0.387974       -10.5573
  24   2.0000      -0.338534        -9.2120
  25   2.0000      -0.314276        -8.5519
  26   2.0000      -0.307121        -8.3572
  27   2.0000      -0.264534        -7.1983
  28   2.0000      -0.259126        -7.0512
  29   0.0000      -0.070263        -1.9119
  30   0.0000      -0.009222        -0.2509
  31   0.0000       0.005115         0.1392
  32   0.0000       0.064155         1.7457
  33   0.0000       0.071767         1.9529

MULLIKEN ATOMIC CHARGES
-----------------------
   0 C :   -0.002185
   1 S :    0.079859
   2 C :   -0.115397
   3 N :   -0.081143
   4 N :   -0.074247
   5 C :    0.045317
   6 C :    0.012587
   7 H :    0.054044
   8 H :   -0.004918
   9 H :    0.053711
  10 H :    0.032372
Sum of atomic charges:    0.0000000

LOEWDIN ATOMIC CHARGES
----------------------
   0 C :   -0.152520
   1 S :    0.388338
   2 C :   -0.149848
   3 N :   -0.087633
   4 N :   -0.073195
   5 C :   -0.058264
   6 C :    0.004046
   7 H :    0.028360
   8 H :    0.031166
   9 H :    0.038042
  10 H :    0.031507

  Mayer bond orders larger than 0.100000
B(  0-C ,  1-S ) :   1.1357 B(  0-C ,  4-N ) :   1.6998 B(  0-C ,  7-H ) :   0.9641
B(  1-S ,  2-C ) :   1.1004 B(  1-S ,  3-N ) :   0.1077 B(  1-S ,  4-N ) :   0.1137
B(  2-C ,  3-N ) :   1.6903 B(  2-C ,  5-C ) :   1.0828 B(  3-N ,  4-N ) :   1.1805
B(  5-C ,  6-C ) :   1.9504 B(  5-C ,  8-H ) :   0.9450 B(  6-C ,  9-H ) :   0.9464
B(  6-C , 10-H ) :   0.9409

Dispersion correction           -0.020224359
FINAL SINGLE POINT ENERGY      -662.185417895796

DIPOLE MOMENT
-------------
                                X             Y             Z
Electronic contribution:      1.34331       5.07815       0.77859
Nuclear contribution   :     -0.20613      -5.30032      -0.54631
                        -----------------------------------------
Total Dipole Moment    :      1.13718      -0.22217       0.23228
                        -----------------------------------------
Magnitude (a.u.)       :      1.18173
Magnitude (Debye)      :      3.00372

Rotational constants in cm-1:     0.169018     0.061878     0.045298
Rotational constants in MHz :  5067.023109  1855.059594  1357.987024

                             ****ORCA TERMINATED NORMALLY****
TOTAL RUN TIME: 0 days 0 hours 2 minutes 36 seconds 601 msec
