                         Program Version 4.2.0 -  RELEASE  -
|  1> # ORCA input file
|  2> # SCF done        -55.137875453600          0.000615843351
|  3> ! B3LYP/G D3BJ Opt RIJCOSX def2-SVP def2/J
|  4> * xyz 0 1
|  5>    N        1.07878         0.04559         0.84939
|  6>    C        1.89387        -0.52409        -0.21875
|  7>    C        2.64178        -1.72736         0.28789
|  8>    C        2.29018        -3.00670        -0.10772
|  9>    C        2.97489        -4.12354         0.35602
| 10>    O        2.67816        -5.41362         0.01383
| 11>    C        1.58017        -5.65766        -0.84146
| 12>    C        1.44986        -7.16495        -1.00093
| 13>    C        4.04888        -3.94525         1.23309
| 14>    C        4.39410        -2.66710         1.64103
| 15>    C        3.70171        -1.55436         1.18509
| 16>    O        3.98208        -0.26566         1.55157
| 17>    C        5.05551        -0.02843         2.43853
| 18>    C        5.14382         1.47318         2.66506
| 19>    C        4.81845        -5.13890         1.74013
| 20>    N        6.19123        -4.79780         2.02620
| 21>    C        6.93301        -5.51281         2.93264
| 22>    C        8.26066        -5.56503         2.96552
| 23>    H        0.64703         0.90695         0.52991
| 24>    H        1.68314         0.27702         1.63100
| 25>    H        2.62810         0.19483        -0.62142
| 26>    H        1.22079        -0.81779        -1.02888
| 27>    H        1.46366        -3.11454        -0.79158
| 28>    H        1.74900        -5.18628        -1.82021
| 29>    H        0.66172        -5.24243        -0.40439
| 30>    H        2.36173        -7.57359        -1.42784
| 31>    H        0.61403        -7.39738        -1.65452
| 32>    H        1.28487        -7.62658        -0.03126
| 33>    H        5.22045        -2.57047         2.32673
| 34>    H        5.99373        -0.40193         2.00555
| 35>    H        4.87930        -0.54535         3.39209
| 36>    H        5.30804         1.98288         1.71940
| 37>    H        5.96618         1.69701         3.33839
| 38>    H        4.21817         1.84032         3.10037
| 39>    H        4.73334        -5.94864         1.00027
| 40>    H        4.35839        -5.49535         2.66851
| 41>    H        6.70878        -4.45825         1.22716
| 42>    H        6.34013        -6.00389         3.69367
| 43>    H        8.86593        -5.08144         2.21772
| 44>    H        8.77875        -6.07908         3.75239
| 45> *
| 46>
| 47>                          ****END OF INPUT****
 Total Charge           Charge          ....    0
 Multiplicity           Mult            ....    1
 Number of Electrons    NEL             ....  136
Dispersion correction           -0.069957056
FINAL SINGLE POINT ENERGY      -806.130995822196
Dispersion correction            ... done
Dispersion correction           -0.069442584
FINAL SINGLE POINT ENERGY      -806.134817320089
Dispersion correction            ... done
Dispersion correction           -0.069397730
FINAL SINGLE POINT ENERGY      -806.135140170525
Dispersion correction            ... done
FINAL SINGLE POINT ENERGY      -806.135290666448
FINAL SINGLE POINT ENERGY      -806.135332004501
Dispersion correction            ... done
Dispersion correction           -0.069417965
FINAL SINGLE POINT ENERGY      -806.135353494009
Dispersion correction            ... done
Dispersion correction           -0.069416030
FINAL SINGLE POINT ENERGY      -806.135358292161
Dispersion correction            ... done
                    ***********************HURRAY********************

CARTESIAN COORDINATES (ANGSTROEM)
---------------------------------
  N      1.026159    0.092917    0.888385
  C      1.822316   -0.508005   -0.184912
  C      2.591593   -1.710506    0.305843
  C      2.249597   -3.006954   -0.088673
  C      2.968210   -4.122176    0.364732
  O      2.668927   -5.410160    0.029532
  C      1.576550   -5.669227   -0.830451
  C      1.471685   -7.168685   -1.025276
  C      4.070094   -3.941952    1.220185
  C      4.405328   -2.647887    1.627613
  C      3.675458   -1.539487    1.185927
  O      3.952933   -0.253544    1.561538
  C      5.078836   -0.002886    2.381606
  C      5.160574    1.489214    2.634581
  C      4.868965   -5.136957    1.694564
  N      6.211497   -4.769547    2.104260
  C      6.938210   -5.556134    2.978648
  C      8.277359   -5.664900    3.041372
  H      0.568407    0.934029    0.534553
  H      1.666099    0.410098    1.617675
  H      2.548172    0.195090   -0.647357
  H      1.137799   -0.828782   -0.986552
  H      1.398347   -3.131392   -0.757471
  H      1.730639   -5.159160   -1.800886
  H      0.647257   -5.264159   -0.386508
  H      2.402855   -7.569854   -1.453688
  H      0.644372   -7.409094   -1.710076
  H      1.287607   -7.675861   -0.066102
  H      5.258572   -2.538463    2.294987
  H      5.994067   -0.368878    1.878630
  H      4.984213   -0.555181    3.335322
  H      5.276905    2.040289    1.689308
  H      6.020291    1.721025    3.281582
  H      4.248381    1.850381    3.134071
  H      4.859697   -5.910290    0.903682
  H      4.363897   -5.599861    2.561894
  H      6.759356   -4.332872    1.367493
  H      6.311875   -6.093065    3.701240
  H      8.931489   -5.149304    2.331465
  H      8.747810   -6.256288    3.827457

 Multiplicity           Mult            ....    1
 Number of Electrons    NEL             ....  136
 Basis Dimension        Dim             ....  362

ORBITAL ENERGIES
----------------

  NO   OCC          E(Eh)            E(eV)
   0   2.0000     -19.160298      -521.3782
   1   2.0000     -19.159089      -521.3453
   2   2.0000     -14.332477      -390.0065
   3   2.0000     -14.291389      -388.8885
   4   2.0000     -10.245580      -278.7964
   5   2.0000     -10.245433      -278.7924
   6   2.0000     -10.238056      -278.5917
   7   2.0000     -10.236155      -278.5400
   8   2.0000     -10.219669      -278.0913
   9   2.0000     -10.211824      -277.8778
  10   2.0000     -10.203748      -277.6581
  11   2.0000     -10.190413      -277.2952
  12   2.0000     -10.188967      -277.2559
  13   2.0000     -10.188156      -277.2338
  14   2.0000     -10.184244      -277.1274
  15   2.0000     -10.183516      -277.1076
  16   2.0000     -10.181131      -277.0427
  17   2.0000     -10.155724      -276.3513
  18   2.0000      -1.054661       -28.6988
  19   2.0000      -1.053750       -28.6740
  20   2.0000      -0.918288       -24.9879
  21   2.0000      -0.865599       -23.5542
  22   2.0000      -0.839195       -22.8357
  23   2.0000      -0.784239       -21.3402
  24   2.0000      -0.761870       -20.7315
  25   2.0000      -0.759665       -20.6715
  26   2.0000      -0.725130       -19.7318
  27   2.0000      -0.706949       -19.2370
  28   2.0000      -0.676358       -18.4046
  29   2.0000      -0.648018       -17.6335
  30   2.0000      -0.636586       -17.3224
  31   2.0000      -0.611048       -16.6275
  32   2.0000      -0.585482       -15.9318
  33   2.0000      -0.580381       -15.7930
  34   2.0000      -0.570945       -15.5362
  35   2.0000      -0.525322       -14.2947
  36   2.0000      -0.522089       -14.2068
  37   2.0000      -0.510235       -13.8842
  38   2.0000      -0.488695       -13.2981
  39   2.0000      -0.486316       -13.2333
  40   2.0000      -0.474679       -12.9167
  41   2.0000      -0.469602       -12.7785
  42   2.0000      -0.464163       -12.6305
  43   2.0000      -0.443097       -12.0573
  44   2.0000      -0.435568       -11.8524
  45   2.0000      -0.426160       -11.5964
  46   2.0000      -0.419624       -11.4185
  47   2.0000      -0.411657       -11.2018
  48   2.0000      -0.403948       -10.9920
  49   2.0000      -0.399220       -10.8633
  50   2.0000      -0.395281       -10.7561
  51   2.0000      -0.394175       -10.7261
  52   2.0000      -0.393354       -10.7037
  53   2.0000      -0.386443       -10.5156
  54   2.0000      -0.377676       -10.2771
  55   2.0000      -0.372417       -10.1340
  56   2.0000      -0.360195        -9.8014
  57   2.0000      -0.356093        -9.6898
  58   2.0000      -0.354363        -9.6427
  59   2.0000      -0.337670        -9.1885
  60   2.0000      -0.333729        -9.0812
  61   2.0000      -0.322384        -8.7725
  62   2.0000      -0.309810        -8.4303
  63   2.0000      -0.289700        -7.8831
  64   2.0000      -0.246646        -6.7116
  65   2.0000      -0.225035        -6.1235
  66   2.0000      -0.200982        -5.4690
  67   2.0000      -0.195935        -5.3317
  68   0.0000      -0.008714        -0.2371
  69   0.0000       0.017787         0.4840
  70   0.0000       0.040581         1.1043
  71   0.0000       0.052406         1.4260
  72   0.0000       0.057558         1.5662

MULLIKEN ATOMIC CHARGES
-----------------------
   0 N :   -0.226386
   1 C :    0.211419
   2 C :   -0.054083
   3 C :   -0.152377
   4 C :    0.225038
   5 O :   -0.330286
   6 C :    0.155076
   7 C :    0.022455
   8 C :   -0.125722
   9 C :   -0.151707
  10 C :    0.231999
  11 O :   -0.338717
  12 C :    0.156761
  13 C :    0.020950
  14 C :    0.265379
  15 N :   -0.196455
  16 C :    0.037882
  17 C :   -0.088652
  18 H :    0.081306
  19 H :    0.089691
  20 H :   -0.012841
  21 H :   -0.028756
  22 H :   -0.040601
  23 H :    0.008329
  24 H :    0.008693
  25 H :    0.022500
  26 H :    0.013456
  27 H :    0.022842
  28 H :   -0.037125
  29 H :    0.003061
  30 H :    0.015010
  31 H :    0.022376
  32 H :    0.015252
  33 H :    0.021310
  34 H :    0.011660
  35 H :    0.013227
  36 H :    0.107220
  37 H :   -0.000715
  38 H :   -0.007032
  39 H :    0.008564
Sum of atomic charges:    0.0000000

LOEWDIN ATOMIC CHARGES
----------------------
   0 N :   -0.125153
   1 C :    0.030387
   2 C :   -0.041638
   3 C :   -0.062678
   4 C :    0.038066
   5 O :   -0.108971
   6 C :    0.082662
   7 C :   -0.059225
   8 C :   -0.057616
   9 C :   -0.068137
  10 C :    0.038892
  11 O :   -0.111584
  12 C :    0.082886
  13 C :   -0.060042
  14 C :    0.049113
  15 N :   -0.038346
  16 C :    0.015471
  17 C :   -0.161842
  18 H :    0.050471
  19 H :    0.046340
  20 H :    0.004456
  21 H :    0.014892
  22 H :    0.025633
  23 H :    0.009620
  24 H :    0.010829
  25 H :    0.028339
  26 H :    0.030064
  27 H :    0.028565
  28 H :    0.022753
  29 H :    0.009668
  30 H :    0.012218
  31 H :    0.028146
  32 H :    0.031030
  33 H :    0.027292
  34 H :    0.016087
  35 H :    0.032547
  36 H :    0.071319
  37 H :    0.022315
  38 H :    0.013005
  39 H :    0.022170

  Mayer bond orders larger than 0.100000
B(  0-N ,  1-C ) :   1.0839 B(  0-N , 18-H ) :   0.9639 B(  0-N , 19-H ) :   0.9685
B(  1-C ,  2-C ) :   1.0347 B(  1-C , 20-H ) :   0.9120 B(  1-C , 21-H ) :   0.9148
B(  2-C ,  3-C ) :   1.3714 B(  2-C , 10-C ) :   1.3933 B(  3-C ,  4-C ) :   1.2730
B(  3-C , 22-H ) :   0.9932 B(  4-C ,  5-O ) :   1.1333 B(  4-C ,  8-C ) :   1.3903
B(  5-O ,  6-C ) :   0.9495 B(  6-C ,  7-C ) :   1.1031 B(  6-C , 23-H ) :   0.9434
B(  6-C , 24-H ) :   0.9439 B(  7-C , 25-H ) :   0.9662 B(  7-C , 26-H ) :   0.9592
B(  7-C , 27-H ) :   0.9658 B(  8-C ,  9-C ) :   1.3482 B(  8-C , 14-C ) :   1.0190
B(  9-C , 10-C ) :   1.2555 B(  9-C , 28-H ) :   0.9919 B( 10-C , 11-O ) :   1.1092
B( 11-O , 12-C ) :   0.9480 B( 12-C , 13-C ) :   1.1011 B( 12-C , 29-H ) :   0.9443
B( 12-C , 30-H ) :   0.9432 B( 13-C , 31-H ) :   0.9648 B( 13-C , 32-H ) :   0.9592
B( 13-C , 33-H ) :   0.9675 B( 14-C , 15-N ) :   1.0117 B( 14-C , 34-H ) :   0.9196
B( 14-C , 35-H ) :   0.9116 B( 15-N , 16-C ) :   1.1617 B( 15-N , 36-H ) :   0.9379
B( 16-C , 17-C ) :   1.8936 B( 16-C , 37-H ) :   0.9533 B( 17-C , 38-H ) :   0.9548
B( 17-C , 39-H ) :   0.9453

Dispersion correction           -0.069408222
FINAL SINGLE POINT ENERGY      -806.135353207413

DIPOLE MOMENT
-------------
                                X             Y             Z
Electronic contribution:     -1.74613      -0.24247      -0.86293
Nuclear contribution   :      1.62665       0.60700       0.36181
                        -----------------------------------------
Total Dipole Moment    :     -0.11948       0.36454      -0.50111
                        -----------------------------------------
Magnitude (a.u.)       :      0.63109
Magnitude (Debye)      :      1.60411

Rotational constants in cm-1:     0.012360     0.009817     0.005592
Rotational constants in MHz :   370.533203   294.318429   167.643262

                             ****ORCA TERMINATED NORMALLY****
TOTAL RUN TIME: 0 days 0 hours 26 minutes 10 seconds 199 msec
