                         Program Version 4.2.0 -  RELEASE  -
|  1> # ORCA input file
|  2> # SCF done        -23.094836240977          0.000279895220
|  3> ! B3LYP/G D3BJ Opt RIJCOSX def2-SVP def2/J
|  4> * xyz 0 1
|  5>    C        1.23152         0.75799        -0.14569
|  6>    O        1.34009        -0.57532        -0.06278
|  7>    C        0.08793        -1.06686         0.02304
|  8>    C       -0.83383        -0.06752         0.00041
|  9>    C       -2.31481        -0.19629         0.07096
| 10>    C       -0.08135         1.14920        -0.11266
| 11>    C       -0.63601         2.48450        -0.17507
| 12>    C        0.06087         3.59531        -0.37990
| 13>    H        2.14273         1.31763        -0.21575
| 14>    H       -0.01745        -2.13134         0.09503
| 15>    H       -2.59782        -1.24412         0.12668
| 16>    H       -2.77789         0.24598        -0.81033
| 17>    H       -2.70125         0.31781         0.95048
| 18>    H       -1.70860         2.54031        -0.04357
| 19>    H        1.12767         3.58169        -0.52229
| 20>    H       -0.41533         4.55988        -0.41560
| 21> *
| 22>
| 23>                          ****END OF INPUT****
 Total Charge           Charge          ....    0
 Multiplicity           Mult            ....    1
 Number of Electrons    NEL             ....   58
Dispersion correction           -0.024815688
FINAL SINGLE POINT ENERGY      -346.512849178261
Dispersion correction            ... done
Dispersion correction           -0.024717347
FINAL SINGLE POINT ENERGY      -346.515223286845
Dispersion correction            ... done
Dispersion correction           -0.024690644
FINAL SINGLE POINT ENERGY      -346.515325710221
Dispersion correction            ... done
FINAL SINGLE POINT ENERGY      -346.515330004409
FINAL SINGLE POINT ENERGY      -346.515323490518
FINAL SINGLE POINT ENERGY      -346.515311442169
FINAL SINGLE POINT ENERGY      -346.515298591026
FINAL SINGLE POINT ENERGY      -346.515294094970
Dispersion correction            ... done
Dispersion correction           -0.024675786
FINAL SINGLE POINT ENERGY      -346.515303546301
Dispersion correction            ... done
Dispersion correction           -0.024675246
FINAL SINGLE POINT ENERGY      -346.515308526378
Dispersion correction            ... done
                    ***********************HURRAY********************

CARTESIAN COORDINATES (ANGSTROEM)
---------------------------------
  C      1.259353    0.730485   -0.210512
  O      1.348092   -0.615044   -0.101985
  C      0.082573   -1.097876    0.024229
  C     -0.827356   -0.081192   -0.005351
  C     -2.315213   -0.187430    0.101215
  C     -0.053802    1.136678   -0.161838
  C     -0.617457    2.481800   -0.253363
  C      0.049296    3.645309   -0.292490
  H      2.197213    1.267415   -0.325226
  H     -0.014457   -2.174999    0.135391
  H     -2.623967   -1.222968    0.306482
  H     -2.812764    0.134239   -0.829449
  H     -2.708911    0.446042    0.912259
  H     -1.712166    2.514844   -0.295979
  H      1.141685    3.697170   -0.246251
  H     -0.485649    4.594377   -0.374171

 Multiplicity           Mult            ....    1
 Number of Electrons    NEL             ....   58
 Basis Dimension        Dim             ....  152

ORBITAL ENERGIES
----------------

  NO   OCC          E(Eh)            E(eV)
   0   2.0000     -19.199407      -522.4424
   1   2.0000     -10.236007      -278.5359
   2   2.0000     -10.230830      -278.3950
   3   2.0000     -10.197792      -277.4960
   4   2.0000     -10.194851      -277.4160
   5   2.0000     -10.190342      -277.2933
   6   2.0000     -10.189357      -277.2665
   7   2.0000     -10.185987      -277.1748
   8   2.0000      -1.102078       -29.9891
   9   2.0000      -0.819303       -22.2944
  10   2.0000      -0.768671       -20.9166
  11   2.0000      -0.728025       -19.8106
  12   2.0000      -0.696549       -18.9541
  13   2.0000      -0.614890       -16.7320
  14   2.0000      -0.567430       -15.4406
  15   2.0000      -0.549864       -14.9626
  16   2.0000      -0.500204       -13.6113
  17   2.0000      -0.462954       -12.5976
  18   2.0000      -0.457867       -12.4592
  19   2.0000      -0.441885       -12.0243
  20   2.0000      -0.417821       -11.3695
  21   2.0000      -0.413841       -11.2612
  22   2.0000      -0.411703       -11.2030
  23   2.0000      -0.384411       -10.4604
  24   2.0000      -0.357217        -9.7204
  25   2.0000      -0.350684        -9.5426
  26   2.0000      -0.319613        -8.6971
  27   2.0000      -0.247525        -6.7355
  28   2.0000      -0.219200        -5.9647
  29   0.0000      -0.027525        -0.7490
  30   0.0000       0.025620         0.6972
  31   0.0000       0.062212         1.6929
  32   0.0000       0.078200         2.1279
  33   0.0000       0.097106         2.6424

MULLIKEN ATOMIC CHARGES
-----------------------
   0 C :    0.066897
   1 O :   -0.203742
   2 C :    0.061476
   3 C :   -0.104222
   4 C :    0.103030
   5 C :    0.047744
   6 C :   -0.015861
   7 C :   -0.028833
   8 H :    0.000814
   9 H :   -0.000988
  10 H :    0.006636
  11 H :    0.025688
  12 H :    0.025240
  13 H :   -0.012746
  14 H :    0.011681
  15 H :    0.017184
Sum of atomic charges:   -0.0000000

LOEWDIN ATOMIC CHARGES
----------------------
   0 C :    0.040334
   1 O :    0.006551
   2 C :    0.014195
   3 C :   -0.069461
   4 C :   -0.045533
   5 C :   -0.080574
   6 C :   -0.024658
   7 C :   -0.053749
   8 H :    0.020308
   9 H :    0.020132
  10 H :    0.032361
  11 H :    0.034148
  12 H :    0.033606
  13 H :    0.028083
  14 H :    0.019845
  15 H :    0.024412

  Mayer bond orders larger than 0.100000
B(  0-C ,  1-O ) :   1.1552 B(  0-C ,  5-C ) :   1.4836 B(  0-C ,  8-H ) :   1.0001
B(  1-O ,  2-C ) :   1.1208 B(  2-C ,  3-C ) :   1.5543 B(  2-C ,  9-H ) :   1.0051
B(  3-C ,  4-C ) :   1.1075 B(  3-C ,  5-C ) :   1.2354 B(  4-C , 10-H ) :   0.9516
B(  4-C , 11-H ) :   0.9441 B(  4-C , 12-H ) :   0.9446 B(  5-C ,  6-C ) :   1.0909
B(  6-C ,  7-C ) :   1.9429 B(  6-C , 13-H ) :   0.9523 B(  7-C , 14-H ) :   0.9537
B(  7-C , 15-H ) :   0.9441

Dispersion correction           -0.024675231
FINAL SINGLE POINT ENERGY      -346.515309788936

DIPOLE MOMENT
-------------
                                X             Y             Z
Electronic contribution:      5.22908      -3.17948      -0.13937
Nuclear contribution   :     -5.54949       3.17432       0.15623
                        -----------------------------------------
Total Dipole Moment    :     -0.32041      -0.00516       0.01686
                        -----------------------------------------
Magnitude (a.u.)       :      0.32089
Magnitude (Debye)      :      0.81564

Rotational constants in cm-1:     0.107094     0.062126     0.039630
Rotational constants in MHz :  3210.584857  1862.480706  1188.072842

                             ****ORCA TERMINATED NORMALLY****
TOTAL RUN TIME: 0 days 0 hours 6 minutes 37 seconds 54 msec
