                         Program Version 4.2.0 -  RELEASE  -
|  1> # ORCA input file
|  2> # SCF done        -24.858880039887          0.000878760787
|  3> ! B3LYP/G D3BJ Opt RIJCOSX def2-SVP def2/J
|  4> * xyz 0 1
|  5>    C        1.35123        -1.06369        -2.01858
|  6>    N        2.61386        -1.06018        -2.08696
|  7>    N        3.34759        -0.93664        -0.99033
|  8>    C        4.72842        -0.93196        -1.02760
|  9>    C        5.41295        -1.05704        -2.23565
| 10>    C        6.79334        -1.05028        -2.24659
| 11>    C        7.50754        -0.92048        -1.06579
| 12>    C        6.82819        -0.79613         0.13482
| 13>    C        5.44693        -0.80112         0.15969
| 14>    H        0.80270        -1.16586        -2.93627
| 15>    H        0.79152        -0.96910        -1.08587
| 16>    H        2.89264        -0.84106        -0.08100
| 17>    H        4.84416        -1.15733        -3.14591
| 18>    H        7.31816        -1.14715        -3.18571
| 19>    H        8.58693        -0.91618        -1.08045
| 20>    H        7.37730        -0.69449         1.05951
| 21>    H        4.91778        -0.70413         1.09771
| 22> *
| 23>
| 24>                          ****END OF INPUT****
 Total Charge           Charge          ....    0
 Multiplicity           Mult            ....    1
 Number of Electrons    NEL             ....   64
Dispersion correction           -0.028907076
FINAL SINGLE POINT ENERGY      -380.774205308798
Dispersion correction            ... done
Dispersion correction           -0.028695167
FINAL SINGLE POINT ENERGY      -380.776509080500
Dispersion correction            ... done
Dispersion correction           -0.028683422
FINAL SINGLE POINT ENERGY      -380.776556847448
Dispersion correction            ... done
Dispersion correction           -0.028684011
FINAL SINGLE POINT ENERGY      -380.776561517994
Dispersion correction            ... done
Dispersion correction           -0.028686448
FINAL SINGLE POINT ENERGY      -380.776559791339
Dispersion correction            ... done
                    ***********************HURRAY********************

CARTESIAN COORDINATES (ANGSTROEM)
---------------------------------
  C      1.315878   -1.057117   -2.007618
  N      2.591246   -1.080951   -2.099847
  N      3.334496   -0.959141   -1.002490
  C      4.727325   -0.944333   -1.045653
  C      5.428722   -1.061113   -2.258389
  C      6.822624   -1.045362   -2.251128
  C      7.537935   -0.914720   -1.056066
  C      6.835994   -0.795941    0.146552
  C      5.441751   -0.809482    0.157579
  H      0.728088   -1.163036   -2.922774
  H      0.784120   -0.935061   -1.046418
  H      2.882261   -0.838891   -0.094705
  H      4.864626   -1.167489   -3.184127
  H      7.360393   -1.141985   -3.197809
  H      8.629981   -0.904282   -1.062489
  H      7.377866   -0.685650    1.089022
  H      4.897932   -0.708267    1.101378

 Multiplicity           Mult            ....    1
 Number of Electrons    NEL             ....   64
 Basis Dimension        Dim             ....  166

ORBITAL ENERGIES
----------------

  NO   OCC          E(Eh)            E(eV)
   0   2.0000     -14.387048      -391.4915
   1   2.0000     -14.369618      -391.0172
   2   2.0000     -10.231848      -278.4227
   3   2.0000     -10.218662      -278.0639
   4   2.0000     -10.189942      -277.2824
   5   2.0000     -10.188679      -277.2481
   6   2.0000     -10.187643      -277.2199
   7   2.0000     -10.180968      -277.0382
   8   2.0000     -10.180333      -277.0209
   9   2.0000      -1.022279       -27.8176
  10   2.0000      -0.865898       -23.5623
  11   2.0000      -0.816376       -22.2147
  12   2.0000      -0.737364       -20.0647
  13   2.0000      -0.720645       -19.6097
  14   2.0000      -0.648055       -17.6345
  15   2.0000      -0.610041       -16.6001
  16   2.0000      -0.581470       -15.8226
  17   2.0000      -0.541380       -14.7317
  18   2.0000      -0.520437       -14.1618
  19   2.0000      -0.485315       -13.2061
  20   2.0000      -0.446293       -12.1443
  21   2.0000      -0.442251       -12.0343
  22   2.0000      -0.435803       -11.8588
  23   2.0000      -0.424233       -11.5440
  24   2.0000      -0.418761       -11.3951
  25   2.0000      -0.362933        -9.8759
  26   2.0000      -0.360764        -9.8169
  27   2.0000      -0.345226        -9.3941
  28   2.0000      -0.287689        -7.8284
  29   2.0000      -0.286293        -7.7904
  30   2.0000      -0.253841        -6.9074
  31   2.0000      -0.204140        -5.5549
  32   0.0000      -0.020715        -0.5637
  33   0.0000      -0.005451        -0.1483
  34   0.0000       0.027671         0.7530
  35   0.0000       0.050452         1.3729
  36   0.0000       0.068166         1.8549

MULLIKEN ATOMIC CHARGES
-----------------------
   0 C :   -0.039767
   1 N :   -0.041847
   2 N :   -0.063739
   3 C :    0.141103
   4 C :   -0.022858
   5 C :    0.025338
   6 C :    0.010091
   7 C :    0.016090
   8 C :   -0.044972
   9 H :    0.044557
  10 H :    0.003232
  11 H :    0.094144
  12 H :   -0.019765
  13 H :   -0.019701
  14 H :   -0.017792
  15 H :   -0.021420
  16 H :   -0.042694
Sum of atomic charges:   -0.0000000

LOEWDIN ATOMIC CHARGES
----------------------
   0 C :   -0.058069
   1 N :   -0.015231
   2 N :    0.048508
   3 C :    0.022098
   4 C :   -0.048564
   5 C :   -0.013289
   6 C :   -0.054912
   7 C :   -0.016950
   8 C :   -0.065006
   9 H :    0.021785
  10 H :   -0.006554
  11 H :    0.060318
  12 H :    0.028228
  13 H :    0.026805
  14 H :    0.024763
  15 H :    0.026280
  16 H :    0.019791

  Mayer bond orders larger than 0.100000
B(  0-C ,  1-N ) :   1.8800 B(  0-C ,  2-N ) :   0.1135 B(  0-C ,  9-H ) :   0.9625
B(  0-C , 10-H ) :   0.9384 B(  1-N ,  2-N ) :   1.0814 B(  2-N ,  3-C ) :   1.1002
B(  2-N , 11-H ) :   0.9154 B(  3-C ,  4-C ) :   1.3601 B(  3-C ,  8-C ) :   1.3278
B(  4-C ,  5-C ) :   1.3777 B(  4-C , 12-H ) :   0.9832 B(  5-C ,  6-C ) :   1.3674
B(  5-C , 13-H ) :   0.9811 B(  6-C ,  7-C ) :   1.3773 B(  6-C , 14-H ) :   0.9896
B(  7-C ,  8-C ) :   1.4000 B(  7-C , 15-H ) :   0.9802 B(  8-C , 16-H ) :   0.9860

Dispersion correction           -0.028687974
FINAL SINGLE POINT ENERGY      -380.776556755240

DIPOLE MOMENT
-------------
                                X             Y             Z
Electronic contribution:      0.46171      -0.07076      -0.21113
Nuclear contribution   :     -0.95507       0.15393       0.79431
                        -----------------------------------------
Total Dipole Moment    :     -0.49336       0.08317       0.58318
                        -----------------------------------------
Magnitude (a.u.)       :      0.76839
Magnitude (Debye)      :      1.95309

Rotational constants in cm-1:     0.169672     0.032236     0.027090
Rotational constants in MHz :  5086.633175   966.405987   812.134780

                             ****ORCA TERMINATED NORMALLY****
TOTAL RUN TIME: 0 days 0 hours 4 minutes 16 seconds 367 msec
