                         Program Version 4.2.0 -  RELEASE  -
|  1> # ORCA input file
|  2> # SCF done        -26.412684106316          0.000377844970
|  3> ! B3LYP/G D3BJ Opt RIJCOSX def2-SVP def2/J
|  4> * xyz 0 1
|  5>    C       -1.10944         0.10408        -0.10875
|  6>    C       -0.40922         1.25700         0.00554
|  7>    S       -1.00000         2.91289         0.02209
|  8>    S        1.30159         0.97134         0.15157
|  9>    C        1.03283        -0.74705         0.05319
| 10>    O        2.05473        -1.62476         0.11008
| 11>    C       -0.29391        -1.06648        -0.08400
| 12>    C       -0.75322        -2.43647        -0.18595
| 13>    C       -2.01588        -2.82245        -0.32554
| 14>    H       -2.17870         0.07597        -0.20852
| 15>    H       -2.27854         2.57454        -0.12941
| 16>    H        2.89540        -1.16457         0.20896
| 17>    H        0.03997        -3.17014        -0.14012
| 18>    H       -2.83391        -2.12456        -0.37645
| 19>    H       -2.27595        -3.86417        -0.39477
| 20> *
| 21>
| 22>                          ****END OF INPUT****
 Total Charge           Charge          ....    0
 Multiplicity           Mult            ....    1
 Number of Electrons    NEL             ....   82
Dispersion correction           -0.032273974
FINAL SINGLE POINT ENERGY     -1103.393684841428
Dispersion correction            ... done
Dispersion correction           -0.032098283
FINAL SINGLE POINT ENERGY     -1103.395806917324
Dispersion correction            ... done
Dispersion correction           -0.032040594
FINAL SINGLE POINT ENERGY     -1103.396140834426
Dispersion correction            ... done
FINAL SINGLE POINT ENERGY     -1103.396498523062
FINAL SINGLE POINT ENERGY     -1103.397152749565
FINAL SINGLE POINT ENERGY     -1103.397634247646
FINAL SINGLE POINT ENERGY     -1103.398392799676
FINAL SINGLE POINT ENERGY     -1103.399347107769
FINAL SINGLE POINT ENERGY     -1103.399971737455
FINAL SINGLE POINT ENERGY     -1103.400348691702
FINAL SINGLE POINT ENERGY     -1103.400682282351
FINAL SINGLE POINT ENERGY     -1103.400806121241
FINAL SINGLE POINT ENERGY     -1103.400851546343
Dispersion correction            ... done
Dispersion correction           -0.031999140
FINAL SINGLE POINT ENERGY     -1103.400860608825
Dispersion correction            ... done
Dispersion correction           -0.032001613
FINAL SINGLE POINT ENERGY     -1103.400861132023
Dispersion correction            ... done
                    ***********************HURRAY********************

CARTESIAN COORDINATES (ANGSTROEM)
---------------------------------
  C     -1.241983    0.021716    0.035993
  C     -0.619246    1.233709    0.165127
  S     -1.366959    2.811179    0.401224
  S      1.133829    1.031328    0.220304
  C      0.965248   -0.696361    0.030761
  O      2.021436   -1.531179   -0.029482
  C     -0.356065   -1.105494   -0.045664
  C     -0.739877   -2.505946   -0.200112
  C     -1.992302   -2.984728   -0.260537
  H     -2.328366   -0.060899   -0.007258
  H     -1.200921    3.298087   -0.855979
  H      2.853493   -1.041101   -0.008760
  H      0.098895   -3.205231   -0.272948
  H     -2.869773   -2.336213   -0.193050
  H     -2.181659   -4.053698   -0.381698

 Multiplicity           Mult            ....    1
 Number of Electrons    NEL             ....   82
 Basis Dimension        Dim             ....  164

ORBITAL ENERGIES
----------------

  NO   OCC          E(Eh)            E(eV)
   0   2.0000     -88.881100     -2418.5777
   1   2.0000     -88.856329     -2417.9036
   2   2.0000     -19.193299      -522.2762
   3   2.0000     -10.279676      -279.7242
   4   2.0000     -10.233626      -278.4711
   5   2.0000     -10.202371      -277.6206
   6   2.0000     -10.194831      -277.4154
   7   2.0000     -10.193377      -277.3759
   8   2.0000     -10.180685      -277.0305
   9   2.0000      -7.976938      -217.0635
  10   2.0000      -7.950068      -216.3324
  11   2.0000      -5.945192      -161.7769
  12   2.0000      -5.941446      -161.6750
  13   2.0000      -5.937441      -161.5660
  14   2.0000      -5.919407      -161.0752
  15   2.0000      -5.915654      -160.9731
  16   2.0000      -5.908864      -160.7884
  17   2.0000      -1.079915       -29.3860
  18   2.0000      -0.883148       -24.0317
  19   2.0000      -0.792973       -21.5779
  20   2.0000      -0.765134       -20.8204
  21   2.0000      -0.721672       -19.6377
  22   2.0000      -0.695095       -18.9145
  23   2.0000      -0.607523       -16.5315
  24   2.0000      -0.581308       -15.8182
  25   2.0000      -0.546298       -14.8655
  26   2.0000      -0.513005       -13.9596
  27   2.0000      -0.472341       -12.8530
  28   2.0000      -0.455610       -12.3978
  29   2.0000      -0.440730       -11.9929
  30   2.0000      -0.427448       -11.6314
  31   2.0000      -0.415904       -11.3173
  32   2.0000      -0.392611       -10.6835
  33   2.0000      -0.372775       -10.1437
  34   2.0000      -0.363706        -9.8970
  35   2.0000      -0.345711        -9.4073
  36   2.0000      -0.340977        -9.2785
  37   2.0000      -0.304057        -8.2738
  38   2.0000      -0.256573        -6.9817
  39   2.0000      -0.246602        -6.7104
  40   2.0000      -0.209049        -5.6885
  41   0.0000      -0.026626        -0.7245
  42   0.0000      -0.012462        -0.3391
  43   0.0000      -0.005688        -0.1548
  44   0.0000       0.044286         1.2051
  45   0.0000       0.053915         1.4671

MULLIKEN ATOMIC CHARGES
-----------------------
   0 C :    0.071576
   1 C :   -0.235685
   2 S :    0.012935
   3 S :    0.082962
   4 C :   -0.038179
   5 O :   -0.167771
   6 C :    0.042723
   7 C :    0.008622
   8 C :   -0.037351
   9 H :   -0.012292
  10 H :    0.061923
  11 H :    0.190259
  12 H :   -0.006477
  13 H :    0.006363
  14 H :    0.020393
Sum of atomic charges:    0.0000000

LOEWDIN ATOMIC CHARGES
----------------------
   0 C :   -0.041462
   1 C :   -0.359577
   2 S :    0.193606
   3 S :    0.360718
   4 C :   -0.097260
   5 O :   -0.040566
   6 C :   -0.114121
   7 C :   -0.018820
   8 C :   -0.063701
   9 H :    0.032749
  10 H :   -0.022966
  11 H :    0.098420
  12 H :    0.031123
  13 H :    0.017294
  14 H :    0.024563

  Mayer bond orders larger than 0.100000
B(  0-C ,  1-C ) :   1.5814 B(  0-C ,  6-C ) :   1.2156 B(  0-C ,  9-H ) :   0.9940
B(  1-C ,  2-S ) :   1.0590 B(  1-C ,  3-S ) :   1.0518 B(  2-S , 10-H ) :   0.9398
B(  3-S ,  4-C ) :   1.1168 B(  4-C ,  5-O ) :   1.2108 B(  4-C ,  6-C ) :   1.4421
B(  5-O , 11-H ) :   0.9515 B(  6-C ,  7-C ) :   1.1077 B(  7-C ,  8-C ) :   1.9179
B(  7-C , 12-H ) :   0.9602 B(  8-C , 13-H ) :   0.9475 B(  8-C , 14-H ) :   0.9480

Dispersion correction           -0.032002201
FINAL SINGLE POINT ENERGY     -1103.400861507195

DIPOLE MOMENT
-------------
                                X             Y             Z
Electronic contribution:      4.90857       7.85473       1.79459
Nuclear contribution   :     -4.23193      -7.73648      -2.14103
                        -----------------------------------------
Total Dipole Moment    :      0.67664       0.11824      -0.34644
                        -----------------------------------------
Magnitude (a.u.)       :      0.76931
Magnitude (Debye)      :      1.95544

Rotational constants in cm-1:     0.061098     0.028004     0.019277
Rotational constants in MHz :  1831.659669   839.550323   577.915505

                             ****ORCA TERMINATED NORMALLY****
TOTAL RUN TIME: 0 days 0 hours 11 minutes 26 seconds 896 msec
