                         Program Version 4.2.0 -  RELEASE  -
|  1> # ORCA input file
|  2> # SCF done        -34.881605142493          0.000792473050
|  3> ! B3LYP/G D3BJ Opt RIJCOSX def2-SVP def2/J
|  4> * xyz 0 1
|  5>    C       -1.48572         1.25799        -0.10933
|  6>    S       -2.64918         0.02321        -0.22900
|  7>    C       -1.44843        -1.22824        -0.23718
|  8>    C       -0.17364        -0.67795        -0.14765
|  9>    C       -0.19899         0.75955        -0.07440
| 10>    C        1.00811         1.48160         0.01995
| 11>    C        2.20021         0.80146         0.04192
| 12>    C        3.46662         1.52914         0.14091
| 13>    O        4.56245         1.02759         0.17019
| 14>    C        2.22156        -0.62110        -0.03054
| 15>    C        1.07594        -1.34465        -0.12278
| 16>    C       -1.80455        -2.61323        -0.33142
| 17>    C       -3.04888        -3.07932        -0.42624
| 18>    H       -1.79433         2.28363        -0.07069
| 19>    H        0.98102         2.56049         0.07419
| 20>    H        3.34243         2.63045         0.19008
| 21>    H        3.18829        -1.10065        -0.00929
| 22>    H        1.10794        -2.42178        -0.17757
| 23>    H       -0.97006        -3.30137        -0.32572
| 24>    H       -3.89972        -2.41877        -0.43472
| 25>    H       -3.25235        -4.13253        -0.49684
| 26> *
| 27>
| 28>                          ****END OF INPUT****
 Total Charge           Charge          ....    0
 Multiplicity           Mult            ....    1
 Number of Electrons    NEL             ....   98
Dispersion correction           -0.048049806
FINAL SINGLE POINT ENERGY      -896.944535396824
Dispersion correction            ... done
Dispersion correction           -0.047742744
FINAL SINGLE POINT ENERGY      -896.947685554953
Dispersion correction            ... done
Dispersion correction           -0.047685677
FINAL SINGLE POINT ENERGY      -896.947734230767
Dispersion correction            ... done
FINAL SINGLE POINT ENERGY      -896.947614760709
Dispersion correction            ... done
Dispersion correction           -0.047674449
FINAL SINGLE POINT ENERGY      -896.947770652352
Dispersion correction            ... done
Dispersion correction           -0.047679867
FINAL SINGLE POINT ENERGY      -896.947772141341
Dispersion correction            ... done
                    ***********************HURRAY********************

CARTESIAN COORDINATES (ANGSTROEM)
---------------------------------
  C     -1.486908    1.290682   -0.142391
  S     -2.654292    0.049095   -0.275713
  C     -1.467197   -1.221182   -0.272926
  C     -0.178367   -0.674887   -0.177586
  C     -0.195897    0.775699   -0.095469
  C      1.030782    1.488876    0.021010
  C      2.222309    0.799302    0.046922
  C      3.483654    1.557820    0.181701
  O      4.588033    1.066517    0.230149
  C      2.242892   -0.636130   -0.047340
  C      1.082201   -1.354213   -0.151870
  C     -1.839386   -2.619943   -0.352860
  C     -3.085702   -3.124269   -0.376208
  H     -1.789791    2.335121   -0.097562
  H      1.024080    2.580171    0.097426
  H      3.345342    2.669687    0.243694
  H      3.216997   -1.128653   -0.030265
  H      1.113418   -2.444035   -0.222206
  H     -0.991796   -3.311848   -0.393951
  H     -3.970544   -2.482536   -0.329723
  H     -3.261108   -4.199751   -0.440962

 Multiplicity           Mult            ....    1
 Number of Electrons    NEL             ....   98
 Basis Dimension        Dim             ....  226

ORBITAL ENERGIES
----------------

  NO   OCC          E(Eh)            E(eV)
   0   2.0000     -88.898337     -2419.0467
   1   2.0000     -19.129925      -520.5517
   2   2.0000     -10.273486      -279.5558
   3   2.0000     -10.232227      -278.4330
   4   2.0000     -10.232144      -278.4308
   5   2.0000     -10.219560      -278.0884
   6   2.0000     -10.216806      -278.0134
   7   2.0000     -10.215836      -277.9870
   8   2.0000     -10.214883      -277.9611
   9   2.0000     -10.208617      -277.7906
  10   2.0000     -10.206052      -277.7208
  11   2.0000     -10.203109      -277.6407
  12   2.0000     -10.199571      -277.5444
  13   2.0000      -7.992989      -217.5003
  14   2.0000      -5.960654      -162.1976
  15   2.0000      -5.956619      -162.0878
  16   2.0000      -5.955274      -162.0512
  17   2.0000      -1.032758       -28.1028
  18   2.0000      -0.908499       -24.7215
  19   2.0000      -0.847286       -23.0558
  20   2.0000      -0.800360       -21.7789
  21   2.0000      -0.770946       -20.9785
  22   2.0000      -0.750041       -20.4097
  23   2.0000      -0.710761       -19.3408
  24   2.0000      -0.645325       -17.5602
  25   2.0000      -0.623019       -16.9532
  26   2.0000      -0.619849       -16.8669
  27   2.0000      -0.564810       -15.3693
  28   2.0000      -0.544924       -14.8281
  29   2.0000      -0.517819       -14.0906
  30   2.0000      -0.500464       -13.6183
  31   2.0000      -0.488656       -13.2970
  32   2.0000      -0.460567       -12.5327
  33   2.0000      -0.444345       -12.0912
  34   2.0000      -0.439339       -11.9550
  35   2.0000      -0.431955       -11.7541
  36   2.0000      -0.427208       -11.6249
  37   2.0000      -0.426850       -11.6152
  38   2.0000      -0.402594       -10.9551
  39   2.0000      -0.387673       -10.5491
  40   2.0000      -0.384178       -10.4540
  41   2.0000      -0.365466        -9.9448
  42   2.0000      -0.351022        -9.5518
  43   2.0000      -0.349279        -9.5044
  44   2.0000      -0.324991        -8.8435
  45   2.0000      -0.281974        -7.6729
  46   2.0000      -0.265712        -7.2304
  47   2.0000      -0.259257        -7.0548
  48   2.0000      -0.211956        -5.7676
  49   0.0000      -0.089464        -2.4344
  50   0.0000      -0.054105        -1.4723
  51   0.0000      -0.008944        -0.2434
  52   0.0000       0.027230         0.7410
  53   0.0000       0.034496         0.9387

MULLIKEN ATOMIC CHARGES
-----------------------
   0 C :   -0.117166
   1 S :    0.151625
   2 C :   -0.148973
   3 C :    0.127719
   4 C :    0.094726
   5 C :   -0.037416
   6 C :   -0.000885
   7 C :    0.155587
   8 O :   -0.191170
   9 C :    0.020267
  10 C :   -0.020505
  11 C :    0.008876
  12 C :   -0.039472
  13 H :    0.024783
  14 H :   -0.023310
  15 H :   -0.027709
  16 H :   -0.006332
  17 H :   -0.016923
  18 H :   -0.003177
  19 H :    0.019668
  20 H :    0.029786
Sum of atomic charges:   -0.0000000

LOEWDIN ATOMIC CHARGES
----------------------
   0 C :   -0.188404
   1 S :    0.492051
   2 C :   -0.187938
   3 C :   -0.037809
   4 C :   -0.054625
   5 C :    0.014134
   6 C :   -0.083463
   7 C :    0.102743
   8 O :   -0.141424
   9 C :   -0.002364
  10 C :   -0.015489
  11 C :   -0.039911
  12 C :   -0.054154
  13 H :    0.028758
  14 H :    0.030084
  15 H :   -0.009875
  16 H :    0.034567
  17 H :    0.029993
  18 H :    0.035450
  19 H :    0.018392
  20 H :    0.029283

  Mayer bond orders larger than 0.100000
B(  0-C ,  1-S ) :   1.2087 B(  0-C ,  2-C ) :   0.1029 B(  0-C ,  4-C ) :   1.3913
B(  0-C , 13-H ) :   0.9653 B(  1-S ,  2-C ) :   1.1440 B(  2-C ,  3-C ) :   1.3560
B(  2-C , 11-C ) :   1.1568 B(  3-C ,  4-C ) :   1.1860 B(  3-C , 10-C ) :   1.1820
B(  4-C ,  5-C ) :   1.1730 B(  5-C ,  6-C ) :   1.4612 B(  5-C , 14-H ) :   0.9949
B(  6-C ,  7-C ) :   0.9846 B(  6-C ,  9-C ) :   1.1749 B(  7-C ,  8-O ) :   2.1399
B(  7-C , 15-H ) :   0.9419 B(  9-C , 10-C ) :   1.5479 B(  9-C , 16-H ) :   0.9834
B( 10-C , 17-H ) :   0.9889 B( 11-C , 12-C ) :   1.8926 B( 11-C , 18-H ) :   0.9488
B( 12-C , 19-H ) :   0.9547 B( 12-C , 20-H ) :   0.9460

Dispersion correction           -0.047678449
FINAL SINGLE POINT ENERGY      -896.947767429259

DIPOLE MOMENT
-------------
                                X             Y             Z
Electronic contribution:      0.01674       4.41065       0.10220
Nuclear contribution   :     -1.43388      -4.32214      -0.18389
                        -----------------------------------------
Total Dipole Moment    :     -1.41715       0.08851      -0.08169
                        -----------------------------------------
Magnitude (a.u.)       :      1.42226
Magnitude (Debye)      :      3.61509

Rotational constants in cm-1:     0.061546     0.013318     0.010951
Rotational constants in MHz :  1845.091903   399.256001   328.291702

                             ****ORCA TERMINATED NORMALLY****
TOTAL RUN TIME: 0 days 0 hours 10 minutes 9 seconds 615 msec
