                         Program Version 4.2.0 -  RELEASE  -
|  1> # ORCA input file
|  2> # SCF done        -24.678182556743          0.000540924907
|  3> ! B3LYP/G D3BJ Opt RIJCOSX def2-SVP def2/J
|  4> * xyz 0 1
|  5>    C        1.61408        -0.93822         0.00007
|  6>    S        2.48252         0.54667         0.00293
|  7>    C        1.03079         1.46952         0.00472
|  8>    C       -0.06327         0.66335         0.00335
|  9>    C        0.27236        -0.72211         0.00067
| 10>    S       -1.06493        -1.84131        -0.00127
| 11>    C       -2.32789        -0.61868         0.00127
| 12>    S       -3.90727        -1.00132         0.00078
| 13>    S       -1.76452         1.04642         0.00431
| 14>    H        2.13615        -1.87210        -0.00179
| 15>    H        1.06770         2.53878         0.00673
| 16> *
| 17>
| 18>                          ****END OF INPUT****
 Total Charge           Charge          ....    0
 Multiplicity           Mult            ....    1
 Number of Electrons    NEL             ....   96
Dispersion correction           -0.036334033
FINAL SINGLE POINT ENERGY     -1783.935473080321
Dispersion correction            ... done
Dispersion correction           -0.036249814
FINAL SINGLE POINT ENERGY     -1783.937219012187
Dispersion correction            ... done
Dispersion correction           -0.036220793
FINAL SINGLE POINT ENERGY     -1783.937310649166
Dispersion correction            ... done
FINAL SINGLE POINT ENERGY     -1783.935624567072
FINAL SINGLE POINT ENERGY     -1783.937331006218
Dispersion correction            ... done
Dispersion correction           -0.036215640
FINAL SINGLE POINT ENERGY     -1783.937334775521
Dispersion correction            ... done
Dispersion correction           -0.036215617
FINAL SINGLE POINT ENERGY     -1783.937335144843
Dispersion correction            ... done
                    ***********************HURRAY********************

CARTESIAN COORDINATES (ANGSTROEM)
---------------------------------
  C      1.633584   -0.947876    0.000013
  S      2.499511    0.554010    0.002802
  C      1.041391    1.485393    0.004637
  C     -0.061273    0.668983    0.003403
  C      0.278780   -0.729655    0.000693
  S     -1.075433   -1.846934   -0.001254
  C     -2.362662   -0.626517    0.001425
  S     -3.950682   -1.008022    0.000437
  S     -1.775512    1.045226    0.004646
  H      2.166677   -1.896374   -0.001754
  H      1.081338    2.572766    0.006723

 Multiplicity           Mult            ....    1
 Number of Electrons    NEL             ....   96
 Basis Dimension        Dim             ....  152

ORBITAL ENERGIES
----------------

  NO   OCC          E(Eh)            E(eV)
   0   2.0000     -88.901109     -2419.1222
   1   2.0000     -88.896466     -2418.9958
   2   2.0000     -88.896053     -2418.9846
   3   2.0000     -88.821657     -2416.9602
   4   2.0000     -10.296046      -280.1697
   5   2.0000     -10.247499      -278.8486
   6   2.0000     -10.247105      -278.8379
   7   2.0000     -10.239824      -278.6398
   8   2.0000     -10.239773      -278.6384
   9   2.0000      -7.995839      -217.5778
  10   2.0000      -7.991367      -217.4562
  11   2.0000      -7.991213      -217.4520
  12   2.0000      -7.917929      -215.4578
  13   2.0000      -5.964127      -162.2921
  14   2.0000      -5.960061      -162.1815
  15   2.0000      -5.959912      -162.1774
  16   2.0000      -5.959863      -162.1761
  17   2.0000      -5.956992      -162.0980
  18   2.0000      -5.956045      -162.0722
  19   2.0000      -5.955890      -162.0680
  20   2.0000      -5.951182      -161.9399
  21   2.0000      -5.950943      -161.9334
  22   2.0000      -5.886343      -160.1755
  23   2.0000      -5.883487      -160.0978
  24   2.0000      -5.877244      -159.9279
  25   2.0000      -0.926494       -25.2112
  26   2.0000      -0.872327       -23.7372
  27   2.0000      -0.799337       -21.7511
  28   2.0000      -0.779696       -21.2166
  29   2.0000      -0.723886       -19.6979
  30   2.0000      -0.705070       -19.1859
  31   2.0000      -0.596948       -16.2438
  32   2.0000      -0.563330       -15.3290
  33   2.0000      -0.558000       -15.1840
  34   2.0000      -0.498683       -13.5699
  35   2.0000      -0.465181       -12.6582
  36   2.0000      -0.437086       -11.8937
  37   2.0000      -0.429234       -11.6801
  38   2.0000      -0.409516       -11.1435
  39   2.0000      -0.390880       -10.6364
  40   2.0000      -0.379043       -10.3143
  41   2.0000      -0.363634        -9.8950
  42   2.0000      -0.360184        -9.8011
  43   2.0000      -0.322820        -8.7844
  44   2.0000      -0.301075        -8.1927
  45   2.0000      -0.247060        -6.7228
  46   2.0000      -0.233296        -6.3483
  47   2.0000      -0.229106        -6.2343
  48   0.0000      -0.076552        -2.0831
  49   0.0000      -0.038188        -1.0391
  50   0.0000      -0.018857        -0.5131
  51   0.0000       0.004605         0.1253
  52   0.0000       0.026838         0.7303

MULLIKEN ATOMIC CHARGES
-----------------------
   0 C :   -0.143063
   1 S :    0.123706
   2 C :   -0.149358
   3 C :    0.002790
   4 C :    0.001387
   5 S :    0.188498
   6 C :   -0.186138
   7 S :   -0.104284
   8 S :    0.188880
   9 H :    0.037470
  10 H :    0.040112
Sum of atomic charges:   -0.0000000

LOEWDIN ATOMIC CHARGES
----------------------
   0 C :   -0.209968
   1 S :    0.456309
   2 C :   -0.211917
   3 C :   -0.218708
   4 C :   -0.218424
   5 S :    0.396040
   6 C :   -0.447258
   7 S :   -0.008268
   8 S :    0.396609
   9 H :    0.032620
  10 H :    0.032964

  Mayer bond orders larger than 0.100000
B(  0-C ,  1-S ) :   1.1698 B(  0-C ,  4-C ) :   1.5674 B(  0-C ,  9-H ) :   0.9715
B(  1-S ,  2-C ) :   1.1720 B(  2-C ,  3-C ) :   1.5661 B(  2-C , 10-H ) :   0.9705
B(  3-C ,  4-C ) :   1.2367 B(  3-C ,  8-S ) :   0.9972 B(  4-C ,  5-S ) :   0.9960
B(  5-S ,  6-C ) :   1.0639 B(  5-S ,  7-S ) :   0.1480 B(  6-C ,  7-S ) :   1.6988
B(  6-C ,  8-S ) :   1.0636 B(  7-S ,  8-S ) :   0.1475

Dispersion correction           -0.036215354
FINAL SINGLE POINT ENERGY     -1783.937335834586

DIPOLE MOMENT
-------------
                                X             Y             Z
Electronic contribution:     -2.94592      -0.71204      -0.00071
Nuclear contribution   :      4.35854       1.05368       0.00133
                        -----------------------------------------
Total Dipole Moment    :      1.41262       0.34164       0.00062
                        -----------------------------------------
Magnitude (a.u.)       :      1.45335
Magnitude (Debye)      :      3.69412

Rotational constants in cm-1:     0.083162     0.018514     0.015143
Rotational constants in MHz :  2493.136717   555.030155   453.966640

                             ****ORCA TERMINATED NORMALLY****
TOTAL RUN TIME: 0 days 0 hours 4 minutes 36 seconds 726 msec
