                         Program Version 4.2.0 -  RELEASE  -
|  1> # ORCA input file
|  2> # SCF done        -21.819576037141          0.000651976193
|  3> ! B3LYP/G D3BJ Opt RIJCOSX def2-SVP def2/J
|  4> * xyz 0 1
|  5>    C       -1.25094         1.27194         0.00451
|  6>    S       -2.41708        -0.00775         0.00469
|  7>    C       -1.22316        -1.24949         0.00065
|  8>    C        0.02306        -0.69984         0.00084
|  9>    C       -0.00273         0.74104         0.00300
| 10>    N        1.31849         1.11445         0.00274
| 11>    C        2.03977        -0.05445         0.00058
| 12>    N        1.32974        -1.13270        -0.00060
| 13>    H       -1.57814         2.29089         0.00605
| 14>    H       -1.51997        -2.27711        -0.00094
| 15>    H        1.68549         2.04965         0.00371
| 16>    H        3.11348        -0.04964        -0.00030
| 17> *
| 18>
| 19>                          ****END OF INPUT****
 Total Charge           Charge          ....    0
 Multiplicity           Mult            ....    1
 Number of Electrons    NEL             ....   64
Dispersion correction           -0.023540421
FINAL SINGLE POINT ENERGY      -700.300314287626
Dispersion correction            ... done
Dispersion correction           -0.023562480
FINAL SINGLE POINT ENERGY      -700.302331509430
Dispersion correction            ... done
Dispersion correction           -0.023561276
FINAL SINGLE POINT ENERGY      -700.302424915239
Dispersion correction            ... done
FINAL SINGLE POINT ENERGY      -700.302442695823
Dispersion correction            ... done
Dispersion correction           -0.023551801
FINAL SINGLE POINT ENERGY      -700.302455467918
Dispersion correction            ... done
Dispersion correction           -0.023552463
FINAL SINGLE POINT ENERGY      -700.302457132882
Dispersion correction            ... done
                    ***********************HURRAY********************

CARTESIAN COORDINATES (ANGSTROEM)
---------------------------------
  C     -1.270111    1.286602    0.004669
  S     -2.432991   -0.008530    0.003593
  C     -1.236751   -1.257033    0.001041
  C      0.024631   -0.698758    0.000809
  C     -0.009607    0.742420    0.003008
  N      1.324480    1.113759    0.002709
  C      2.057279   -0.063699    0.000342
  N      1.339611   -1.150397   -0.000872
  H     -1.601128    2.322360    0.006488
  H     -1.529759   -2.304252   -0.000415
  H      1.702855    2.050996    0.003923
  H      3.149500   -0.036479   -0.000365

 Multiplicity           Mult            ....    1
 Number of Electrons    NEL             ....   64
 Basis Dimension        Dim             ....  136

ORBITAL ENERGIES
----------------

  NO   OCC          E(Eh)            E(eV)
   0   2.0000     -88.874436     -2418.3963
   1   2.0000     -14.384769      -391.4295
   2   2.0000     -14.310770      -389.4159
   3   2.0000     -10.258830      -279.1569
   4   2.0000     -10.227687      -278.3095
   5   2.0000     -10.210913      -277.8531
   6   2.0000     -10.209774      -277.8221
   7   2.0000     -10.206904      -277.7440
   8   2.0000      -7.968670      -216.8385
   9   2.0000      -5.936888      -161.5509
  10   2.0000      -5.932676      -161.4363
  11   2.0000      -5.930171      -161.3681
  12   2.0000      -1.009614       -27.4730
  13   2.0000      -0.874890       -23.8070
  14   2.0000      -0.865125       -23.5413
  15   2.0000      -0.728985       -19.8367
  16   2.0000      -0.710289       -19.3279
  17   2.0000      -0.617229       -16.7957
  18   2.0000      -0.612190       -16.6585
  19   2.0000      -0.562277       -15.3003
  20   2.0000      -0.535848       -14.5812
  21   2.0000      -0.466554       -12.6956
  22   2.0000      -0.449373       -12.2280
  23   2.0000      -0.447832       -12.1861
  24   2.0000      -0.408000       -11.1022
  25   2.0000      -0.403491       -10.9796
  26   2.0000      -0.355894        -9.6844
  27   2.0000      -0.347189        -9.4475
  28   2.0000      -0.311394        -8.4734
  29   2.0000      -0.274424        -7.4675
  30   2.0000      -0.237269        -6.4564
  31   2.0000      -0.213167        -5.8006
  32   0.0000      -0.032258        -0.8778
  33   0.0000       0.038564         1.0494
  34   0.0000       0.043336         1.1792
  35   0.0000       0.051868         1.4114
  36   0.0000       0.085742         2.3331

MULLIKEN ATOMIC CHARGES
-----------------------
   0 C :   -0.219812
   1 S :    0.091703
   2 C :   -0.179276
   3 C :    0.083565
   4 C :    0.161330
   5 N :   -0.100924
   6 C :    0.117640
   7 N :   -0.128017
   8 H :    0.010568
   9 H :    0.020323
  10 H :    0.123879
  11 H :    0.019021
Sum of atomic charges:   -0.0000000

LOEWDIN ATOMIC CHARGES
----------------------
   0 C :   -0.247509
   1 S :    0.441523
   2 C :   -0.210763
   3 C :   -0.057433
   4 C :   -0.036751
   5 N :    0.030183
   6 C :    0.052784
   7 N :   -0.130692
   8 H :    0.021738
   9 H :    0.028398
  10 H :    0.088033
  11 H :    0.020488

  Mayer bond orders larger than 0.100000
B(  0-C ,  1-S ) :   1.1341 B(  0-C ,  2-C ) :   0.1300 B(  0-C ,  4-C ) :   1.4330
B(  0-C ,  8-H ) :   0.9920 B(  1-S ,  2-C ) :   1.1741 B(  2-C ,  3-C ) :   1.4298
B(  2-C ,  9-H ) :   0.9830 B(  3-C ,  4-C ) :   1.2358 B(  3-C ,  7-N ) :   1.2780
B(  4-C ,  5-N ) :   1.1208 B(  5-N ,  6-C ) :   1.1474 B(  5-N , 10-H ) :   0.9368
B(  6-C ,  7-N ) :   1.7221 B(  6-C , 11-H ) :   0.9722

Dispersion correction           -0.023552509
FINAL SINGLE POINT ENERGY      -700.302458050732

DIPOLE MOMENT
-------------
                                X             Y             Z
Electronic contribution:     -2.61451      -0.57912       0.00087
Nuclear contribution   :      3.02878       1.86559       0.00085
                        -----------------------------------------
Total Dipole Moment    :      0.41427       1.28647       0.00171
                        -----------------------------------------
Magnitude (a.u.)       :      1.35153
Magnitude (Debye)      :      3.43531

Rotational constants in cm-1:     0.164750     0.051048     0.038972
Rotational constants in MHz :  4939.070123  1530.387442  1168.365483

                             ****ORCA TERMINATED NORMALLY****
TOTAL RUN TIME: 0 days 0 hours 3 minutes 33 seconds 764 msec
