                         Program Version 4.2.0 -  RELEASE  -
|  1> # ORCA input file
|  2> # SCF done        -23.162892194918          0.000605282263
|  3> ! B3LYP/G D3BJ Opt RIJCOSX def2-SVP def2/J
|  4> * xyz 0 1
|  5>    C       -0.30855         0.95833        -0.03746
|  6>    S       -1.37506        -0.37658        -0.18909
|  7>    C       -0.07369        -1.48276        -0.01643
|  8>    C        1.11643        -0.85795         0.15969
|  9>    C        0.98434         0.55867         0.14430
| 10>    O        1.97572         1.47321         0.32733
| 11>    C        3.25748         1.13417         0.01890
| 12>    C        4.27595         1.90356         0.36522
| 13>    H       -0.68145         1.96074        -0.07673
| 14>    H       -0.26817        -2.53590        -0.04486
| 15>    H        2.04296        -1.37973         0.31682
| 16>    H        3.39105         0.22115        -0.54975
| 17>    H        4.12539         2.80888         0.92454
| 18>    H        5.27878         1.64369         0.08717
| 19> *
| 20>
| 21>                          ****END OF INPUT****
 Total Charge           Charge          ....    0
 Multiplicity           Mult            ....    1
 Number of Electrons    NEL             ....   66
Dispersion correction           -0.024311200
FINAL SINGLE POINT ENERGY      -705.298919128217
Dispersion correction            ... done
Dispersion correction           -0.024248785
FINAL SINGLE POINT ENERGY      -705.301081389051
Dispersion correction            ... done
Dispersion correction           -0.024258376
FINAL SINGLE POINT ENERGY      -705.301284069613
Dispersion correction            ... done
FINAL SINGLE POINT ENERGY      -705.301323817797
FINAL SINGLE POINT ENERGY      -705.301428742346
Dispersion correction            ... done
Dispersion correction           -0.024301473
FINAL SINGLE POINT ENERGY      -705.301441256418
Dispersion correction            ... done
Dispersion correction           -0.024305238
FINAL SINGLE POINT ENERGY      -705.301440774606
Dispersion correction            ... done
                    ***********************HURRAY********************

CARTESIAN COORDINATES (ANGSTROEM)
---------------------------------
  C     -0.341119    0.961989   -0.097722
  S     -1.372199   -0.424091   -0.187456
  C     -0.043955   -1.499284    0.056852
  C      1.142259   -0.827066    0.210850
  C      0.965640    0.592944    0.119878
  O      1.952020    1.522872    0.277857
  C      3.227004    1.204522   -0.090754
  C      4.287245    1.819204    0.434422
  H     -0.726994    1.972673   -0.205881
  H     -0.213567   -2.574241    0.095291
  H      2.097992   -1.311982    0.408872
  H      3.308565    0.438329   -0.871229
  H      4.173611    2.576826    1.212896
  H      5.284677    1.576787    0.065773

 Multiplicity           Mult            ....    1
 Number of Electrons    NEL             ....   66
 Basis Dimension        Dim             ....  146

ORBITAL ENERGIES
----------------

  NO   OCC          E(Eh)            E(eV)
   0   2.0000     -88.878913     -2418.5182
   1   2.0000     -19.181546      -521.9564
   2   2.0000     -10.254714      -279.0450
   3   2.0000     -10.250030      -278.9175
   4   2.0000     -10.219809      -278.0951
   5   2.0000     -10.208379      -277.7841
   6   2.0000     -10.200681      -277.5746
   7   2.0000     -10.181680      -277.0576
   8   2.0000      -7.973896      -216.9807
   9   2.0000      -5.941986      -161.6897
  10   2.0000      -5.937971      -161.5804
  11   2.0000      -5.935242      -161.5062
  12   2.0000      -1.079570       -29.3766
  13   2.0000      -0.882048       -24.0017
  14   2.0000      -0.774726       -21.0814
  15   2.0000      -0.733471       -19.9588
  16   2.0000      -0.711234       -19.3537
  17   2.0000      -0.614727       -16.7276
  18   2.0000      -0.579054       -15.7569
  19   2.0000      -0.551129       -14.9970
  20   2.0000      -0.538031       -14.6406
  21   2.0000      -0.467674       -12.7261
  22   2.0000      -0.465484       -12.6665
  23   2.0000      -0.439277       -11.9533
  24   2.0000      -0.414439       -11.2775
  25   2.0000      -0.405190       -11.0258
  26   2.0000      -0.396307       -10.7841
  27   2.0000      -0.373124       -10.1532
  28   2.0000      -0.355935        -9.6855
  29   2.0000      -0.352331        -9.5874
  30   2.0000      -0.268627        -7.3097
  31   2.0000      -0.252834        -6.8800
  32   2.0000      -0.221456        -6.0261
  33   0.0000      -0.022713        -0.6181
  34   0.0000       0.011654         0.3171
  35   0.0000       0.042339         1.1521
  36   0.0000       0.064585         1.7575
  37   0.0000       0.074497         2.0272

MULLIKEN ATOMIC CHARGES
-----------------------
   0 C :   -0.143126
   1 S :    0.103266
   2 C :   -0.095069
   3 C :   -0.010915
   4 C :    0.210799
   5 O :   -0.255316
   6 C :    0.122264
   7 C :   -0.058839
   8 H :    0.020815
   9 H :    0.037906
  10 H :   -0.002604
  11 H :    0.014177
  12 H :    0.032444
  13 H :    0.024197
Sum of atomic charges:   -0.0000000

LOEWDIN ATOMIC CHARGES
----------------------
   0 C :   -0.225683
   1 S :    0.435362
   2 C :   -0.187618
   3 C :   -0.093227
   4 C :    0.006703
   5 O :   -0.057112
   6 C :    0.056853
   7 C :   -0.104156
   8 H :    0.028797
   9 H :    0.027393
  10 H :    0.032625
  11 H :    0.016885
  12 H :    0.031419
  13 H :    0.031759

  Mayer bond orders larger than 0.100000
B(  0-C ,  1-S ) :   1.1398 B(  0-C ,  4-C ) :   1.5436 B(  0-C ,  8-H ) :   0.9715
B(  1-S ,  2-C ) :   1.1941 B(  2-C ,  3-C ) :   1.5370 B(  2-C ,  9-H ) :   0.9648
B(  3-C ,  4-C ) :   1.2322 B(  3-C , 10-H ) :   0.9901 B(  4-C ,  5-O ) :   1.0693
B(  5-O ,  6-C ) :   1.0514 B(  6-C ,  7-C ) :   1.9464 B(  6-C , 11-H ) :   0.9488
B(  7-C , 12-H ) :   0.9564 B(  7-C , 13-H ) :   0.9450

Dispersion correction           -0.024306286
FINAL SINGLE POINT ENERGY      -705.301439539136

DIPOLE MOMENT
-------------
                                X             Y             Z
Electronic contribution:     -8.00606      -1.18116      -0.52879
Nuclear contribution   :      8.13807       0.74438       0.37096
                        -----------------------------------------
Total Dipole Moment    :      0.13201      -0.43678      -0.15783
                        -----------------------------------------
Magnitude (a.u.)       :      0.48281
Magnitude (Debye)      :      1.22721

Rotational constants in cm-1:     0.212320     0.030677     0.027192
Rotational constants in MHz :  6365.194508   919.667035   815.205486

                             ****ORCA TERMINATED NORMALLY****
TOTAL RUN TIME: 0 days 0 hours 4 minutes 40 seconds 429 msec
