                         Program Version 4.2.0 -  RELEASE  -
|  1> # ORCA input file
|  2> # SCF done        -36.005279795006          0.000579949275
|  3> ! B3LYP/G D3BJ Opt RIJCOSX def2-SVP def2/J
|  4> * xyz 0 1
|  5>    C       -1.54888         1.18125         0.02141
|  6>    S       -2.66012        -0.10562        -0.07487
|  7>    C       -1.41176        -1.30235        -0.04113
|  8>    C       -0.15967        -0.69886         0.00238
|  9>    C       -0.24620         0.74181         0.04655
| 10>    C        0.94444         1.51859         0.09908
| 11>    S        0.90827         3.28902         0.19894
| 12>    C        2.15476         0.89086         0.10175
| 13>    C        2.24430        -0.50990         0.01203
| 14>    C        1.13090        -1.30268        -0.05754
| 15>    O        1.22409        -2.65013        -0.20729
| 16>    C       -1.84349        -2.68018        -0.01317
| 17>    C       -1.27514        -3.66606         0.67263
| 18>    H       -1.92059         2.18533         0.07337
| 19>    H       -0.26832         3.45556        -0.39796
| 20>    H        3.06080         1.47435         0.15085
| 21>    H        3.22520        -0.96439        -0.02514
| 22>    H        2.15411        -2.90056        -0.27508
| 23>    H       -2.76756        -2.86523        -0.54898
| 24>    H       -0.38861        -3.51799         1.26104
| 25>    H       -1.68621        -4.66036         0.65504
| 26> *
| 27>
| 28>                          ****END OF INPUT****
 Total Charge           Charge          ....    0
 Multiplicity           Mult            ....    1
 Number of Electrons    NEL             ....  108
Dispersion correction           -0.052357335
FINAL SINGLE POINT ENERGY     -1256.943279618530
Dispersion correction            ... done
Dispersion correction           -0.051897955
FINAL SINGLE POINT ENERGY     -1256.947638677605
Dispersion correction            ... done
Dispersion correction           -0.051870111
FINAL SINGLE POINT ENERGY     -1256.948511931913
Dispersion correction            ... done
FINAL SINGLE POINT ENERGY     -1256.949127281094
FINAL SINGLE POINT ENERGY     -1256.949256042200
FINAL SINGLE POINT ENERGY     -1256.949360519012
FINAL SINGLE POINT ENERGY     -1256.949460852722
FINAL SINGLE POINT ENERGY     -1256.949553723609
FINAL SINGLE POINT ENERGY     -1256.949623914946
FINAL SINGLE POINT ENERGY     -1256.949542838428
FINAL SINGLE POINT ENERGY     -1256.949659666818
FINAL SINGLE POINT ENERGY     -1256.949679362161
FINAL SINGLE POINT ENERGY     -1256.949672648293
FINAL SINGLE POINT ENERGY     -1256.949754164124
Dispersion correction            ... done
Dispersion correction           -0.051529867
FINAL SINGLE POINT ENERGY     -1256.949761735074
Dispersion correction            ... done
Dispersion correction           -0.051530342
FINAL SINGLE POINT ENERGY     -1256.949769889716
Dispersion correction            ... done
                    ***********************HURRAY********************

CARTESIAN COORDINATES (ANGSTROEM)
---------------------------------
  C     -1.575215    1.183512    0.102129
  S     -2.657902   -0.128822    0.145064
  C     -1.407141   -1.338357    0.149435
  C     -0.144152   -0.703156    0.117768
  C     -0.254888    0.751530    0.088589
  C      0.915185    1.586364    0.051334
  S      0.778703    3.365086    0.096703
  C      2.150983    0.988337    0.059484
  C      2.280602   -0.425773    0.107117
  C      1.180623   -1.257617    0.129640
  O      1.315543   -2.604447    0.165751
  C     -1.927886   -2.700725    0.189818
  C     -1.323233   -3.901577    0.216161
  H     -1.923249    2.213166    0.114568
  H      0.086170    3.514918   -1.060654
  H      3.050812    1.604996    0.022521
  H      3.280502   -0.870222    0.114253
  H      2.255250   -2.830326    0.180291
  H     -3.025366   -2.714391    0.205041
  H     -0.242856   -4.018664    0.207412
  H     -1.942164   -4.801372    0.251486

 Multiplicity           Mult            ....    1
 Number of Electrons    NEL             ....  108
 Basis Dimension        Dim             ....  230

ORBITAL ENERGIES
----------------

  NO   OCC          E(Eh)            E(eV)
   0   2.0000     -88.885951     -2418.7097
   1   2.0000     -88.844460     -2417.5807
   2   2.0000     -19.180897      -521.9387
   3   2.0000     -10.264783      -279.3190
   4   2.0000     -10.229247      -278.3520
   5   2.0000     -10.214096      -277.9397
   6   2.0000     -10.212891      -277.9069
   7   2.0000     -10.210127      -277.8317
   8   2.0000     -10.207413      -277.7578
   9   2.0000     -10.202944      -277.6362
  10   2.0000     -10.200276      -277.5636
  11   2.0000     -10.193589      -277.3817
  12   2.0000     -10.181536      -277.0537
  13   2.0000      -7.980872      -217.1706
  14   2.0000      -7.938309      -216.0124
  15   2.0000      -5.948463      -161.8659
  16   2.0000      -5.944539      -161.7591
  17   2.0000      -5.943159      -161.7216
  18   2.0000      -5.907462      -160.7502
  19   2.0000      -5.903975      -160.6553
  20   2.0000      -5.897226      -160.4717
  21   2.0000      -1.069606       -29.1055
  22   2.0000      -0.896809       -24.4034
  23   2.0000      -0.839468       -22.8431
  24   2.0000      -0.787689       -21.4341
  25   2.0000      -0.771403       -20.9909
  26   2.0000      -0.742135       -20.1945
  27   2.0000      -0.712076       -19.3766
  28   2.0000      -0.686012       -18.6673
  29   2.0000      -0.630027       -17.1439
  30   2.0000      -0.613613       -16.6973
  31   2.0000      -0.594534       -16.1781
  32   2.0000      -0.548820       -14.9342
  33   2.0000      -0.523794       -14.2531
  34   2.0000      -0.511217       -13.9109
  35   2.0000      -0.471717       -12.8361
  36   2.0000      -0.462118       -12.5749
  37   2.0000      -0.457347       -12.4451
  38   2.0000      -0.436914       -11.8890
  39   2.0000      -0.431000       -11.7281
  40   2.0000      -0.422060       -11.4848
  41   2.0000      -0.398796       -10.8518
  42   2.0000      -0.394391       -10.7319
  43   2.0000      -0.386314       -10.5121
  44   2.0000      -0.368059       -10.0154
  45   2.0000      -0.355866        -9.6836
  46   2.0000      -0.351539        -9.5659
  47   2.0000      -0.345783        -9.4092
  48   2.0000      -0.327782        -8.9194
  49   2.0000      -0.301743        -8.2108
  50   2.0000      -0.263483        -7.1697
  51   2.0000      -0.258397        -7.0313
  52   2.0000      -0.237173        -6.4538
  53   2.0000      -0.192797        -5.2463
  54   0.0000      -0.069343        -1.8869
  55   0.0000      -0.012458        -0.3390
  56   0.0000       0.018881         0.5138
  57   0.0000       0.027167         0.7393
  58   0.0000       0.036163         0.9840

MULLIKEN ATOMIC CHARGES
-----------------------
   0 C :   -0.145656
   1 S :    0.138962
   2 C :   -0.192644
   3 C :    0.119076
   4 C :    0.078766
   5 C :   -0.097190
   6 S :   -0.007858
   7 C :    0.014052
   8 C :   -0.082503
   9 C :    0.130618
  10 O :   -0.169709
  11 C :    0.031429
  12 C :   -0.030209
  13 H :    0.015345
  14 H :    0.054427
  15 H :   -0.021532
  16 H :   -0.043958
  17 H :    0.180631
  18 H :   -0.011359
  19 H :    0.025903
  20 H :    0.013408
Sum of atomic charges:   -0.0000000

LOEWDIN ATOMIC CHARGES
----------------------
   0 C :   -0.215523
   1 S :    0.493526
   2 C :   -0.170343
   3 C :   -0.064448
   4 C :   -0.056227
   5 C :   -0.184335
   6 S :    0.191669
   7 C :   -0.028709
   8 C :   -0.103018
   9 C :    0.062658
  10 O :   -0.027569
  11 C :   -0.057566
  12 C :   -0.047250
  13 H :    0.020248
  14 H :   -0.027059
  15 H :    0.028933
  16 H :    0.022982
  17 H :    0.096117
  18 H :    0.024938
  19 H :    0.017754
  20 H :    0.023222

  Mayer bond orders larger than 0.100000
B(  0-C ,  1-S ) :   1.1833 B(  0-C ,  2-C ) :   0.1086 B(  0-C ,  4-C ) :   1.4250
B(  0-C , 13-H ) :   0.9516 B(  1-S ,  2-C ) :   1.1882 B(  2-C ,  3-C ) :   1.3199
B(  2-C , 11-C ) :   1.1280 B(  3-C ,  4-C ) :   1.2260 B(  3-C ,  9-C ) :   1.1869
B(  4-C ,  5-C ) :   1.1900 B(  5-C ,  6-S ) :   1.0215 B(  5-C ,  7-C ) :   1.5423
B(  6-S , 14-H ) :   0.9375 B(  7-C ,  8-C ) :   1.2002 B(  7-C , 15-H ) :   0.9815
B(  8-C ,  9-C ) :   1.4421 B(  8-C , 16-H ) :   0.9764 B(  9-C , 10-O ) :   1.2148
B( 10-O , 17-H ) :   0.9503 B( 11-C , 12-C ) :   1.9287 B( 11-C , 18-H ) :   0.9318
B( 12-C , 19-H ) :   0.9364 B( 12-C , 20-H ) :   0.9337

Dispersion correction           -0.051532655
FINAL SINGLE POINT ENERGY     -1256.949771184100

DIPOLE MOMENT
-------------
                                X             Y             Z
Electronic contribution:     -2.50450       6.49332       0.61771
Nuclear contribution   :      2.91183      -6.98122      -0.86705
                        -----------------------------------------
Total Dipole Moment    :      0.40733      -0.48790      -0.24933
                        -----------------------------------------
Magnitude (a.u.)       :      0.68274
Magnitude (Debye)      :      1.73539

Rotational constants in cm-1:     0.033936     0.016668     0.011198
Rotational constants in MHz :  1017.363716   499.689900   335.702441

                             ****ORCA TERMINATED NORMALLY****
TOTAL RUN TIME: 0 days 0 hours 26 minutes 49 seconds 787 msec
