                         Program Version 4.2.0 -  RELEASE  -
|  1> # ORCA input file
|  2> # SCF done        -35.757811274073          0.000650091366
|  3> ! B3LYP/G D3BJ Opt RIJCOSX def2-SVP def2/J
|  4> * xyz 0 1
|  5>    C        1.55764         1.25209         0.14318
|  6>    S        2.77546         0.03949         0.07766
|  7>    C        1.58284        -1.19359         0.02013
|  8>    C        0.32018        -0.69037         0.05285
|  9>    C        0.30369         0.73076         0.12133
| 10>    C       -0.97134         1.51009         0.19077
| 11>    C       -2.12786         0.67010        -0.34538
| 12>    C       -2.16116        -0.68417         0.35777
| 13>    C       -0.92679        -1.52037        -0.02728
| 14>    C       -1.12345        -2.02965        -1.45512
| 15>    O       -0.72729        -1.47237        -2.43488
| 16>    O       -1.83434        -3.17028        -1.55244
| 17>    H        1.84450         2.28353         0.19319
| 18>    H        1.88663        -2.21994        -0.04117
| 19>    H       -0.87490         2.43713        -0.37689
| 20>    H       -1.16850         1.78124         1.23399
| 21>    H       -1.99860         0.51746        -1.41818
| 22>    H       -3.07141         1.19423        -0.18488
| 23>    H       -3.07306        -1.22473         0.09002
| 24>    H       -2.16335        -0.53328         1.44014
| 25>    H       -0.83822        -2.38456         0.64434
| 26>    H       -2.09987        -3.52203        -0.69244
| 27> *
| 28>
| 29>                          ****END OF INPUT****
 Total Charge           Charge          ....    0
 Multiplicity           Mult            ....    1
 Number of Electrons    NEL             ....   96
Dispersion correction           -0.047533025
FINAL SINGLE POINT ENERGY      -897.195293768773
Dispersion correction            ... done
Dispersion correction           -0.047072497
FINAL SINGLE POINT ENERGY      -897.197935301531
Dispersion correction            ... done
Dispersion correction           -0.046954693
FINAL SINGLE POINT ENERGY      -897.197947112349
Dispersion correction            ... done
FINAL SINGLE POINT ENERGY      -897.198088981654
FINAL SINGLE POINT ENERGY      -897.198113693936
FINAL SINGLE POINT ENERGY      -897.198094080369
FINAL SINGLE POINT ENERGY      -897.198084407994
FINAL SINGLE POINT ENERGY      -897.198068044157
FINAL SINGLE POINT ENERGY      -897.198056367866
Dispersion correction            ... done
Dispersion correction           -0.046930453
FINAL SINGLE POINT ENERGY      -897.198048050532
Dispersion correction            ... done
Dispersion correction           -0.046930481
FINAL SINGLE POINT ENERGY      -897.198043673947
Dispersion correction            ... done
                    ***********************HURRAY********************

CARTESIAN COORDINATES (ANGSTROEM)
---------------------------------
  C      1.592916    1.259415    0.164145
  S      2.808359    0.030856    0.200266
  C      1.618226   -1.214769    0.107169
  C      0.343275   -0.704244    0.043765
  C      0.325260    0.733018    0.087407
  C     -0.959456    1.522802    0.122463
  C     -2.170667    0.681536   -0.302166
  C     -2.156435   -0.699857    0.357878
  C     -0.916854   -1.525786   -0.076462
  C     -1.156056   -2.025651   -1.509413
  O     -0.826621   -1.445057   -2.504674
  O     -1.867620   -3.178730   -1.593499
  H      1.877661    2.309520    0.215586
  H      1.923292   -2.259888    0.080244
  H     -0.873605    2.418726   -0.511966
  H     -1.118576    1.893933    1.151451
  H     -2.172032    0.558993   -1.397091
  H     -3.098122    1.210966   -0.031706
  H     -3.073509   -1.256713    0.106172
  H     -2.135511   -0.590627    1.455470
  H     -0.829959   -2.408758    0.580915
  H     -2.023168   -3.538907   -0.709247

 Multiplicity           Mult            ....    1
 Number of Electrons    NEL             ....   96
 Basis Dimension        Dim             ....  222

ORBITAL ENERGIES
----------------

  NO   OCC          E(Eh)            E(eV)
   0   2.0000     -88.871907     -2418.3275
   1   2.0000     -19.183152      -522.0001
   2   2.0000     -19.119398      -520.2653
   3   2.0000     -10.315687      -280.7041
   4   2.0000     -10.222500      -278.1684
   5   2.0000     -10.209572      -277.8166
   6   2.0000     -10.208059      -277.7754
   7   2.0000     -10.205463      -277.7048
   8   2.0000     -10.197933      -277.4999
   9   2.0000     -10.195665      -277.4382
  10   2.0000     -10.194539      -277.4075
  11   2.0000     -10.192490      -277.3517
  12   2.0000      -7.966926      -216.7911
  13   2.0000      -5.934970      -161.4987
  14   2.0000      -5.930847      -161.3866
  15   2.0000      -5.928536      -161.3237
  16   2.0000      -1.092237       -29.7213
  17   2.0000      -1.010487       -27.4967
  18   2.0000      -0.883662       -24.0457
  19   2.0000      -0.826440       -22.4886
  20   2.0000      -0.772882       -21.0312
  21   2.0000      -0.733459       -19.9584
  22   2.0000      -0.700063       -19.0497
  23   2.0000      -0.652664       -17.7599
  24   2.0000      -0.617201       -16.7949
  25   2.0000      -0.594468       -16.1763
  26   2.0000      -0.571930       -15.5630
  27   2.0000      -0.546106       -14.8603
  28   2.0000      -0.508453       -13.8357
  29   2.0000      -0.489522       -13.3206
  30   2.0000      -0.474110       -12.9012
  31   2.0000      -0.447483       -12.1766
  32   2.0000      -0.445847       -12.1321
  33   2.0000      -0.430600       -11.7172
  34   2.0000      -0.419581       -11.4174
  35   2.0000      -0.412589       -11.2271
  36   2.0000      -0.402935       -10.9644
  37   2.0000      -0.398572       -10.8457
  38   2.0000      -0.386489       -10.5169
  39   2.0000      -0.366485        -9.9726
  40   2.0000      -0.348755        -9.4901
  41   2.0000      -0.343429        -9.3452
  42   2.0000      -0.339421        -9.2361
  43   2.0000      -0.331659        -9.0249
  44   2.0000      -0.320740        -8.7278
  45   2.0000      -0.275114        -7.4862
  46   2.0000      -0.244618        -6.6564
  47   2.0000      -0.233645        -6.3578
  48   0.0000      -0.021913        -0.5963
  49   0.0000       0.003287         0.0894
  50   0.0000       0.022328         0.6076
  51   0.0000       0.045243         1.2311
  52   0.0000       0.049888         1.3575

MULLIKEN ATOMIC CHARGES
-----------------------
   0 C :   -0.144142
   1 S :    0.102467
   2 C :   -0.144861
   3 C :    0.034144
   4 C :   -0.027763
   5 C :    0.135429
   6 C :    0.012461
   7 C :    0.043970
   8 C :   -0.046066
   9 C :    0.147782
  10 O :   -0.183172
  11 O :   -0.162155
  12 H :    0.010432
  13 H :    0.011014
  14 H :    0.006484
  15 H :    0.006593
  16 H :    0.030842
  17 H :   -0.001844
  18 H :   -0.008267
  19 H :    0.013770
  20 H :   -0.011780
  21 H :    0.174661
Sum of atomic charges:    0.0000000

LOEWDIN ATOMIC CHARGES
----------------------
   0 C :   -0.201270
   1 S :    0.435351
   2 C :   -0.195092
   3 C :   -0.062311
   4 C :   -0.058798
   5 C :   -0.020833
   6 C :   -0.030247
   7 C :   -0.015410
   8 C :   -0.064163
   9 C :    0.082934
  10 O :   -0.150001
  11 O :   -0.039317
  12 H :    0.021945
  13 H :    0.021449
  14 H :    0.032825
  15 H :    0.029382
  16 H :    0.029492
  17 H :    0.024423
  18 H :    0.019479
  19 H :    0.025447
  20 H :    0.026675
  21 H :    0.088038

  Mayer bond orders larger than 0.100000
B(  0-C ,  1-S ) :   1.1631 B(  0-C ,  4-C ) :   1.5502 B(  0-C , 12-H ) :   0.9650
B(  1-S ,  2-C ) :   1.1737 B(  2-C ,  3-C ) :   1.5386 B(  2-C , 13-H ) :   0.9661
B(  3-C ,  4-C ) :   1.3122 B(  3-C ,  8-C ) :   0.9742 B(  4-C ,  5-C ) :   1.0408
B(  5-C ,  6-C ) :   1.0938 B(  5-C , 14-H ) :   0.9171 B(  5-C , 15-H ) :   0.9177
B(  6-C ,  7-C ) :   1.0776 B(  6-C , 16-H ) :   0.9373 B(  6-C , 17-H ) :   0.9309
B(  7-C ,  8-C ) :   1.0467 B(  7-C , 18-H ) :   0.9264 B(  7-C , 19-H ) :   0.9404
B(  8-C ,  9-C ) :   0.9131 B(  8-C , 20-H ) :   0.8845 B(  9-C , 10-O ) :   2.1567
B(  9-C , 11-O ) :   1.1849 B( 11-O , 21-H ) :   0.9567

Dispersion correction           -0.046929750
FINAL SINGLE POINT ENERGY      -897.198038242586

DIPOLE MOMENT
-------------
                                X             Y             Z
Electronic contribution:     10.10997      -3.58308      -2.94330
Nuclear contribution   :    -10.59860       3.43515       4.43326
                        -----------------------------------------
Total Dipole Moment    :     -0.48863      -0.14793       1.48997
                        -----------------------------------------
Magnitude (a.u.)       :      1.57500
Magnitude (Debye)      :      4.00334

Rotational constants in cm-1:     0.044726     0.021626     0.016833
Rotational constants in MHz :  1340.844833   648.341083   504.645807

                             ****ORCA TERMINATED NORMALLY****
TOTAL RUN TIME: 0 days 0 hours 17 minutes 54 seconds 187 msec
