                         Program Version 4.2.0 -  RELEASE  -
|  1> # ORCA input file
|  2> # SCF done        -27.634970186500          0.000534131630
|  3> ! B3LYP/G D3BJ Opt RIJCOSX def2-SVP def2/J
|  4> * xyz 0 1
|  5>    C       -1.52694        -1.22837         0.17050
|  6>    S       -2.70501         0.00210         0.25648
|  7>    C       -1.53033         1.23725         0.16443
|  8>    C       -0.25662         0.72642         0.07323
|  9>    C       -0.25365        -0.71512         0.07671
| 10>    C        0.97579        -1.41508        -0.01117
| 11>    C        2.13747        -0.71571        -0.09799
| 12>    C        2.11206         0.69990        -0.09966
| 13>    F        3.30132         1.33612        -0.18906
| 14>    C        0.96961         1.42943        -0.01808
| 15>    H       -1.82474        -2.25733         0.19429
| 16>    H       -1.83157         2.26511         0.18323
| 17>    H        0.97041        -2.49423        -0.00840
| 18>    H        3.09430        -1.20836        -0.16744
| 19>    H        0.98961         2.50724        -0.02273
| 20> *
| 21>
| 22>                          ****END OF INPUT****
 Total Charge           Charge          ....    0
 Multiplicity           Mult            ....    1
 Number of Electrons    NEL             ....   78
Dispersion correction           -0.032906698
FINAL SINGLE POINT ENERGY      -805.500226433997
Dispersion correction            ... done
Dispersion correction           -0.032811701
FINAL SINGLE POINT ENERGY      -805.502433244977
Dispersion correction            ... done
Dispersion correction           -0.032797608
FINAL SINGLE POINT ENERGY      -805.502487915156
Dispersion correction            ... done
Dispersion correction           -0.032795745
FINAL SINGLE POINT ENERGY      -805.502488091420
Dispersion correction            ... done
Dispersion correction           -0.032796210
FINAL SINGLE POINT ENERGY      -805.502487191836
Dispersion correction            ... done
                    ***********************HURRAY********************

CARTESIAN COORDINATES (ANGSTROEM)
---------------------------------
  C     -1.551056   -1.244363    0.163871
  S     -2.722632    0.000987    0.253613
  C     -1.549549    1.250815    0.176076
  C     -0.263164    0.732486    0.081132
  C     -0.263620   -0.723245    0.077161
  C      0.981637   -1.423152   -0.005582
  C      2.154155   -0.718528   -0.090127
  C      2.130009    0.711216   -0.106781
  F      3.307043    1.348867   -0.224405
  C      0.977428    1.437636   -0.015945
  H     -1.852706   -2.290008    0.171611
  H     -1.850966    2.295994    0.197633
  H      0.987778   -2.515812    0.001036
  H      3.121155   -1.221337   -0.149417
  H      1.016198    2.527814   -0.025536

 Multiplicity           Mult            ....    1
 Number of Electrons    NEL             ....   78
 Basis Dimension        Dim             ....  169

ORBITAL ENERGIES
----------------

  NO   OCC          E(Eh)            E(eV)
   0   2.0000     -88.890066     -2418.8217
   1   2.0000     -24.694482      -671.9710
   2   2.0000     -10.272910      -279.5401
   3   2.0000     -10.218336      -278.0551
   4   2.0000     -10.214913      -277.9619
   5   2.0000     -10.208334      -277.7829
   6   2.0000     -10.207720      -277.7662
   7   2.0000     -10.206196      -277.7247
   8   2.0000     -10.202355      -277.6202
   9   2.0000     -10.197426      -277.4861
  10   2.0000      -7.984660      -217.2737
  11   2.0000      -5.952349      -161.9717
  12   2.0000      -5.948203      -161.8588
  13   2.0000      -5.947108      -161.8290
  14   2.0000      -1.203781       -32.7565
  15   2.0000      -0.896456       -24.3938
  16   2.0000      -0.835074       -22.7235
  17   2.0000      -0.768780       -20.9196
  18   2.0000      -0.736849       -20.0507
  19   2.0000      -0.703964       -19.1558
  20   2.0000      -0.630845       -17.1662
  21   2.0000      -0.590738       -16.0748
  22   2.0000      -0.580572       -15.7982
  23   2.0000      -0.532002       -14.4765
  24   2.0000      -0.516018       -14.0416
  25   2.0000      -0.489878       -13.3302
  26   2.0000      -0.466325       -12.6894
  27   2.0000      -0.455232       -12.3875
  28   2.0000      -0.441828       -12.0227
  29   2.0000      -0.419555       -11.4167
  30   2.0000      -0.406016       -11.0483
  31   2.0000      -0.404967       -11.0197
  32   2.0000      -0.388461       -10.5706
  33   2.0000      -0.356003        -9.6873
  34   2.0000      -0.351624        -9.5682
  35   2.0000      -0.335597        -9.1321
  36   2.0000      -0.293227        -7.9791
  37   2.0000      -0.252290        -6.8652
  38   2.0000      -0.210838        -5.7372
  39   0.0000      -0.064233        -1.7479
  40   0.0000       0.014989         0.4079
  41   0.0000       0.021663         0.5895
  42   0.0000       0.045618         1.2413
  43   0.0000       0.063336         1.7235

MULLIKEN ATOMIC CHARGES
-----------------------
   0 C :   -0.140719
   1 S :    0.140585
   2 C :   -0.148418
   3 C :    0.097038
   4 C :    0.096898
   5 C :    0.002881
   6 C :   -0.041789
   7 C :    0.283059
   8 F :   -0.202004
   9 C :   -0.079851
  10 H :    0.019244
  11 H :    0.019100
  12 H :   -0.017717
  13 H :   -0.007631
  14 H :   -0.020676
Sum of atomic charges:    0.0000000

LOEWDIN ATOMIC CHARGES
----------------------
   0 C :   -0.208664
   1 S :    0.485450
   2 C :   -0.217060
   3 C :   -0.044655
   4 C :   -0.057201
   5 C :   -0.007602
   6 C :   -0.051990
   7 C :    0.077248
   8 F :   -0.070240
   9 C :   -0.059550
  10 H :    0.025543
  11 H :    0.025089
  12 H :    0.031748
  13 H :    0.035894
  14 H :    0.035990

  Mayer bond orders larger than 0.100000
B(  0-C ,  1-S ) :   1.2152 B(  0-C ,  2-C ) :   0.1192 B(  0-C ,  4-C ) :   1.4031
B(  0-C , 10-H ) :   0.9655 B(  1-S ,  2-C ) :   1.1986 B(  2-C ,  3-C ) :   1.4142
B(  2-C , 11-H ) :   0.9658 B(  3-C ,  4-C ) :   1.2014 B(  3-C ,  9-C ) :   1.1415
B(  4-C ,  5-C ) :   1.1787 B(  5-C ,  6-C ) :   1.5220 B(  5-C , 12-H ) :   0.9930
B(  6-C ,  7-C ) :   1.1868 B(  6-C , 13-H ) :   0.9839 B(  7-C ,  8-F ) :   1.0571
B(  7-C ,  9-C ) :   1.5186 B(  9-C , 14-H ) :   1.0007

Dispersion correction           -0.032796715
FINAL SINGLE POINT ENERGY      -805.502487763415

DIPOLE MOMENT
-------------
                                X             Y             Z
Electronic contribution:      1.35167       2.64196      -0.15925
Nuclear contribution   :     -1.85765      -2.98548       0.20158
                        -----------------------------------------
Total Dipole Moment    :     -0.50599      -0.34352       0.04232
                        -----------------------------------------
Magnitude (a.u.)       :      0.61304
Magnitude (Debye)      :      1.55823

Rotational constants in cm-1:     0.109056     0.025060     0.020378
Rotational constants in MHz :  3269.416438   751.275966   610.931523

                             ****ORCA TERMINATED NORMALLY****
TOTAL RUN TIME: 0 days 0 hours 4 minutes 47 seconds 740 msec
