                         Program Version 4.2.0 -  RELEASE  -
|  1> # ORCA input file
|  2> # SCF done        -41.899737648294          0.000777627661
|  3> ! B3LYP/G D3BJ Opt RIJCOSX def2-SVP def2/J
|  4> * xyz 0 1
|  5>    C       -1.10821         1.13522         0.09336
|  6>    C        0.18179         0.65995         0.07614
|  7>    N        1.31170         1.40357         0.09587
|  8>    C        2.44949         0.76634         0.07415
|  9>    C        3.67760         1.62878         0.05199
| 10>    C        4.11910         1.89724        -1.38885
| 11>    C        2.51347        -0.67049         0.03049
| 12>    C        3.81286        -1.42107         0.05735
| 13>    C        4.24562        -1.67854         1.50306
| 14>    N        1.43628        -1.40898         0.01337
| 15>    C        0.24342        -0.77847         0.03674
| 16>    C       -1.01450        -1.37266         0.02921
| 17>    S       -2.23473        -0.14572         0.06508
| 18>    C       -1.38777        -2.75671         0.00476
| 19>    C       -0.51957        -3.76755         0.00653
| 20>    H       -1.43812         2.15350         0.12095
| 21>    H        4.48971         1.16287         0.60998
| 22>    H        3.42453         2.57853         0.52498
| 23>    H        4.35171         0.96987        -1.90842
| 24>    H        5.00314         2.53063        -1.39748
| 25>    H        3.32347         2.40238        -1.93086
| 26>    H        4.59181        -0.87280        -0.47168
| 27>    H        3.65824        -2.37953        -0.44059
| 28>    H        4.39304        -0.74358         2.03971
| 29>    H        5.17678        -2.23988         1.52185
| 30>    H        3.48138        -2.25289         2.02084
| 31>    H       -2.45436        -2.94372        -0.01237
| 32>    H        0.54000        -3.58418         0.02455
| 33>    H       -0.85389        -4.79016        -0.00821
| 34> *
| 35>
| 36>                          ****END OF INPUT****
 Total Charge           Charge          ....    0
 Multiplicity           Mult            ....    1
 Number of Electrons    NEL             ....  116
Dispersion correction           -0.061456529
FINAL SINGLE POINT ENERGY      -972.910565044580
Dispersion correction            ... done
Dispersion correction           -0.060785401
FINAL SINGLE POINT ENERGY      -972.914631004569
Dispersion correction            ... done
Dispersion correction           -0.060682214
FINAL SINGLE POINT ENERGY      -972.914760741342
Dispersion correction            ... done
FINAL SINGLE POINT ENERGY      -972.914760003808
Dispersion correction            ... done
Dispersion correction           -0.060625390
FINAL SINGLE POINT ENERGY      -972.914788692515
Dispersion correction            ... done
Dispersion correction           -0.060634682
FINAL SINGLE POINT ENERGY      -972.914800314286
Dispersion correction            ... done
                    ***********************HURRAY********************

CARTESIAN COORDINATES (ANGSTROEM)
---------------------------------
  C     -1.121523    1.147175    0.088931
  C      0.182252    0.663152    0.075990
  N      1.319335    1.412177    0.085417
  C      2.464430    0.774799    0.071643
  C      3.709746    1.631532    0.015233
  C      4.111320    1.966035   -1.429776
  C      2.529524   -0.685702    0.048445
  C      3.848522   -1.420419    0.110146
  C      4.288221   -1.686509    1.557704
  N      1.442722   -1.422224    0.036145
  C      0.243129   -0.782194    0.045871
  C     -1.025644   -1.385338    0.033291
  S     -2.241762   -0.147905    0.062938
  C     -1.428141   -2.778069    0.000351
  C     -0.602522   -3.839141   -0.027938
  H     -1.446441    2.184645    0.112522
  H      4.545723    1.146608    0.540918
  H      3.477332    2.562469    0.552741
  H      4.362343    1.058270   -2.000863
  H      4.986641    2.633740   -1.456850
  H      3.279908    2.469777   -1.946604
  H      4.630283   -0.863088   -0.427310
  H      3.711346   -2.378167   -0.412372
  H      4.448636   -0.747350    2.109984
  H      5.226764   -2.261735    1.588325
  H      3.515766   -2.261740    2.090492
  H     -2.510971   -2.950286   -0.001825
  H      0.481322   -3.707573   -0.028269
  H     -1.014271   -4.850989   -0.052781

 Multiplicity           Mult            ....    1
 Number of Electrons    NEL             ....  116
 Basis Dimension        Dim             ....  284

ORBITAL ENERGIES
----------------

  NO   OCC          E(Eh)            E(eV)
   0   2.0000     -88.891535     -2418.8616
   1   2.0000     -14.334876      -390.0718
   2   2.0000     -14.332480      -390.0066
   3   2.0000     -10.237581      -278.5787
   4   2.0000     -10.237109      -278.5659
   5   2.0000     -10.226244      -278.2702
   6   2.0000     -10.224968      -278.2355
   7   2.0000     -10.223164      -278.1864
   8   2.0000     -10.215851      -277.9874
   9   2.0000     -10.201584      -277.5992
  10   2.0000     -10.195104      -277.4229
  11   2.0000     -10.194286      -277.4006
  12   2.0000     -10.189026      -277.2575
  13   2.0000     -10.188610      -277.2462
  14   2.0000     -10.183057      -277.0951
  15   2.0000      -7.985983      -217.3097
  16   2.0000      -5.953521      -162.0035
  17   2.0000      -5.949724      -161.9002
  18   2.0000      -5.948367      -161.8633
  19   2.0000      -0.974088       -26.5063
  20   2.0000      -0.904628       -24.6162
  21   2.0000      -0.883142       -24.0315
  22   2.0000      -0.799060       -21.7435
  23   2.0000      -0.783075       -21.3086
  24   2.0000      -0.763364       -20.7722
  25   2.0000      -0.728027       -19.8106
  26   2.0000      -0.706745       -19.2315
  27   2.0000      -0.663469       -18.0539
  28   2.0000      -0.647472       -17.6186
  29   2.0000      -0.605773       -16.4839
  30   2.0000      -0.598835       -16.2951
  31   2.0000      -0.578731       -15.7481
  32   2.0000      -0.556636       -15.1468
  33   2.0000      -0.532624       -14.4934
  34   2.0000      -0.481740       -13.1088
  35   2.0000      -0.467582       -12.7235
  36   2.0000      -0.458901       -12.4873
  37   2.0000      -0.453760       -12.3474
  38   2.0000      -0.450664       -12.2632
  39   2.0000      -0.435985       -11.8637
  40   2.0000      -0.432678       -11.7738
  41   2.0000      -0.425899       -11.5893
  42   2.0000      -0.400941       -10.9102
  43   2.0000      -0.398181       -10.8350
  44   2.0000      -0.392639       -10.6843
  45   2.0000      -0.374614       -10.1938
  46   2.0000      -0.366705        -9.9786
  47   2.0000      -0.359586        -9.7848
  48   2.0000      -0.356003        -9.6873
  49   2.0000      -0.352793        -9.6000
  50   2.0000      -0.351595        -9.5674
  51   2.0000      -0.350849        -9.5471
  52   2.0000      -0.338447        -9.2096
  53   2.0000      -0.302597        -8.2341
  54   2.0000      -0.292624        -7.9627
  55   2.0000      -0.254943        -6.9374
  56   2.0000      -0.241886        -6.5820
  57   2.0000      -0.208344        -5.6693
  58   0.0000      -0.084851        -2.3089
  59   0.0000      -0.023816        -0.6481
  60   0.0000       0.002953         0.0804
  61   0.0000       0.032675         0.8891
  62   0.0000       0.051328         1.3967

MULLIKEN ATOMIC CHARGES
-----------------------
   0 C :   -0.144298
   1 C :    0.058356
   2 N :   -0.034329
   3 C :   -0.138409
   4 C :    0.113681
   5 C :   -0.006661
   6 C :   -0.123586
   7 C :    0.106135
   8 C :   -0.000787
   9 N :   -0.034562
  10 C :    0.060198
  11 C :   -0.175411
  12 S :    0.149596
  13 C :    0.014222
  14 C :   -0.015739
  15 H :    0.014164
  16 H :   -0.003021
  17 H :    0.008389
  18 H :    0.011579
  19 H :    0.022044
  20 H :    0.023838
  21 H :   -0.000548
  22 H :    0.007903
  23 H :    0.011911
  24 H :    0.019670
  25 H :    0.024443
  26 H :   -0.018527
  27 H :    0.033888
  28 H :    0.015863
Sum of atomic charges:    0.0000000

LOEWDIN ATOMIC CHARGES
----------------------
   0 C :   -0.209202
   1 C :   -0.050157
   2 N :   -0.058197
   3 C :    0.002157
   4 C :   -0.036076
   5 C :   -0.048501
   6 C :    0.003130
   7 C :   -0.036619
   8 C :   -0.047680
   9 N :   -0.052334
  10 C :   -0.047632
  11 C :   -0.190450
  12 S :    0.494738
  13 C :   -0.050763
  14 C :   -0.038417
  15 H :    0.028839
  16 H :    0.022629
  17 H :    0.034150
  18 H :    0.020365
  19 H :    0.026226
  20 H :    0.028180
  21 H :    0.023620
  22 H :    0.033425
  23 H :    0.020537
  24 H :    0.026024
  25 H :    0.028155
  26 H :    0.025451
  27 H :    0.024889
  28 H :    0.023513

  Mayer bond orders larger than 0.100000
B(  0-C ,  1-C ) :   1.3733 B(  0-C , 11-C ) :   0.1237 B(  0-C , 12-S ) :   1.1858
B(  0-C , 15-H ) :   0.9718 B(  1-C ,  2-N ) :   1.3483 B(  1-C , 10-C ) :   1.1936
B(  2-N ,  3-C ) :   1.7100 B(  3-C ,  4-C ) :   1.0632 B(  3-C ,  6-C ) :   1.1126
B(  4-C ,  5-C ) :   1.1102 B(  4-C , 16-H ) :   0.9127 B(  4-C , 17-H ) :   0.9107
B(  5-C , 18-H ) :   0.9679 B(  5-C , 19-H ) :   0.9666 B(  5-C , 20-H ) :   0.9630
B(  6-C ,  7-C ) :   1.0683 B(  6-C ,  9-N ) :   1.6935 B(  7-C ,  8-C ) :   1.1088
B(  7-C , 21-H ) :   0.9128 B(  7-C , 22-H ) :   0.9093 B(  8-C , 23-H ) :   0.9677
B(  8-C , 24-H ) :   0.9654 B(  8-C , 25-H ) :   0.9633 B(  9-N , 10-C ) :   1.3765
B( 10-C , 11-C ) :   1.3189 B( 11-C , 12-S ) :   1.1824 B( 11-C , 13-C ) :   1.1351
B( 13-C , 14-C ) :   1.9048 B( 13-C , 26-H ) :   0.9434 B( 14-C , 27-H ) :   0.9353
B( 14-C , 28-H ) :   0.9396

Dispersion correction           -0.060633571
FINAL SINGLE POINT ENERGY      -972.914797553615

DIPOLE MOMENT
-------------
                                X             Y             Z
Electronic contribution:    -22.36977       2.14473       0.06688
Nuclear contribution   :     22.74354      -2.07848      -0.06402
                        -----------------------------------------
Total Dipole Moment    :      0.37377       0.06625       0.00287
                        -----------------------------------------
Magnitude (a.u.)       :      0.37960
Magnitude (Debye)      :      0.96487

Rotational constants in cm-1:     0.028299     0.012931     0.009513
Rotational constants in MHz :   848.375293   387.647173   285.202868

                             ****ORCA TERMINATED NORMALLY****
TOTAL RUN TIME: 0 days 0 hours 17 minutes 13 seconds 654 msec
