                         Program Version 4.2.0 -  RELEASE  -
|  1> # ORCA input file
|  2> # SCF done        -32.785882141601          0.000672777070
|  3> ! B3LYP/G D3BJ Opt RIJCOSX def2-SVP def2/J
|  4> * xyz 0 1
|  5>    C        1.45647         1.22337        -0.08529
|  6>    S        2.65516         0.00162         0.06525
|  7>    C        1.44177        -1.20962         0.18371
|  8>    C        0.18464        -0.69647         0.11074
|  9>    C        0.19386         0.71958        -0.04873
| 10>    C       -1.06058         1.52546        -0.19668
| 11>    C       -2.28292         0.73975         0.26994
| 12>    S       -2.41500         0.74371         2.09652
| 13>    C       -2.28788        -0.69668        -0.28409
| 14>    O       -2.34901        -0.68107        -1.69013
| 15>    C       -1.07978        -1.49194         0.22464
| 16>    H        1.75392         2.24689        -0.19738
| 17>    H        1.72764        -2.23533         0.30474
| 18>    H       -1.19911         1.79883        -1.24913
| 19>    H       -0.98176         2.45817         0.36700
| 20>    H       -3.19497         1.24315        -0.05989
| 21>    H       -1.13856         0.44680         2.33107
| 22>    H       -3.21072        -1.19308         0.03550
| 23>    H       -1.48941        -0.40360        -2.02978
| 24>    H       -1.00073        -2.41781        -0.34930
| 25>    H       -1.24826        -1.76935         1.26875
| 26> *
| 27>
| 28>                          ****END OF INPUT****
 Total Charge           Charge          ....    0
 Multiplicity           Mult            ....    1
 Number of Electrons    NEL             ....   98
Dispersion correction           -0.049956196
FINAL SINGLE POINT ENERGY     -1182.014384635097
Dispersion correction            ... done
Dispersion correction           -0.049466825
FINAL SINGLE POINT ENERGY     -1182.016906023537
Dispersion correction            ... done
Dispersion correction           -0.049443782
FINAL SINGLE POINT ENERGY     -1182.017092945209
Dispersion correction            ... done
FINAL SINGLE POINT ENERGY     -1182.017139181871
FINAL SINGLE POINT ENERGY     -1182.017190869102
FINAL SINGLE POINT ENERGY     -1182.017210814122
FINAL SINGLE POINT ENERGY     -1182.017250497825
FINAL SINGLE POINT ENERGY     -1182.017278127421
Dispersion correction            ... done
Dispersion correction           -0.049474955
FINAL SINGLE POINT ENERGY     -1182.017290462422
Dispersion correction            ... done
Dispersion correction           -0.049474459
FINAL SINGLE POINT ENERGY     -1182.017290612098
Dispersion correction            ... done
                    ***********************HURRAY********************

CARTESIAN COORDINATES (ANGSTROEM)
---------------------------------
  C      1.479580    1.242720   -0.034640
  S      2.678621    0.000678    0.042865
  C      1.468088   -1.230883    0.100610
  C      0.196089   -0.708301    0.073731
  C      0.203446    0.731264   -0.025362
  C     -1.067574    1.527035   -0.193819
  C     -2.295648    0.748099    0.292546
  S     -2.473846    0.782816    2.125820
  C     -2.291913   -0.687145   -0.278397
  O     -2.332174   -0.629099   -1.695969
  C     -1.087156   -1.489842    0.220842
  H      1.777166    2.287442   -0.112838
  H      1.756250   -2.277808    0.185616
  H     -1.215443    1.746518   -1.265894
  H     -1.001679    2.496151    0.320098
  H     -3.206093    1.247343   -0.069324
  H     -1.181450    0.490692    2.403362
  H     -3.217995   -1.190248    0.039915
  H     -1.425480   -0.550717   -2.022202
  H     -1.040157   -2.445634   -0.322731
  H     -1.247862   -1.738703    1.283228

 Multiplicity           Mult            ....    1
 Number of Electrons    NEL             ....   98
 Basis Dimension        Dim             ....  212

ORBITAL ENERGIES
----------------

  NO   OCC          E(Eh)            E(eV)
   0   2.0000     -88.877972     -2418.4926
   1   2.0000     -88.836925     -2417.3756
   2   2.0000     -19.134996      -520.6897
   3   2.0000     -10.242717      -278.7185
   4   2.0000     -10.221800      -278.1493
   5   2.0000     -10.213812      -277.9319
   6   2.0000     -10.213360      -277.9197
   7   2.0000     -10.203144      -277.6417
   8   2.0000     -10.202539      -277.6252
   9   2.0000     -10.202280      -277.6182
  10   2.0000     -10.198405      -277.5127
  11   2.0000      -7.972978      -216.9558
  12   2.0000      -7.931312      -215.8220
  13   2.0000      -5.941009      -161.6631
  14   2.0000      -5.936881      -161.5507
  15   2.0000      -5.934614      -161.4891
  16   2.0000      -5.900483      -160.5603
  17   2.0000      -5.896988      -160.4652
  18   2.0000      -5.890078      -160.2772
  19   2.0000      -1.016670       -27.6650
  20   2.0000      -0.887490       -24.1498
  21   2.0000      -0.825867       -22.4730
  22   2.0000      -0.770127       -20.9562
  23   2.0000      -0.750388       -20.4191
  24   2.0000      -0.704670       -19.1751
  25   2.0000      -0.688448       -18.7336
  26   2.0000      -0.639327       -17.3970
  27   2.0000      -0.583829       -15.8868
  28   2.0000      -0.576112       -15.6768
  29   2.0000      -0.524350       -14.2683
  30   2.0000      -0.511401       -13.9159
  31   2.0000      -0.477850       -13.0030
  32   2.0000      -0.464201       -12.6316
  33   2.0000      -0.455630       -12.3983
  34   2.0000      -0.449178       -12.2228
  35   2.0000      -0.417934       -11.3726
  36   2.0000      -0.412477       -11.2241
  37   2.0000      -0.408469       -11.1150
  38   2.0000      -0.388627       -10.5751
  39   2.0000      -0.377381       -10.2690
  40   2.0000      -0.360815        -9.8183
  41   2.0000      -0.355900        -9.6845
  42   2.0000      -0.342249        -9.3131
  43   2.0000      -0.328605        -8.9418
  44   2.0000      -0.324380        -8.8268
  45   2.0000      -0.284062        -7.7297
  46   2.0000      -0.250114        -6.8059
  47   2.0000      -0.243922        -6.6375
  48   2.0000      -0.233062        -6.3419
  49   0.0000      -0.027801        -0.7565
  50   0.0000       0.024706         0.6723
  51   0.0000       0.043370         1.1801
  52   0.0000       0.045572         1.2401
  53   0.0000       0.060364         1.6426

MULLIKEN ATOMIC CHARGES
-----------------------
   0 C :   -0.134055
   1 S :    0.103000
   2 C :   -0.134142
   3 C :   -0.088914
   4 C :   -0.069449
   5 C :    0.186764
   6 C :   -0.164842
   7 S :   -0.063329
   8 C :    0.176070
   9 O :   -0.302557
  10 C :    0.157722
  11 H :    0.014628
  12 H :    0.014433
  13 H :    0.019354
  14 H :    0.005671
  15 H :    0.035801
  16 H :    0.061378
  17 H :   -0.006701
  18 H :    0.169013
  19 H :    0.004423
  20 H :    0.015731
Sum of atomic charges:    0.0000000

LOEWDIN ATOMIC CHARGES
----------------------
   0 C :   -0.200676
   1 S :    0.433032
   2 C :   -0.201041
   3 C :   -0.083878
   4 C :   -0.079535
   5 C :   -0.033953
   6 C :   -0.137212
   7 S :    0.148478
   8 C :    0.056591
   9 O :   -0.128036
  10 C :   -0.039147
  11 H :    0.023450
  12 H :    0.023281
  13 H :    0.033427
  14 H :    0.030114
  15 H :    0.028787
  16 H :   -0.028941
  17 H :    0.018969
  18 H :    0.072511
  19 H :    0.031553
  20 H :    0.032228

  Mayer bond orders larger than 0.100000
B(  0-C ,  1-S ) :   1.1669 B(  0-C ,  4-C ) :   1.5507 B(  0-C , 11-H ) :   0.9652
B(  1-S ,  2-C ) :   1.1691 B(  2-C ,  3-C ) :   1.5452 B(  2-C , 12-H ) :   0.9645
B(  3-C ,  4-C ) :   1.2848 B(  3-C , 10-C ) :   1.0144 B(  4-C ,  5-C ) :   1.0353
B(  5-C ,  6-C ) :   1.0085 B(  5-C , 13-H ) :   0.9062 B(  5-C , 14-H ) :   0.9138
B(  6-C ,  7-S ) :   1.0337 B(  6-C ,  8-C ) :   0.9458 B(  6-C , 15-H ) :   0.9158
B(  7-S , 16-H ) :   0.9459 B(  8-C ,  9-O ) :   1.0403 B(  8-C , 10-C ) :   1.0561
B(  8-C , 17-H ) :   0.9176 B(  9-O , 18-H ) :   0.9748 B( 10-C , 19-H ) :   0.9127
B( 10-C , 20-H ) :   0.9048

Dispersion correction           -0.049478430
FINAL SINGLE POINT ENERGY     -1182.017289678210

DIPOLE MOMENT
-------------
                                X             Y             Z
Electronic contribution:      5.96214       0.76665       1.78260
Nuclear contribution   :     -5.33368      -0.80896      -1.91687
                        -----------------------------------------
Total Dipole Moment    :      0.62846      -0.04232      -0.13427
                        -----------------------------------------
Magnitude (a.u.)       :      0.64403
Magnitude (Debye)      :      1.63700

Rotational constants in cm-1:     0.047517     0.019625     0.017419
Rotational constants in MHz :  1424.514410   588.341915   522.217086

                             ****ORCA TERMINATED NORMALLY****
TOTAL RUN TIME: 0 days 0 hours 14 minutes 3 seconds 509 msec
