                         Program Version 4.2.0 -  RELEASE  -
|  1> # ORCA input file
|  2> # SCF done        -52.341474303707          0.000949242963
|  3> ! B3LYP/G D3BJ Opt RIJCOSX def2-SVP def2/J
|  4> * xyz 0 1
|  5>    C        2.32321        -1.23624        -0.30531
|  6>    C        1.65293        -0.03826        -0.10999
|  7>    O        2.29870         1.15577         0.11506
|  8>    C        3.67130         1.16848         0.44450
|  9>    C        3.95369         0.62667         1.84307
| 10>    C        0.24684        -0.01264        -0.16549
| 11>    O       -0.56062         1.08074        -0.03716
| 12>    C       -0.10797         2.40421        -0.26431
| 13>    C        0.22245         3.12754         1.03671
| 14>    C       -0.43164        -1.23199        -0.35633
| 15>    O       -1.80136        -1.29629        -0.43516
| 16>    C       -2.53445        -0.88473         0.71111
| 17>    C       -4.01329        -1.03378         0.39064
| 18>    C        0.26352        -2.41403        -0.54112
| 19>    C        1.65315        -2.43466        -0.54189
| 20>    C        2.43425        -3.64455        -0.75664
| 21>    C        1.96667        -4.83777        -1.10583
| 22>    H        3.40154        -1.25452        -0.28841
| 23>    H        3.94096         2.22781         0.39553
| 24>    H        4.26199         0.63360        -0.30951
| 25>    H        3.64939        -0.41403         1.92434
| 26>    H        3.40287         1.20313         2.58267
| 27>    H        5.01626         0.70321         2.05727
| 28>    H       -0.95453         2.90076        -0.75329
| 29>    H        0.74522         2.41617        -0.94455
| 30>    H        0.47261         4.16339         0.82407
| 31>    H        1.06741         2.65255         1.52590
| 32>    H       -0.63480         3.09929         1.70530
| 33>    H       -2.30155         0.15451         0.96580
| 34>    H       -2.26100        -1.52503         1.56456
| 35>    H       -4.27560        -0.38914        -0.44423
| 36>    H       -4.60874        -0.75891         1.25707
| 37>    H       -4.23397        -2.06218         0.11547
| 38>    H       -0.31146        -3.31196        -0.69425
| 39>    H        3.50265        -3.52189        -0.62071
| 40>    H        0.91966        -5.02486        -1.26941
| 41>    H        2.62517        -5.67777        -1.24616
| 42> *
| 43>
| 44>                          ****END OF INPUT****
 Total Charge           Charge          ....    0
 Multiplicity           Mult            ....    1
 Number of Electrons    NEL             ....  128
Dispersion correction           -0.066148806
FINAL SINGLE POINT ENERGY      -770.656694312499
Dispersion correction            ... done
Dispersion correction           -0.065375918
FINAL SINGLE POINT ENERGY      -770.660004828374
Dispersion correction            ... done
Dispersion correction           -0.065639439
FINAL SINGLE POINT ENERGY      -770.660137256130
Dispersion correction            ... done
FINAL SINGLE POINT ENERGY      -770.660023266333
FINAL SINGLE POINT ENERGY      -770.659991349152
FINAL SINGLE POINT ENERGY      -770.660076942888
FINAL SINGLE POINT ENERGY      -770.659929378452
FINAL SINGLE POINT ENERGY      -770.659875185195
FINAL SINGLE POINT ENERGY      -770.660107253544
FINAL SINGLE POINT ENERGY      -770.660574126375
FINAL SINGLE POINT ENERGY      -770.660248791530
FINAL SINGLE POINT ENERGY      -770.660627176101
FINAL SINGLE POINT ENERGY      -770.661125890729
FINAL SINGLE POINT ENERGY      -770.661139914829
FINAL SINGLE POINT ENERGY      -770.661041071375
FINAL SINGLE POINT ENERGY      -770.661085402790
FINAL SINGLE POINT ENERGY      -770.661137792060
Dispersion correction            ... done
Dispersion correction           -0.068074745
FINAL SINGLE POINT ENERGY      -770.661136179494
Dispersion correction            ... done
Dispersion correction           -0.068063070
FINAL SINGLE POINT ENERGY      -770.661144866954
Dispersion correction            ... done
                    ***********************HURRAY********************

CARTESIAN COORDINATES (ANGSTROEM)
---------------------------------
  C      2.382223   -1.241934   -0.434499
  C      1.722309   -0.009584   -0.487450
  O      2.360862    1.193081   -0.569517
  C      3.720584    1.319619   -0.178125
  C      3.907100    1.244058    1.328541
  C      0.310520    0.032908   -0.508085
  O     -0.420127    1.178204   -0.570347
  C     -0.107052    2.289118    0.277402
  C      0.054391    1.912391    1.742790
  C     -0.400946   -1.187429   -0.535399
  O     -1.759791   -1.180234   -0.659236
  C     -2.519885   -0.752596    0.468444
  C     -3.941894   -0.497422    0.010913
  C      0.271128   -2.407328   -0.500480
  C      1.672421   -2.455055   -0.440047
  C      2.428320   -3.715445   -0.388061
  C      1.938567   -4.964274   -0.383683
  H      3.472223   -1.274051   -0.408402
  H      4.024864    2.307184   -0.554702
  H      4.347691    0.574688   -0.697578
  H      3.621084    0.256521    1.721009
  H      3.289647    2.002608    1.831444
  H      4.960345    1.428289    1.593317
  H     -0.960489    2.970936    0.144354
  H      0.796042    2.794774   -0.092177
  H      0.268885    2.814855    2.336050
  H      0.886460    1.208186    1.890271
  H     -0.855479    1.444080    2.148348
  H     -2.084346    0.163888    0.893521
  H     -2.480244   -1.535949    1.250585
  H     -3.953586    0.292830   -0.755051
  H     -4.569368   -0.176706    0.857219
  H     -4.381717   -1.406020   -0.428996
  H     -0.330499   -3.315875   -0.522451
  H      3.517428   -3.591185   -0.347214
  H      0.866669   -5.177548   -0.422224
  H      2.607121   -5.826983   -0.341166

 Multiplicity           Mult            ....    1
 Number of Electrons    NEL             ....  128
 Basis Dimension        Dim             ....  338

ORBITAL ENERGIES
----------------

  NO   OCC          E(Eh)            E(eV)
   0   2.0000     -19.164214      -521.4848
   1   2.0000     -19.150325      -521.1068
   2   2.0000     -19.137786      -520.7656
   3   2.0000     -10.251488      -278.9572
   4   2.0000     -10.247283      -278.8427
   5   2.0000     -10.237763      -278.5837
   6   2.0000     -10.236697      -278.5547
   7   2.0000     -10.235280      -278.5161
   8   2.0000     -10.231492      -278.4131
   9   2.0000     -10.194003      -277.3929
  10   2.0000     -10.193140      -277.3694
  11   2.0000     -10.191473      -277.3241
  12   2.0000     -10.187074      -277.2044
  13   2.0000     -10.186114      -277.1782
  14   2.0000     -10.181687      -277.0578
  15   2.0000     -10.177697      -276.9492
  16   2.0000     -10.177272      -276.9376
  17   2.0000      -1.064366       -28.9629
  18   2.0000      -1.045570       -28.4514
  19   2.0000      -1.026375       -27.9291
  20   2.0000      -0.846484       -23.0340
  21   2.0000      -0.786672       -21.4064
  22   2.0000      -0.772274       -21.0146
  23   2.0000      -0.754226       -20.5235
  24   2.0000      -0.749394       -20.3920
  25   2.0000      -0.714681       -19.4474
  26   2.0000      -0.707910       -19.2632
  27   2.0000      -0.656773       -17.8717
  28   2.0000      -0.638762       -17.3816
  29   2.0000      -0.618092       -16.8191
  30   2.0000      -0.597443       -16.2573
  31   2.0000      -0.578969       -15.7545
  32   2.0000      -0.553668       -15.0661
  33   2.0000      -0.523125       -14.2350
  34   2.0000      -0.517536       -14.0829
  35   2.0000      -0.507233       -13.8025
  36   2.0000      -0.495171       -13.4743
  37   2.0000      -0.477582       -12.9957
  38   2.0000      -0.464194       -12.6314
  39   2.0000      -0.462249       -12.5784
  40   2.0000      -0.453284       -12.3345
  41   2.0000      -0.450679       -12.2636
  42   2.0000      -0.448141       -12.1945
  43   2.0000      -0.426376       -11.6023
  44   2.0000      -0.420461       -11.4413
  45   2.0000      -0.412245       -11.2178
  46   2.0000      -0.401339       -10.9210
  47   2.0000      -0.389053       -10.5867
  48   2.0000      -0.387197       -10.5362
  49   2.0000      -0.381950       -10.3934
  50   2.0000      -0.380101       -10.3431
  51   2.0000      -0.376590       -10.2475
  52   2.0000      -0.367248        -9.9933
  53   2.0000      -0.357560        -9.7297
  54   2.0000      -0.352405        -9.5894
  55   2.0000      -0.341642        -9.2966
  56   2.0000      -0.341127        -9.2825
  57   2.0000      -0.331768        -9.0279
  58   2.0000      -0.327217        -8.9040
  59   2.0000      -0.294331        -8.0091
  60   2.0000      -0.268128        -7.2961
  61   2.0000      -0.264303        -7.1921
  62   2.0000      -0.227203        -6.1825
  63   2.0000      -0.203820        -5.5462
  64   0.0000      -0.032112        -0.8738
  65   0.0000       0.004628         0.1259
  66   0.0000       0.045958         1.2506
  67   0.0000       0.055031         1.4975
  68   0.0000       0.061730         1.6798

MULLIKEN ATOMIC CHARGES
-----------------------
   0 C :   -0.151023
   1 C :    0.188031
   2 O :   -0.334607
   3 C :    0.186027
   4 C :   -0.016992
   5 C :    0.098808
   6 O :   -0.326262
   7 C :    0.204199
   8 C :   -0.028721
   9 C :    0.150236
  10 O :   -0.339382
  11 C :    0.219395
  12 C :   -0.006943
  13 C :   -0.071446
  14 C :    0.134142
  15 C :   -0.015691
  16 C :   -0.023183
  17 H :   -0.046628
  18 H :    0.011977
  19 H :    0.014146
  20 H :    0.026155
  21 H :    0.023050
  22 H :    0.016499
  23 H :    0.011759
  24 H :    0.017629
  25 H :    0.014192
  26 H :    0.029417
  27 H :    0.017709
  28 H :   -0.012761
  29 H :   -0.008907
  30 H :    0.028112
  31 H :    0.008064
  32 H :    0.021186
  33 H :   -0.048568
  34 H :   -0.020053
  35 H :    0.012658
  36 H :    0.017774
Sum of atomic charges:    0.0000000

LOEWDIN ATOMIC CHARGES
----------------------
   0 C :   -0.075352
   1 C :    0.026399
   2 O :   -0.101430
   3 C :    0.085860
   4 C :   -0.069839
   5 C :    0.004017
   6 O :   -0.108100
   7 C :    0.085311
   8 C :   -0.072507
   9 C :    0.033497
  10 O :   -0.124844
  11 C :    0.090501
  12 C :   -0.063043
  13 C :   -0.045965
  14 C :   -0.029948
  15 C :   -0.022568
  16 C :   -0.054628
  17 H :    0.022495
  18 H :    0.023405
  19 H :    0.011084
  20 H :    0.026863
  21 H :    0.026952
  22 H :    0.031611
  23 H :    0.019932
  24 H :    0.009742
  25 H :    0.031000
  26 H :    0.026746
  27 H :    0.023157
  28 H :    0.003988
  29 H :    0.004623
  30 H :    0.029939
  31 H :    0.026867
  32 H :    0.026609
  33 H :    0.027811
  34 H :    0.024949
  35 H :    0.020131
  36 H :    0.024734

  Mayer bond orders larger than 0.100000
B(  0-C ,  1-C ) :   1.2825 B(  0-C , 14-C ) :   1.2934 B(  0-C , 17-H ) :   0.9995
B(  1-C ,  2-O ) :   1.1020 B(  1-C ,  5-C ) :   1.3066 B(  2-O ,  3-C ) :   0.9486
B(  3-C ,  4-C ) :   1.1161 B(  3-C , 18-H ) :   0.9522 B(  3-C , 19-H ) :   0.9438
B(  4-C , 20-H ) :   0.9604 B(  4-C , 21-H ) :   0.9610 B(  4-C , 22-H ) :   0.9572
B(  5-C ,  6-O ) :   1.1661 B(  5-C ,  9-C ) :   1.3324 B(  6-O ,  7-C ) :   0.9307
B(  7-C ,  8-C ) :   1.1134 B(  7-C , 23-H ) :   0.9544 B(  7-C , 24-H ) :   0.9456
B(  8-C , 25-H ) :   0.9530 B(  8-C , 26-H ) :   0.9561 B(  8-C , 27-H ) :   0.9600
B(  9-C , 10-O ) :   1.0898 B(  9-C , 13-C ) :   1.4019 B( 10-O , 11-C ) :   0.9391
B( 11-C , 12-C ) :   1.1137 B( 11-C , 28-H ) :   0.9353 B( 11-C , 29-H ) :   0.9424
B( 12-C , 30-H ) :   0.9676 B( 12-C , 31-H ) :   0.9572 B( 12-C , 32-H ) :   0.9674
B( 13-C , 14-C ) :   1.2683 B( 13-C , 33-H ) :   1.0058 B( 14-C , 15-C ) :   1.0776
B( 15-C , 16-C ) :   1.9264 B( 15-C , 34-H ) :   0.9620 B( 16-C , 35-H ) :   0.9448
B( 16-C , 36-H ) :   0.9444

Dispersion correction           -0.068062898
FINAL SINGLE POINT ENERGY      -770.661138247770

DIPOLE MOMENT
-------------
                                X             Y             Z
Electronic contribution:      0.69338      -4.36231      -9.93013
Nuclear contribution   :      0.02833       5.00357      10.95280
                        -----------------------------------------
Total Dipole Moment    :      0.72171       0.64126       1.02268
                        -----------------------------------------
Magnitude (a.u.)       :      1.40639
Magnitude (Debye)      :      3.57477

Rotational constants in cm-1:     0.015772     0.014056     0.008155
Rotational constants in MHz :   472.838889   421.389165   244.479667

                             ****ORCA TERMINATED NORMALLY****
TOTAL RUN TIME: 0 days 1 hours 13 minutes 54 seconds 645 msec
