                         Program Version 4.2.0 -  RELEASE  -
|  1> # ORCA input file
|  2> # SCF done        -24.284461925109          0.000560066363
|  3> ! B3LYP/G D3BJ Opt RIJCOSX def2-SVP def2/J
|  4> * xyz 0 1
|  5>    C        1.25378        -1.27956        -0.00228
|  6>    S        2.49078        -0.06096        -0.00354
|  7>    C        1.32031         1.21602        -0.00286
|  8>    C        0.06354         0.71808        -0.00047
|  9>    C        0.02341        -0.71623        -0.00042
| 10>    C       -1.36994        -1.12282         0.00183
| 11>    C       -2.15200        -0.02990         0.00232
| 12>    C       -1.33409         1.21419         0.00225
| 13>    O       -1.72788         2.35537         0.00245
| 14>    H        1.53782        -2.31321        -0.00262
| 15>    H        1.65037         2.23598        -0.00339
| 16>    H       -1.69530        -2.14853         0.00246
| 17>    H       -3.22675        -0.00431         0.00322
| 18> *
| 19>
| 20>                          ****END OF INPUT****
 Total Charge           Charge          ....    0
 Multiplicity           Mult            ....    1
 Number of Electrons    NEL             ....   70
Dispersion correction           -0.027735696
FINAL SINGLE POINT ENERGY      -742.191599302223
Dispersion correction            ... done
Dispersion correction           -0.027722300
FINAL SINGLE POINT ENERGY      -742.193739791513
Dispersion correction            ... done
Dispersion correction           -0.027723895
FINAL SINGLE POINT ENERGY      -742.193827216618
Dispersion correction            ... done
Dispersion correction           -0.027724276
FINAL SINGLE POINT ENERGY      -742.193836389808
Dispersion correction            ... done
Dispersion correction           -0.027723735
FINAL SINGLE POINT ENERGY      -742.193854907739
Dispersion correction            ... done
                    ***********************HURRAY********************

CARTESIAN COORDINATES (ANGSTROEM)
---------------------------------
  C      1.272838   -1.289887   -0.002210
  S      2.517548   -0.058803   -0.004030
  C      1.340049    1.227713   -0.002515
  C      0.075474    0.719175   -0.000482
  C      0.032371   -0.716863   -0.000335
  C     -1.381975   -1.129492    0.001672
  C     -2.175206   -0.031520    0.002566
  C     -1.339351    1.222287    0.001617
  O     -1.735727    2.366125    0.002081
  H      1.555246   -2.341900   -0.002510
  H      1.661075    2.268522   -0.003036
  H     -1.723272   -2.166023    0.002190
  H     -3.265021   -0.005215    0.003940

 Multiplicity           Mult            ....    1
 Number of Electrons    NEL             ....   70
 Basis Dimension        Dim             ....  150

ORBITAL ENERGIES
----------------

  NO   OCC          E(Eh)            E(eV)
   0   2.0000     -88.889588     -2418.8087
   1   2.0000     -19.131263      -520.5881
   2   2.0000     -10.281616      -279.7770
   3   2.0000     -10.237326      -278.5718
   4   2.0000     -10.233448      -278.4663
   5   2.0000     -10.227693      -278.3097
   6   2.0000     -10.212568      -277.8981
   7   2.0000     -10.204822      -277.6873
   8   2.0000     -10.200833      -277.5788
   9   2.0000      -7.984400      -217.2666
  10   2.0000      -5.952758      -161.9828
  11   2.0000      -5.948349      -161.8628
  12   2.0000      -5.945599      -161.7880
  13   2.0000      -1.034629       -28.1537
  14   2.0000      -0.904165       -24.6036
  15   2.0000      -0.836089       -22.7511
  16   2.0000      -0.743653       -20.2358
  17   2.0000      -0.720936       -19.6177
  18   2.0000      -0.651841       -17.7375
  19   2.0000      -0.597308       -16.2536
  20   2.0000      -0.563913       -15.3449
  21   2.0000      -0.540543       -14.7089
  22   2.0000      -0.489874       -13.3301
  23   2.0000      -0.453805       -12.3487
  24   2.0000      -0.438343       -11.9279
  25   2.0000      -0.434554       -11.8248
  26   2.0000      -0.421472       -11.4688
  27   2.0000      -0.416714       -11.3394
  28   2.0000      -0.393912       -10.7189
  29   2.0000      -0.383282       -10.4296
  30   2.0000      -0.360010        -9.7964
  31   2.0000      -0.323297        -8.7974
  32   2.0000      -0.264187        -7.1889
  33   2.0000      -0.258546        -7.0354
  34   2.0000      -0.242687        -6.6039
  35   0.0000      -0.089106        -2.4247
  36   0.0000      -0.042032        -1.1437
  37   0.0000       0.023793         0.6474
  38   0.0000       0.069561         1.8928
  39   0.0000       0.073929         2.0117

MULLIKEN ATOMIC CHARGES
-----------------------
   0 C :   -0.138880
   1 S :    0.097883
   2 C :   -0.118375
   3 C :   -0.003570
   4 C :    0.077328
   5 C :    0.078641
   6 C :   -0.069608
   7 C :    0.166098
   8 O :   -0.152177
   9 H :    0.026098
  10 H :    0.037322
  11 H :   -0.003164
  12 H :    0.002404
Sum of atomic charges:    0.0000000

LOEWDIN ATOMIC CHARGES
----------------------
   0 C :   -0.173926
   1 S :    0.425237
   2 C :   -0.137340
   3 C :   -0.099497
   4 C :   -0.066572
   5 C :    0.028758
   6 C :   -0.049918
   7 C :    0.074908
   8 O :   -0.129623
   9 H :    0.028283
  10 H :    0.035533
  11 H :    0.031836
  12 H :    0.032321

  Mayer bond orders larger than 0.100000
B(  0-C ,  1-S ) :   1.1285 B(  0-C ,  4-C ) :   1.5362 B(  0-C ,  9-H ) :   0.9672
B(  1-S ,  2-C ) :   1.1558 B(  2-C ,  3-C ) :   1.5791 B(  2-C , 10-H ) :   0.9660
B(  3-C ,  4-C ) :   1.2253 B(  3-C ,  7-C ) :   0.9019 B(  4-C ,  5-C ) :   1.0204
B(  5-C ,  6-C ) :   1.6656 B(  5-C , 11-H ) :   1.0034 B(  6-C ,  7-C ) :   0.9998
B(  6-C , 12-H ) :   0.9995 B(  7-C ,  8-O ) :   2.1869

Dispersion correction           -0.027723359
FINAL SINGLE POINT ENERGY      -742.193856534993

DIPOLE MOMENT
-------------
                                X             Y             Z
Electronic contribution:      2.93171       1.85047      -0.00383
Nuclear contribution   :     -2.44799      -2.99508       0.00321
                        -----------------------------------------
Total Dipole Moment    :      0.48372      -1.14461      -0.00062
                        -----------------------------------------
Magnitude (a.u.)       :      1.24262
Magnitude (Debye)      :      3.15849

Rotational constants in cm-1:     0.105730     0.039271     0.028635
Rotational constants in MHz :  3169.701373  1177.301287   858.452090

                             ****ORCA TERMINATED NORMALLY****
TOTAL RUN TIME: 0 days 0 hours 3 minutes 53 seconds 671 msec
