                         Program Version 4.2.0 -  RELEASE  -
|  1> # ORCA input file
|  2> # SCF done        -37.125924365083          0.000340237986
|  3> ! B3LYP/G D3BJ Opt RIJCOSX def2-SVP def2/J
|  4> * xyz 0 1
|  5>    C       -0.78882         1.26598        -0.14346
|  6>    S       -2.01752         0.08194        -0.22897
|  7>    C       -0.90508        -1.21458        -0.20372
|  8>    C        0.38613        -0.75561        -0.13133
|  9>    C        0.45364         0.68535        -0.09557
| 10>    N        1.64772         1.32287        -0.01962
| 11>    C        2.71431         0.57699         0.01582
| 12>    C        4.03966         1.29314         0.10493
| 13>    N        3.95219         2.73721         0.13102
| 14>    C        2.64711        -0.86431        -0.02555
| 15>    C        3.90024        -1.70441         0.00923
| 16>    N        3.67769        -3.13391        -0.01845
| 17>    N        1.51563        -1.50464        -0.09545
| 18>    H       -1.03536         2.30779        -0.13252
| 19>    H       -1.24791        -2.22808        -0.24274
| 20>    H        4.66119         1.00116        -0.74911
| 21>    H        4.55907         0.96454         1.01266
| 22>    H        3.48368         3.06241        -0.70893
| 23>    H        3.36975         3.02487         0.91133
| 24>    H        4.46722        -1.46171         0.91509
| 25>    H        4.52877        -1.43815        -0.84845
| 26>    H        3.09808        -3.40038         0.77141
| 27>    H        3.15223        -3.37721        -0.85248
| 28> *
| 29>
| 30>                          ****END OF INPUT****
 Total Charge           Charge          ....    0
 Multiplicity           Mult            ....    1
 Number of Electrons    NEL             ....  102
Dispersion correction           -0.047861280
FINAL SINGLE POINT ENERGY      -927.589805157087
Dispersion correction            ... done
Dispersion correction           -0.047663381
FINAL SINGLE POINT ENERGY      -927.592795734559
Dispersion correction            ... done
Dispersion correction           -0.047678174
FINAL SINGLE POINT ENERGY      -927.593115368935
Dispersion correction            ... done
FINAL SINGLE POINT ENERGY      -927.593139838750
Dispersion correction            ... done
Dispersion correction           -0.047728962
FINAL SINGLE POINT ENERGY      -927.593171455710
Dispersion correction            ... done
Dispersion correction           -0.047720866
FINAL SINGLE POINT ENERGY      -927.593185811849
Dispersion correction            ... done
                    ***********************HURRAY********************

CARTESIAN COORDINATES (ANGSTROEM)
---------------------------------
  C     -0.826430    1.279000   -0.145387
  S     -2.052755    0.081376   -0.243721
  C     -0.941525   -1.227682   -0.212018
  C      0.361875   -0.758673   -0.131055
  C      0.428214    0.689308   -0.088965
  N      1.629743    1.333961   -0.005976
  C      2.702422    0.589145    0.023545
  C      4.048218    1.293863    0.112972
  N      4.002838    2.739948    0.127933
  C      2.635593   -0.872723   -0.024333
  C      3.909735   -1.704878    0.001302
  N      3.720723   -3.139362   -0.018236
  N      1.500092   -1.513331   -0.096683
  H     -1.068903    2.339201   -0.128511
  H     -1.277486   -2.261258   -0.255662
  H      4.682620    0.955214   -0.726990
  H      4.574587    0.932200    1.015994
  H      3.504861    3.058849   -0.704707
  H      3.398968    3.038431    0.895316
  H      4.502755   -1.422878    0.890531
  H      4.541710   -1.405188   -0.855501
  H      3.133009   -3.402353    0.774235
  H      3.148755   -3.380907   -0.828944

 Multiplicity           Mult            ....    1
 Number of Electrons    NEL             ....  102
 Basis Dimension        Dim             ....  236

ORBITAL ENERGIES
----------------

  NO   OCC          E(Eh)            E(eV)
   0   2.0000     -88.898271     -2419.0449
   1   2.0000     -14.339902      -390.2086
   2   2.0000     -14.339661      -390.2020
   3   2.0000     -14.303577      -389.2201
   4   2.0000     -14.303194      -389.2097
   5   2.0000     -10.239871      -278.6411
   6   2.0000     -10.239754      -278.6379
   7   2.0000     -10.231474      -278.4126
   8   2.0000     -10.231205      -278.4052
   9   2.0000     -10.221909      -278.1523
  10   2.0000     -10.221805      -278.1495
  11   2.0000     -10.221673      -278.1459
  12   2.0000     -10.221407      -278.1386
  13   2.0000      -7.992687      -217.4921
  14   2.0000      -5.960336      -162.1890
  15   2.0000      -5.956294      -162.0790
  16   2.0000      -5.955110      -162.0468
  17   2.0000      -0.980870       -26.6908
  18   2.0000      -0.916447       -24.9378
  19   2.0000      -0.891843       -24.2683
  20   2.0000      -0.869755       -23.6672
  21   2.0000      -0.867992       -23.6193
  22   2.0000      -0.768122       -20.9017
  23   2.0000      -0.733616       -19.9627
  24   2.0000      -0.701022       -19.0758
  25   2.0000      -0.673268       -18.3206
  26   2.0000      -0.612022       -16.6540
  27   2.0000      -0.600990       -16.3538
  28   2.0000      -0.581982       -15.8365
  29   2.0000      -0.549186       -14.9441
  30   2.0000      -0.502997       -13.6872
  31   2.0000      -0.491074       -13.3628
  32   2.0000      -0.488956       -13.3052
  33   2.0000      -0.484105       -13.1732
  34   2.0000      -0.441949       -12.0261
  35   2.0000      -0.437595       -11.9076
  36   2.0000      -0.435695       -11.8559
  37   2.0000      -0.423272       -11.5178
  38   2.0000      -0.421584       -11.4719
  39   2.0000      -0.397511       -10.8168
  40   2.0000      -0.394926       -10.7465
  41   2.0000      -0.376379       -10.2418
  42   2.0000      -0.366215        -9.9652
  43   2.0000      -0.354725        -9.6526
  44   2.0000      -0.342166        -9.3108
  45   2.0000      -0.316296        -8.6069
  46   2.0000      -0.259632        -7.0649
  47   2.0000      -0.257626        -7.0104
  48   2.0000      -0.241458        -6.5704
  49   2.0000      -0.240554        -6.5458
  50   2.0000      -0.234145        -6.3714
  51   0.0000      -0.082771        -2.2523
  52   0.0000       0.000381         0.0104
  53   0.0000       0.000666         0.0181
  54   0.0000       0.042248         1.1496
  55   0.0000       0.049648         1.3510

MULLIKEN ATOMIC CHARGES
-----------------------
   0 C :   -0.149370
   1 S :    0.144787
   2 C :   -0.146931
   3 C :    0.065490
   4 C :    0.069313
   5 N :   -0.040105
   6 C :   -0.157096
   7 C :    0.145868
   8 N :   -0.171110
   9 C :   -0.163833
  10 C :    0.150965
  11 N :   -0.170846
  12 N :   -0.039426
  13 H :    0.018217
  14 H :    0.016606
  15 H :    0.020469
  16 H :    0.018649
  17 H :    0.087307
  18 H :    0.087878
  19 H :    0.018635
  20 H :    0.020586
  21 H :    0.086491
  22 H :    0.087456
Sum of atomic charges:   -0.0000000

LOEWDIN ATOMIC CHARGES
----------------------
   0 C :   -0.207956
   1 S :    0.493501
   2 C :   -0.207232
   3 C :   -0.054239
   4 C :   -0.054026
   5 N :   -0.068136
   6 C :   -0.020992
   7 C :    0.004274
   8 N :   -0.099115
   9 C :   -0.021234
  10 C :    0.004483
  11 N :   -0.099072
  12 N :   -0.067620
  13 H :    0.029282
  14 H :    0.028953
  15 H :    0.030775
  16 H :    0.030635
  17 H :    0.054355
  18 H :    0.054075
  19 H :    0.030271
  20 H :    0.031198
  21 H :    0.054084
  22 H :    0.053738

  Mayer bond orders larger than 0.100000
B(  0-C ,  1-S ) :   1.2035 B(  0-C ,  2-C ) :   0.1240 B(  0-C ,  4-C ) :   1.3918
B(  0-C , 13-H ) :   0.9695 B(  1-S ,  2-C ) :   1.2033 B(  2-C ,  3-C ) :   1.3915
B(  2-C , 14-H ) :   0.9701 B(  3-C ,  4-C ) :   1.1926 B(  3-C , 12-N ) :   1.3215
B(  4-C ,  5-N ) :   1.3194 B(  5-N ,  6-C ) :   1.7678 B(  6-C ,  7-C ) :   0.9884
B(  6-C ,  9-C ) :   1.0659 B(  7-C ,  8-N ) :   1.1753 B(  7-C , 15-H ) :   0.9202
B(  7-C , 16-H ) :   0.9205 B(  8-N , 17-H ) :   0.9716 B(  8-N , 18-H ) :   0.9714
B(  9-C , 10-C ) :   0.9904 B(  9-C , 12-N ) :   1.7659 B( 10-C , 11-N ) :   1.1732
B( 10-C , 19-H ) :   0.9191 B( 10-C , 20-H ) :   0.9196 B( 11-N , 21-H ) :   0.9723
B( 11-N , 22-H ) :   0.9707

Dispersion correction           -0.047722178
FINAL SINGLE POINT ENERGY      -927.593184840024

DIPOLE MOMENT
-------------
                                X             Y             Z
Electronic contribution:    -15.53528       0.74632      -0.74959
Nuclear contribution   :     14.74002      -0.70472       0.71574
                        -----------------------------------------
Total Dipole Moment    :     -0.79526       0.04160      -0.03385
                        -----------------------------------------
Magnitude (a.u.)       :      0.79706
Magnitude (Debye)      :      2.02598

Rotational constants in cm-1:     0.035033     0.017216     0.011634
Rotational constants in MHz :  1050.248777   516.122615   348.772991

                             ****ORCA TERMINATED NORMALLY****
TOTAL RUN TIME: 0 days 0 hours 10 minutes 56 seconds 44 msec
