                         Program Version 4.2.0 -  RELEASE  -
|  1> # ORCA input file
|  2> # SCF done        -16.836369217025          0.000358562002
|  3> ! B3LYP/G D3BJ Opt RIJCOSX def2-SVP def2/J
|  4> * xyz 0 1
|  5>    C        2.09821        -0.10912         1.18763
|  6>    C        3.04569         0.14182         0.28636
|  7>    C        3.44737        -0.79052        -0.73273
|  8>    C        4.41386        -0.54485        -1.63266
|  9>    C        4.82103        -1.47987        -2.64718
| 10>    C        5.78993        -1.24050        -3.52854
| 11>    H        1.82239         0.60823         1.94105
| 12>    H        1.56779        -1.04717         1.20153
| 13>    H        3.56449         1.09231         0.29675
| 14>    H        2.92618        -1.73957        -0.75155
| 15>    H        4.93578         0.40378        -1.61307
| 16>    H        4.29209        -2.42458        -2.66741
| 17>    H        6.33247        -0.30921        -3.53040
| 18>    H        6.07407        -1.96178        -4.27499
| 19> *
| 20>
| 21>                          ****END OF INPUT****
 Total Charge           Charge          ....    0
 Multiplicity           Mult            ....    1
 Number of Electrons    NEL             ....   44
Dispersion correction           -0.018055603
FINAL SINGLE POINT ENERGY      -233.249004279552
Dispersion correction            ... done
Dispersion correction           -0.017890549
FINAL SINGLE POINT ENERGY      -233.251160526014
Dispersion correction            ... done
Dispersion correction           -0.017866612
FINAL SINGLE POINT ENERGY      -233.251175958009
Dispersion correction            ... done
Dispersion correction           -0.017857885
FINAL SINGLE POINT ENERGY      -233.251174540751
Dispersion correction            ... done
Dispersion correction           -0.017858864
FINAL SINGLE POINT ENERGY      -233.251175579124
Dispersion correction            ... done
                    ***********************HURRAY********************

CARTESIAN COORDINATES (ANGSTROEM)
---------------------------------
  C      2.067891   -0.098998    1.215774
  C      3.034287    0.136228    0.309114
  C      3.451076   -0.796391   -0.721585
  C      4.425226   -0.546827   -1.630233
  C      4.841838   -1.479354   -2.661086
  C      5.807638   -1.243798   -3.568295
  H      1.794101    0.647745    1.964915
  H      1.516950   -1.044599    1.231644
  H      3.560087    1.098466    0.330961
  H      2.930680   -1.761394   -0.755924
  H      4.945735    0.418111   -1.595796
  H      4.316385   -2.441790   -2.682603
  H      6.358276   -0.298027   -3.584435
  H      6.081179   -1.990404   -4.317662

 Multiplicity           Mult            ....    1
 Number of Electrons    NEL             ....   44
 Basis Dimension        Dim             ....  124

ORBITAL ENERGIES
----------------

  NO   OCC          E(Eh)            E(eV)
   0   2.0000     -10.197073      -277.4765
   1   2.0000     -10.197038      -277.4755
   2   2.0000     -10.196445      -277.4594
   3   2.0000     -10.195895      -277.4444
   4   2.0000     -10.190340      -277.2933
   5   2.0000     -10.190339      -277.2932
   6   2.0000      -0.813824       -22.1453
   7   2.0000      -0.772872       -21.0309
   8   2.0000      -0.714744       -19.4492
   9   2.0000      -0.617267       -16.7967
  10   2.0000      -0.555431       -15.1141
  11   2.0000      -0.549624       -14.9560
  12   2.0000      -0.486721       -13.2444
  13   2.0000      -0.462355       -12.5813
  14   2.0000      -0.431951       -11.7540
  15   2.0000      -0.407926       -11.1002
  16   2.0000      -0.385424       -10.4879
  17   2.0000      -0.363362        -9.8876
  18   2.0000      -0.348323        -9.4783
  19   2.0000      -0.346345        -9.4245
  20   2.0000      -0.294844        -8.0231
  21   2.0000      -0.218528        -5.9465
  22   0.0000      -0.056146        -1.5278
  23   0.0000       0.034170         0.9298
  24   0.0000       0.064278         1.7491
  25   0.0000       0.083996         2.2857
  26   0.0000       0.085806         2.3349

MULLIKEN ATOMIC CHARGES
-----------------------
   0 C :   -0.027895
   1 C :    0.004844
   2 C :    0.009932
   3 C :    0.009949
   4 C :    0.004829
   5 C :   -0.027879
   6 H :    0.024419
   7 H :    0.016437
   8 H :   -0.011048
   9 H :   -0.016694
  10 H :   -0.016694
  11 H :   -0.011049
  12 H :    0.016432
  13 H :    0.024417
Sum of atomic charges:   -0.0000000

LOEWDIN ATOMIC CHARGES
----------------------
   0 C :   -0.048817
   1 C :   -0.027976
   2 C :   -0.024818
   3 C :   -0.024817
   4 C :   -0.027977
   5 C :   -0.048816
   6 H :    0.025555
   7 H :    0.022371
   8 H :    0.027696
   9 H :    0.025989
  10 H :    0.025989
  11 H :    0.027696
  12 H :    0.022371
  13 H :    0.025555

  Mayer bond orders larger than 0.100000
B(  0-C ,  1-C ) :   1.8791 B(  0-C ,  3-C ) :   0.1112 B(  0-C ,  6-H ) :   0.9478
B(  0-C ,  7-H ) :   0.9537 B(  1-C ,  2-C ) :   1.1289 B(  1-C ,  8-H ) :   0.9643
B(  2-C ,  3-C ) :   1.6887 B(  2-C ,  5-C ) :   0.1112 B(  2-C ,  9-H ) :   0.9699
B(  3-C ,  4-C ) :   1.1289 B(  3-C , 10-H ) :   0.9699 B(  4-C ,  5-C ) :   1.8791
B(  4-C , 11-H ) :   0.9643 B(  5-C , 12-H ) :   0.9537 B(  5-C , 13-H ) :   0.9478

Dispersion correction           -0.017860841
FINAL SINGLE POINT ENERGY      -233.251177682944

DIPOLE MOMENT
-------------
                                X             Y             Z
Electronic contribution:      0.00045      -0.00024       0.00039
Nuclear contribution   :     -0.00046       0.00025      -0.00041
                        -----------------------------------------
Total Dipole Moment    :     -0.00001       0.00001      -0.00002
                        -----------------------------------------
Magnitude (a.u.)       :      0.00003
Magnitude (Debye)      :      0.00007

Rotational constants in cm-1:     0.886689     0.044126     0.042034
Rotational constants in MHz : 26582.268127  1322.861609  1260.151171

                             ****ORCA TERMINATED NORMALLY****
TOTAL RUN TIME: 0 days 0 hours 2 minutes 1 seconds 280 msec
