                         Program Version 4.2.0 -  RELEASE  -
|  1> # ORCA input file
|  2> # SCF done        -66.041692899191          0.000832343971
|  3> ! B3LYP/G D3BJ Opt RIJCOSX def2-SVP def2/J
|  4> * xyz 0 1
|  5>    N       -0.89677        -0.88863         0.28638
|  6>    C       -2.18748        -0.46599         0.39137
|  7>    O       -3.12168        -1.14686         0.74268
|  8>    C       -2.20943         1.01890         0.00763
|  9>    C       -0.77667         1.29215        -0.32690
| 10>    C       -0.03935         0.12368        -0.12241
| 11>    C        1.32183         0.07572        -0.33676
| 12>    C        1.96424         1.23344        -0.76786
| 13>    C        1.22808         2.39532        -0.97129
| 14>    C       -0.14158         2.43768        -0.75082
| 15>    C        3.43895         1.22342        -1.03629
| 16>    C       -2.72218         1.83912         1.21396
| 17>    C       -2.05800         1.29861         2.48129
| 18>    O       -0.87092         1.30027         2.71033
| 19>    N       -3.04337         0.77720         3.28874
| 20>    C       -4.30496         0.96074         2.71028
| 21>    C       -4.17218         1.61631         1.48383
| 22>    C       -5.28296         1.92155         0.73181
| 23>    C       -6.53469         1.56955         1.21772
| 24>    C       -6.67665         0.91863         2.43529
| 25>    C       -8.03122         0.52489         2.94228
| 26>    C       -5.54926         0.61327         3.19566
| 27>    C       -2.84068         0.08578         4.48105
| 28>    C       -1.69383        -0.02285         5.13435
| 29>    H       -0.59833        -1.81586         0.54442
| 30>    H       -2.88226         1.18277        -0.83876
| 31>    H        1.87966        -0.83343        -0.16907
| 32>    H        1.73852         3.28738        -1.30373
| 33>    H       -0.69221         3.35338        -0.90884
| 34>    H        3.92223         0.39268        -0.52820
| 35>    H        3.89687         2.15342        -0.70669
| 36>    H        3.62181         1.12132        -2.10685
| 37>    H       -2.46353         2.89032         1.06167
| 38>    H       -5.18638         2.42533        -0.21868
| 39>    H       -7.41408         1.80291         0.63600
| 40>    H       -8.81801         0.97102         2.33923
| 41>    H       -8.16131         0.83837         3.97727
| 42>    H       -8.14205        -0.55908         2.90531
| 43>    H       -5.67366         0.10977         4.14210
| 44>    H       -3.73938        -0.39025         4.84681
| 45>    H       -0.78743         0.43595         4.78676
| 46>    H       -1.64650        -0.59499         6.04364
| 47> *
| 48>
| 49>                          ****END OF INPUT****
 Total Charge           Charge          ....    0
 Multiplicity           Mult            ....    1
 Number of Electrons    NEL             ....  168
Dispersion correction           -0.100549706
FINAL SINGLE POINT ENERGY     -1032.303457194125
Dispersion correction            ... done
Dispersion correction           -0.099053194
FINAL SINGLE POINT ENERGY     -1032.310223293945
Dispersion correction            ... done
Dispersion correction           -0.098977533
FINAL SINGLE POINT ENERGY     -1032.310548238748
Dispersion correction            ... done
FINAL SINGLE POINT ENERGY     -1032.310240114140
FINAL SINGLE POINT ENERGY     -1032.310330477000
FINAL SINGLE POINT ENERGY     -1032.310488049317
FINAL SINGLE POINT ENERGY     -1032.310556712720
FINAL SINGLE POINT ENERGY     -1032.310755844007
FINAL SINGLE POINT ENERGY     -1032.310926274151
FINAL SINGLE POINT ENERGY     -1032.310999657450
FINAL SINGLE POINT ENERGY     -1032.310489237241
FINAL SINGLE POINT ENERGY     -1032.310240707934
FINAL SINGLE POINT ENERGY     -1032.310420051314
FINAL SINGLE POINT ENERGY     -1032.310742318599
FINAL SINGLE POINT ENERGY     -1032.310744767407
FINAL SINGLE POINT ENERGY     -1032.310577065600
FINAL SINGLE POINT ENERGY     -1032.310593002706
Dispersion correction            ... done
Dispersion correction           -0.098185465
FINAL SINGLE POINT ENERGY     -1032.310662988690
Dispersion correction            ... done
Dispersion correction           -0.098231348
FINAL SINGLE POINT ENERGY     -1032.310626850589
Dispersion correction            ... done
                    ***********************HURRAY********************

CARTESIAN COORDINATES (ANGSTROEM)
---------------------------------
  N     -0.950454   -0.974470   -0.213089
  C     -2.239164   -0.533913    0.014724
  O     -3.191033   -1.227861    0.289848
  C     -2.203944    1.005829   -0.120611
  C     -0.749364    1.292339   -0.396219
  C     -0.049763    0.075641   -0.418242
  C      1.328784    0.023248   -0.590691
  C      2.036983    1.229607   -0.731656
  C      1.336296    2.445763   -0.714892
  C     -0.053386    2.482279   -0.548002
  C      3.534537    1.221968   -0.899652
  C     -2.766508    1.700186    1.138220
  C     -2.062787    1.230798    2.422303
  O     -0.868646    1.203715    2.620319
  N     -3.051790    0.829032    3.325387
  C     -4.337630    0.969952    2.748662
  C     -4.218397    1.463187    1.440662
  C     -5.355994    1.664094    0.676105
  C     -6.611902    1.383395    1.228755
  C     -6.738651    0.904270    2.539803
  C     -8.099752    0.582496    3.104045
  C     -5.580042    0.698197    3.313095
  C     -2.816010    0.315685    4.607834
  C     -1.628365    0.182779    5.213301
  H     -0.697588   -1.951128   -0.120439
  H     -2.846218    1.285595   -0.973113
  H      1.858876   -0.932456   -0.595735
  H      1.889816    3.381390   -0.825542
  H     -0.576329    3.441489   -0.521048
  H      3.955400    0.220461   -0.728636
  H      4.017124    1.915871   -0.194450
  H      3.824675    1.544251   -1.914355
  H     -2.560374    2.780332    1.036146
  H     -5.278860    2.044497   -0.345063
  H     -7.512158    1.547334    0.632404
  H     -8.888232    1.158092    2.598462
  H     -8.155883    0.802639    4.181791
  H     -8.337638   -0.487438    2.970077
  H     -5.670833    0.320757    4.332898
  H     -3.731941   -0.001404    5.109267
  H     -0.697935    0.484582    4.737707
  H     -1.601720   -0.250170    6.214327

 Multiplicity           Mult            ....    1
 Number of Electrons    NEL             ....  168
 Basis Dimension        Dim             ....  426

ORBITAL ENERGIES
----------------

  NO   OCC          E(Eh)            E(eV)
   0   2.0000     -19.119015      -520.2548
   1   2.0000     -19.110023      -520.0102
   2   2.0000     -14.383847      -391.4044
   3   2.0000     -14.369390      -391.0110
   4   2.0000     -10.296043      -280.1696
   5   2.0000     -10.292583      -280.0754
   6   2.0000     -10.233551      -278.4691
   7   2.0000     -10.230975      -278.3990
   8   2.0000     -10.229191      -278.3504
   9   2.0000     -10.219241      -278.0797
  10   2.0000     -10.218047      -278.0472
  11   2.0000     -10.201158      -277.5876
  12   2.0000     -10.198534      -277.5162
  13   2.0000     -10.195447      -277.4322
  14   2.0000     -10.194694      -277.4117
  15   2.0000     -10.193930      -277.3909
  16   2.0000     -10.193158      -277.3699
  17   2.0000     -10.191187      -277.3163
  18   2.0000     -10.190489      -277.2973
  19   2.0000     -10.190330      -277.2930
  20   2.0000     -10.188209      -277.2353
  21   2.0000     -10.185924      -277.1731
  22   2.0000     -10.182693      -277.0852
  23   2.0000     -10.176789      -276.9245
  24   2.0000      -1.046537       -28.4777
  25   2.0000      -1.036572       -28.2065
  26   2.0000      -0.968176       -26.3454
  27   2.0000      -0.953875       -25.9563
  28   2.0000      -0.857218       -23.3261
  29   2.0000      -0.845083       -22.9959
  30   2.0000      -0.824458       -22.4347
  31   2.0000      -0.787558       -21.4305
  32   2.0000      -0.758517       -20.6403
  33   2.0000      -0.750085       -20.4109
  34   2.0000      -0.735999       -20.0275
  35   2.0000      -0.733620       -19.9628
  36   2.0000      -0.713710       -19.4210
  37   2.0000      -0.668543       -18.1920
  38   2.0000      -0.661029       -17.9875
  39   2.0000      -0.644951       -17.5500
  40   2.0000      -0.618034       -16.8176
  41   2.0000      -0.614987       -16.7347
  42   2.0000      -0.592737       -16.1292
  43   2.0000      -0.580769       -15.8035
  44   2.0000      -0.571439       -15.5497
  45   2.0000      -0.534499       -14.5445
  46   2.0000      -0.524573       -14.2744
  47   2.0000      -0.519998       -14.1499
  48   2.0000      -0.500524       -13.6200
  49   2.0000      -0.498885       -13.5754
  50   2.0000      -0.478792       -13.0286
  51   2.0000      -0.471413       -12.8278
  52   2.0000      -0.465423       -12.6648
  53   2.0000      -0.458688       -12.4815
  54   2.0000      -0.448015       -12.1911
  55   2.0000      -0.446805       -12.1582
  56   2.0000      -0.437792       -11.9129
  57   2.0000      -0.436038       -11.8652
  58   2.0000      -0.427668       -11.6374
  59   2.0000      -0.421802       -11.4778
  60   2.0000      -0.421236       -11.4624
  61   2.0000      -0.419378       -11.4119
  62   2.0000      -0.412415       -11.2224
  63   2.0000      -0.401221       -10.9178
  64   2.0000      -0.395082       -10.7507
  65   2.0000      -0.388022       -10.5586
  66   2.0000      -0.385904       -10.5010
  67   2.0000      -0.384864       -10.4727
  68   2.0000      -0.383252       -10.4288
  69   2.0000      -0.372870       -10.1463
  70   2.0000      -0.368307       -10.0221
  71   2.0000      -0.365097        -9.9348
  72   2.0000      -0.361328        -9.8322
  73   2.0000      -0.350265        -9.5312
  74   2.0000      -0.340687        -9.2706
  75   2.0000      -0.330155        -8.9840
  76   2.0000      -0.308095        -8.3837
  77   2.0000      -0.270276        -7.3546
  78   2.0000      -0.268331        -7.3017
  79   2.0000      -0.265589        -7.2270
  80   2.0000      -0.246553        -6.7090
  81   2.0000      -0.245210        -6.6725
  82   2.0000      -0.216615        -5.8944
  83   2.0000      -0.210975        -5.7409
  84   0.0000      -0.032178        -0.8756
  85   0.0000      -0.016663        -0.4534
  86   0.0000      -0.011609        -0.3159
  87   0.0000      -0.005025        -0.1367
  88   0.0000      -0.001272        -0.0346

MULLIKEN ATOMIC CHARGES
-----------------------
   0 N :   -0.095129
   1 C :    0.127172
   2 O :   -0.197890
   3 C :    0.011659
   4 C :    0.014114
   5 C :    0.166947
   6 C :   -0.095225
   7 C :   -0.038438
   8 C :   -0.006787
   9 C :   -0.042516
  10 C :    0.087681
  11 C :    0.027265
  12 C :    0.157534
  13 O :   -0.203311
  14 N :   -0.192747
  15 C :    0.211703
  16 C :    0.020657
  17 C :   -0.033888
  18 C :   -0.009501
  19 C :   -0.035084
  20 C :    0.076001
  21 C :   -0.106038
  22 C :    0.054584
  23 C :   -0.028985
  24 H :    0.117992
  25 H :    0.036247
  26 H :   -0.052274
  27 H :   -0.037650
  28 H :   -0.038172
  29 H :    0.002290
  30 H :    0.024509
  31 H :    0.024043
  32 H :    0.041344
  33 H :   -0.037811
  34 H :   -0.036545
  35 H :    0.011501
  36 H :    0.015268
  37 H :    0.034745
  38 H :   -0.048559
  39 H :    0.006724
  40 H :    0.051004
  41 H :    0.015568
Sum of atomic charges:   -0.0000000

LOEWDIN ATOMIC CHARGES
----------------------
   0 N :    0.021910
   1 C :    0.075527
   2 O :   -0.188828
   3 C :   -0.026376
   4 C :   -0.046250
   5 C :    0.036781
   6 C :   -0.061673
   7 C :   -0.011671
   8 C :   -0.043180
   9 C :   -0.012929
  10 C :   -0.042174
  11 C :   -0.024940
  12 C :    0.093793
  13 O :   -0.167092
  14 N :    0.007489
  15 C :    0.042779
  16 C :   -0.038650
  17 C :   -0.011011
  18 C :   -0.040754
  19 C :   -0.012238
  20 C :   -0.044352
  21 C :   -0.055633
  22 C :    0.018792
  23 C :   -0.075092
  24 H :    0.087147
  25 H :    0.049580
  26 H :    0.022821
  27 H :    0.022548
  28 H :    0.024263
  29 H :    0.025904
  30 H :    0.034272
  31 H :    0.034443
  32 H :    0.052527
  33 H :    0.025200
  34 H :    0.023027
  35 H :    0.029350
  36 H :    0.029718
  37 H :    0.038115
  38 H :    0.023352
  39 H :    0.026242
  40 H :    0.030063
  41 H :    0.027198

  Mayer bond orders larger than 0.100000
B(  0-N ,  1-C ) :   1.1392 B(  0-N ,  5-C ) :   1.0639 B(  0-N , 24-H ) :   0.9223
B(  1-C ,  2-O ) :   2.1631 B(  1-C ,  3-C ) :   0.8907 B(  3-C ,  4-C ) :   0.9668
B(  3-C , 11-C ) :   1.0474 B(  3-C , 25-H ) :   0.8660 B(  4-C ,  5-C ) :   1.3584
B(  4-C ,  9-C ) :   1.4126 B(  5-C ,  6-C ) :   1.3390 B(  6-C ,  7-C ) :   1.3373
B(  6-C , 26-H ) :   0.9984 B(  7-C ,  8-C ) :   1.4003 B(  7-C , 10-C ) :   1.0590
B(  8-C ,  9-C ) :   1.3426 B(  8-C , 27-H ) :   0.9869 B(  9-C , 28-H ) :   0.9940
B( 10-C , 29-H ) :   0.9598 B( 10-C , 30-H ) :   0.9564 B( 10-C , 31-H ) :   0.9538
B( 11-C , 12-C ) :   0.9113 B( 11-C , 16-C ) :   0.9758 B( 11-C , 32-H ) :   0.8599
B( 12-C , 13-O ) :   2.0884 B( 12-C , 14-N ) :   1.0838 B( 14-N , 15-C ) :   1.0014
B( 14-N , 22-C ) :   1.0315 B( 15-C , 16-C ) :   1.3595 B( 15-C , 21-C ) :   1.3472
B( 16-C , 17-C ) :   1.4257 B( 17-C , 18-C ) :   1.3349 B( 17-C , 33-H ) :   0.9884
B( 18-C , 19-C ) :   1.4095 B( 18-C , 34-H ) :   0.9831 B( 19-C , 20-C ) :   1.0624
B( 19-C , 21-C ) :   1.3373 B( 20-C , 35-H ) :   0.9572 B( 20-C , 36-H ) :   0.9566
B( 20-C , 37-H ) :   0.9526 B( 21-C , 38-H ) :   0.9896 B( 22-C , 23-C ) :   1.9472
B( 22-C , 39-H ) :   0.9606 B( 23-C , 40-H ) :   0.9393 B( 23-C , 41-H ) :   0.9362

Dispersion correction           -0.098238298
FINAL SINGLE POINT ENERGY     -1032.310620840072

DIPOLE MOMENT
-------------
                                X             Y             Z
Electronic contribution:     -0.32593      -2.19714      -2.83580
Nuclear contribution   :      0.26590       2.44711       2.56306
                        -----------------------------------------
Total Dipole Moment    :     -0.06003       0.24997      -0.27274
                        -----------------------------------------
Magnitude (a.u.)       :      0.37480
Magnitude (Debye)      :      0.95266

Rotational constants in cm-1:     0.017876     0.004909     0.004448
Rotational constants in MHz :   535.914714   147.179086   133.346848

                             ****ORCA TERMINATED NORMALLY****
TOTAL RUN TIME: 0 days 2 hours 24 minutes 59 seconds 920 msec
