                         Program Version 4.2.0 -  RELEASE  -
|  1> # ORCA input file
|  2> # SCF done        -31.811082634887          0.000359280252
|  3> ! B3LYP/G D3BJ Opt RIJCOSX def2-SVP def2/J
|  4> * xyz 0 1
|  5>    C        1.36946         1.19183        -0.28569
|  6>    S        2.56810        -0.01853        -0.04100
|  7>    C        1.34765        -1.19904         0.24027
|  8>    C        0.09433        -0.68303         0.15053
|  9>    C        0.10661         0.70744        -0.15761
| 10>    C       -1.14512         1.50105        -0.36242
| 11>    C       -2.37101         0.77662         0.20398
| 12>    C       -2.42767         0.93997         1.72265
| 13>    C       -2.37737        -0.70518        -0.20874
| 14>    C       -2.39987        -0.86756        -1.72827
| 15>    C       -1.17229        -1.44400         0.38158
| 16>    H        1.67450         2.19361        -0.51551
| 17>    H        1.63378        -2.20880         0.45863
| 18>    H       -1.28201         1.67439        -1.43393
| 19>    H       -1.04474         2.48204         0.10849
| 20>    H       -3.26904         1.24291        -0.21845
| 21>    H       -1.48732         0.64366         2.18023
| 22>    H       -3.22850         0.33687         2.14591
| 23>    H       -2.61362         1.98073         1.97993
| 24>    H       -3.29031        -1.15971         0.19430
| 25>    H       -1.44798        -0.57374        -2.16359
| 26>    H       -3.18838        -0.26116        -2.16934
| 27>    H       -2.58291        -1.90769        -1.99058
| 28>    H       -1.09423        -2.44013        -0.06059
| 29>    H       -1.31445        -1.58200         1.45743
| 30> *
| 31>
| 32>                          ****END OF INPUT****
 Total Charge           Charge          ....    0
 Multiplicity           Mult            ....    1
 Number of Electrons    NEL             ....   90
Dispersion correction           -0.052590041
FINAL SINGLE POINT ENERGY      -787.348889559079
Dispersion correction            ... done
Dispersion correction           -0.052053280
FINAL SINGLE POINT ENERGY      -787.351993848586
Dispersion correction            ... done
Dispersion correction           -0.051940030
FINAL SINGLE POINT ENERGY      -787.352116556540
Dispersion correction            ... done
FINAL SINGLE POINT ENERGY      -787.352109135563
Dispersion correction            ... done
Dispersion correction           -0.051888380
FINAL SINGLE POINT ENERGY      -787.352078448427
Dispersion correction            ... done
Dispersion correction           -0.051905481
FINAL SINGLE POINT ENERGY      -787.352106288725
Dispersion correction            ... done
                    ***********************HURRAY********************

CARTESIAN COORDINATES (ANGSTROEM)
---------------------------------
  C      1.417129    1.224425   -0.209992
  S      2.613960   -0.006870   -0.003379
  C      1.396612   -1.217780    0.202597
  C      0.127842   -0.694263    0.127249
  C      0.139679    0.722589   -0.134278
  C     -1.131846    1.498275   -0.372532
  C     -2.368281    0.779779    0.203273
  C     -2.450132    0.958115    1.722272
  C     -2.379679   -0.710441   -0.214618
  C     -2.460073   -0.887890   -1.733732
  C     -1.156798   -1.447749    0.365654
  H      1.718997    2.251567   -0.410269
  H      1.681289   -2.249714    0.403298
  H     -1.263302    1.637649   -1.459726
  H     -1.049089    2.511149    0.053163
  H     -3.262517    1.247716   -0.243154
  H     -1.510319    0.665382    2.216597
  H     -3.259771    0.351651    2.158653
  H     -2.640346    2.011257    1.981987
  H     -3.282623   -1.163992    0.229286
  H     -1.515130   -0.608410   -2.225890
  H     -3.260176   -0.270391   -2.172125
  H     -2.664632   -1.938281   -1.993676
  H     -1.090148   -2.463538   -0.055642
  H     -1.293037   -1.579685    1.453193

 Multiplicity           Mult            ....    1
 Number of Electrons    NEL             ....   90
 Basis Dimension        Dim             ....  228

ORBITAL ENERGIES
----------------

  NO   OCC          E(Eh)            E(eV)
   0   2.0000     -88.863422     -2418.0967
   1   2.0000     -10.198764      -277.5225
   2   2.0000     -10.198713      -277.5211
   3   2.0000     -10.188691      -277.2484
   4   2.0000     -10.188571      -277.2451
   5   2.0000     -10.186839      -277.1980
   6   2.0000     -10.186771      -277.1961
   7   2.0000     -10.186409      -277.1863
   8   2.0000     -10.186183      -277.1801
   9   2.0000     -10.176979      -276.9297
  10   2.0000     -10.176903      -276.9276
  11   2.0000      -7.958499      -216.5618
  12   2.0000      -5.926565      -161.2700
  13   2.0000      -5.922497      -161.1593
  14   2.0000      -5.919985      -161.0910
  15   2.0000      -0.873963       -23.7818
  16   2.0000      -0.823907       -22.4196
  17   2.0000      -0.759707       -20.6727
  18   2.0000      -0.736917       -20.0525
  19   2.0000      -0.715256       -19.4631
  20   2.0000      -0.671655       -18.2767
  21   2.0000      -0.652378       -17.7521
  22   2.0000      -0.604993       -16.4627
  23   2.0000      -0.561127       -15.2690
  24   2.0000      -0.554595       -15.0913
  25   2.0000      -0.495131       -13.4732
  26   2.0000      -0.486373       -13.2349
  27   2.0000      -0.455145       -12.3851
  28   2.0000      -0.452361       -12.3094
  29   2.0000      -0.439076       -11.9479
  30   2.0000      -0.413746       -11.2586
  31   2.0000      -0.403373       -10.9763
  32   2.0000      -0.401269       -10.9191
  33   2.0000      -0.395018       -10.7490
  34   2.0000      -0.376919       -10.2565
  35   2.0000      -0.373941       -10.1754
  36   2.0000      -0.366671        -9.9776
  37   2.0000      -0.358094        -9.7442
  38   2.0000      -0.342994        -9.3334
  39   2.0000      -0.329780        -8.9738
  40   2.0000      -0.323869        -8.8129
  41   2.0000      -0.314212        -8.5501
  42   2.0000      -0.304791        -8.2938
  43   2.0000      -0.234383        -6.3779
  44   2.0000      -0.225893        -6.1469
  45   0.0000      -0.011957        -0.3254
  46   0.0000       0.043539         1.1848
  47   0.0000       0.056983         1.5506
  48   0.0000       0.061015         1.6603
  49   0.0000       0.080309         2.1853

MULLIKEN ATOMIC CHARGES
-----------------------
   0 C :   -0.144136
   1 S :    0.087700
   2 C :   -0.144201
   3 C :   -0.045998
   4 C :   -0.045885
   5 C :    0.164246
   6 C :   -0.080645
   7 C :    0.062764
   8 C :   -0.081807
   9 C :    0.063664
  10 C :    0.165074
  11 H :    0.006414
  12 H :    0.006456
  13 H :    0.011329
  14 H :   -0.014218
  15 H :   -0.022955
  16 H :    0.018128
  17 H :    0.000707
  18 H :    0.000557
  19 H :   -0.023213
  20 H :    0.018065
  21 H :    0.000680
  22 H :    0.000377
  23 H :   -0.014452
  24 H :    0.011352
Sum of atomic charges:   -0.0000000

LOEWDIN ATOMIC CHARGES
----------------------
   0 C :   -0.205860
   1 S :    0.418439
   2 C :   -0.205975
   3 C :   -0.067169
   4 C :   -0.067186
   5 C :   -0.018236
   6 C :   -0.027808
   7 C :   -0.048926
   8 C :   -0.027914
   9 C :   -0.048836
  10 C :   -0.018155
  11 H :    0.019799
  12 H :    0.019817
  13 H :    0.029415
  14 H :    0.025786
  15 H :    0.018076
  16 H :    0.023714
  17 H :    0.019885
  18 H :    0.022188
  19 H :    0.018035
  20 H :    0.023723
  21 H :    0.019894
  22 H :    0.022162
  23 H :    0.025697
  24 H :    0.029435

  Mayer bond orders larger than 0.100000
B(  0-C ,  1-S ) :   1.1585 B(  0-C ,  4-C ) :   1.5520 B(  0-C , 11-H ) :   0.9637
B(  1-S ,  2-C ) :   1.1585 B(  2-C ,  3-C ) :   1.5521 B(  2-C , 12-H ) :   0.9636
B(  3-C ,  4-C ) :   1.2844 B(  3-C , 10-C ) :   1.0360 B(  4-C ,  5-C ) :   1.0359
B(  5-C ,  6-C ) :   1.0517 B(  5-C , 13-H ) :   0.9121 B(  5-C , 14-H ) :   0.9128
B(  6-C ,  7-C ) :   1.0758 B(  6-C ,  8-C ) :   1.0240 B(  6-C , 15-H ) :   0.9082
B(  7-C , 16-H ) :   0.9606 B(  7-C , 17-H ) :   0.9616 B(  7-C , 18-H ) :   0.9595
B(  8-C ,  9-C ) :   1.0759 B(  8-C , 10-C ) :   1.0516 B(  8-C , 19-H ) :   0.9081
B(  9-C , 20-H ) :   0.9606 B(  9-C , 21-H ) :   0.9616 B(  9-C , 22-H ) :   0.9595
B( 10-C , 23-H ) :   0.9127 B( 10-C , 24-H ) :   0.9121

Dispersion correction           -0.051912180
FINAL SINGLE POINT ENERGY      -787.352106142707

DIPOLE MOMENT
-------------
                                X             Y             Z
Electronic contribution:     17.34089      -0.14559       0.00496
Nuclear contribution   :    -17.77340       0.15002      -0.00483
                        -----------------------------------------
Total Dipole Moment    :     -0.43251       0.00444       0.00012
                        -----------------------------------------
Magnitude (a.u.)       :      0.43253
Magnitude (Debye)      :      1.09942

Rotational constants in cm-1:     0.059548     0.022786     0.020503
Rotational constants in MHz :  1785.190440   683.099840   614.660685

                             ****ORCA TERMINATED NORMALLY****
TOTAL RUN TIME: 0 days 0 hours 10 minutes 47 seconds 610 msec
