                         Program Version 4.2.0 -  RELEASE  -
|  1> # ORCA input file
|  2> # SCF done        -40.351115366132          0.000907527579
|  3> ! B3LYP/G D3BJ Opt RIJCOSX def2-SVP def2/J
|  4> * xyz 0 1
|  5>    C        2.80396         0.88152         0.07419
|  6>    C        3.52237        -0.28204         0.07266
|  7>    C        2.86756        -1.52585         0.02925
|  8>    C        1.48389        -1.54671         0.01527
|  9>    C        0.71869        -0.37403         0.02551
| 10>    C        1.39961         0.86717         0.04570
| 11>    C        0.66321         2.08396         0.03783
| 12>    C       -0.68851         2.07882         0.00961
| 13>    C       -1.41763         0.85560        -0.00105
| 14>    C       -0.72595        -0.37907         0.01299
| 15>    C       -1.48959        -1.55719         0.01490
| 16>    C       -2.86229        -1.52148        -0.00137
| 17>    C       -3.53789        -0.30097        -0.02249
| 18>    C       -2.82169         0.86776        -0.02150
| 19>    C        3.67521        -2.73971         0.00521
| 20>    C        3.26266        -3.95769        -0.32292
| 21>    H        3.31107         1.83596         0.09864
| 22>    H        4.60277        -0.25489         0.09428
| 23>    H        0.98853        -2.50346         0.00636
| 24>    H        1.21477         3.01351         0.05123
| 25>    H       -1.24688         3.00426        -0.00171
| 26>    H       -1.00010        -2.51817         0.03319
| 27>    H       -3.42504        -2.44373         0.00248
| 28>    H       -4.61770        -0.28301        -0.03764
| 29>    H       -3.33036         1.82155        -0.03510
| 30>    H        4.71789        -2.59143         0.26142
| 31>    H        2.24940        -4.16860        -0.61743
| 32>    H        3.93515        -4.79803        -0.31967
| 33> *
| 34>
| 35>                          ****END OF INPUT****
 Total Charge           Charge          ....    0
 Multiplicity           Mult            ....    1
 Number of Electrons    NEL             ....  108
Dispersion correction           -0.064496846
FINAL SINGLE POINT ENERGY      -616.560481959218
Dispersion correction            ... done
Dispersion correction           -0.064033542
FINAL SINGLE POINT ENERGY      -616.564377944033
Dispersion correction            ... done
Dispersion correction           -0.063974734
FINAL SINGLE POINT ENERGY      -616.564477172976
Dispersion correction            ... done
FINAL SINGLE POINT ENERGY      -616.564532496974
FINAL SINGLE POINT ENERGY      -616.564596184218
FINAL SINGLE POINT ENERGY      -616.564627948173
Dispersion correction            ... done
Dispersion correction           -0.063968074
FINAL SINGLE POINT ENERGY      -616.564650823869
Dispersion correction            ... done
Dispersion correction           -0.063965380
FINAL SINGLE POINT ENERGY      -616.564654116197
Dispersion correction            ... done
                    ***********************HURRAY********************

CARTESIAN COORDINATES (ANGSTROEM)
---------------------------------
  C      2.823548    0.900447    0.063178
  C      3.544345   -0.275745    0.024847
  C      2.885977   -1.529420   -0.028918
  C      1.491069   -1.542211   -0.035731
  C      0.723397   -0.360955    0.001554
  C      1.409398    0.891795    0.051338
  C      0.660933    2.114985    0.087651
  C     -0.701230    2.107123    0.073005
  C     -1.437033    0.874450    0.022887
  C     -0.735513   -0.368715   -0.010739
  C     -1.497519   -1.560126   -0.056193
  C     -2.882040   -1.532887   -0.070258
  C     -3.568814   -0.303897   -0.039728
  C     -2.852409    0.877796    0.006079
  C      3.699998   -2.754176   -0.076607
  C      3.271954   -4.022792   -0.156333
  H      3.341610    1.861944    0.104810
  H      4.637440   -0.248976    0.034879
  H      0.983432   -2.504225   -0.073811
  H      1.211370    3.058271    0.129318
  H     -1.263013    3.044193    0.101797
  H     -0.994002   -2.526238   -0.082951
  H     -3.442436   -2.469807   -0.107903
  H     -4.661359   -0.285646   -0.053382
  H     -3.372677    1.838834    0.030823
  H      4.782113   -2.579994   -0.043909
  H      2.212084   -4.288377   -0.199039
  H      3.982487   -4.851602   -0.186819

 Multiplicity           Mult            ....    1
 Number of Electrons    NEL             ....  108
 Basis Dimension        Dim             ....  284

ORBITAL ENERGIES
----------------

  NO   OCC          E(Eh)            E(eV)
   0   2.0000     -10.202812      -277.6326
   1   2.0000     -10.202288      -277.6184
   2   2.0000     -10.200398      -277.5669
   3   2.0000     -10.199953      -277.5548
   4   2.0000     -10.199814      -277.5511
   5   2.0000     -10.197628      -277.4916
   6   2.0000     -10.194738      -277.4129
   7   2.0000     -10.194407      -277.4039
   8   2.0000     -10.194234      -277.3992
   9   2.0000     -10.194194      -277.3981
  10   2.0000     -10.194138      -277.3966
  11   2.0000     -10.193802      -277.3874
  12   2.0000     -10.193787      -277.3871
  13   2.0000     -10.193643      -277.3831
  14   2.0000     -10.192792      -277.3600
  15   2.0000     -10.189865      -277.2803
  16   2.0000      -0.878913       -23.9164
  17   2.0000      -0.847980       -23.0747
  18   2.0000      -0.811916       -22.0934
  19   2.0000      -0.777454       -21.1556
  20   2.0000      -0.770719       -20.9723
  21   2.0000      -0.739295       -20.1172
  22   2.0000      -0.720456       -19.6046
  23   2.0000      -0.706858       -19.2346
  24   2.0000      -0.638387       -17.3714
  25   2.0000      -0.627138       -17.0653
  26   2.0000      -0.611797       -16.6478
  27   2.0000      -0.584885       -15.9155
  28   2.0000      -0.564601       -15.3636
  29   2.0000      -0.532406       -14.4875
  30   2.0000      -0.524569       -14.2742
  31   2.0000      -0.497008       -13.5243
  32   2.0000      -0.482901       -13.1404
  33   2.0000      -0.478520       -13.0212
  34   2.0000      -0.452055       -12.3010
  35   2.0000      -0.441404       -12.0112
  36   2.0000      -0.429610       -11.6903
  37   2.0000      -0.429295       -11.6817
  38   2.0000      -0.422445       -11.4953
  39   2.0000      -0.418611       -11.3910
  40   2.0000      -0.407694       -11.0939
  41   2.0000      -0.399420       -10.8688
  42   2.0000      -0.372893       -10.1469
  43   2.0000      -0.370898       -10.0926
  44   2.0000      -0.364961        -9.9311
  45   2.0000      -0.360524        -9.8104
  46   2.0000      -0.337905        -9.1949
  47   2.0000      -0.332332        -9.0432
  48   2.0000      -0.330710        -8.9991
  49   2.0000      -0.298793        -8.1306
  50   2.0000      -0.288070        -7.8388
  51   2.0000      -0.253123        -6.8878
  52   2.0000      -0.232400        -6.3239
  53   2.0000      -0.213340        -5.8053
  54   0.0000      -0.059774        -1.6265
  55   0.0000      -0.042461        -1.1554
  56   0.0000      -0.020272        -0.5516
  57   0.0000       0.023518         0.6400
  58   0.0000       0.032780         0.8920

MULLIKEN ATOMIC CHARGES
-----------------------
   0 C :   -0.011683
   1 C :   -0.032663
   2 C :    0.122565
   3 C :   -0.088395
   4 C :    0.121658
   5 C :    0.045242
   6 C :   -0.002182
   7 C :   -0.004578
   8 C :    0.055631
   9 C :    0.085746
  10 C :   -0.035352
  11 C :    0.032654
  12 C :    0.021456
  13 C :   -0.019646
  14 C :   -0.011045
  15 C :   -0.016739
  16 H :   -0.035386
  17 H :   -0.023358
  18 H :   -0.050758
  19 H :   -0.033118
  20 H :   -0.031852
  21 H :   -0.038391
  22 H :   -0.021561
  23 H :   -0.011878
  24 H :   -0.033579
  25 H :   -0.016391
  26 H :    0.010143
  27 H :    0.023462
Sum of atomic charges:    0.0000000

LOEWDIN ATOMIC CHARGES
----------------------
   0 C :   -0.015559
   1 C :   -0.021105
   2 C :   -0.027475
   3 C :   -0.004128
   4 C :   -0.006432
   5 C :   -0.017072
   6 C :   -0.018766
   7 C :   -0.017620
   8 C :   -0.017608
   9 C :   -0.008704
  10 C :   -0.016183
  11 C :   -0.024034
  12 C :   -0.027965
  13 C :   -0.016034
  14 C :   -0.022432
  15 C :   -0.046249
  16 H :    0.026383
  17 H :    0.026457
  18 H :    0.021845
  19 H :    0.026978
  20 H :    0.026916
  21 H :    0.023927
  22 H :    0.026895
  23 H :    0.028426
  24 H :    0.025616
  25 H :    0.027604
  26 H :    0.019194
  27 H :    0.027125

  Mayer bond orders larger than 0.100000
B(  0-C ,  1-C ) :   1.4268 B(  0-C ,  5-C ) :   1.2743 B(  0-C , 16-H ) :   0.9899
B(  1-C ,  2-C ) :   1.2613 B(  1-C , 17-H ) :   0.9904 B(  2-C ,  3-C ) :   1.3839
B(  2-C , 14-C ) :   1.0737 B(  3-C ,  4-C ) :   1.3086 B(  3-C , 18-H ) :   0.9823
B(  4-C ,  5-C ) :   1.2645 B(  4-C ,  9-C ) :   1.1019 B(  5-C ,  6-C ) :   1.1546
B(  6-C ,  7-C ) :   1.5376 B(  6-C , 19-H ) :   0.9898 B(  7-C ,  8-C ) :   1.1466
B(  7-C , 20-H ) :   0.9892 B(  8-C ,  9-C ) :   1.2829 B(  8-C , 13-C ) :   1.2826
B(  9-C , 10-C ) :   1.3029 B( 10-C , 11-C ) :   1.4448 B( 10-C , 21-H ) :   0.9820
B( 11-C , 12-C ) :   1.2904 B( 11-C , 22-H ) :   0.9801 B( 12-C , 13-C ) :   1.4343
B( 12-C , 23-H ) :   0.9857 B( 13-C , 24-H ) :   0.9897 B( 14-C , 15-C ) :   1.9285
B( 14-C , 25-H ) :   0.9607 B( 15-C , 26-H ) :   0.9452 B( 15-C , 27-H ) :   0.9443

Dispersion correction           -0.063962684
FINAL SINGLE POINT ENERGY      -616.564655879526

DIPOLE MOMENT
-------------
                                X             Y             Z
Electronic contribution:     -2.06618       4.53237       0.20825
Nuclear contribution   :      2.02121      -4.49112      -0.21025
                        -----------------------------------------
Total Dipole Moment    :     -0.04498       0.04125      -0.00200
                        -----------------------------------------
Magnitude (a.u.)       :      0.06106
Magnitude (Debye)      :      0.15521

Rotational constants in cm-1:     0.033696     0.012864     0.009310
Rotational constants in MHz :  1010.168880   385.648999   279.105279

                             ****ORCA TERMINATED NORMALLY****
TOTAL RUN TIME: 0 days 0 hours 20 minutes 4 seconds 28 msec
