                         Program Version 4.2.0 -  RELEASE  -
|  1> # ORCA input file
|  2> # SCF done        -37.610842277533          0.000512060095
|  3> ! B3LYP/G D3BJ Opt RIJCOSX def2-SVP def2/J
|  4> * xyz 0 1
|  5>    C        0.07001         1.01216         0.26029
|  6>    N       -0.79295        -0.03320         0.18084
|  7>    C       -0.10335        -1.20204         0.00770
|  8>    C       -0.80106        -2.44951        -0.06323
|  9>    C       -0.27539        -3.66080         0.20209
| 10>    C       -0.98026        -4.90110         0.09887
| 11>    N       -0.38992        -6.08012         0.46673
| 12>    C       -1.24962        -7.10991         0.27476
| 13>    C       -2.41957        -6.60063        -0.22853
| 14>    C       -2.25634        -5.21283        -0.34156
| 15>    C        1.25441        -0.87388        -0.04672
| 16>    C        1.34047         0.52970         0.12265
| 17>    C        2.35239        -1.76771        -0.33412
| 18>    C        3.62930        -1.51905        -0.06303
| 19>    H       -0.27839         2.01636         0.40366
| 20>    H       -1.79337         0.02573         0.27345
| 21>    H       -1.84998        -2.38319        -0.32503
| 22>    H        0.74934        -3.73085         0.54100
| 23>    H        0.54504        -6.15793         0.83104
| 24>    H       -0.97608        -8.12091         0.50474
| 25>    H       -3.29490        -7.16238        -0.48890
| 26>    H       -2.98644        -4.51965        -0.70876
| 27>    H        2.24033         1.11116         0.11395
| 28>    H        2.08228        -2.68898        -0.83500
| 29>    H        3.93962        -0.62106         0.44315
| 30>    H        4.41024        -2.20914        -0.33353
| 31> *
| 32>
| 33>                          ****END OF INPUT****
 Total Charge           Charge          ....    0
 Multiplicity           Mult            ....    1
 Number of Electrons    NEL             ....   98
Dispersion correction           -0.049230848
FINAL SINGLE POINT ENERGY      -573.599267719484
Dispersion correction            ... done
Dispersion correction           -0.049023937
FINAL SINGLE POINT ENERGY      -573.603798303398
Dispersion correction            ... done
Dispersion correction           -0.048973675
FINAL SINGLE POINT ENERGY      -573.603850887844
Dispersion correction            ... done
FINAL SINGLE POINT ENERGY      -573.603282345675
FINAL SINGLE POINT ENERGY      -573.603011173217
FINAL SINGLE POINT ENERGY      -573.603283887236
FINAL SINGLE POINT ENERGY      -573.603276686767
FINAL SINGLE POINT ENERGY      -573.603299159264
Dispersion correction            ... done
Dispersion correction           -0.048927151
FINAL SINGLE POINT ENERGY      -573.603317359101
Dispersion correction            ... done
Dispersion correction           -0.048931615
FINAL SINGLE POINT ENERGY      -573.603317713461
Dispersion correction            ... done
                    ***********************HURRAY********************

CARTESIAN COORDINATES (ANGSTROEM)
---------------------------------
  C      0.053217    1.075182    0.122785
  N     -0.798056    0.004611    0.047274
  C     -0.092178   -1.177660   -0.058734
  C     -0.794493   -2.436544   -0.099475
  C     -0.268247   -3.673422    0.085353
  C     -0.998757   -4.917514    0.049235
  N     -0.335843   -6.125675    0.153784
  C     -1.220389   -7.168207    0.115717
  C     -2.494493   -6.633637   -0.011238
  C     -2.358894   -5.221995   -0.054923
  C      1.274897   -0.831360   -0.067313
  C      1.344885    0.591256    0.057476
  C      2.398620   -1.746240   -0.229801
  C      3.650800   -1.549087    0.216352
  H     -0.325917    2.091361    0.202707
  H     -1.805776    0.056098    0.116584
  H     -1.872091   -2.363565   -0.290916
  H      0.796283   -3.760378    0.317643
  H      0.667878   -6.217169    0.240198
  H     -0.879059   -8.198750    0.182264
  H     -3.420477   -7.202369   -0.063774
  H     -3.163552   -4.494524   -0.141448
  H      2.254185    1.187539    0.049631
  H      2.186756   -2.662126   -0.792725
  H      3.921529   -0.665346    0.801512
  H      4.444981   -2.270241    0.008343

 Multiplicity           Mult            ....    1
 Number of Electrons    NEL             ....   98
 Basis Dimension        Dim             ....  256

ORBITAL ENERGIES
----------------

  NO   OCC          E(Eh)            E(eV)
   0   2.0000     -14.374445      -391.1485
   1   2.0000     -14.373582      -391.1251
   2   2.0000     -10.214965      -277.9633
   3   2.0000     -10.211488      -277.8687
   4   2.0000     -10.211019      -277.8560
   5   2.0000     -10.209039      -277.8021
   6   2.0000     -10.193882      -277.3896
   7   2.0000     -10.193094      -277.3682
   8   2.0000     -10.186514      -277.1891
   9   2.0000     -10.176603      -276.9195
  10   2.0000     -10.174761      -276.8693
  11   2.0000     -10.172487      -276.8074
  12   2.0000     -10.171624      -276.7840
  13   2.0000     -10.170604      -276.7562
  14   2.0000      -0.971744       -26.4425
  15   2.0000      -0.970107       -26.3979
  16   2.0000      -0.799756       -21.7625
  17   2.0000      -0.787296       -21.4234
  18   2.0000      -0.765485       -20.8299
  19   2.0000      -0.741486       -20.1768
  20   2.0000      -0.728076       -19.8119
  21   2.0000      -0.684015       -18.6130
  22   2.0000      -0.616692       -16.7811
  23   2.0000      -0.598000       -16.2724
  24   2.0000      -0.587912       -15.9979
  25   2.0000      -0.584482       -15.9046
  26   2.0000      -0.567186       -15.4339
  27   2.0000      -0.524502       -14.2724
  28   2.0000      -0.510985       -13.9046
  29   2.0000      -0.509814       -13.8728
  30   2.0000      -0.459539       -12.5047
  31   2.0000      -0.449046       -12.2192
  32   2.0000      -0.435328       -11.8459
  33   2.0000      -0.425977       -11.5914
  34   2.0000      -0.417746       -11.3674
  35   2.0000      -0.415623       -11.3097
  36   2.0000      -0.409105       -11.1323
  37   2.0000      -0.405816       -11.0428
  38   2.0000      -0.403405       -10.9772
  39   2.0000      -0.386532       -10.5181
  40   2.0000      -0.376850       -10.2546
  41   2.0000      -0.359233        -9.7752
  42   2.0000      -0.341691        -9.2979
  43   2.0000      -0.308628        -8.3982
  44   2.0000      -0.293617        -7.9897
  45   2.0000      -0.249035        -6.7766
  46   2.0000      -0.238069        -6.4782
  47   2.0000      -0.222716        -6.0604
  48   2.0000      -0.175578        -4.7777
  49   0.0000      -0.042672        -1.1612
  50   0.0000       0.009844         0.2679
  51   0.0000       0.044866         1.2209
  52   0.0000       0.047100         1.2817
  53   0.0000       0.050176         1.3654

MULLIKEN ATOMIC CHARGES
-----------------------
   0 C :    0.058278
   1 N :   -0.063502
   2 C :    0.066580
   3 C :   -0.013422
   4 C :    0.004215
   5 C :    0.072965
   6 N :   -0.067667
   7 C :    0.044930
   8 C :   -0.007229
   9 C :   -0.066302
  10 C :    0.006722
  11 C :   -0.046983
  12 C :   -0.030600
  13 C :   -0.040452
  14 H :   -0.007226
  15 H :    0.113466
  16 H :   -0.037544
  17 H :   -0.033875
  18 H :    0.115684
  19 H :   -0.006584
  20 H :   -0.022537
  21 H :   -0.029398
  22 H :   -0.028208
  23 H :   -0.004638
  24 H :    0.010681
  25 H :    0.012646
Sum of atomic charges:    0.0000000

LOEWDIN ATOMIC CHARGES
----------------------
   0 C :   -0.017618
   1 N :    0.083194
   2 C :   -0.011846
   3 C :   -0.046354
   4 C :   -0.043444
   5 C :   -0.023629
   6 N :    0.084443
   7 C :   -0.023195
   8 C :   -0.076339
   9 C :   -0.076868
  10 C :   -0.071914
  11 C :   -0.068137
  12 C :   -0.025069
  13 C :   -0.068787
  14 H :    0.019002
  15 H :    0.084876
  16 H :    0.023357
  17 H :    0.024863
  18 H :    0.085375
  19 H :    0.018170
  20 H :    0.022640
  21 H :    0.019652
  22 H :    0.023351
  23 H :    0.024917
  24 H :    0.019134
  25 H :    0.020222

  Mayer bond orders larger than 0.100000
B(  0-C ,  1-N ) :   1.2012 B(  0-C , 11-C ) :   1.4623 B(  0-C , 14-H ) :   0.9860
B(  1-N ,  2-C ) :   1.1993 B(  1-N , 15-H ) :   0.9367 B(  2-C ,  3-C ) :   1.1204
B(  2-C , 10-C ) :   1.3742 B(  3-C ,  4-C ) :   1.6835 B(  3-C , 16-H ) :   0.9476
B(  4-C ,  5-C ) :   1.0968 B(  4-C , 17-H ) :   0.9466 B(  5-C ,  6-N ) :   1.1978
B(  5-C ,  9-C ) :   1.4360 B(  6-N ,  7-C ) :   1.2165 B(  6-N , 18-H ) :   0.9374
B(  7-C ,  8-C ) :   1.4550 B(  7-C , 19-H ) :   0.9880 B(  8-C ,  9-C ) :   1.3202
B(  8-C , 20-H ) :   1.0006 B(  9-C , 21-H ) :   1.0000 B( 10-C , 11-C ) :   1.2989
B( 10-C , 12-C ) :   1.0980 B( 11-C , 22-H ) :   1.0028 B( 12-C , 13-C ) :   1.9308
B( 12-C , 23-H ) :   0.9402 B( 13-C , 24-H ) :   0.9521 B( 13-C , 25-H ) :   0.9449

Dispersion correction           -0.048936066
FINAL SINGLE POINT ENERGY      -573.603316723395

DIPOLE MOMENT
-------------
                                X             Y             Z
Electronic contribution:     -3.32913       0.25008      -0.18245
Nuclear contribution   :      3.05999      -0.27931       0.28893
                        -----------------------------------------
Total Dipole Moment    :     -0.26914      -0.02923       0.10648
                        -----------------------------------------
Magnitude (a.u.)       :      0.29091
Magnitude (Debye)      :      0.73943

Rotational constants in cm-1:     0.050748     0.010777     0.008924
Rotational constants in MHz :  1521.378083   323.089672   267.536831

                             ****ORCA TERMINATED NORMALLY****
TOTAL RUN TIME: 0 days 0 hours 17 minutes 46 seconds 176 msec
