                         Program Version 4.2.0 -  RELEASE  -
|  1> # ORCA input file
|  2> # SCF done        -25.100773787928          0.000272507419
|  3> ! B3LYP/G D3BJ Opt RIJCOSX def2-SVP def2/J
|  4> * xyz 0 1
|  5>    C       -0.17986         1.06420        -0.07937
|  6>    O       -1.02914         0.03561         0.11076
|  7>    C       -0.31530        -1.07967         0.17093
|  8>    C        1.01821        -0.78494         0.01779
|  9>    C        1.10323         0.62595        -0.14672
| 10>    N        2.09530        -1.70747         0.02232
| 11>    O        1.82129        -2.87664         0.19794
| 12>    O        3.21050        -1.26662        -0.14985
| 13>    H       -0.60447         2.04541        -0.14972
| 14>    H       -0.81696        -2.01550         0.31950
| 15>    H        1.99867         1.19253        -0.29042
| 16> *
| 17>
| 18>                          ****END OF INPUT****
 Total Charge           Charge          ....    0
 Multiplicity           Mult            ....    1
 Number of Electrons    NEL             ....   58
Dispersion correction           -0.016492251
FINAL SINGLE POINT ENERGY      -434.213245712080
Dispersion correction            ... done
Dispersion correction           -0.016517256
FINAL SINGLE POINT ENERGY      -434.215114012181
Dispersion correction            ... done
Dispersion correction           -0.016524736
FINAL SINGLE POINT ENERGY      -434.215251186459
Dispersion correction            ... done
FINAL SINGLE POINT ENERGY      -434.214988801706
FINAL SINGLE POINT ENERGY      -434.215292910923
Dispersion correction            ... done
Dispersion correction           -0.016525680
FINAL SINGLE POINT ENERGY      -434.215297549427
Dispersion correction            ... done
Dispersion correction           -0.016524992
FINAL SINGLE POINT ENERGY      -434.215297038211
Dispersion correction            ... done
                    ***********************HURRAY********************

CARTESIAN COORDINATES (ANGSTROEM)
---------------------------------
  C     -0.177462    1.082942   -0.078999
  O     -1.033579    0.034558    0.105504
  C     -0.308542   -1.094734    0.166269
  C      1.015019   -0.775582    0.017054
  C      1.110371    0.642076   -0.144366
  N      2.101573   -1.722450    0.023326
  O      1.814284   -2.894602    0.219948
  O      3.225756   -1.284600   -0.168134
  H     -0.638952    2.063837   -0.146240
  H     -0.825919   -2.036158    0.318453
  H      2.018920    1.217574   -0.289656

 Multiplicity           Mult            ....    1
 Number of Electrons    NEL             ....   58
 Basis Dimension        Dim             ....  127

ORBITAL ENERGIES
----------------

  NO   OCC          E(Eh)            E(eV)
   0   2.0000     -19.242830      -523.6240
   1   2.0000     -19.167173      -521.5653
   2   2.0000     -19.165441      -521.5182
   3   2.0000     -14.568874      -396.4392
   4   2.0000     -10.283254      -279.8216
   5   2.0000     -10.273175      -279.5473
   6   2.0000     -10.255531      -279.0672
   7   2.0000     -10.225045      -278.2376
   8   2.0000      -1.227973       -33.4149
   9   2.0000      -1.147099       -31.2141
  10   2.0000      -1.054094       -28.6834
  11   2.0000      -0.858492       -23.3607
  12   2.0000      -0.789727       -21.4896
  13   2.0000      -0.730727       -19.8841
  14   2.0000      -0.622488       -16.9388
  15   2.0000      -0.597011       -16.2455
  16   2.0000      -0.567289       -15.4367
  17   2.0000      -0.549644       -14.9566
  18   2.0000      -0.514101       -13.9894
  19   2.0000      -0.509344       -13.8600
  20   2.0000      -0.491987       -13.3877
  21   2.0000      -0.474428       -12.9098
  22   2.0000      -0.446553       -12.1513
  23   2.0000      -0.412780       -11.2323
  24   2.0000      -0.324321        -8.8252
  25   2.0000      -0.316635        -8.6161
  26   2.0000      -0.315763        -8.5923
  27   2.0000      -0.300152        -8.1675
  28   2.0000      -0.273933        -7.4541
  29   0.0000      -0.089561        -2.4371
  30   0.0000      -0.021085        -0.5738
  31   0.0000       0.055812         1.5187
  32   0.0000       0.064474         1.7544
  33   0.0000       0.090800         2.4708

MULLIKEN ATOMIC CHARGES
-----------------------
   0 C :    0.149274
   1 O :   -0.187598
   2 C :    0.111741
   3 C :    0.122750
   4 C :   -0.024503
   5 N :    0.250822
   6 O :   -0.252349
   7 O :   -0.245151
   8 H :    0.029157
   9 H :    0.032738
  10 H :    0.013119
Sum of atomic charges:    0.0000000

LOEWDIN ATOMIC CHARGES
----------------------
   0 C :    0.050906
   1 O :    0.025774
   2 C :    0.073311
   3 C :   -0.075096
   4 C :   -0.052907
   5 N :    0.279412
   6 O :   -0.212974
   7 O :   -0.206056
   8 H :    0.031071
   9 H :    0.039580
  10 H :    0.046980

  Mayer bond orders larger than 0.100000
B(  0-C ,  1-O ) :   1.1095 B(  0-C ,  4-C ) :   1.5405 B(  0-C ,  8-H ) :   0.9954
B(  1-O ,  2-C ) :   1.1895 B(  2-C ,  3-C ) :   1.4867 B(  2-C ,  9-H ) :   0.9993
B(  3-C ,  4-C ) :   1.2351 B(  3-C ,  5-N ) :   0.9081 B(  4-C , 10-H ) :   1.0105
B(  5-N ,  6-O ) :   1.5271 B(  5-N ,  7-O ) :   1.5249 B(  6-O ,  7-O ) :   0.2873

Dispersion correction           -0.016525289
FINAL SINGLE POINT ENERGY      -434.215296600710

DIPOLE MOMENT
-------------
                                X             Y             Z
Electronic contribution:      1.20887      -2.32040       0.14203
Nuclear contribution   :     -2.29185       3.40089      -0.16458
                        -----------------------------------------
Total Dipole Moment    :     -1.08299       1.08048      -0.02255
                        -----------------------------------------
Magnitude (a.u.)       :      1.52997
Magnitude (Debye)      :      3.88888

Rotational constants in cm-1:     0.181887     0.054977     0.042225
Rotational constants in MHz :  5452.843578  1648.156153  1265.866305

                             ****ORCA TERMINATED NORMALLY****
TOTAL RUN TIME: 0 days 0 hours 3 minutes 14 seconds 310 msec
