                         Program Version 4.2.0 -  RELEASE  -
|  1> # ORCA input file
|  2> # SCF done        -14.017147592734          0.000582289599
|  3> ! B3LYP/G D3BJ Opt RIJCOSX def2-SVP def2/J
|  4> * xyz 0 1
|  5>    C       -0.31002         1.11220         0.00145
|  6>    N       -1.10350         0.00976         0.00103
|  7>    C       -0.32644        -1.10433         0.00078
|  8>    C        0.98291        -0.71044         0.00025
|  9>    C        0.99336         0.69896         0.00083
| 10>    H       -0.72553         2.10081         0.00189
| 11>    H       -2.10957         0.01722         0.00095
| 12>    H       -0.75657        -2.08666         0.00068
| 13>    H        1.84108        -1.35287        -0.00047
| 14>    H        1.86096         1.32859         0.00065
| 15> *
| 16>
| 17>                          ****END OF INPUT****
 Total Charge           Charge          ....    0
 Multiplicity           Mult            ....    1
 Number of Electrons    NEL             ....   36
Dispersion correction           -0.013092420
FINAL SINGLE POINT ENERGY      -210.032976390043
Dispersion correction            ... done
Dispersion correction           -0.013116880
FINAL SINGLE POINT ENERGY      -210.034933430783
Dispersion correction            ... done
Dispersion correction           -0.013122808
FINAL SINGLE POINT ENERGY      -210.034967640229
Dispersion correction            ... done
Dispersion correction           -0.013124429
FINAL SINGLE POINT ENERGY      -210.034970807934
Dispersion correction            ... done
Dispersion correction           -0.013124659
FINAL SINGLE POINT ENERGY      -210.034969637978
Dispersion correction            ... done
                    ***********************HURRAY********************

CARTESIAN COORDINATES (ANGSTROEM)
---------------------------------
  C     -0.312714    1.128848    0.001295
  N     -1.107833    0.009790    0.001244
  C     -0.329394   -1.121048    0.000354
  C      0.994072   -0.719047    0.000493
  C      1.004695    0.707405    0.000603
  H     -0.746010    2.126504    0.001803
  H     -2.118951    0.017690    0.001610
  H     -0.777046   -2.112313    0.000017
  H      1.859768   -1.378001    0.000160
  H      1.880093    1.353411    0.000461

 Multiplicity           Mult            ....    1
 Number of Electrons    NEL             ....   36
 Basis Dimension        Dim             ....   95

ORBITAL ENERGIES
----------------

  NO   OCC          E(Eh)            E(eV)
   0   2.0000     -14.370423      -391.0391
   1   2.0000     -10.201139      -277.5871
   2   2.0000     -10.201134      -277.5870
   3   2.0000     -10.164668      -276.5947
   4   2.0000     -10.164432      -276.5883
   5   2.0000      -0.962613       -26.1940
   6   2.0000      -0.758779       -20.6474
   7   2.0000      -0.707673       -19.2568
   8   2.0000      -0.581974       -15.8363
   9   2.0000      -0.556827       -15.1520
  10   2.0000      -0.535452       -14.5704
  11   2.0000      -0.426401       -11.6030
  12   2.0000      -0.419789       -11.4231
  13   2.0000      -0.403866       -10.9897
  14   2.0000      -0.384345       -10.4586
  15   2.0000      -0.371488       -10.1087
  16   2.0000      -0.242016        -6.5856
  17   2.0000      -0.211119        -5.7448
  18   0.0000       0.038647         1.0516
  19   0.0000       0.049804         1.3552
  20   0.0000       0.081670         2.2224
  21   0.0000       0.104748         2.8503
  22   0.0000       0.114745         3.1224

MULLIKEN ATOMIC CHARGES
-----------------------
   0 C :    0.036512
   1 N :   -0.079063
   2 C :    0.036968
   3 C :   -0.027223
   4 C :   -0.026827
   5 H :   -0.010216
   6 H :    0.120891
   7 H :   -0.010211
   8 H :   -0.020304
   9 H :   -0.020526
Sum of atomic charges:   -0.0000000

LOEWDIN ATOMIC CHARGES
----------------------
   0 C :   -0.033851
   1 N :    0.079487
   2 C :   -0.033801
   3 C :   -0.085951
   4 C :   -0.085924
   5 H :    0.016117
   6 H :    0.085189
   7 H :    0.016121
   8 H :    0.021325
   9 H :    0.021289

  Mayer bond orders larger than 0.100000
B(  0-C ,  1-N ) :   1.2184 B(  0-C ,  2-C ) :   0.1035 B(  0-C ,  4-C ) :   1.4965
B(  0-C ,  5-H ) :   0.9883 B(  1-N ,  2-C ) :   1.2182 B(  1-N ,  6-H ) :   0.9460
B(  2-C ,  3-C ) :   1.4964 B(  2-C ,  7-H ) :   0.9883 B(  3-C ,  4-C ) :   1.3109
B(  3-C ,  8-H ) :   1.0045 B(  4-C ,  9-H ) :   1.0045

Dispersion correction           -0.013124216
FINAL SINGLE POINT ENERGY      -210.034969097340

DIPOLE MOMENT
-------------
                                X             Y             Z
Electronic contribution:     -0.81709       0.00596       0.00026
Nuclear contribution   :      0.02438       0.00001      -0.00001
                        -----------------------------------------
Total Dipole Moment    :     -0.79271       0.00597       0.00025
                        -----------------------------------------
Magnitude (a.u.)       :      0.79273
Magnitude (Debye)      :      2.01496

Rotational constants in cm-1:     0.304077     0.298920     0.150738
Rotational constants in MHz :  9116.008810  8961.410551  4519.024444

                             ****ORCA TERMINATED NORMALLY****
TOTAL RUN TIME: 0 days 0 hours 1 minutes 19 seconds 565 msec
