                         Program Version 4.2.0 -  RELEASE  -
|  1> # ORCA input file
|  2> # SCF done        -44.082375355117          0.000379299199
|  3> ! B3LYP/G D3BJ Opt RIJCOSX def2-SVP def2/J
|  4> * xyz 0 1
|  5>    C        3.12618        -0.59658        -0.07243
|  6>    S        1.93310        -1.85167        -0.03780
|  7>    C        2.60086         0.65812        -0.03579
|  8>    C        1.19280         0.63453         0.01016
|  9>    C        0.07275         1.57446         0.10268
| 10>    C        0.13392         2.92081         0.08292
| 11>    C       -1.09650         3.76744         0.28621
| 12>    N       -0.76434         5.13148         0.67654
| 13>    C        1.41903         3.65689        -0.18310
| 14>    N        2.30773         3.61456         0.97992
| 15>    C        0.69749        -0.66694         0.03129
| 16>    C       -0.71786        -0.61487         0.12941
| 17>    S       -2.03241        -1.71204         0.16381
| 18>    C       -1.11749         0.71980         0.18549
| 19>    C       -2.52254         0.83435         0.23256
| 20>    C       -3.13523        -0.38172         0.23652
| 21>    H        4.15970        -0.87841        -0.11450
| 22>    H        3.20105         1.54652        -0.00589
| 23>    H       -1.75149         3.26894         1.01638
| 24>    H       -1.63951         3.82399        -0.66559
| 25>    H       -0.37870         5.14189         1.61533
| 26>    H       -1.59989         5.70488         0.68233
| 27>    H        1.16103         4.68270        -0.48291
| 28>    H        1.94508         3.17109        -1.01076
| 29>    H        1.83778         4.00845         1.78811
| 30>    H        3.12939         4.18284         0.79987
| 31>    H       -3.08049         1.75219         0.25287
| 32>    H       -4.18641        -0.58808         0.27507
| 33> *
| 34>
| 35>                          ****END OF INPUT****
 Total Charge           Charge          ....    0
 Multiplicity           Mult            ....    1
 Number of Electrons    NEL             ....  130
Dispersion correction           -0.068280327
FINAL SINGLE POINT ENERGY     -1369.754155088817
Dispersion correction            ... done
Dispersion correction           -0.067833871
FINAL SINGLE POINT ENERGY     -1369.758378005753
Dispersion correction            ... done
Dispersion correction           -0.067836804
FINAL SINGLE POINT ENERGY     -1369.758786191046
Dispersion correction            ... done
FINAL SINGLE POINT ENERGY     -1369.759011072854
FINAL SINGLE POINT ENERGY     -1369.759504774774
FINAL SINGLE POINT ENERGY     -1369.760124052749
FINAL SINGLE POINT ENERGY     -1369.760830885647
FINAL SINGLE POINT ENERGY     -1369.761293251027
FINAL SINGLE POINT ENERGY     -1369.761900452579
FINAL SINGLE POINT ENERGY     -1369.762186050096
FINAL SINGLE POINT ENERGY     -1369.762360420753
FINAL SINGLE POINT ENERGY     -1369.762239723544
FINAL SINGLE POINT ENERGY     -1369.762286878099
FINAL SINGLE POINT ENERGY     -1369.762376286766
FINAL SINGLE POINT ENERGY     -1369.762601530668
FINAL SINGLE POINT ENERGY     -1369.762704841252
FINAL SINGLE POINT ENERGY     -1369.762743007557
Dispersion correction            ... done
Dispersion correction           -0.068257565
FINAL SINGLE POINT ENERGY     -1369.762754271898
Dispersion correction            ... done
Dispersion correction           -0.068260769
FINAL SINGLE POINT ENERGY     -1369.762761156419
Dispersion correction            ... done
                    ***********************HURRAY********************

CARTESIAN COORDINATES (ANGSTROEM)
---------------------------------
  C      3.148596   -0.610710    0.077445
  S      1.917838   -1.841198    0.210819
  C      2.625988    0.658289   -0.021797
  C      1.199391    0.648985   -0.019740
  C      0.072471    1.617090   -0.018927
  C      0.170755    2.961874   -0.173700
  C     -0.984768    3.900470    0.061587
  N     -0.771698    4.547859    1.365182
  C      1.493059    3.650240   -0.443234
  N      2.245452    3.867954    0.794725
  C      0.686943   -0.643044    0.119271
  C     -0.747832   -0.566756    0.226145
  S     -2.067957   -1.657063    0.386503
  C     -1.146519    0.774273    0.167488
  C     -2.567532    0.894542    0.255108
  C     -3.192359   -0.326071    0.377084
  H      4.196150   -0.906787    0.089241
  H      3.241555    1.554293   -0.039128
  H     -1.951477    3.381293   -0.036028
  H     -0.971052    4.690598   -0.707556
  H     -0.897444    3.858666    2.108151
  H     -1.458713    5.284785    1.525276
  H      1.267662    4.587141   -0.994457
  H      2.097807    3.031592   -1.125275
  H      1.634925    4.376320    1.437909
  H      3.044365    4.474966    0.604754
  H     -3.132939    1.824665    0.238777
  H     -4.257634   -0.528647    0.473076

 Multiplicity           Mult            ....    1
 Number of Electrons    NEL             ....  130
 Basis Dimension        Dim             ....  292

ORBITAL ENERGIES
----------------

  NO   OCC          E(Eh)            E(eV)
   0   2.0000     -88.875357     -2418.4214
   1   2.0000     -88.871881     -2418.3268
   2   2.0000     -14.323331      -389.7577
   3   2.0000     -14.297972      -389.0676
   4   2.0000     -10.220784      -278.1217
   5   2.0000     -10.212549      -277.8976
   6   2.0000     -10.209550      -277.8160
   7   2.0000     -10.208970      -277.8002
   8   2.0000     -10.208928      -277.7991
   9   2.0000     -10.203970      -277.6642
  10   2.0000     -10.203876      -277.6616
  11   2.0000     -10.202143      -277.6144
  12   2.0000     -10.197225      -277.4806
  13   2.0000     -10.190329      -277.2929
  14   2.0000     -10.187556      -277.2175
  15   2.0000     -10.184195      -277.1260
  16   2.0000      -7.969686      -216.8662
  17   2.0000      -7.966110      -216.7689
  18   2.0000      -5.937888      -161.5781
  19   2.0000      -5.934332      -161.4814
  20   2.0000      -5.933803      -161.4670
  21   2.0000      -5.931030      -161.3915
  22   2.0000      -5.930243      -161.3701
  23   2.0000      -5.927460      -161.2944
  24   2.0000      -0.902495       -24.5581
  25   2.0000      -0.890088       -24.2205
  26   2.0000      -0.863955       -23.5094
  27   2.0000      -0.861074       -23.4310
  28   2.0000      -0.806687       -21.9511
  29   2.0000      -0.761485       -20.7211
  30   2.0000      -0.733638       -19.9633
  31   2.0000      -0.724729       -19.7209
  32   2.0000      -0.675606       -18.3842
  33   2.0000      -0.661010       -17.9870
  34   2.0000      -0.649197       -17.6656
  35   2.0000      -0.590307       -16.0631
  36   2.0000      -0.572090       -15.5674
  37   2.0000      -0.535322       -14.5669
  38   2.0000      -0.530659       -14.4400
  39   2.0000      -0.520440       -14.1619
  40   2.0000      -0.496747       -13.5172
  41   2.0000      -0.489444       -13.3184
  42   2.0000      -0.464871       -12.6498
  43   2.0000      -0.460461       -12.5298
  44   2.0000      -0.453366       -12.3367
  45   2.0000      -0.438034       -11.9195
  46   2.0000      -0.420500       -11.4424
  47   2.0000      -0.415214       -11.2986
  48   2.0000      -0.411190       -11.1891
  49   2.0000      -0.402094       -10.9415
  50   2.0000      -0.390098       -10.6151
  51   2.0000      -0.385660       -10.4943
  52   2.0000      -0.365831        -9.9548
  53   2.0000      -0.364807        -9.9269
  54   2.0000      -0.362370        -9.8606
  55   2.0000      -0.348994        -9.4966
  56   2.0000      -0.345760        -9.4086
  57   2.0000      -0.331190        -9.0121
  58   2.0000      -0.310870        -8.4592
  59   2.0000      -0.270867        -7.3707
  60   2.0000      -0.256462        -6.9787
  61   2.0000      -0.251722        -6.8497
  62   2.0000      -0.229411        -6.2426
  63   2.0000      -0.223817        -6.0904
  64   2.0000      -0.193341        -5.2611
  65   0.0000      -0.065067        -1.7706
  66   0.0000      -0.005137        -0.1398
  67   0.0000       0.021488         0.5847
  68   0.0000       0.037778         1.0280
  69   0.0000       0.050788         1.3820

MULLIKEN ATOMIC CHARGES
-----------------------
   0 C :   -0.098583
   1 S :    0.124540
   2 C :    0.029764
   3 C :    0.013154
   4 C :    0.190670
   5 C :   -0.340777
   6 C :    0.206757
   7 N :   -0.232010
   8 C :    0.195224
   9 N :   -0.215939
  10 C :   -0.123895
  11 C :   -0.137356
  12 S :    0.130827
  13 C :    0.035340
  14 C :   -0.001549
  15 C :   -0.104796
  16 H :    0.022264
  17 H :   -0.009998
  18 H :   -0.023659
  19 H :   -0.007787
  20 H :    0.103857
  21 H :    0.094600
  22 H :   -0.027773
  23 H :   -0.000034
  24 H :    0.083442
  25 H :    0.084757
  26 H :   -0.014160
  27 H :    0.023118
Sum of atomic charges:   -0.0000000

LOEWDIN ATOMIC CHARGES
----------------------
   0 C :   -0.195364
   1 S :    0.424903
   2 C :   -0.047286
   3 C :   -0.055794
   4 C :   -0.012511
   5 C :   -0.007406
   6 C :    0.029893
   7 N :   -0.107324
   8 C :    0.028803
   9 N :   -0.121322
  10 C :   -0.201342
  11 C :   -0.195572
  12 S :    0.429625
  13 C :   -0.065383
  14 C :   -0.065486
  15 C :   -0.199153
  16 H :    0.022115
  17 H :    0.032111
  18 H :    0.004159
  19 H :    0.022549
  20 H :    0.059683
  21 H :    0.056610
  22 H :    0.001518
  23 H :    0.018420
  24 H :    0.043735
  25 H :    0.052163
  26 H :    0.025027
  27 H :    0.022630

  Mayer bond orders larger than 0.100000
B(  0-C ,  1-S ) :   1.1323 B(  0-C ,  2-C ) :   1.5279 B(  0-C , 16-H ) :   0.9640
B(  1-S , 10-C ) :   1.1014 B(  2-C ,  3-C ) :   1.2696 B(  2-C , 17-H ) :   0.9831
B(  3-C ,  4-C ) :   1.0391 B(  3-C , 10-C ) :   1.4569 B(  4-C ,  5-C ) :   1.7324
B(  4-C , 13-C ) :   1.0153 B(  5-C ,  6-C ) :   1.0719 B(  5-C ,  8-C ) :   1.0627
B(  6-C ,  7-N ) :   1.0867 B(  6-C , 18-H ) :   0.9229 B(  6-C , 19-H ) :   0.9030
B(  7-N , 20-H ) :   0.9621 B(  7-N , 21-H ) :   0.9637 B(  8-C ,  9-N ) :   1.0773
B(  8-C , 22-H ) :   0.9056 B(  8-C , 23-H ) :   0.9133 B(  9-N , 24-H ) :   0.9437
B(  9-N , 25-H ) :   0.9612 B( 10-C , 11-C ) :   1.2162 B( 11-C , 12-S ) :   1.1043
B( 11-C , 13-C ) :   1.4614 B( 12-S , 15-C ) :   1.1396 B( 13-C , 14-C ) :   1.2511
B( 14-C , 15-C ) :   1.5430 B( 14-C , 26-H ) :   0.9878 B( 15-C , 27-H ) :   0.9623

Dispersion correction           -0.068261378
FINAL SINGLE POINT ENERGY     -1369.762763947251

DIPOLE MOMENT
-------------
                                X             Y             Z
Electronic contribution:     -1.91125     -23.52508      -0.57489
Nuclear contribution   :      1.39808      24.66787       0.62659
                        -----------------------------------------
Total Dipole Moment    :     -0.51317       1.14279       0.05171
                        -----------------------------------------
Magnitude (a.u.)       :      1.25379
Magnitude (Debye)      :      3.18688

Rotational constants in cm-1:     0.018064     0.013290     0.007954
Rotational constants in MHz :   541.532272   398.419639   238.457442

                             ****ORCA TERMINATED NORMALLY****
TOTAL RUN TIME: 0 days 0 hours 53 minutes 42 seconds 906 msec
