                         Program Version 4.2.0 -  RELEASE  -
|  1> # ORCA input file
|  2> # SCF done        -37.933898028071          0.000305542410
|  3> ! B3LYP/G D3BJ Opt RIJCOSX def2-SVP def2/J
|  4> * xyz 0 1
|  5>    C        1.80827         0.49237         0.15267
|  6>    O        1.49553        -0.83078         0.19701
|  7>    C        0.15293        -0.88320         0.10786
|  8>    C       -0.93438        -1.79107         0.07846
|  9>    C       -0.89978        -3.26137         0.15401
| 10>    O       -1.88396        -3.97190         0.11794
| 11>    N        0.35464        -3.76125         0.26951
| 12>    C       -2.05546        -0.97135        -0.03859
| 13>    O       -1.71750         0.34955        -0.08081
| 14>    C       -0.37770         0.39649         0.00822
| 15>    C        0.71059         1.29633         0.03799
| 16>    C       -3.43565        -1.36308        -0.11270
| 17>    C       -4.44678        -0.50353        -0.21896
| 18>    H        2.84971         0.73713         0.21155
| 19>    H        1.16470        -3.16830         0.29938
| 20>    H        0.47230        -4.75828         0.32827
| 21>    H        0.69743         2.36415        -0.01584
| 22>    H       -3.58759        -2.43186        -0.07341
| 23>    H       -4.27968         0.56001        -0.25556
| 24>    H       -5.46648        -0.84108        -0.27022
| 25> *
| 26>
| 27>                          ****END OF INPUT****
 Total Charge           Charge          ....    0
 Multiplicity           Mult            ....    1
 Number of Electrons    NEL             ....   92
Dispersion correction           -0.036265522
FINAL SINGLE POINT ENERGY      -627.119500321385
Dispersion correction            ... done
Dispersion correction           -0.036223786
FINAL SINGLE POINT ENERGY      -627.122427974449
Dispersion correction            ... done
Dispersion correction           -0.036210619
FINAL SINGLE POINT ENERGY      -627.122695340384
Dispersion correction            ... done
FINAL SINGLE POINT ENERGY      -627.122744430556
Dispersion correction            ... done
Dispersion correction           -0.036200038
FINAL SINGLE POINT ENERGY      -627.122767681589
Dispersion correction            ... done
Dispersion correction           -0.036202141
FINAL SINGLE POINT ENERGY      -627.122771383906
Dispersion correction            ... done
                    ***********************HURRAY********************

CARTESIAN COORDINATES (ANGSTROEM)
---------------------------------
  C      1.827412    0.527684    0.139671
  O      1.504025   -0.814665    0.177338
  C      0.153514   -0.860303    0.104753
  C     -0.920773   -1.797055    0.081329
  C     -0.894222   -3.277664    0.156222
  O     -1.901713   -3.969089    0.130857
  N      0.362440   -3.802496    0.260286
  C     -2.057693   -0.992322   -0.024232
  O     -1.720257    0.346083   -0.055730
  C     -0.369766    0.403965    0.022918
  C      0.714066    1.329380    0.046884
  C     -3.448594   -1.363276   -0.110243
  C     -4.466745   -0.495244   -0.229056
  H      2.887256    0.759165    0.191214
  H      1.193368   -3.226463    0.302564
  H      0.452069   -4.807728    0.339985
  H      0.707114    2.415432   -0.000141
  H     -3.608738   -2.443057   -0.073488
  H     -4.296501    0.583887   -0.269356
  H     -5.495123   -0.857252   -0.294995

 Multiplicity           Mult            ....    1
 Number of Electrons    NEL             ....   92
 Basis Dimension        Dim             ....  217

ORBITAL ENERGIES
----------------

  NO   OCC          E(Eh)            E(eV)
   0   2.0000     -19.225118      -523.1421
   1   2.0000     -19.216068      -522.8958
   2   2.0000     -19.097447      -519.6679
   3   2.0000     -14.351647      -390.5282
   4   2.0000     -10.295789      -280.1627
   5   2.0000     -10.263979      -279.2971
   6   2.0000     -10.261113      -279.2191
   7   2.0000     -10.249547      -278.9043
   8   2.0000     -10.248519      -278.8764
   9   2.0000     -10.217208      -278.0244
  10   2.0000     -10.212129      -277.8862
  11   2.0000     -10.196160      -277.4516
  12   2.0000     -10.192115      -277.3415
  13   2.0000      -1.128957       -30.7205
  14   2.0000      -1.110444       -30.2167
  15   2.0000      -1.023854       -27.8605
  16   2.0000      -0.897211       -24.4144
  17   2.0000      -0.820609       -22.3299
  18   2.0000      -0.819773       -22.3072
  19   2.0000      -0.784365       -21.3437
  20   2.0000      -0.724899       -19.7255
  21   2.0000      -0.661407       -17.9978
  22   2.0000      -0.642315       -17.4783
  23   2.0000      -0.612543       -16.6681
  24   2.0000      -0.588464       -16.0129
  25   2.0000      -0.550715       -14.9857
  26   2.0000      -0.547952       -14.9105
  27   2.0000      -0.515174       -14.0186
  28   2.0000      -0.498180       -13.5562
  29   2.0000      -0.489101       -13.3091
  30   2.0000      -0.481021       -13.0892
  31   2.0000      -0.457130       -12.4391
  32   2.0000      -0.446664       -12.1543
  33   2.0000      -0.445817       -12.1313
  34   2.0000      -0.429973       -11.7001
  35   2.0000      -0.417060       -11.3488
  36   2.0000      -0.409460       -11.1420
  37   2.0000      -0.407404       -11.0860
  38   2.0000      -0.371624       -10.1124
  39   2.0000      -0.362024        -9.8512
  40   2.0000      -0.323077        -8.7914
  41   2.0000      -0.286763        -7.8032
  42   2.0000      -0.281451        -7.6587
  43   2.0000      -0.272490        -7.4148
  44   2.0000      -0.260209        -7.0806
  45   2.0000      -0.211625        -5.7586
  46   0.0000      -0.061359        -1.6697
  47   0.0000      -0.003526        -0.0959
  48   0.0000       0.040032         1.0893
  49   0.0000       0.055031         1.4975
  50   0.0000       0.072252         1.9661

MULLIKEN ATOMIC CHARGES
-----------------------
   0 C :    0.142977
   1 O :   -0.245860
   2 C :    0.093599
   3 C :   -0.034263
   4 C :    0.078688
   5 O :   -0.227330
   6 N :   -0.091422
   7 C :    0.074333
   8 O :   -0.224881
   9 C :    0.189912
  10 C :   -0.087485
  11 C :   -0.021568
  12 C :   -0.000817
  13 H :    0.016551
  14 H :    0.121147
  15 H :    0.125067
  16 H :    0.009231
  17 H :    0.027312
  18 H :    0.030242
  19 H :    0.024569
Sum of atomic charges:   -0.0000000

LOEWDIN ATOMIC CHARGES
----------------------
   0 C :    0.050496
   1 O :   -0.017655
   2 C :   -0.012189
   3 C :   -0.114817
   4 C :    0.068487
   5 O :   -0.221270
   6 N :   -0.004661
   7 C :    0.078507
   8 O :   -0.001378
   9 C :   -0.001249
  10 C :   -0.076939
  11 C :   -0.039399
  12 C :   -0.029401
  13 H :    0.026215
  14 H :    0.074527
  15 H :    0.080585
  16 H :    0.040872
  17 H :    0.044924
  18 H :    0.025706
  19 H :    0.028640

  Mayer bond orders larger than 0.100000
B(  0-C ,  1-O ) :   1.0801 B(  0-C , 10-C ) :   1.5340 B(  0-C , 13-H ) :   1.0046
B(  1-O ,  2-C ) :   1.1096 B(  2-C ,  3-C ) :   1.1547 B(  2-C ,  9-C ) :   1.4240
B(  3-C ,  4-C ) :   0.9132 B(  3-C ,  7-C ) :   1.4315 B(  4-C ,  5-O ) :   2.0985
B(  4-C ,  6-N ) :   1.2835 B(  6-N , 14-H ) :   0.9353 B(  6-N , 15-H ) :   0.9323
B(  7-C ,  8-O ) :   1.1102 B(  7-C , 11-C ) :   1.1910 B(  8-O ,  9-C ) :   1.1161
B(  9-C , 10-C ) :   1.1926 B( 10-C , 16-H ) :   1.0158 B( 11-C , 12-C ) :   1.8526
B( 11-C , 17-H ) :   0.9291 B( 12-C , 18-H ) :   0.9538 B( 12-C , 19-H ) :   0.9403

Dispersion correction           -0.036204028
FINAL SINGLE POINT ENERGY      -627.122765555869

DIPOLE MOMENT
-------------
                                X             Y             Z
Electronic contribution:      3.37434       0.02682       0.25550
Nuclear contribution   :     -2.05684       0.65950      -0.19002
                        -----------------------------------------
Total Dipole Moment    :      1.31751       0.68632       0.06548
                        -----------------------------------------
Magnitude (a.u.)       :      1.48699
Magnitude (Debye)      :      3.77963

Rotational constants in cm-1:     0.037031     0.026248     0.015361
Rotational constants in MHz :  1110.150111   786.884107   460.504292

                             ****ORCA TERMINATED NORMALLY****
TOTAL RUN TIME: 0 days 0 hours 9 minutes 3 seconds 263 msec
