                         Program Version 4.2.0 -  RELEASE  -
|  1> # ORCA input file
|  2> # SCF done        -22.167433405988          0.000611947966
|  3> ! B3LYP/G D3BJ Opt RIJCOSX def2-SVP def2/J
|  4> * xyz 0 1
|  5>    C       -1.22308        -1.25181         0.00154
|  6>    S       -2.43393        -0.02218         0.00490
|  7>    C       -1.28288         1.26022         0.00659
|  8>    C       -0.01369         0.76234         0.00431
|  9>    C        0.00513        -0.67265         0.00145
| 10>    O        1.27969        -1.13096        -0.00075
| 11>    C        2.06603        -0.01568         0.00070
| 12>    C        1.36842         1.14121         0.00361
| 13>    H       -1.50049        -2.28488        -0.00021
| 14>    H       -1.62230         2.27532         0.00897
| 15>    H        3.12469        -0.19316        -0.00065
| 16>    H        1.76790         2.13396         0.00515
| 17> *
| 18>
| 19>                          ****END OF INPUT****
 Total Charge           Charge          ....    0
 Multiplicity           Mult            ....    1
 Number of Electrons    NEL             ....   64
Dispersion correction           -0.023259824
FINAL SINGLE POINT ENERGY      -704.104009548842
Dispersion correction            ... done
Dispersion correction           -0.023265305
FINAL SINGLE POINT ENERGY      -704.105844854533
Dispersion correction            ... done
Dispersion correction           -0.023265884
FINAL SINGLE POINT ENERGY      -704.105965744807
Dispersion correction            ... done
FINAL SINGLE POINT ENERGY      -704.105999379369
Dispersion correction            ... done
Dispersion correction           -0.023259328
FINAL SINGLE POINT ENERGY      -704.105999497587
Dispersion correction            ... done
Dispersion correction           -0.023259162
FINAL SINGLE POINT ENERGY      -704.106003727253
Dispersion correction            ... done
                    ***********************HURRAY********************

CARTESIAN COORDINATES (ANGSTROEM)
---------------------------------
  C     -1.231427   -1.267081    0.001616
  S     -2.451327   -0.031669    0.005424
  C     -1.303893    1.269764    0.006397
  C     -0.017243    0.773445    0.004223
  C     -0.005011   -0.659558    0.001410
  O      1.273446   -1.129987   -0.000878
  C      2.079082   -0.014946    0.000676
  C      1.382191    1.152922    0.003666
  H     -1.493410   -2.321803   -0.000429
  H     -1.654340    2.299837    0.008786
  H      3.147524   -0.221863   -0.000680
  H      1.809899    2.152671    0.005399

 Multiplicity           Mult            ....    1
 Number of Electrons    NEL             ....   64
 Basis Dimension        Dim             ....  136

ORBITAL ENERGIES
----------------

  NO   OCC          E(Eh)            E(eV)
   0   2.0000     -88.878700     -2418.5124
   1   2.0000     -19.197231      -522.3832
   2   2.0000     -10.252684      -278.9897
   3   2.0000     -10.245200      -278.7861
   4   2.0000     -10.214702      -277.9562
   5   2.0000     -10.213215      -277.9157
   6   2.0000     -10.199614      -277.5456
   7   2.0000     -10.198459      -277.5142
   8   2.0000      -7.973014      -216.9568
   9   2.0000      -5.941217      -161.6687
  10   2.0000      -5.937006      -161.5541
  11   2.0000      -5.934495      -161.4858
  12   2.0000      -1.101125       -29.9631
  13   2.0000      -0.879619       -23.9357
  14   2.0000      -0.793807       -21.6006
  15   2.0000      -0.736406       -20.0386
  16   2.0000      -0.705210       -19.1898
  17   2.0000      -0.619672       -16.8621
  18   2.0000      -0.582627       -15.8541
  19   2.0000      -0.551004       -14.9936
  20   2.0000      -0.512825       -13.9547
  21   2.0000      -0.469309       -12.7706
  22   2.0000      -0.462217       -12.5776
  23   2.0000      -0.440360       -11.9828
  24   2.0000      -0.409666       -11.1476
  25   2.0000      -0.407731       -11.0949
  26   2.0000      -0.367389        -9.9972
  27   2.0000      -0.366498        -9.9729
  28   2.0000      -0.345403        -9.3989
  29   2.0000      -0.299223        -8.1423
  30   2.0000      -0.242633        -6.6024
  31   2.0000      -0.216641        -5.8951
  32   0.0000      -0.036050        -0.9810
  33   0.0000       0.033006         0.8981
  34   0.0000       0.038223         1.0401
  35   0.0000       0.080942         2.2026
  36   0.0000       0.087004         2.3675

MULLIKEN ATOMIC CHARGES
-----------------------
   0 C :   -0.184033
   1 S :    0.097516
   2 C :   -0.158643
   3 C :    0.095069
   4 C :    0.212432
   5 O :   -0.237691
   6 C :    0.154117
   7 C :   -0.033720
   8 H :    0.025614
   9 H :    0.022345
  10 H :    0.016321
  11 H :   -0.009328
Sum of atomic charges:   -0.0000000

LOEWDIN ATOMIC CHARGES
----------------------
   0 C :   -0.230638
   1 S :    0.443180
   2 C :   -0.208467
   3 C :   -0.080196
   4 C :    0.008913
   5 O :   -0.035137
   6 C :    0.065968
   7 C :   -0.077285
   8 H :    0.030033
   9 H :    0.024582
  10 H :    0.026138
  11 H :    0.032909

  Mayer bond orders larger than 0.100000
B(  0-C ,  1-S ) :   1.1451 B(  0-C ,  2-C ) :   0.1200 B(  0-C ,  4-C ) :   1.4922
B(  0-C ,  8-H ) :   0.9796 B(  1-S ,  2-C ) :   1.1733 B(  2-C ,  3-C ) :   1.4453
B(  2-C ,  9-H ) :   0.9720 B(  3-C ,  4-C ) :   1.2319 B(  3-C ,  7-C ) :   1.1037
B(  4-C ,  5-O ) :   1.0920 B(  5-O ,  6-C ) :   1.0779 B(  6-C ,  7-C ) :   1.6169
B(  6-C , 10-H ) :   0.9969 B(  7-C , 11-H ) :   1.0063

Dispersion correction           -0.023259681
FINAL SINGLE POINT ENERGY      -704.106004214718

DIPOLE MOMENT
-------------
                                X             Y             Z
Electronic contribution:     -2.93374      -1.53691       0.00009
Nuclear contribution   :      3.15878       1.83831       0.00038
                        -----------------------------------------
Total Dipole Moment    :      0.22504       0.30140       0.00047
                        -----------------------------------------
Magnitude (a.u.)       :      0.37615
Magnitude (Debye)      :      0.95609

Rotational constants in cm-1:     0.163769     0.050518     0.038609
Rotational constants in MHz :  4909.682411  1514.501229  1157.457590

                             ****ORCA TERMINATED NORMALLY****
TOTAL RUN TIME: 0 days 0 hours 3 minutes 14 seconds 100 msec
