                         Program Version 4.2.0 -  RELEASE  -
|  1> # ORCA input file
|  2> # SCF done        -32.618669874193          0.000797315562
|  3> ! B3LYP/G D3BJ Opt RIJCOSX def2-SVP def2/J
|  4> * xyz 0 1
|  5>    C       -1.18474        -1.25208         0.13987
|  6>    S       -2.40870        -0.04204         0.02787
|  7>    C       -1.28901         1.24816        -0.10081
|  8>    C       -0.00494         0.77161        -0.06363
|  9>    C        0.03658        -0.66071         0.07451
| 10>    O        1.31423        -1.09967         0.10880
| 11>    C        2.07878         0.02277        -0.00476
| 12>    N        3.48728        -0.13732         0.00270
| 13>    O        4.14477         0.88063        -0.10658
| 14>    O        3.93287        -1.25720         0.11616
| 15>    C        1.35782         1.17846        -0.11193
| 16>    H       -1.44583        -2.28415         0.24160
| 17>    H       -1.63535         2.25621        -0.19556
| 18>    H        1.76181         2.16475        -0.20993
| 19> *
| 20>
| 21>                          ****END OF INPUT****
 Total Charge           Charge          ....    0
 Multiplicity           Mult            ....    1
 Number of Electrons    NEL             ....   86
Dispersion correction           -0.028398194
FINAL SINGLE POINT ENERGY      -908.447441026147
Dispersion correction            ... done
Dispersion correction           -0.028357843
FINAL SINGLE POINT ENERGY      -908.449365422165
Dispersion correction            ... done
Dispersion correction           -0.028340277
FINAL SINGLE POINT ENERGY      -908.449504656455
Dispersion correction            ... done
FINAL SINGLE POINT ENERGY      -908.449169402139
FINAL SINGLE POINT ENERGY      -908.449590083817
Dispersion correction            ... done
Dispersion correction           -0.028331011
FINAL SINGLE POINT ENERGY      -908.449553957676
Dispersion correction            ... done
Dispersion correction           -0.028325434
FINAL SINGLE POINT ENERGY      -908.449616490948
Dispersion correction            ... done
                    ***********************HURRAY********************

CARTESIAN COORDINATES (ANGSTROEM)
---------------------------------
  C     -1.188738   -1.270261    0.130991
  S     -2.425169   -0.058046    0.022168
  C     -1.311788    1.257057   -0.096099
  C     -0.013507    0.784827   -0.056522
  C      0.026159   -0.643758    0.077881
  O      1.315606   -1.089385    0.119256
  C      2.075475    0.035038    0.001644
  N      3.506389   -0.147378    0.000267
  O      4.176085    0.867625   -0.142289
  O      3.929154   -1.281581    0.138383
  C      1.367848    1.196076   -0.104831
  H     -1.436336   -2.323510    0.233302
  H     -1.677163    2.276960   -0.195838
  H      1.801556    2.185755   -0.210003

 Multiplicity           Mult            ....    1
 Number of Electrons    NEL             ....   86
 Basis Dimension        Dim             ....  173

ORBITAL ENERGIES
----------------

  NO   OCC          E(Eh)            E(eV)
   0   2.0000     -88.908002     -2419.3097
   1   2.0000     -19.231699      -523.3211
   2   2.0000     -19.170038      -521.6432
   3   2.0000     -19.167862      -521.5840
   4   2.0000     -14.573358      -396.5612
   5   2.0000     -10.311863      -280.6001
   6   2.0000     -10.276533      -279.6387
   7   2.0000     -10.244019      -278.7539
   8   2.0000     -10.239707      -278.6366
   9   2.0000     -10.239204      -278.6229
  10   2.0000     -10.230349      -278.3820
  11   2.0000      -8.002290      -217.7534
  12   2.0000      -5.970339      -162.4612
  13   2.0000      -5.966104      -162.3459
  14   2.0000      -5.964024      -162.2893
  15   2.0000      -1.233528       -33.5660
  16   2.0000      -1.140321       -31.0297
  17   2.0000      -1.058253       -28.7965
  18   2.0000      -0.910369       -24.7724
  19   2.0000      -0.845285       -23.0014
  20   2.0000      -0.802017       -21.8240
  21   2.0000      -0.746617       -20.3165
  22   2.0000      -0.706907       -19.2359
  23   2.0000      -0.630470       -17.1560
  24   2.0000      -0.606229       -16.4963
  25   2.0000      -0.570479       -15.5235
  26   2.0000      -0.557754       -15.1773
  27   2.0000      -0.550684       -14.9849
  28   2.0000      -0.529270       -14.4022
  29   2.0000      -0.512990       -13.9592
  30   2.0000      -0.488596       -13.2954
  31   2.0000      -0.482075       -13.1179
  32   2.0000      -0.443533       -12.0691
  33   2.0000      -0.437020       -11.8919
  34   2.0000      -0.397493       -10.8163
  35   2.0000      -0.396438       -10.7876
  36   2.0000      -0.377832       -10.2813
  37   2.0000      -0.332648        -9.0518
  38   2.0000      -0.319323        -8.6892
  39   2.0000      -0.317578        -8.6417
  40   2.0000      -0.303744        -8.2653
  41   2.0000      -0.273039        -7.4298
  42   2.0000      -0.246922        -6.7191
  43   0.0000      -0.106923        -2.9095
  44   0.0000      -0.038559        -1.0493
  45   0.0000       0.014205         0.3865
  46   0.0000       0.024594         0.6692
  47   0.0000       0.060383         1.6431

MULLIKEN ATOMIC CHARGES
-----------------------
   0 C :   -0.186210
   1 S :    0.133169
   2 C :   -0.136709
   3 C :    0.095519
   4 C :    0.237129
   5 O :   -0.199278
   6 C :    0.254434
   7 N :    0.253153
   8 O :   -0.252128
   9 O :   -0.229414
  10 C :   -0.061460
  11 H :    0.040805
  12 H :    0.037620
  13 H :    0.013370
Sum of atomic charges:   -0.0000000

LOEWDIN ATOMIC CHARGES
----------------------
   0 C :   -0.219536
   1 S :    0.481205
   2 C :   -0.191151
   3 C :   -0.079731
   4 C :    0.021465
   5 O :   -0.008758
   6 C :    0.035199
   7 N :    0.263999
   8 O :   -0.211975
   9 O :   -0.189572
  10 C :   -0.019395
  11 H :    0.037490
  12 H :    0.032101
  13 H :    0.048658

  Mayer bond orders larger than 0.100000
B(  0-C ,  1-S ) :   1.1504 B(  0-C ,  2-C ) :   0.1177 B(  0-C ,  4-C ) :   1.4931
B(  0-C , 11-H ) :   0.9784 B(  1-S ,  2-C ) :   1.2053 B(  2-C ,  3-C ) :   1.4177
B(  2-C , 12-H ) :   0.9718 B(  3-C ,  4-C ) :   1.2210 B(  3-C , 10-C ) :   1.0717
B(  4-C ,  5-O ) :   1.0740 B(  5-O ,  6-C ) :   1.1240 B(  6-C ,  7-N ) :   0.8976
B(  6-C , 10-C ) :   1.5566 B(  7-N ,  8-O ) :   1.5125 B(  7-N ,  9-O ) :   1.5024
B(  8-O ,  9-O ) :   0.2924 B( 10-C , 13-H ) :   1.0212

Dispersion correction           -0.028325334
FINAL SINGLE POINT ENERGY      -908.449617460419

DIPOLE MOMENT
-------------
                                X             Y             Z
Electronic contribution:      1.37074      -1.59424       0.15129
Nuclear contribution   :     -3.21868       2.14480      -0.19135
                        -----------------------------------------
Total Dipole Moment    :     -1.84794       0.55056      -0.04006
                        -----------------------------------------
Magnitude (a.u.)       :      1.92863
Magnitude (Debye)      :      4.90219

Rotational constants in cm-1:     0.118970     0.018094     0.015707
Rotational constants in MHz :  3566.644121   542.456251   470.884833

                             ****ORCA TERMINATED NORMALLY****
TOTAL RUN TIME: 0 days 0 hours 6 minutes 31 seconds 121 msec
