                         Program Version 4.2.0 -  RELEASE  -
|  1> # ORCA input file
|  2> # SCF done        -39.128238051346          0.000324643269
|  3> ! B3LYP/G D3BJ Opt RIJCOSX def2-SVP def2/J
|  4> * xyz 0 1
|  5>    C        3.39469         0.21544         0.00407
|  6>    C        3.05229        -1.13293         0.06360
|  7>    C        1.73150        -1.53641         0.06777
|  8>    C        0.74465        -0.56085         0.01114
|  9>    C        1.10641         0.80061        -0.04775
| 10>    C        2.42891         1.20496        -0.05254
| 11>    O        0.01271         1.60998        -0.09654
| 12>    C       -1.07267         0.78614        -0.07091
| 13>    C       -0.69238        -0.56985        -0.00442
| 14>    C       -1.67489        -1.55109         0.03223
| 15>    C       -2.99506        -1.15821         0.00233
| 16>    C       -3.37600         0.19210        -0.06741
| 17>    C       -2.39344         1.18157        -0.10245
| 18>    C       -4.79871         0.50707        -0.09866
| 19>    C       -5.34485         1.70508        -0.27272
| 20>    H        4.43724         0.49600         0.00213
| 21>    H        3.83673        -1.87369         0.10716
| 22>    H        1.46680        -2.58167         0.11376
| 23>    H        2.68834         2.25038        -0.09858
| 24>    H       -1.40629        -2.59519         0.08430
| 25>    H       -3.76975        -1.91114         0.03000
| 26>    H       -2.64372         2.22826        -0.14679
| 27>    H       -5.45014        -0.34937         0.02615
| 28>    H       -4.76166         2.59802        -0.41543
| 29>    H       -6.41332         1.83535        -0.28312
| 30> *
| 31>
| 32>                          ****END OF INPUT****
 Total Charge           Charge          ....    0
 Multiplicity           Mult            ....    1
 Number of Electrons    NEL             ....  102
Dispersion correction           -0.053233526
FINAL SINGLE POINT ENERGY      -614.339374931720
Dispersion correction            ... done
Dispersion correction           -0.053036192
FINAL SINGLE POINT ENERGY      -614.342887986200
Dispersion correction            ... done
Dispersion correction           -0.052997717
FINAL SINGLE POINT ENERGY      -614.343001354301
Dispersion correction            ... done
FINAL SINGLE POINT ENERGY      -614.343027729703
Dispersion correction            ... done
Dispersion correction           -0.052975705
FINAL SINGLE POINT ENERGY      -614.343032109598
Dispersion correction            ... done
Dispersion correction           -0.052979432
FINAL SINGLE POINT ENERGY      -614.343034189303
Dispersion correction            ... done
                    ***********************HURRAY********************

CARTESIAN COORDINATES (ANGSTROEM)
---------------------------------
  C      3.428757    0.235853    0.003318
  C      3.100334   -1.129454    0.085318
  C      1.769568   -1.551469    0.094898
  C      0.759791   -0.584217    0.019065
  C      1.119831    0.779850   -0.064256
  C      2.438166    1.218947   -0.071679
  O      0.013188    1.584228   -0.133791
  C     -1.079369    0.757534   -0.096755
  C     -0.691390   -0.599068   -0.001832
  C     -1.689448   -1.578273    0.044383
  C     -3.023007   -1.175815   -0.006114
  C     -3.399797    0.186152   -0.100642
  C     -2.397823    1.174419   -0.146364
  C     -4.830622    0.522924   -0.147683
  C     -5.375624    1.746970   -0.202972
  H      4.478715    0.538541   -0.000985
  H      3.901946   -1.868509    0.145605
  H      1.518785   -2.612781    0.163343
  H      2.678075    2.281168   -0.137077
  H     -1.430052   -2.636798    0.121237
  H     -3.811258   -1.931520    0.030805
  H     -2.635449    2.235349   -0.224258
  H     -5.502902   -0.342414   -0.132464
  H     -4.773568    2.659155   -0.218170
  H     -6.459457    1.879786   -0.235609

 Multiplicity           Mult            ....    1
 Number of Electrons    NEL             ....  102
 Basis Dimension        Dim             ....  260

ORBITAL ENERGIES
----------------

  NO   OCC          E(Eh)            E(eV)
   0   2.0000     -19.197023      -522.3776
   1   2.0000     -10.251510      -278.9578
   2   2.0000     -10.251424      -278.9554
   3   2.0000     -10.206365      -277.7293
   4   2.0000     -10.202708      -277.6298
   5   2.0000     -10.202364      -277.6204
   6   2.0000     -10.201851      -277.6065
   7   2.0000     -10.201703      -277.6025
   8   2.0000     -10.200445      -277.5682
   9   2.0000     -10.200041      -277.5572
  10   2.0000     -10.198686      -277.5204
  11   2.0000     -10.198595      -277.5179
  12   2.0000     -10.195589      -277.4361
  13   2.0000     -10.195398      -277.4309
  14   2.0000     -10.190525      -277.2983
  15   2.0000      -1.103121       -30.0175
  16   2.0000      -0.863066       -23.4852
  17   2.0000      -0.856094       -23.2955
  18   2.0000      -0.799949       -21.7677
  19   2.0000      -0.762968       -20.7614
  20   2.0000      -0.759618       -20.6703
  21   2.0000      -0.734849       -19.9963
  22   2.0000      -0.713437       -19.4136
  23   2.0000      -0.654850       -17.8194
  24   2.0000      -0.627007       -17.0617
  25   2.0000      -0.602505       -16.3950
  26   2.0000      -0.589084       -16.0298
  27   2.0000      -0.563102       -15.3228
  28   2.0000      -0.525757       -14.3066
  29   2.0000      -0.523422       -14.2430
  30   2.0000      -0.502423       -13.6716
  31   2.0000      -0.469578       -12.7779
  32   2.0000      -0.469119       -12.7654
  33   2.0000      -0.458365       -12.4728
  34   2.0000      -0.455650       -12.3989
  35   2.0000      -0.444315       -12.0904
  36   2.0000      -0.440964       -11.9992
  37   2.0000      -0.423910       -11.5352
  38   2.0000      -0.400766       -10.9054
  39   2.0000      -0.393762       -10.7148
  40   2.0000      -0.377354       -10.2683
  41   2.0000      -0.376930       -10.2568
  42   2.0000      -0.362200        -9.8560
  43   2.0000      -0.358714        -9.7611
  44   2.0000      -0.355393        -9.6707
  45   2.0000      -0.343570        -9.3490
  46   2.0000      -0.317732        -8.6459
  47   2.0000      -0.271124        -7.3777
  48   2.0000      -0.269012        -7.3202
  49   2.0000      -0.235604        -6.4111
  50   2.0000      -0.218960        -5.9582
  51   0.0000      -0.060073        -1.6347
  52   0.0000      -0.010486        -0.2853
  53   0.0000      -0.007790        -0.2120
  54   0.0000       0.006749         0.1837
  55   0.0000       0.060235         1.6391

MULLIKEN ATOMIC CHARGES
-----------------------
   0 C :    0.016010
   1 C :    0.023120
   2 C :   -0.053040
   3 C :    0.076428
   4 C :    0.186981
   5 C :   -0.055682
   6 O :   -0.237460
   7 C :    0.199203
   8 C :    0.074559
   9 C :   -0.049051
  10 C :   -0.020608
  11 C :    0.093339
  12 C :   -0.099362
  13 C :   -0.001613
  14 C :   -0.023922
  15 H :   -0.010987
  16 H :   -0.013774
  17 H :   -0.025076
  18 H :   -0.019806
  19 H :   -0.026685
  20 H :   -0.025308
  21 H :   -0.029808
  22 H :   -0.016641
  23 H :    0.013272
  24 H :    0.025910
Sum of atomic charges:    0.0000000

LOEWDIN ATOMIC CHARGES
----------------------
   0 C :   -0.018133
   1 C :   -0.037448
   2 C :   -0.016452
   3 C :   -0.046168
   4 C :    0.060299
   5 C :   -0.044415
   6 O :   -0.031429
   7 C :    0.061516
   8 C :   -0.044597
   9 C :   -0.016244
  10 C :   -0.029359
  11 C :   -0.021240
  12 C :   -0.034097
  13 C :   -0.020865
  14 C :   -0.046537
  15 H :    0.028947
  16 H :    0.028366
  17 H :    0.028599
  18 H :    0.034985
  19 H :    0.029195
  20 H :    0.026290
  21 H :    0.033346
  22 H :    0.027818
  23 H :    0.020085
  24 H :    0.027535

  Mayer bond orders larger than 0.100000
B(  0-C ,  1-C ) :   1.3583 B(  0-C ,  5-C ) :   1.3609 B(  0-C , 15-H ) :   0.9843
B(  1-C ,  2-C ) :   1.3985 B(  1-C , 16-H ) :   0.9813 B(  2-C ,  3-C ) :   1.3242
B(  2-C , 17-H ) :   0.9931 B(  3-C ,  4-C ) :   1.2770 B(  3-C ,  8-C ) :   1.0651
B(  4-C ,  5-C ) :   1.3600 B(  4-C ,  6-O ) :   1.0772 B(  5-C , 18-H ) :   1.0019
B(  6-O ,  7-C ) :   1.0820 B(  7-C ,  8-C ) :   1.2671 B(  7-C , 12-C ) :   1.3721
B(  8-C ,  9-C ) :   1.3164 B(  9-C , 10-C ) :   1.3932 B(  9-C , 19-H ) :   0.9932
B( 10-C , 11-C ) :   1.3207 B( 10-C , 20-H ) :   0.9852 B( 11-C , 12-C ) :   1.3013
B( 11-C , 13-C ) :   1.0862 B( 12-C , 21-H ) :   1.0003 B( 13-C , 14-C ) :   1.9224
B( 13-C , 22-H ) :   0.9619 B( 14-C , 23-H ) :   0.9442 B( 14-C , 24-H ) :   0.9472

Dispersion correction           -0.052982060
FINAL SINGLE POINT ENERGY      -614.343035074960

DIPOLE MOMENT
-------------
                                X             Y             Z
Electronic contribution:      5.04956       0.74238       0.00942
Nuclear contribution   :     -4.97875      -1.02564       0.01151
                        -----------------------------------------
Total Dipole Moment    :      0.07081      -0.28327       0.02094
                        -----------------------------------------
Magnitude (a.u.)       :      0.29273
Magnitude (Debye)      :      0.74407

Rotational constants in cm-1:     0.066800     0.011384     0.009726
Rotational constants in MHz :  2002.615145   341.276664   291.589842

                             ****ORCA TERMINATED NORMALLY****
TOTAL RUN TIME: 0 days 0 hours 12 minutes 15 seconds 806 msec
