                         Program Version 4.2.0 -  RELEASE  -
|  1> # ORCA input file
|  2> # SCF done        -22.332689163000          0.000444823648
|  3> ! B3LYP/G D3BJ Opt RIJCOSX def2-SVP def2/J
|  4> * xyz 0 1
|  5>    C        0.12261         1.32857         0.08575
|  6>    S       -0.91371         0.04116        -0.39321
|  7>    C        0.40970        -1.08515        -0.31396
|  8>    C        1.56170        -0.47369         0.08467
|  9>    C        1.39237         0.90921         0.30924
| 10>    S        0.23754        -2.80403        -0.60757
| 11>    C       -1.16784        -2.85964        -1.66780
| 12>    C       -1.76147        -3.98981        -2.00920
| 13>    H       -0.28301         2.31741         0.16082
| 14>    H        2.49184        -0.99836         0.20164
| 15>    H        2.18944         1.56227         0.61506
| 16>    H       -1.48820        -1.89228        -2.02108
| 17>    H       -1.42183        -4.94279        -1.64268
| 18>    H       -2.60540        -3.99216        -2.67580
| 19> *
| 20>
| 21>                          ****END OF INPUT****
 Total Charge           Charge          ....    0
 Multiplicity           Mult            ....    1
 Number of Electrons    NEL             ....   74
Dispersion correction           -0.030229905
FINAL SINGLE POINT ENERGY     -1028.226758333985
Dispersion correction            ... done
Dispersion correction           -0.029915984
FINAL SINGLE POINT ENERGY     -1028.230335782291
Dispersion correction            ... done
Dispersion correction           -0.029874057
FINAL SINGLE POINT ENERGY     -1028.231207981575
Dispersion correction            ... done
FINAL SINGLE POINT ENERGY     -1028.231448275340
FINAL SINGLE POINT ENERGY     -1028.231380986520
FINAL SINGLE POINT ENERGY     -1028.231561530720
FINAL SINGLE POINT ENERGY     -1028.231557240965
Dispersion correction            ... done
Dispersion correction           -0.029876584
FINAL SINGLE POINT ENERGY     -1028.231563831758
Dispersion correction            ... done
Dispersion correction           -0.029872751
FINAL SINGLE POINT ENERGY     -1028.231566927823
Dispersion correction            ... done
                    ***********************HURRAY********************

CARTESIAN COORDINATES (ANGSTROEM)
---------------------------------
  C      0.032053    1.296542    0.272537
  S     -1.019389   -0.063368    0.084226
  C      0.336866   -1.141043   -0.142585
  C      1.531388   -0.459861   -0.047269
  C      1.354430    0.934297    0.196322
  S      0.124244   -2.875403   -0.351708
  C     -0.926609   -2.922327   -1.779956
  C     -1.818332   -3.896667   -1.987715
  H     -0.383331    2.292401    0.422937
  H      2.498499   -0.950455   -0.162996
  H      2.176670    1.644319    0.295695
  H     -0.758437   -2.117961   -2.504171
  H     -1.997903   -4.683413   -1.249160
  H     -2.386409   -3.936351   -2.920277

 Multiplicity           Mult            ....    1
 Number of Electrons    NEL             ....   74
 Basis Dimension        Dim             ....  150

ORBITAL ENERGIES
----------------

  NO   OCC          E(Eh)            E(eV)
   0   2.0000     -88.878906     -2418.5180
   1   2.0000     -88.860386     -2418.0140
   2   2.0000     -10.234804      -278.5032
   3   2.0000     -10.220231      -278.1066
   4   2.0000     -10.218150      -278.0500
   5   2.0000     -10.201106      -277.5862
   6   2.0000     -10.199931      -277.5542
   7   2.0000     -10.194892      -277.4171
   8   2.0000      -7.973998      -216.9835
   9   2.0000      -7.954969      -216.4657
  10   2.0000      -5.942130      -161.6936
  11   2.0000      -5.937973      -161.5805
  12   2.0000      -5.935310      -161.5080
  13   2.0000      -5.924135      -161.2039
  14   2.0000      -5.920324      -161.1002
  15   2.0000      -5.913891      -160.9251
  16   2.0000      -0.886962       -24.1355
  17   2.0000      -0.814429       -22.1618
  18   2.0000      -0.745102       -20.2752
  19   2.0000      -0.738058       -20.0836
  20   2.0000      -0.682387       -18.5687
  21   2.0000      -0.574631       -15.6365
  22   2.0000      -0.558096       -15.1866
  23   2.0000      -0.537249       -14.6193
  24   2.0000      -0.511547       -13.9199
  25   2.0000      -0.462899       -12.5961
  26   2.0000      -0.435152       -11.8411
  27   2.0000      -0.410705       -11.1758
  28   2.0000      -0.406778       -11.0690
  29   2.0000      -0.388151       -10.5621
  30   2.0000      -0.384708       -10.4684
  31   2.0000      -0.354612        -9.6495
  32   2.0000      -0.338015        -9.1979
  33   2.0000      -0.314614        -8.5611
  34   2.0000      -0.261557        -7.1173
  35   2.0000      -0.259433        -7.0595
  36   2.0000      -0.217578        -5.9206
  37   0.0000      -0.032762        -0.8915
  38   0.0000      -0.009329        -0.2539
  39   0.0000       0.037352         1.0164
  40   0.0000       0.041656         1.1335
  41   0.0000       0.060463         1.6453

MULLIKEN ATOMIC CHARGES
-----------------------
   0 C :   -0.091440
   1 S :    0.133975
   2 C :   -0.218629
   3 C :    0.063078
   4 C :    0.030552
   5 S :    0.064821
   6 C :   -0.111506
   7 C :   -0.012355
   8 H :    0.033494
   9 H :   -0.007679
  10 H :   -0.000499
  11 H :    0.050197
  12 H :    0.030800
  13 H :    0.035191
Sum of atomic charges:   -0.0000000

LOEWDIN ATOMIC CHARGES
----------------------
   0 C :   -0.188436
   1 S :    0.422999
   2 C :   -0.344016
   3 C :   -0.074142
   4 C :   -0.067091
   5 S :    0.323061
   6 C :   -0.165130
   7 C :   -0.078895
   8 H :    0.026178
   9 H :    0.031014
  10 H :    0.031557
  11 H :    0.025626
  12 H :    0.025967
  13 H :    0.031310

  Mayer bond orders larger than 0.100000
B(  0-C ,  1-S ) :   1.1712 B(  0-C ,  4-C ) :   1.5606 B(  0-C ,  8-H ) :   0.9695
B(  1-S ,  2-C ) :   1.1218 B(  2-C ,  3-C ) :   1.5452 B(  2-C ,  5-S ) :   1.0238
B(  3-C ,  4-C ) :   1.2652 B(  3-C ,  9-H ) :   0.9935 B(  4-C , 10-H ) :   0.9893
B(  5-S ,  6-C ) :   1.0250 B(  6-C ,  7-C ) :   1.9584 B(  6-C , 11-H ) :   0.9418
B(  7-C , 12-H ) :   0.9552 B(  7-C , 13-H ) :   0.9526

Dispersion correction           -0.029874231
FINAL SINGLE POINT ENERGY     -1028.231567303956

DIPOLE MOMENT
-------------
                                X             Y             Z
Electronic contribution:     -0.11141       0.70819       3.29462
Nuclear contribution   :      0.14545      -0.27904      -3.51328
                        -----------------------------------------
Total Dipole Moment    :      0.03404       0.42915      -0.21866
                        -----------------------------------------
Magnitude (a.u.)       :      0.48285
Magnitude (Debye)      :      1.22731

Rotational constants in cm-1:     0.116581     0.030688     0.026080
Rotational constants in MHz :  3495.005679   919.992992   781.849520

                             ****ORCA TERMINATED NORMALLY****
TOTAL RUN TIME: 0 days 0 hours 5 minutes 36 seconds 861 msec
