                         Program Version 4.2.0 -  RELEASE  -
|  1> # ORCA input file
|  2> # SCF done        -30.245884140468          0.000360439107
|  3> ! B3LYP/G D3BJ Opt RIJCOSX def2-SVP def2/J
|  4> * xyz 0 1
|  5>    N       -0.73931         1.21508         0.43751
|  6>    C        0.05913         0.74167        -0.68268
|  7>    C        1.54071         0.97875        -0.43140
|  8>    S        2.22472        -0.52846         0.35791
|  9>    C        0.59939        -1.31957         0.50271
| 10>    C       -0.22228        -0.76595        -0.66365
| 11>    N       -1.64311        -0.90186        -0.49219
| 12>    S       -2.31655         0.51148         0.25869
| 13>    C       -2.22859        -2.13373        -0.29887
| 14>    C       -3.42289        -2.32977         0.24351
| 15>    H       -0.83115         2.22504         0.46643
| 16>    H       -0.25048         1.18002        -1.64511
| 17>    H        1.70049         1.82362         0.23694
| 18>    H        2.08496         1.13949        -1.36035
| 19>    H        0.14622        -1.03793         1.45436
| 20>    H        0.73252        -2.39766         0.45920
| 21>    H        0.08393        -1.23939        -1.60389
| 22>    H       -1.64375        -2.94716        -0.70717
| 23>    H       -3.99331        -1.51228         0.64950
| 24>    H       -3.85516        -3.31039         0.29331
| 25> *
| 26>
| 27>                          ****END OF INPUT****
 Total Charge           Charge          ....    0
 Multiplicity           Mult            ....    1
 Number of Electrons    NEL             ....   92
Dispersion correction           -0.045318560
FINAL SINGLE POINT ENERGY     -1140.031653775764
Dispersion correction            ... done
Dispersion correction           -0.044804988
FINAL SINGLE POINT ENERGY     -1140.034865218661
Dispersion correction            ... done
Dispersion correction           -0.044687773
FINAL SINGLE POINT ENERGY     -1140.035309878900
Dispersion correction            ... done
FINAL SINGLE POINT ENERGY     -1140.035440405105
FINAL SINGLE POINT ENERGY     -1140.035477648152
FINAL SINGLE POINT ENERGY     -1140.035502082205
FINAL SINGLE POINT ENERGY     -1140.035512673577
Dispersion correction            ... done
Dispersion correction           -0.044699664
FINAL SINGLE POINT ENERGY     -1140.035519215986
Dispersion correction            ... done
Dispersion correction           -0.044693788
FINAL SINGLE POINT ENERGY     -1140.035521964026
Dispersion correction            ... done
                    ***********************HURRAY********************

CARTESIAN COORDINATES (ANGSTROEM)
---------------------------------
  N     -0.770356    1.229321    0.412869
  C      0.083510    0.751000   -0.687596
  C      1.564592    0.978755   -0.369773
  S      2.251927   -0.597371    0.314578
  C      0.597632   -1.353583    0.463802
  C     -0.216025   -0.758824   -0.697068
  N     -1.659371   -0.884516   -0.544833
  S     -2.381439    0.595373    0.050930
  C     -2.248457   -2.109981   -0.278876
  C     -3.422090   -2.346044    0.331110
  H     -0.842765    2.249178    0.403388
  H     -0.194486    1.198041   -1.661803
  H      1.678937    1.791778    0.362653
  H      2.132905    1.243267   -1.272192
  H      0.125773   -1.090569    1.420924
  H      0.700050   -2.445344    0.396141
  H      0.111308   -1.207410   -1.650583
  H     -1.661125   -2.941279   -0.685251
  H     -4.034215   -1.542457    0.745066
  H     -3.790816   -3.368335    0.421276

 Multiplicity           Mult            ....    1
 Number of Electrons    NEL             ....   92
 Basis Dimension        Dim             ....  198

ORBITAL ENERGIES
----------------

  NO   OCC          E(Eh)            E(eV)
   0   2.0000     -88.890400     -2418.8308
   1   2.0000     -88.833138     -2417.2726
   2   2.0000     -14.363176      -390.8419
   3   2.0000     -14.355496      -390.6329
   4   2.0000     -10.245426      -278.7922
   5   2.0000     -10.244956      -278.7794
   6   2.0000     -10.224267      -278.2165
   7   2.0000     -10.222522      -278.1690
   8   2.0000     -10.213324      -277.9187
   9   2.0000     -10.163443      -276.5613
  10   2.0000      -7.981152      -217.1782
  11   2.0000      -7.928525      -215.7461
  12   2.0000      -5.952459      -161.9747
  13   2.0000      -5.948039      -161.8544
  14   2.0000      -5.936697      -161.5457
  15   2.0000      -5.898228      -160.4989
  16   2.0000      -5.894207      -160.3895
  17   2.0000      -5.886439      -160.1781
  18   2.0000      -0.979882       -26.6640
  19   2.0000      -0.898560       -24.4511
  20   2.0000      -0.836427       -22.7603
  21   2.0000      -0.753373       -20.5003
  22   2.0000      -0.731851       -19.9147
  23   2.0000      -0.716673       -19.5017
  24   2.0000      -0.662632       -18.0311
  25   2.0000      -0.595629       -16.2079
  26   2.0000      -0.585603       -15.9351
  27   2.0000      -0.556797       -15.1512
  28   2.0000      -0.528699       -14.3866
  29   2.0000      -0.513783       -13.9808
  30   2.0000      -0.462391       -12.5823
  31   2.0000      -0.454211       -12.3597
  32   2.0000      -0.447332       -12.1725
  33   2.0000      -0.427241       -11.6258
  34   2.0000      -0.409575       -11.1451
  35   2.0000      -0.400246       -10.8912
  36   2.0000      -0.387680       -10.5493
  37   2.0000      -0.372406       -10.1337
  38   2.0000      -0.370641       -10.0857
  39   2.0000      -0.362185        -9.8556
  40   2.0000      -0.349825        -9.5192
  41   2.0000      -0.315309        -8.5800
  42   2.0000      -0.297640        -8.0992
  43   2.0000      -0.234866        -6.3910
  44   2.0000      -0.224435        -6.1072
  45   2.0000      -0.185310        -5.0426
  46   0.0000      -0.028059        -0.7635
  47   0.0000       0.029193         0.7944
  48   0.0000       0.033279         0.9056
  49   0.0000       0.041720         1.1353
  50   0.0000       0.047732         1.2989

MULLIKEN ATOMIC CHARGES
-----------------------
   0 N :   -0.351309
   1 C :   -0.016053
   2 C :    0.058757
   3 S :   -0.113551
   4 C :    0.025234
   5 C :    0.128289
   6 N :   -0.405424
   7 S :    0.276400
   8 C :    0.110528
   9 C :   -0.098926
  10 H :    0.131777
  11 H :    0.011422
  12 H :    0.040663
  13 H :    0.045383
  14 H :    0.057952
  15 H :    0.048531
  16 H :    0.017036
  17 H :    0.006124
  18 H :    0.014357
  19 H :    0.012811
Sum of atomic charges:   -0.0000000

LOEWDIN ATOMIC CHARGES
----------------------
   0 N :   -0.227126
   1 C :   -0.009161
   2 C :   -0.121302
   3 S :    0.198508
   4 C :   -0.129734
   5 C :    0.006627
   6 N :   -0.188458
   7 S :    0.372206
   8 C :   -0.001309
   9 C :   -0.154197
  10 H :    0.055173
  11 H :    0.010049
  12 H :    0.024466
  13 H :    0.024961
  14 H :    0.024877
  15 H :    0.024864
  16 H :    0.024406
  17 H :    0.026411
  18 H :    0.013639
  19 H :    0.025099

  Mayer bond orders larger than 0.100000
B(  0-N ,  1-C ) :   0.9277 B(  0-N ,  7-S ) :   0.9694 B(  0-N , 10-H ) :   0.9301
B(  1-C ,  2-C ) :   1.0481 B(  1-C ,  5-C ) :   1.0565 B(  1-C , 11-H ) :   0.9085
B(  2-C ,  3-S ) :   0.9961 B(  2-C , 12-H ) :   0.9329 B(  2-C , 13-H ) :   0.9426
B(  3-S ,  4-C ) :   1.0102 B(  4-C ,  5-C ) :   0.9897 B(  4-C , 14-H ) :   0.9339
B(  4-C , 15-H ) :   0.9435 B(  5-C ,  6-N ) :   0.9475 B(  5-C , 16-H ) :   0.9211
B(  6-N ,  7-S ) :   0.9215 B(  6-N ,  8-C ) :   1.0819 B(  8-C ,  9-C ) :   1.8999
B(  8-C , 17-H ) :   0.9529 B(  9-C , 18-H ) :   0.9457 B(  9-C , 19-H ) :   0.9451

Dispersion correction           -0.044687394
FINAL SINGLE POINT ENERGY     -1140.035523084816

DIPOLE MOMENT
-------------
                                X             Y             Z
Electronic contribution:      0.91589       3.19895       0.59928
Nuclear contribution   :     -0.72770      -2.54553      -1.08755
                        -----------------------------------------
Total Dipole Moment    :      0.18819       0.65342      -0.48827
                        -----------------------------------------
Magnitude (a.u.)       :      0.83713
Magnitude (Debye)      :      2.12781

Rotational constants in cm-1:     0.063255     0.024841     0.019375
Rotational constants in MHz :  1896.324559   744.711988   580.847853

                             ****ORCA TERMINATED NORMALLY****
TOTAL RUN TIME: 0 days 0 hours 10 minutes 21 seconds 345 msec
