                         Program Version 4.2.0 -  RELEASE  -
|  1> # ORCA input file
|  2> # SCF done        -35.961754032504          0.000378547338
|  3> ! B3LYP/G D3BJ Opt RIJCOSX def2-SVP def2/J
|  4> * xyz 0 1
|  5>    C        3.43402         0.12731        -0.03083
|  6>    C        3.00110         1.44202        -0.00350
|  7>    C        1.64466         1.75522         0.01194
|  8>    C        0.73197         0.72108        -0.00163
|  9>    C        1.17444        -0.61425        -0.02767
| 10>    C        2.51905        -0.92071        -0.04214
| 11>    C       -0.00175        -1.52456        -0.03896
| 12>    O       -0.00271        -2.73344        -0.05519
| 13>    C       -1.17648        -0.61246        -0.02289
| 14>    C       -0.73188         0.72220         0.00126
| 15>    C       -1.64292         1.75773         0.01820
| 16>    C       -2.99989         1.44660         0.00815
| 17>    C       -3.43492         0.13256        -0.01715
| 18>    C       -2.52161        -0.91686        -0.03192
| 19>    H        4.49240        -0.08633        -0.04405
| 20>    H        3.72815         2.24101         0.00561
| 21>    H        1.32176         2.78531         0.03325
| 22>    H        2.84452        -1.94966        -0.06370
| 23>    H       -1.31837         2.78733         0.03798
| 24>    H       -3.72568         2.24671         0.01998
| 25>    H       -4.49368        -0.07947        -0.02601
| 26>    H       -2.84874        -1.94532        -0.05199
| 27> *
| 28>
| 29>                          ****END OF INPUT****
 Total Charge           Charge          ....    0
 Multiplicity           Mult            ....    1
 Number of Electrons    NEL             ....   94
Dispersion correction           -0.049996910
FINAL SINGLE POINT ENERGY      -575.071925306768
Dispersion correction            ... done
Dispersion correction           -0.049780617
FINAL SINGLE POINT ENERGY      -575.074849640543
Dispersion correction            ... done
Dispersion correction           -0.049752687
FINAL SINGLE POINT ENERGY      -575.074917459897
Dispersion correction            ... done
Dispersion correction           -0.049749796
FINAL SINGLE POINT ENERGY      -575.074925461466
Dispersion correction            ... done
                    ***********************HURRAY********************

CARTESIAN COORDINATES (ANGSTROEM)
---------------------------------
  C      3.469253    0.119200   -0.026894
  C      3.032202    1.448877   -0.001580
  C      1.663579    1.766859    0.008450
  C      0.741458    0.725588   -0.007596
  C      1.189042   -0.612936   -0.032305
  C      2.539645   -0.931232   -0.041944
  C     -0.001757   -1.527297   -0.044485
  O     -0.002700   -2.739032   -0.059275
  C     -1.191103   -0.611112   -0.027500
  C     -0.741387    0.726722   -0.004690
  C     -1.661851    1.769406    0.014830
  C     -3.030983    1.453518    0.010172
  C     -3.470158    0.124508   -0.013193
  C     -2.542216   -0.927345   -0.031667
  H      4.539570   -0.100703   -0.034895
  H      3.768517    2.256022    0.011199
  H      1.338413    2.809804    0.029355
  H      2.855868   -1.976540   -0.062263
  H     -1.335023    2.811853    0.034366
  H     -3.765994    2.261797    0.025818
  H     -4.540835   -0.093761   -0.016758
  H     -2.860100   -1.972177   -0.050403

 Multiplicity           Mult            ....    1
 Number of Electrons    NEL             ....   94
 Basis Dimension        Dim             ....  236

ORBITAL ENERGIES
----------------

  NO   OCC          E(Eh)            E(eV)
   0   2.0000     -19.130782      -520.5750
   1   2.0000     -10.276181      -279.6291
   2   2.0000     -10.211611      -277.8721
   3   2.0000     -10.211590      -277.8715
   4   2.0000     -10.210033      -277.8291
   5   2.0000     -10.210024      -277.8289
   6   2.0000     -10.208036      -277.7748
   7   2.0000     -10.207934      -277.7720
   8   2.0000     -10.207826      -277.7691
   9   2.0000     -10.207803      -277.7684
  10   2.0000     -10.205000      -277.6922
  11   2.0000     -10.204996      -277.6921
  12   2.0000     -10.197399      -277.4853
  13   2.0000     -10.197376      -277.4847
  14   2.0000      -1.033271       -28.1167
  15   2.0000      -0.891597       -24.2616
  16   2.0000      -0.853947       -23.2371
  17   2.0000      -0.801932       -21.8217
  18   2.0000      -0.766247       -20.8506
  19   2.0000      -0.751321       -20.4445
  20   2.0000      -0.724548       -19.7160
  21   2.0000      -0.668144       -18.1811
  22   2.0000      -0.636172       -17.3111
  23   2.0000      -0.598579       -16.2882
  24   2.0000      -0.586584       -15.9618
  25   2.0000      -0.565271       -15.3818
  26   2.0000      -0.515804       -14.0357
  27   2.0000      -0.512683       -13.9508
  28   2.0000      -0.487368       -13.2620
  29   2.0000      -0.459467       -12.5027
  30   2.0000      -0.456909       -12.4331
  31   2.0000      -0.447971       -12.1899
  32   2.0000      -0.438927       -11.9438
  33   2.0000      -0.437892       -11.9157
  34   2.0000      -0.435665       -11.8551
  35   2.0000      -0.426020       -11.5926
  36   2.0000      -0.382985       -10.4215
  37   2.0000      -0.378196       -10.2912
  38   2.0000      -0.376397       -10.2423
  39   2.0000      -0.373284       -10.1576
  40   2.0000      -0.361626        -9.8403
  41   2.0000      -0.353349        -9.6151
  42   2.0000      -0.302291        -8.2258
  43   2.0000      -0.273861        -7.4521
  44   2.0000      -0.269179        -7.3247
  45   2.0000      -0.257499        -7.0069
  46   2.0000      -0.237474        -6.4620
  47   0.0000      -0.090646        -2.4666
  48   0.0000      -0.048870        -1.3298
  49   0.0000      -0.013073        -0.3557
  50   0.0000       0.017275         0.4701
  51   0.0000       0.050278         1.3681

MULLIKEN ATOMIC CHARGES
-----------------------
   0 C :    0.022601
   1 C :    0.036566
   2 C :   -0.050853
   3 C :    0.103186
   4 C :   -0.049585
   5 C :   -0.011289
   6 C :    0.162021
   7 O :   -0.147674
   8 C :   -0.049630
   9 C :    0.103266
  10 C :   -0.050765
  11 C :    0.036604
  12 C :    0.022485
  13 C :   -0.011275
  14 H :   -0.007748
  15 H :   -0.006728
  16 H :   -0.030113
  17 H :   -0.013224
  18 H :   -0.030163
  19 H :   -0.006758
  20 H :   -0.007687
  21 H :   -0.013236
Sum of atomic charges:    0.0000000

LOEWDIN ATOMIC CHARGES
----------------------
   0 C :   -0.024530
   1 C :   -0.005203
   2 C :   -0.022364
   3 C :   -0.002674
   4 C :   -0.058774
   5 C :    0.013380
   6 C :    0.085969
   7 O :   -0.133144
   8 C :   -0.058775
   9 C :   -0.002673
  10 C :   -0.022353
  11 C :   -0.005194
  12 C :   -0.024549
  13 C :    0.013387
  14 H :    0.030010
  15 H :    0.030961
  16 H :    0.027304
  17 H :    0.035477
  18 H :    0.027295
  19 H :    0.030955
  20 H :    0.030022
  21 H :    0.035472

  Mayer bond orders larger than 0.100000
B(  0-C ,  1-C ) :   1.3959 B(  0-C ,  5-C ) :   1.3193 B(  0-C , 14-H ) :   0.9853
B(  1-C ,  2-C ) :   1.3430 B(  1-C , 15-H ) :   0.9787 B(  2-C ,  3-C ) :   1.3927
B(  2-C , 16-H ) :   0.9919 B(  3-C ,  4-C ) :   1.3328 B(  3-C ,  9-C ) :   0.9735
B(  4-C ,  5-C ) :   1.4002 B(  4-C ,  6-C ) :   0.9145 B(  5-C , 17-H ) :   0.9980
B(  6-C ,  7-O ) :   2.2532 B(  6-C ,  8-C ) :   0.9145 B(  8-C ,  9-C ) :   1.3328
B(  8-C , 13-C ) :   1.4002 B(  9-C , 10-C ) :   1.3927 B( 10-C , 11-C ) :   1.3430
B( 10-C , 18-H ) :   0.9919 B( 11-C , 12-C ) :   1.3959 B( 11-C , 19-H ) :   0.9787
B( 12-C , 13-C ) :   1.3193 B( 12-C , 20-H ) :   0.9853 B( 13-C , 21-H ) :   0.9980

Dispersion correction           -0.049749940
FINAL SINGLE POINT ENERGY      -575.074927924209

DIPOLE MOMENT
-------------
                                X             Y             Z
Electronic contribution:     -0.00329      -4.13474      -0.06352
Nuclear contribution   :      0.00428       5.39485       0.08117
                        -----------------------------------------
Total Dipole Moment    :      0.00099       1.26011       0.01765
                        -----------------------------------------
Magnitude (a.u.)       :      1.26023
Magnitude (Debye)      :      3.20325

Rotational constants in cm-1:     0.048086     0.019400     0.013823
Rotational constants in MHz :  1441.574524   581.599566   414.408461

                             ****ORCA TERMINATED NORMALLY****
TOTAL RUN TIME: 0 days 0 hours 7 minutes 38 seconds 527 msec
