                         Program Version 4.2.0 -  RELEASE  -
|  1> # ORCA input file
|  2> # SCF done        -24.926871152540          0.000306138663
|  3> ! B3LYP/G D3BJ Opt RIJCOSX def2-SVP def2/J
|  4> * xyz 0 1
|  5>    C       -0.23579         1.09099         0.12167
|  6>    O       -1.06541         0.04813         0.05955
|  7>    C       -0.31284        -1.06201        -0.04941
|  8>    C        1.00638        -0.74750        -0.06377
|  9>    C        1.07051         0.67310         0.05064
| 10>    C        2.32165         1.45339         0.06565
| 11>    O        3.39870         0.97217        -0.14660
| 12>    O        2.19794         2.76994         0.33676
| 13>    H       -0.69140         2.06087         0.19741
| 14>    H       -0.82890        -1.99921        -0.10774
| 15>    H        1.84657        -1.40417        -0.14087
| 16>    H        1.28788         3.03630         0.51067
| 17> *
| 18>
| 19>                          ****END OF INPUT****
 Total Charge           Charge          ....    0
 Multiplicity           Mult            ....    1
 Number of Electrons    NEL             ....   58
Dispersion correction           -0.018204391
FINAL SINGLE POINT ENERGY      -418.300031775151
Dispersion correction            ... done
Dispersion correction           -0.018225167
FINAL SINGLE POINT ENERGY      -418.301250508214
Dispersion correction            ... done
Dispersion correction           -0.018233831
FINAL SINGLE POINT ENERGY      -418.301296919058
Dispersion correction            ... done
FINAL SINGLE POINT ENERGY      -418.301449168004
FINAL SINGLE POINT ENERGY      -418.301467262702
FINAL SINGLE POINT ENERGY      -418.301491144197
Dispersion correction            ... done
Dispersion correction           -0.018245732
FINAL SINGLE POINT ENERGY      -418.301500847366
Dispersion correction            ... done
Dispersion correction           -0.018244711
FINAL SINGLE POINT ENERGY      -418.301504892573
Dispersion correction            ... done
                    ***********************HURRAY********************

CARTESIAN COORDINATES (ANGSTROEM)
---------------------------------
  C     -0.235685    1.103724    0.096116
  O     -1.072016    0.049456    0.049460
  C     -0.311575   -1.079455   -0.038432
  C      1.010697   -0.755786   -0.050182
  C      1.070379    0.678309    0.046473
  C      2.325860    1.469425    0.045676
  O      3.403767    0.995284   -0.195199
  O      2.204517    2.787407    0.336388
  H     -0.709727    2.082605    0.139040
  H     -0.860468   -2.015567   -0.088693
  H      1.866169   -1.421982   -0.121066
  H      1.303371    2.998581    0.614377

 Multiplicity           Mult            ....    1
 Number of Electrons    NEL             ....   58
 Basis Dimension        Dim             ....  132

ORBITAL ENERGIES
----------------

  NO   OCC          E(Eh)            E(eV)
   0   2.0000     -19.230187      -523.2800
   1   2.0000     -19.183940      -522.0216
   2   2.0000     -19.120802      -520.3035
   3   2.0000     -10.324969      -280.9567
   4   2.0000     -10.273873      -279.5663
   5   2.0000     -10.260517      -279.2029
   6   2.0000     -10.218586      -278.0618
   7   2.0000     -10.209642      -277.8185
   8   2.0000      -1.134080       -30.8599
   9   2.0000      -1.094221       -29.7753
  10   2.0000      -1.012122       -27.5412
  11   2.0000      -0.825090       -22.4518
  12   2.0000      -0.772138       -21.0109
  13   2.0000      -0.662413       -18.0252
  14   2.0000      -0.615859       -16.7584
  15   2.0000      -0.600512       -16.3408
  16   2.0000      -0.584402       -15.9024
  17   2.0000      -0.495647       -13.4872
  18   2.0000      -0.486650       -13.2424
  19   2.0000      -0.466084       -12.6828
  20   2.0000      -0.453373       -12.3369
  21   2.0000      -0.450284       -12.2529
  22   2.0000      -0.424833       -11.5603
  23   2.0000      -0.403743       -10.9864
  24   2.0000      -0.384514       -10.4632
  25   2.0000      -0.328753        -8.9458
  26   2.0000      -0.303575        -8.2607
  27   2.0000      -0.283472        -7.7137
  28   2.0000      -0.263410        -7.1677
  29   0.0000      -0.045564        -1.2399
  30   0.0000       0.001194         0.0325
  31   0.0000       0.027324         0.7435
  32   0.0000       0.079001         2.1497
  33   0.0000       0.094314         2.5664

MULLIKEN ATOMIC CHARGES
-----------------------
   0 C :    0.073130
   1 O :   -0.197125
   2 C :    0.140869
   3 C :   -0.015633
   4 C :   -0.065803
   5 C :    0.187051
   6 O :   -0.179480
   7 O :   -0.163871
   8 H :    0.014466
   9 H :    0.021492
  10 H :    0.015286
  11 H :    0.169618
Sum of atomic charges:   -0.0000000

LOEWDIN ATOMIC CHARGES
----------------------
   0 C :    0.034286
   1 O :    0.016898
   2 C :    0.043324
   3 C :   -0.041127
   4 C :   -0.125900
   5 C :    0.080260
   6 O :   -0.153496
   7 O :   -0.037152
   8 H :    0.023629
   9 H :    0.028208
  10 H :    0.043707
  11 H :    0.087363

  Mayer bond orders larger than 0.100000
B(  0-C ,  1-O ) :   1.1839 B(  0-C ,  4-C ) :   1.4748 B(  0-C ,  8-H ) :   1.0007
B(  1-O ,  2-C ) :   1.1114 B(  2-C ,  3-C ) :   1.5577 B(  2-C ,  9-H ) :   0.9993
B(  3-C ,  4-C ) :   1.2366 B(  3-C , 10-H ) :   1.0109 B(  4-C ,  5-C ) :   0.9244
B(  5-C ,  6-O ) :   2.1778 B(  5-C ,  7-O ) :   1.2167 B(  7-O , 11-H ) :   0.9577

Dispersion correction           -0.018244208
FINAL SINGLE POINT ENERGY      -418.301507530179

DIPOLE MOMENT
-------------
                                X             Y             Z
Electronic contribution:      0.94561       1.01764      -0.08176
Nuclear contribution   :     -2.51620      -1.11070       0.35042
                        -----------------------------------------
Total Dipole Moment    :     -1.57059      -0.09306       0.26866
                        -----------------------------------------
Magnitude (a.u.)       :      1.59612
Magnitude (Debye)      :      4.05702

Rotational constants in cm-1:     0.173580     0.051492     0.039863
Rotational constants in MHz :  5203.809134  1543.683525  1195.062651

                             ****ORCA TERMINATED NORMALLY****
TOTAL RUN TIME: 0 days 0 hours 3 minutes 50 seconds 509 msec
