                         Program Version 4.2.0 -  RELEASE  -
|  1> # ORCA input file
|  2> # SCF done        -44.763060986525          0.000442996501
|  3> ! B3LYP/G D3BJ Opt RIJCOSX def2-SVP def2/J
|  4> * xyz 0 1
|  5>    C        0.88003         1.00074         0.32178
|  6>    S        1.05658        -0.50761         1.12671
|  7>    C        0.11619        -1.31103        -0.10074
|  8>    C       -0.29145        -0.42014        -1.06117
|  9>    C        0.14544         0.89429        -0.81653
| 10>    C       -0.13645        -2.71144        -0.02909
| 11>    C        0.26859        -3.60455         0.93380
| 12>    C       -0.15153        -4.91535         0.68966
| 13>    C       -0.88603        -5.04853        -0.46515
| 14>    S       -1.06293        -3.51179        -1.26809
| 15>    C       -1.45831        -6.22682        -1.01960
| 16>    S       -1.27340        -7.76912        -0.23831
| 17>    C       -2.18598        -8.56835        -1.48723
| 18>    C       -2.59779        -7.66519        -2.43787
| 19>    C       -2.19122        -6.35344        -2.17745
| 20>    C       -2.39747        -9.98726        -1.40468
| 21>    C       -3.05314       -10.71998        -2.30258
| 22>    H        1.33379         1.87476         0.74457
| 23>    H       -0.88464        -0.71316        -1.90920
| 24>    H       -0.07692         1.72626        -1.46051
| 25>    H        0.85332        -3.30723         1.78645
| 26>    H        0.07022        -5.74984         1.33135
| 27>    H       -3.17787        -7.94252        -3.29914
| 28>    H       -2.41855        -5.51225        -2.80877
| 29>    H       -1.97137       -10.46232        -0.53034
| 30>    H       -3.48755       -10.28877        -3.18766
| 31>    H       -3.17093       -11.78169        -2.17794
| 32> *
| 33>
| 34>                          ****END OF INPUT****
 Total Charge           Charge          ....    0
 Multiplicity           Mult            ....    1
 Number of Electrons    NEL             ....  142
Dispersion correction           -0.070453730
FINAL SINGLE POINT ENERGY     -1733.394932971833
Dispersion correction            ... done
Dispersion correction           -0.069954562
FINAL SINGLE POINT ENERGY     -1733.399795715803
Dispersion correction            ... done
Dispersion correction           -0.069886087
FINAL SINGLE POINT ENERGY     -1733.399886090440
Dispersion correction            ... done
FINAL SINGLE POINT ENERGY     -1733.399689534601
FINAL SINGLE POINT ENERGY     -1733.399726484520
FINAL SINGLE POINT ENERGY     -1733.399711478421
FINAL SINGLE POINT ENERGY     -1733.399587332354
FINAL SINGLE POINT ENERGY     -1733.399539049628
FINAL SINGLE POINT ENERGY     -1733.399447703822
FINAL SINGLE POINT ENERGY     -1733.399493295882
FINAL SINGLE POINT ENERGY     -1733.399386770757
FINAL SINGLE POINT ENERGY     -1733.399164341562
FINAL SINGLE POINT ENERGY     -1733.398435914624
FINAL SINGLE POINT ENERGY     -1733.399081615616
FINAL SINGLE POINT ENERGY     -1733.399081008910
FINAL SINGLE POINT ENERGY     -1733.399025772127
FINAL SINGLE POINT ENERGY     -1733.398999221163
Dispersion correction            ... done
Dispersion correction           -0.069825055
FINAL SINGLE POINT ENERGY     -1733.399057390228
Dispersion correction            ... done
Dispersion correction           -0.069831112
FINAL SINGLE POINT ENERGY     -1733.399129980049
Dispersion correction            ... done
                    ***********************HURRAY********************

CARTESIAN COORDINATES (ANGSTROEM)
---------------------------------
  C      0.283392    1.104511    0.648689
  S      0.315838   -0.439583    1.426744
  C      0.082996   -1.272926   -0.092055
  C     -0.028564   -0.367268   -1.130050
  C      0.087628    0.987753   -0.704913
  C     -0.006687   -2.717908   -0.114700
  C      0.574275   -3.636583    0.740775
  C      0.217464   -4.977382    0.450483
  C     -0.641697   -5.098609   -0.629234
  S     -1.022473   -3.522637   -1.286082
  C     -1.256436   -6.285563   -1.176777
  S     -1.261054   -7.780302   -0.277162
  C     -2.206672   -8.599372   -1.495386
  C     -2.489076   -7.738077   -2.542649
  C     -1.955263   -6.439151   -2.365342
  C     -2.596563   -9.983603   -1.279015
  C     -3.443920  -10.692147   -2.043900
  H      0.413026    2.012569    1.235211
  H     -0.173527   -0.678097   -2.165514
  H      0.035637    1.844373   -1.377727
  H      1.249382   -3.341304    1.545152
  H      0.585086   -5.837858    1.010491
  H     -3.064648   -8.039278   -3.418157
  H     -2.075581   -5.628008   -3.085135
  H     -2.155793  -10.466238   -0.399764
  H     -3.924933  -10.263433   -2.926911
  H     -3.691209  -11.726208   -1.794802

 Multiplicity           Mult            ....    1
 Number of Electrons    NEL             ....  142
 Basis Dimension        Dim             ....  300

ORBITAL ENERGIES
----------------

  NO   OCC          E(Eh)            E(eV)
   0   2.0000     -88.878361     -2418.5032
   1   2.0000     -88.877012     -2418.4665
   2   2.0000     -88.876785     -2418.4603
   3   2.0000     -10.229382      -278.3556
   4   2.0000     -10.229164      -278.3497
   5   2.0000     -10.228634      -278.3353
   6   2.0000     -10.226960      -278.2897
   7   2.0000     -10.221856      -278.1508
   8   2.0000     -10.215599      -277.9806
   9   2.0000     -10.207085      -277.7489
  10   2.0000     -10.200008      -277.5563
  11   2.0000     -10.199916      -277.5538
  12   2.0000     -10.199641      -277.5463
  13   2.0000     -10.198416      -277.5130
  14   2.0000     -10.198025      -277.5024
  15   2.0000     -10.197605      -277.4909
  16   2.0000     -10.192463      -277.3510
  17   2.0000      -7.973240      -216.9629
  18   2.0000      -7.972148      -216.9332
  19   2.0000      -7.971917      -216.9269
  20   2.0000      -5.941432      -161.6746
  21   2.0000      -5.940300      -161.6438
  22   2.0000      -5.939952      -161.6343
  23   2.0000      -5.937490      -161.5673
  24   2.0000      -5.936204      -161.5323
  25   2.0000      -5.936162      -161.5312
  26   2.0000      -5.934252      -161.4792
  27   2.0000      -5.933378      -161.4554
  28   2.0000      -5.933063      -161.4469
  29   2.0000      -0.900166       -24.4948
  30   2.0000      -0.886610       -24.1259
  31   2.0000      -0.870543       -23.6887
  32   2.0000      -0.794495       -21.6193
  33   2.0000      -0.766421       -20.8554
  34   2.0000      -0.746792       -20.3212
  35   2.0000      -0.738393       -20.0927
  36   2.0000      -0.733989       -19.9729
  37   2.0000      -0.718470       -19.5506
  38   2.0000      -0.682692       -18.5770
  39   2.0000      -0.617010       -16.7897
  40   2.0000      -0.606425       -16.5017
  41   2.0000      -0.581646       -15.8274
  42   2.0000      -0.557136       -15.1605
  43   2.0000      -0.535968       -14.5844
  44   2.0000      -0.529596       -14.4110
  45   2.0000      -0.528457       -14.3800
  46   2.0000      -0.516831       -14.0637
  47   2.0000      -0.497228       -13.5303
  48   2.0000      -0.467981       -12.7344
  49   2.0000      -0.446057       -12.1378
  50   2.0000      -0.429449       -11.6859
  51   2.0000      -0.418454       -11.3867
  52   2.0000      -0.416795       -11.3416
  53   2.0000      -0.415124       -11.2961
  54   2.0000      -0.404630       -11.0105
  55   2.0000      -0.402033       -10.9399
  56   2.0000      -0.396621       -10.7926
  57   2.0000      -0.386044       -10.5048
  58   2.0000      -0.376174       -10.2362
  59   2.0000      -0.371985       -10.1222
  60   2.0000      -0.366486        -9.9726
  61   2.0000      -0.357004        -9.7146
  62   2.0000      -0.347528        -9.4567
  63   2.0000      -0.341640        -9.2965
  64   2.0000      -0.316880        -8.6227
  65   2.0000      -0.278331        -7.5738
  66   2.0000      -0.265191        -7.2162
  67   2.0000      -0.260393        -7.0856
  68   2.0000      -0.258282        -7.0282
  69   2.0000      -0.236595        -6.4381
  70   2.0000      -0.194245        -5.2857
  71   0.0000      -0.071746        -1.9523
  72   0.0000      -0.036850        -1.0028
  73   0.0000      -0.006284        -0.1710
  74   0.0000       0.018745         0.5101
  75   0.0000       0.021391         0.5821

MULLIKEN ATOMIC CHARGES
-----------------------
   0 C :   -0.081468
   1 S :    0.114568
   2 C :   -0.094956
   3 C :    0.009993
   4 C :    0.040869
   5 C :   -0.051635
   6 C :    0.001129
   7 C :   -0.007634
   8 C :   -0.041100
   9 S :    0.123156
  10 C :   -0.051119
  11 S :    0.113466
  12 C :   -0.088784
  13 C :    0.018289
  14 C :   -0.013322
  15 C :    0.044543
  16 C :   -0.029707
  17 H :    0.030085
  18 H :   -0.012173
  19 H :   -0.005835
  20 H :   -0.011143
  21 H :   -0.011562
  22 H :   -0.019229
  23 H :   -0.009818
  24 H :   -0.010046
  25 H :    0.016941
  26 H :    0.026491
Sum of atomic charges:   -0.0000000

LOEWDIN ATOMIC CHARGES
----------------------
   0 C :   -0.190007
   1 S :    0.429444
   2 C :   -0.189475
   3 C :   -0.067642
   4 C :   -0.062807
   5 C :   -0.184941
   6 C :   -0.062391
   7 C :   -0.062162
   8 C :   -0.183764
   9 S :    0.431457
  10 C :   -0.186204
  11 S :    0.431162
  12 C :   -0.175062
  13 C :   -0.052917
  14 C :   -0.063264
  15 C :   -0.042511
  16 C :   -0.046884
  17 H :    0.025795
  18 H :    0.027919
  19 H :    0.031155
  20 H :    0.029296
  21 H :    0.028035
  22 H :    0.029672
  23 H :    0.027617
  24 H :    0.028585
  25 H :    0.022172
  26 H :    0.027721

  Mayer bond orders larger than 0.100000
B(  0-C ,  1-S ) :   1.1548 B(  0-C ,  4-C ) :   1.5532 B(  0-C , 17-H ) :   0.9703
B(  1-S ,  2-C ) :   1.1425 B(  2-C ,  3-C ) :   1.5118 B(  2-C ,  5-C ) :   1.1044
B(  3-C ,  4-C ) :   1.2520 B(  3-C , 18-H ) :   0.9926 B(  4-C , 19-H ) :   0.9884
B(  5-C ,  6-C ) :   1.5024 B(  5-C ,  9-S ) :   1.1220 B(  6-C ,  7-C ) :   1.2498
B(  6-C , 20-H ) :   0.9918 B(  7-C ,  8-C ) :   1.4904 B(  7-C , 21-H ) :   0.9882
B(  8-C ,  9-S ) :   1.1180 B(  8-C , 10-C ) :   1.1365 B( 10-C , 11-S ) :   1.1303
B( 10-C , 14-C ) :   1.4793 B( 11-S , 12-C ) :   1.1121 B( 12-C , 13-C ) :   1.5041
B( 12-C , 15-C ) :   1.1051 B( 13-C , 14-C ) :   1.2725 B( 13-C , 22-H ) :   0.9847
B( 14-C , 23-H ) :   0.9848 B( 15-C , 16-C ) :   1.9256 B( 15-C , 24-H ) :   0.9497
B( 16-C , 25-H ) :   0.9509 B( 16-C , 26-H ) :   0.9437

Dispersion correction           -0.069830852
FINAL SINGLE POINT ENERGY     -1733.399121247023

DIPOLE MOMENT
-------------
                                X             Y             Z
Electronic contribution:      3.92066       7.42958       5.23775
Nuclear contribution   :     -3.93711      -7.29415      -5.35932
                        -----------------------------------------
Total Dipole Moment    :     -0.01645       0.13543      -0.12156
                        -----------------------------------------
Magnitude (a.u.)       :      0.18273
Magnitude (Debye)      :      0.46446

Rotational constants in cm-1:     0.053198     0.004266     0.004009
Rotational constants in MHz :  1594.829442   127.896537   120.187346

                             ****ORCA TERMINATED NORMALLY****
TOTAL RUN TIME: 0 days 1 hours 10 minutes 41 seconds 422 msec
