                         Program Version 4.2.0 -  RELEASE  -
|  1> # ORCA input file
|  2> # SCF done        -27.926251385491          0.000258286031
|  3> ! B3LYP/G D3BJ Opt RIJCOSX def2-SVP def2/J
|  4> * xyz 0 1
|  5>    C       -1.53615        -1.25758         0.15884
|  6>    S       -2.70449        -0.01544         0.24168
|  7>    C       -1.51982         1.20882         0.15822
|  8>    C       -0.24749         0.68953         0.06794
|  9>    C       -0.26312        -0.74998         0.06860
| 10>    C        0.97572        -1.45411        -0.01973
| 11>    C        0.97447        -2.86408        -0.01972
| 12>    N        0.96874        -4.01143        -0.01827
| 13>    C        2.14786        -0.74437        -0.10297
| 14>    C        2.14741         0.66659        -0.10255
| 15>    C        0.98685         1.37711        -0.01973
| 16>    H       -1.83647        -2.28609         0.17982
| 17>    H       -1.81049         2.23983         0.17895
| 18>    H        3.08708        -1.27362        -0.16958
| 19>    H        3.09439         1.18056        -0.16984
| 20>    H        0.98820         2.45663        -0.01954
| 21> *
| 22>
| 23>                          ****END OF INPUT****
 Total Charge           Charge          ....    0
 Multiplicity           Mult            ....    1
 Number of Electrons    NEL             ....   82
Dispersion correction           -0.037866121
FINAL SINGLE POINT ENERGY      -798.518634611728
Dispersion correction            ... done
Dispersion correction           -0.037687710
FINAL SINGLE POINT ENERGY      -798.521523103920
Dispersion correction            ... done
Dispersion correction           -0.037665835
FINAL SINGLE POINT ENERGY      -798.521595937690
Dispersion correction            ... done
FINAL SINGLE POINT ENERGY      -798.521581553220
FINAL SINGLE POINT ENERGY      -798.521609167314
FINAL SINGLE POINT ENERGY      -798.521612859626
Dispersion correction            ... done
Dispersion correction           -0.037676805
FINAL SINGLE POINT ENERGY      -798.521615833955
Dispersion correction            ... done
Dispersion correction           -0.037677715
FINAL SINGLE POINT ENERGY      -798.521616676383
Dispersion correction            ... done
                    ***********************HURRAY********************

CARTESIAN COORDINATES (ANGSTROEM)
---------------------------------
  C     -1.550478   -1.271624    0.165345
  S     -2.713879   -0.016848    0.255366
  C     -1.539363    1.224545    0.159978
  C     -0.254231    0.698189    0.062603
  C     -0.266312   -0.754374    0.066455
  C      0.985645   -1.461477   -0.021330
  C      0.982329   -2.892378   -0.028760
  N      0.946242   -4.053470   -0.032529
  C      2.164913   -0.745272   -0.095789
  C      2.163449    0.680817   -0.098436
  C      0.990567    1.392017   -0.027297
  H     -1.849539   -2.317849    0.186780
  H     -1.833547    2.272152    0.177479
  H      3.111604   -1.284204   -0.158156
  H      3.117530    1.207622   -0.163163
  H      0.997760    2.484526   -0.036424

 Multiplicity           Mult            ....    1
 Number of Electrons    NEL             ....   82
 Basis Dimension        Dim             ....  183

ORBITAL ENERGIES
----------------

  NO   OCC          E(Eh)            E(eV)
   0   2.0000     -88.903146     -2419.1776
   1   2.0000     -14.328112      -389.8878
   2   2.0000     -10.240172      -278.6493
   3   2.0000     -10.230049      -278.3738
   4   2.0000     -10.228086      -278.3204
   5   2.0000     -10.227932      -278.3162
   6   2.0000     -10.222772      -278.1758
   7   2.0000     -10.222550      -278.1697
   8   2.0000     -10.219739      -278.0932
   9   2.0000     -10.219314      -278.0817
  10   2.0000     -10.213064      -277.9116
  11   2.0000      -7.997709      -217.6287
  12   2.0000      -5.965358      -162.3256
  13   2.0000      -5.961142      -162.2109
  14   2.0000      -5.960270      -162.1872
  15   2.0000      -0.913830       -24.8666
  16   2.0000      -0.895908       -24.3789
  17   2.0000      -0.851309       -23.1653
  18   2.0000      -0.792248       -21.5582
  19   2.0000      -0.753771       -20.5111
  20   2.0000      -0.721522       -19.6336
  21   2.0000      -0.656925       -17.8758
  22   2.0000      -0.605426       -16.4745
  23   2.0000      -0.599790       -16.3211
  24   2.0000      -0.553275       -15.0554
  25   2.0000      -0.511139       -13.9088
  26   2.0000      -0.491579       -13.3765
  27   2.0000      -0.472623       -12.8607
  28   2.0000      -0.441923       -12.0253
  29   2.0000      -0.429434       -11.6855
  30   2.0000      -0.429239       -11.6802
  31   2.0000      -0.392568       -10.6823
  32   2.0000      -0.382606       -10.4112
  33   2.0000      -0.379576       -10.3288
  34   2.0000      -0.368573       -10.0294
  35   2.0000      -0.357311        -9.7229
  36   2.0000      -0.346096        -9.4178
  37   2.0000      -0.337352        -9.1798
  38   2.0000      -0.296509        -8.0684
  39   2.0000      -0.271754        -7.3948
  40   2.0000      -0.226336        -6.1589
  41   0.0000      -0.088163        -2.3990
  42   0.0000      -0.017699        -0.4816
  43   0.0000      -0.000012        -0.0003
  44   0.0000       0.029556         0.8043
  45   0.0000       0.037203         1.0123

MULLIKEN ATOMIC CHARGES
-----------------------
   0 C :   -0.140237
   1 S :    0.159037
   2 C :   -0.134212
   3 C :    0.076287
   4 C :    0.110982
   5 C :   -0.068891
   6 C :   -0.164751
   7 N :    0.066436
   8 C :    0.027891
   9 C :    0.015763
  10 C :    0.018759
  11 H :    0.039374
  12 H :    0.025307
  13 H :   -0.009676
  14 H :   -0.007580
  15 H :   -0.014490
Sum of atomic charges:   -0.0000000

LOEWDIN ATOMIC CHARGES
----------------------
   0 C :   -0.201202
   1 S :    0.505888
   2 C :   -0.204250
   3 C :   -0.051609
   4 C :   -0.038010
   5 C :   -0.064947
   6 C :   -0.023819
   7 N :   -0.069970
   8 C :    0.010429
   9 C :   -0.032028
  10 C :    0.002365
  11 H :    0.034438
  12 H :    0.028109
  13 H :    0.038391
  14 H :    0.032790
  15 H :    0.033423

  Mayer bond orders larger than 0.100000
B(  0-C ,  1-S ) :   1.2006 B(  0-C ,  2-C ) :   0.1152 B(  0-C ,  4-C ) :   1.4381
B(  0-C , 11-H ) :   0.9496 B(  1-S ,  2-C ) :   1.2223 B(  2-C ,  3-C ) :   1.3923
B(  2-C , 12-H ) :   0.9647 B(  3-C ,  4-C ) :   1.1926 B(  3-C , 10-C ) :   1.1912
B(  4-C ,  5-C ) :   1.1949 B(  5-C ,  6-C ) :   1.0886 B(  5-C ,  8-C ) :   1.5301
B(  6-C ,  7-N ) :   2.9971 B(  8-C ,  9-C ) :   1.1909 B(  8-C , 13-H ) :   0.9880
B(  9-C , 10-C ) :   1.5232 B(  9-C , 14-H ) :   0.9807 B( 10-C , 15-H ) :   0.9943

Dispersion correction           -0.037677767
FINAL SINGLE POINT ENERGY      -798.521617302696

DIPOLE MOMENT
-------------
                                X             Y             Z
Electronic contribution:     -4.37036      -3.15980       0.31348
Nuclear contribution   :      4.17138       4.90693      -0.29267
                        -----------------------------------------
Total Dipole Moment    :     -0.19898       1.74712       0.02081
                        -----------------------------------------
Magnitude (a.u.)       :      1.75854
Magnitude (Debye)      :      4.46985

Rotational constants in cm-1:     0.049935     0.030569     0.018962
Rotational constants in MHz :  1496.999064   916.433753   568.453759

                             ****ORCA TERMINATED NORMALLY****
TOTAL RUN TIME: 0 days 0 hours 10 minutes 17 seconds 665 msec
