                         Program Version 4.2.0 -  RELEASE  -
|  1> # ORCA input file
|  2> # SCF done        -34.878091825480          0.000429891913
|  3> ! B3LYP/G D3BJ Opt RIJCOSX def2-SVP def2/J
|  4> * xyz 0 1
|  5>    C        1.37249         0.03974        -0.54709
|  6>    C        0.82959         1.17197         0.05068
|  7>    C        1.79313         2.28648         0.37211
|  8>    C        2.26439         2.98676        -0.90486
|  9>    C       -0.54672         1.23274         0.29421
| 10>    C       -1.16485         2.42938         0.97510
| 11>    C       -1.50124         3.53783        -0.02421
| 12>    C       -1.35797         0.16819        -0.11793
| 13>    C       -2.84961         0.14072         0.10099
| 14>    C       -3.19113        -0.52016         1.43854
| 15>    C       -0.78751        -0.94180        -0.72603
| 16>    C        0.57541        -1.01717        -0.93393
| 17>    H        2.44062        -0.00837        -0.70661
| 18>    H        2.66406         1.86314         0.88064
| 19>    H        1.35116         3.02686         1.03628
| 20>    H        2.76919         2.28469        -1.56403
| 21>    H        2.95550         3.79144        -0.66225
| 22>    H        1.42048         3.40722        -1.44714
| 23>    H       -0.48609         2.82201         1.73377
| 24>    H       -2.07400         2.13218         1.49577
| 25>    H       -0.59905         3.91411        -0.49817
| 26>    H       -1.99653         4.36591         0.47907
| 27>    H       -2.16046         3.16119        -0.80345
| 28>    H       -3.31061        -0.43922        -0.70204
| 29>    H       -3.27686         1.14230         0.06479
| 30>    H       -2.80991        -1.53859         1.46153
| 31>    H       -4.26891        -0.54929         1.58495
| 32>    H       -2.74308         0.02513         2.26640
| 33>    H       -1.42404        -1.75855        -1.03634
| 34>    H        1.01090        -1.89080        -1.39660
| 35> *
| 36>
| 37>                          ****END OF INPUT****
 Total Charge           Charge          ....    0
 Multiplicity           Mult            ....    1
 Number of Electrons    NEL             ....   90
Dispersion correction           -0.056209296
FINAL SINGLE POINT ENERGY      -467.849282161567
Dispersion correction            ... done
Dispersion correction           -0.055582705
FINAL SINGLE POINT ENERGY      -467.852845282782
Dispersion correction            ... done
Dispersion correction           -0.055509457
FINAL SINGLE POINT ENERGY      -467.852866729529
Dispersion correction            ... done
FINAL SINGLE POINT ENERGY      -467.852716392329
FINAL SINGLE POINT ENERGY      -467.852632928842
FINAL SINGLE POINT ENERGY      -467.852569339551
FINAL SINGLE POINT ENERGY      -467.852512011596
FINAL SINGLE POINT ENERGY      -467.852544329866
FINAL SINGLE POINT ENERGY      -467.852570591261
Dispersion correction            ... done
Dispersion correction           -0.055548987
FINAL SINGLE POINT ENERGY      -467.852608833713
Dispersion correction            ... done
Dispersion correction           -0.055544130
FINAL SINGLE POINT ENERGY      -467.852591724393
Dispersion correction            ... done
                    ***********************HURRAY********************

CARTESIAN COORDINATES (ANGSTROEM)
---------------------------------
  C      1.402685   -0.045840   -0.632224
  C      0.884090    1.087100    0.017637
  C      1.866298    2.156900    0.451732
  C      2.260461    3.130661   -0.666969
  C     -0.509945    1.184924    0.231505
  C     -1.129786    2.420843    0.855696
  C     -1.660629    3.420232   -0.182605
  C     -1.351789    0.124739   -0.188694
  C     -2.835371    0.124048    0.118742
  C     -3.140638   -0.316331    1.559486
  C     -0.800628   -0.984212   -0.842510
  C      0.572515   -1.071233   -1.074265
  H      2.482406   -0.117168   -0.794061
  H      2.776835    1.657069    0.821404
  H      1.471869    2.725531    1.306268
  H      2.713048    2.591968   -1.514623
  H      2.989237    3.873868   -0.305319
  H      1.385479    3.675174   -1.054513
  H     -0.401461    2.933329    1.499045
  H     -1.953905    2.132200    1.522126
  H     -0.846927    3.812652   -0.811062
  H     -2.156691    4.273775    0.307538
  H     -2.390225    2.944110   -0.855767
  H     -3.343515   -0.560537   -0.578120
  H     -3.274340    1.116428   -0.064154
  H     -2.806583   -1.351979    1.729977
  H     -4.219571   -0.257729    1.776739
  H     -2.616861    0.315375    2.292044
  H     -1.461492   -1.790709   -1.172653
  H      0.993785   -1.939154   -1.588247

 Multiplicity           Mult            ....    1
 Number of Electrons    NEL             ....   90
 Basis Dimension        Dim             ....  258

ORBITAL ENERGIES
----------------

  NO   OCC          E(Eh)            E(eV)
   0   2.0000     -10.186614      -277.1919
   1   2.0000     -10.186204      -277.1807
   2   2.0000     -10.185773      -277.1690
   3   2.0000     -10.185618      -277.1648
   4   2.0000     -10.185488      -277.1612
   5   2.0000     -10.184893      -277.1450
   6   2.0000     -10.181221      -277.0451
   7   2.0000     -10.181074      -277.0411
   8   2.0000     -10.180491      -277.0252
   9   2.0000     -10.180396      -277.0227
  10   2.0000     -10.178859      -276.9808
  11   2.0000     -10.178734      -276.9774
  12   2.0000      -0.850815       -23.1518
  13   2.0000      -0.787106       -21.4183
  14   2.0000      -0.777442       -21.1553
  15   2.0000      -0.750539       -20.4232
  16   2.0000      -0.704928       -19.1821
  17   2.0000      -0.703702       -19.1487
  18   2.0000      -0.633017       -17.2253
  19   2.0000      -0.624097       -16.9825
  20   2.0000      -0.608364       -16.5544
  21   2.0000      -0.558354       -15.1936
  22   2.0000      -0.553604       -15.0643
  23   2.0000      -0.491277       -13.3683
  24   2.0000      -0.488453       -13.2915
  25   2.0000      -0.451108       -12.2753
  26   2.0000      -0.436921       -11.8892
  27   2.0000      -0.433533       -11.7970
  28   2.0000      -0.425488       -11.5781
  29   2.0000      -0.421973       -11.4825
  30   2.0000      -0.410166       -11.1612
  31   2.0000      -0.400254       -10.8915
  32   2.0000      -0.391430       -10.6514
  33   2.0000      -0.379579       -10.3289
  34   2.0000      -0.373274       -10.1573
  35   2.0000      -0.367110        -9.9896
  36   2.0000      -0.361983        -9.8501
  37   2.0000      -0.357369        -9.7245
  38   2.0000      -0.339615        -9.2414
  39   2.0000      -0.335707        -9.1351
  40   2.0000      -0.332366        -9.0441
  41   2.0000      -0.318035        -8.6542
  42   2.0000      -0.313273        -8.5246
  43   2.0000      -0.236408        -6.4330
  44   2.0000      -0.235363        -6.4046
  45   0.0000      -0.004523        -0.1231
  46   0.0000      -0.001321        -0.0359
  47   0.0000       0.054300         1.4776
  48   0.0000       0.069604         1.8940
  49   0.0000       0.071353         1.9416

MULLIKEN ATOMIC CHARGES
-----------------------
   0 C :   -0.025993
   1 C :   -0.061052
   2 C :    0.069327
   3 C :    0.022602
   4 C :   -0.062058
   5 C :    0.081736
   6 C :    0.022200
   7 C :   -0.065048
   8 C :    0.070150
   9 C :    0.016959
  10 C :   -0.023290
  11 C :    0.031682
  12 H :   -0.035220
  13 H :   -0.005865
  14 H :   -0.008732
  15 H :    0.007374
  16 H :    0.011544
  17 H :    0.002960
  18 H :   -0.015247
  19 H :   -0.008677
  20 H :    0.002370
  21 H :    0.009683
  22 H :    0.011950
  23 H :   -0.007605
  24 H :   -0.005541
  25 H :    0.006528
  26 H :    0.013225
  27 H :    0.011502
  28 H :   -0.038573
  29 H :   -0.028891
Sum of atomic charges:    0.0000000

LOEWDIN ATOMIC CHARGES
----------------------
   0 C :   -0.033675
   1 C :   -0.021011
   2 C :   -0.027832
   3 C :   -0.048934
   4 C :   -0.023583
   5 C :   -0.030664
   6 C :   -0.047489
   7 C :   -0.019629
   8 C :   -0.029040
   9 C :   -0.050107
  10 C :   -0.034819
  11 C :   -0.030382
  12 H :    0.021185
  13 H :    0.026066
  14 H :    0.020669
  15 H :    0.021726
  16 H :    0.022085
  17 H :    0.019404
  18 H :    0.021991
  19 H :    0.023710
  20 H :    0.019714
  21 H :    0.022239
  22 H :    0.020503
  23 H :    0.024731
  24 H :    0.022385
  25 H :    0.023374
  26 H :    0.022255
  27 H :    0.019966
  28 H :    0.021045
  29 H :    0.024114

  Mayer bond orders larger than 0.100000
B(  0-C ,  1-C ) :   1.3758 B(  0-C , 11-C ) :   1.3790 B(  0-C , 12-H ) :   0.9827
B(  1-C ,  2-C ) :   1.0553 B(  1-C ,  4-C ) :   1.4131 B(  2-C ,  3-C ) :   1.1050
B(  2-C , 13-H ) :   0.9198 B(  2-C , 14-H ) :   0.9266 B(  3-C , 15-H ) :   0.9661
B(  3-C , 16-H ) :   0.9629 B(  3-C , 17-H ) :   0.9649 B(  4-C ,  5-C ) :   1.0835
B(  4-C ,  7-C ) :   1.3794 B(  5-C ,  6-C ) :   1.1106 B(  5-C , 18-H ) :   0.9119
B(  5-C , 19-H ) :   0.9014 B(  6-C , 20-H ) :   0.9610 B(  6-C , 21-H ) :   0.9618
B(  6-C , 22-H ) :   0.9624 B(  7-C ,  8-C ) :   1.0600 B(  7-C , 10-C ) :   1.4065
B(  8-C ,  9-C ) :   1.1105 B(  8-C , 23-H ) :   0.9216 B(  8-C , 24-H ) :   0.9124
B(  9-C , 25-H ) :   0.9615 B(  9-C , 26-H ) :   0.9655 B(  9-C , 27-H ) :   0.9629
B( 10-C , 11-C ) :   1.3493 B( 10-C , 28-H ) :   0.9815 B( 11-C , 29-H ) :   0.9807

Dispersion correction           -0.055545703
FINAL SINGLE POINT ENERGY      -467.852602930084

DIPOLE MOMENT
-------------
                                X             Y             Z
Electronic contribution:      3.23944      -7.47161      -2.42684
Nuclear contribution   :     -3.32879       7.65488       2.53761
                        -----------------------------------------
Total Dipole Moment    :     -0.08935       0.18328       0.11077
                        -----------------------------------------
Magnitude (a.u.)       :      0.23204
Magnitude (Debye)      :      0.58981

Rotational constants in cm-1:     0.040772     0.025255     0.017731
Rotational constants in MHz :  1222.322682   757.118380   531.570696

                             ****ORCA TERMINATED NORMALLY****
TOTAL RUN TIME: 0 days 0 hours 29 minutes 36 seconds 295 msec
