                         Program Version 4.2.0 -  RELEASE  -
|  1> # ORCA input file
|  2> # SCF done        -23.465052308367          0.000526296382
|  3> ! B3LYP/G D3BJ Opt RIJCOSX def2-SVP def2/J
|  4> * xyz 0 1
|  5>    C       -1.23784        -1.25615         0.04046
|  6>    S       -2.40701         0.03110        -0.02786
|  7>    C        0.01013        -0.74147         0.06448
|  8>    N        1.32090        -1.18587         0.18558
|  9>    C        2.16052        -0.00076         0.03782
| 10>    O        1.32087         1.14404         0.02269
| 11>    C        0.03681         0.68433         0.02111
| 12>    C       -1.17960         1.26182        -0.03303
| 13>    H       -1.56802        -2.27298         0.06108
| 14>    H        1.60131        -2.00377        -0.33345
| 15>    H        2.75689        -0.01773        -0.89027
| 16>    H        2.84503         0.08321         0.89472
| 17>    H       -1.45397         2.29400        -0.07840
| 18> *
| 19>
| 20>                          ****END OF INPUT****
 Total Charge           Charge          ....    0
 Multiplicity           Mult            ....    1
 Number of Electrons    NEL             ....   66
Dispersion correction           -0.023905325
FINAL SINGLE POINT ENERGY      -721.333557184657
Dispersion correction            ... done
Dispersion correction           -0.023904989
FINAL SINGLE POINT ENERGY      -721.335354673721
Dispersion correction            ... done
Dispersion correction           -0.023913871
FINAL SINGLE POINT ENERGY      -721.335471598951
Dispersion correction            ... done
FINAL SINGLE POINT ENERGY      -721.335533228366
FINAL SINGLE POINT ENERGY      -721.335552901127
FINAL SINGLE POINT ENERGY      -721.335567205585
FINAL SINGLE POINT ENERGY      -721.335566175380
FINAL SINGLE POINT ENERGY      -721.335526248938
FINAL SINGLE POINT ENERGY      -721.335505771620
FINAL SINGLE POINT ENERGY      -721.335501244298
FINAL SINGLE POINT ENERGY      -721.335522718663
FINAL SINGLE POINT ENERGY      -721.335509638788
Dispersion correction            ... done
Dispersion correction           -0.023926272
FINAL SINGLE POINT ENERGY      -721.335535977259
Dispersion correction            ... done
Dispersion correction           -0.023926654
FINAL SINGLE POINT ENERGY      -721.335528600065
Dispersion correction            ... done
                    ***********************HURRAY********************

CARTESIAN COORDINATES (ANGSTROEM)
---------------------------------
  C     -1.246735   -1.266160   -0.008668
  S     -2.418769    0.035153   -0.136104
  C      0.012506   -0.748390    0.102033
  N      1.332083   -1.178793    0.285703
  C      2.171851    0.002277    0.029165
  O      1.317286    1.134970    0.197000
  C      0.036554    0.678999    0.080488
  C     -1.183008    1.272776   -0.040946
  H     -1.580684   -2.301187   -0.009893
  H      1.619504   -2.028123   -0.189782
  H      2.585362    0.005529   -1.002805
  H      3.004120    0.085738    0.745775
  H     -1.444048    2.326980   -0.087037

 Multiplicity           Mult            ....    1
 Number of Electrons    NEL             ....   66
 Basis Dimension        Dim             ....  141

ORBITAL ENERGIES
----------------

  NO   OCC          E(Eh)            E(eV)
   0   2.0000     -88.860977     -2418.0301
   1   2.0000     -19.171760      -521.6901
   2   2.0000     -14.351273      -390.5180
   3   2.0000     -10.286728      -279.9161
   4   2.0000     -10.240253      -278.6515
   5   2.0000     -10.223313      -278.1905
   6   2.0000     -10.203041      -277.6389
   7   2.0000     -10.202844      -277.6335
   8   2.0000      -7.955281      -216.4742
   9   2.0000      -5.924010      -161.2005
  10   2.0000      -5.919797      -161.0859
  11   2.0000      -5.915683      -160.9739
  12   2.0000      -1.083200       -29.4754
  13   2.0000      -0.920730       -25.0543
  14   2.0000      -0.861610       -23.4456
  15   2.0000      -0.737390       -20.0654
  16   2.0000      -0.710209       -19.3258
  17   2.0000      -0.655009       -17.8237
  18   2.0000      -0.600758       -16.3474
  19   2.0000      -0.565165       -15.3789
  20   2.0000      -0.525057       -14.2875
  21   2.0000      -0.504859       -13.7379
  22   2.0000      -0.472046       -12.8450
  23   2.0000      -0.460894       -12.5416
  24   2.0000      -0.418994       -11.4014
  25   2.0000      -0.396767       -10.7966
  26   2.0000      -0.391992       -10.6666
  27   2.0000      -0.364244        -9.9116
  28   2.0000      -0.347670        -9.4606
  29   2.0000      -0.340540        -9.2666
  30   2.0000      -0.301318        -8.1993
  31   2.0000      -0.223147        -6.0722
  32   2.0000      -0.197784        -5.3820
  33   0.0000      -0.001346        -0.0366
  34   0.0000       0.036685         0.9982
  35   0.0000       0.048010         1.3064
  36   0.0000       0.083518         2.2726
  37   0.0000       0.087044         2.3686

MULLIKEN ATOMIC CHARGES
-----------------------
   0 C :   -0.216149
   1 S :    0.056059
   2 C :    0.138393
   3 N :   -0.212868
   4 C :    0.343124
   5 O :   -0.318319
   6 C :    0.218413
   7 C :   -0.192104
   8 H :    0.008110
   9 H :    0.121934
  10 H :    0.004495
  11 H :    0.027673
  12 H :    0.021239
Sum of atomic charges:   -0.0000000

LOEWDIN ATOMIC CHARGES
----------------------
   0 C :   -0.239992
   1 S :    0.388905
   2 C :   -0.042597
   3 N :   -0.071262
   4 C :    0.169188
   5 O :   -0.111559
   6 C :   -0.002684
   7 C :   -0.230787
   8 H :    0.020986
   9 H :    0.076162
  10 H :   -0.000192
  11 H :    0.016283
  12 H :    0.027549

  Mayer bond orders larger than 0.100000
B(  0-C ,  1-S ) :   1.0886 B(  0-C ,  2-C ) :   1.5248 B(  0-C ,  8-H ) :   0.9904
B(  1-S ,  7-C ) :   1.1023 B(  2-C ,  3-N ) :   1.0883 B(  2-C ,  6-C ) :   1.2276
B(  3-N ,  4-C ) :   1.0124 B(  3-N ,  9-H ) :   0.9313 B(  4-C ,  5-O ) :   0.9858
B(  4-C , 10-H ) :   0.9434 B(  4-C , 11-H ) :   0.9577 B(  5-O ,  6-C ) :   1.0821
B(  6-C ,  7-C ) :   1.5569 B(  7-C , 12-H ) :   0.9813

Dispersion correction           -0.023927142
FINAL SINGLE POINT ENERGY      -721.335524440494

DIPOLE MOMENT
-------------
                                X             Y             Z
Electronic contribution:     -4.59303       1.14884       0.28014
Nuclear contribution   :      5.35175      -1.78809      -0.65593
                        -----------------------------------------
Total Dipole Moment    :      0.75872      -0.63925      -0.37580
                        -----------------------------------------
Magnitude (a.u.)       :      1.06091
Magnitude (Debye)      :      2.69661

Rotational constants in cm-1:     0.155165     0.048267     0.037239
Rotational constants in MHz :  4651.717256  1447.017398  1116.391978

                             ****ORCA TERMINATED NORMALLY****
TOTAL RUN TIME: 0 days 0 hours 7 minutes 33 seconds 739 msec
