                         Program Version 4.2.0 -  RELEASE  -
|  1> # ORCA input file
|  2> # SCF done        -39.857154423297          0.000470735947
|  3> ! B3LYP/G D3BJ Opt RIJCOSX def2-SVP def2/J
|  4> * xyz 0 1
|  5>    C        0.45547        -1.03197         0.33492
|  6>    C        1.00545         0.19199         0.21104
|  7>    C       -0.05565         1.17779         0.26653
|  8>    C       -1.30512         0.39768         0.44586
|  9>    C       -0.98519        -0.91338         0.48603
| 10>    O       -2.50573         1.00989         0.55420
| 11>    C       -3.61126         0.16527         0.76598
| 12>    C        0.05358         2.52508         0.16987
| 13>    C       -1.01147         3.50822         0.18348
| 14>    C       -0.46236         4.73152         0.04977
| 15>    C        0.98321         4.61638        -0.04744
| 16>    C        1.30562         3.30704         0.02012
| 17>    O        2.51318         2.69967        -0.01471
| 18>    C        3.62866         3.55203        -0.11543
| 19>    H        0.97258        -1.97486         0.32688
| 20>    H        2.03905         0.43942         0.08201
| 21>    H       -1.64348        -1.75289         0.60622
| 22>    H       -4.48090         0.81489         0.85031
| 23>    H       -3.49363        -0.41335         1.68795
| 24>    H       -3.74792        -0.52444        -0.07316
| 25>    H       -2.04833         3.25838         0.27665
| 26>    H       -0.98318         5.67187         0.01736
| 27>    H        1.64265         5.45669        -0.15488
| 28>    H        4.50692         2.90872        -0.10881
| 29>    H        3.67293         4.24372         0.73203
| 30>    H        3.60221         4.12856        -1.04568
| 31> *
| 32>
| 33>                          ****END OF INPUT****
 Total Charge           Charge          ....    0
 Multiplicity           Mult            ....    1
 Number of Electrons    NEL             ....  100
Dispersion correction           -0.048384419
FINAL SINGLE POINT ENERGY      -614.443639557920
Dispersion correction            ... done
Dispersion correction           -0.048278649
FINAL SINGLE POINT ENERGY      -614.447088435802
Dispersion correction            ... done
Dispersion correction           -0.048287272
FINAL SINGLE POINT ENERGY      -614.447234645514
Dispersion correction            ... done
FINAL SINGLE POINT ENERGY      -614.447254364015
Dispersion correction            ... done
Dispersion correction           -0.048300033
FINAL SINGLE POINT ENERGY      -614.447257774446
Dispersion correction            ... done
Dispersion correction           -0.048298441
FINAL SINGLE POINT ENERGY      -614.447255199899
Dispersion correction            ... done
                    ***********************HURRAY********************

CARTESIAN COORDINATES (ANGSTROEM)
---------------------------------
  C      0.469838   -1.049644    0.392806
  C      1.031937    0.182120    0.273366
  C     -0.047462    1.175275    0.303605
  C     -1.307293    0.386850    0.468869
  C     -0.993753   -0.938758    0.514267
  O     -2.502294    0.997124    0.553497
  C     -3.630430    0.160912    0.694748
  C      0.050956    2.531985    0.196181
  C     -1.028282    3.525296    0.227593
  C     -0.466009    4.757069    0.109157
  C      0.997504    4.646047   -0.012881
  C      1.310832    3.320339    0.030990
  O      2.505626    2.709896   -0.055516
  C      3.633915    3.546089   -0.195404
  H      1.008880   -1.998039    0.402216
  H      2.081084    0.434389    0.164683
  H     -1.677386   -1.776262    0.631531
  H     -4.510479    0.815686    0.730319
  H     -3.572328   -0.432300    1.625386
  H     -3.721141   -0.534970   -0.158669
  H     -2.077379    3.273139    0.336897
  H     -1.004832    5.705602    0.101375
  H      1.681246    5.483492   -0.129936
  H      4.513827    2.891192   -0.232136
  H      3.724859    4.240511    0.659187
  H      3.575854    4.140879   -1.125030

 Multiplicity           Mult            ....    1
 Number of Electrons    NEL             ....  100
 Basis Dimension        Dim             ....  256

ORBITAL ENERGIES
----------------

  NO   OCC          E(Eh)            E(eV)
   0   2.0000     -19.172645      -521.7142
   1   2.0000     -19.172619      -521.7135
   2   2.0000     -10.247995      -278.8621
   3   2.0000     -10.247990      -278.8620
   4   2.0000     -10.241950      -278.6976
   5   2.0000     -10.241928      -278.6970
   6   2.0000     -10.207279      -277.7542
   7   2.0000     -10.206778      -277.7406
   8   2.0000     -10.187410      -277.2135
   9   2.0000     -10.187408      -277.2135
  10   2.0000     -10.174889      -276.8728
  11   2.0000     -10.174888      -276.8728
  12   2.0000     -10.166787      -276.6523
  13   2.0000     -10.166771      -276.6519
  14   2.0000      -1.067195       -29.0398
  15   2.0000      -1.066742       -29.0275
  16   2.0000      -0.862541       -23.4709
  17   2.0000      -0.840352       -22.8671
  18   2.0000      -0.744037       -20.2463
  19   2.0000      -0.733287       -19.9538
  20   2.0000      -0.720443       -19.6043
  21   2.0000      -0.676028       -18.3957
  22   2.0000      -0.669426       -18.2160
  23   2.0000      -0.633359       -17.2346
  24   2.0000      -0.561843       -15.2885
  25   2.0000      -0.559135       -15.2148
  26   2.0000      -0.548515       -14.9258
  27   2.0000      -0.545020       -14.8307
  28   2.0000      -0.518115       -14.0986
  29   2.0000      -0.475903       -12.9500
  30   2.0000      -0.474096       -12.9008
  31   2.0000      -0.470037       -12.7903
  32   2.0000      -0.469750       -12.7825
  33   2.0000      -0.441684       -12.0188
  34   2.0000      -0.434355       -11.8194
  35   2.0000      -0.430432       -11.7126
  36   2.0000      -0.402798       -10.9607
  37   2.0000      -0.393681       -10.7126
  38   2.0000      -0.386274       -10.5111
  39   2.0000      -0.374884       -10.2011
  40   2.0000      -0.369401       -10.0519
  41   2.0000      -0.367087        -9.9889
  42   2.0000      -0.357481        -9.7276
  43   2.0000      -0.342710        -9.3256
  44   2.0000      -0.320040        -8.7087
  45   2.0000      -0.316603        -8.6152
  46   2.0000      -0.312236        -8.4964
  47   2.0000      -0.247248        -6.7280
  48   2.0000      -0.197687        -5.3793
  49   2.0000      -0.195133        -5.3098
  50   0.0000      -0.095471        -2.5979
  51   0.0000       0.038988         1.0609
  52   0.0000       0.063319         1.7230
  53   0.0000       0.065226         1.7749
  54   0.0000       0.076772         2.0891

MULLIKEN ATOMIC CHARGES
-----------------------
   0 C :    0.057584
   1 C :   -0.021634
   2 C :    0.007802
   3 C :    0.190378
   4 C :   -0.129641
   5 O :   -0.300492
   6 C :    0.195881
   7 C :    0.007818
   8 C :   -0.021614
   9 C :    0.057596
  10 C :   -0.129628
  11 C :    0.190350
  12 O :   -0.300499
  13 C :    0.195891
  14 H :   -0.020891
  15 H :   -0.016232
  16 H :   -0.032128
  17 H :    0.030301
  18 H :    0.018468
  19 H :    0.020606
  20 H :   -0.016250
  21 H :   -0.020896
  22 H :   -0.032125
  23 H :    0.030293
  24 H :    0.020573
  25 H :    0.018492
Sum of atomic charges:   -0.0000000

LOEWDIN ATOMIC CHARGES
----------------------
   0 C :    0.002553
   1 C :   -0.068377
   2 C :    0.016588
   3 C :    0.041757
   4 C :   -0.114873
   5 O :   -0.079380
   6 C :    0.085398
   7 C :    0.016587
   8 C :   -0.068372
   9 C :    0.002558
  10 C :   -0.114868
  11 C :    0.041761
  12 O :   -0.079374
  13 C :    0.085391
  14 H :    0.021366
  15 H :    0.021479
  16 H :    0.018352
  17 H :    0.025200
  18 H :    0.014874
  19 H :    0.015061
  20 H :    0.021475
  21 H :    0.021366
  22 H :    0.018352
  23 H :    0.025198
  24 H :    0.015056
  25 H :    0.014871

  Mayer bond orders larger than 0.100000
B(  0-C ,  1-C ) :   1.6283 B(  0-C ,  4-C ) :   1.0296 B(  0-C , 14-H ) :   0.9930
B(  1-C ,  2-C ) :   1.1047 B(  1-C , 15-H ) :   1.0073 B(  2-C ,  3-C ) :   1.0359
B(  2-C ,  7-C ) :   1.5655 B(  3-C ,  4-C ) :   1.5787 B(  3-C ,  5-O ) :   1.1526
B(  4-C , 16-H ) :   1.0082 B(  5-O ,  6-C ) :   0.9586 B(  6-C , 17-H ) :   0.9785
B(  6-C , 18-H ) :   0.9639 B(  6-C , 19-H ) :   0.9635 B(  7-C ,  8-C ) :   1.1047
B(  7-C , 11-C ) :   1.0359 B(  8-C ,  9-C ) :   1.6283 B(  8-C , 20-H ) :   1.0073
B(  9-C , 10-C ) :   1.0296 B(  9-C , 21-H ) :   0.9930 B( 10-C , 11-C ) :   1.5787
B( 10-C , 22-H ) :   1.0082 B( 11-C , 12-O ) :   1.1525 B( 12-O , 13-C ) :   0.9586
B( 13-C , 23-H ) :   0.9785 B( 13-C , 24-H ) :   0.9635 B( 13-C , 25-H ) :   0.9639

Dispersion correction           -0.048296741
FINAL SINGLE POINT ENERGY      -614.447253780449

DIPOLE MOMENT
-------------
                                X             Y             Z
Electronic contribution:     -0.00063       0.00001      -0.00384
Nuclear contribution   :      0.00067       0.00000       0.00464
                        -----------------------------------------
Total Dipole Moment    :      0.00004       0.00001       0.00080
                        -----------------------------------------
Magnitude (a.u.)       :      0.00080
Magnitude (Debye)      :      0.00204

Rotational constants in cm-1:     0.040592     0.016443     0.011756
Rotational constants in MHz :  1216.914940   492.939865   352.421538

                             ****ORCA TERMINATED NORMALLY****
TOTAL RUN TIME: 0 days 0 hours 11 minutes 53 seconds 346 msec
