                         Program Version 4.2.0 -  RELEASE  -
|  1> # ORCA input file
|  2> # SCF done        -30.687566862530          0.000469598719
|  3> ! B3LYP/G D3BJ Opt RIJCOSX def2-SVP def2/J
|  4> * xyz 0 1
|  5>    C        2.24482         0.84889         0.04860
|  6>    C        2.18166        -0.44126        -0.31039
|  7>    O        1.03240        -1.17121        -0.48442
|  8>    C       -0.17383        -0.57953        -0.27930
|  9>    C       -1.33373        -1.27370        -0.43128
| 10>    S       -2.71937        -0.30092        -0.11796
| 11>    C       -1.72627         1.06285         0.22476
| 12>    C       -0.40656         0.77396         0.10167
| 13>    S        0.89867         1.92318         0.37873
| 14>    C        3.39362        -1.20635        -0.55818
| 15>    C        3.40179        -2.47836        -0.94295
| 16>    H        3.19458         1.34011         0.16103
| 17>    H       -1.44195        -2.30120        -0.70999
| 18>    H       -2.16783         1.99928         0.49688
| 19>    H        4.31404        -0.66126        -0.40804
| 20>    H        2.48618        -3.02286        -1.09459
| 21>    H        4.32218        -3.00714        -1.11581
| 22> *
| 23>
| 24>                          ****END OF INPUT****
 Total Charge           Charge          ....    0
 Multiplicity           Mult            ....    1
 Number of Electrons    NEL             ....   94
Dispersion correction           -0.039477561
FINAL SINGLE POINT ENERGY     -1179.543654870850
Dispersion correction            ... done
Dispersion correction           -0.039351467
FINAL SINGLE POINT ENERGY     -1179.545991882356
Dispersion correction            ... done
Dispersion correction           -0.039331768
FINAL SINGLE POINT ENERGY     -1179.546133431262
Dispersion correction            ... done
FINAL SINGLE POINT ENERGY     -1179.546100848739
FINAL SINGLE POINT ENERGY     -1179.546139860239
Dispersion correction            ... done
Dispersion correction           -0.039345655
FINAL SINGLE POINT ENERGY     -1179.546146392242
Dispersion correction            ... done
Dispersion correction           -0.039348792
FINAL SINGLE POINT ENERGY     -1179.546145250106
Dispersion correction            ... done
                    ***********************HURRAY********************

CARTESIAN COORDINATES (ANGSTROEM)
---------------------------------
  C      2.244650    0.876889    0.028700
  C      2.194096   -0.415748   -0.359816
  O      1.032852   -1.118278   -0.583114
  C     -0.185396   -0.564601   -0.323800
  C     -1.345773   -1.279972   -0.457629
  S     -2.735862   -0.321125   -0.072411
  C     -1.745300    1.059471    0.273859
  C     -0.412989    0.789375    0.101096
  S      0.893745    1.949903    0.353424
  C      3.396463   -1.210083   -0.571501
  C      3.408837   -2.510145   -0.902869
  H      3.219922    1.339592    0.182001
  H     -1.438535   -2.314234   -0.779722
  H     -2.192326    1.999682    0.590936
  H      4.335685   -0.667461   -0.431227
  H      2.479655   -3.064550   -1.045823
  H      4.350675   -3.044233   -1.043346

 Multiplicity           Mult            ....    1
 Number of Electrons    NEL             ....   94
 Basis Dimension        Dim             ....  192

ORBITAL ENERGIES
----------------

  NO   OCC          E(Eh)            E(eV)
   0   2.0000     -88.881887     -2418.5991
   1   2.0000     -88.871213     -2418.3087
   2   2.0000     -19.190625      -522.2035
   3   2.0000     -10.265353      -279.3345
   4   2.0000     -10.263139      -279.2742
   5   2.0000     -10.230005      -278.3726
   6   2.0000     -10.222673      -278.1731
   7   2.0000     -10.220181      -278.1053
   8   2.0000     -10.215150      -277.9684
   9   2.0000     -10.202364      -277.6204
  10   2.0000     -10.190390      -277.2946
  11   2.0000      -7.976817      -217.0602
  12   2.0000      -7.965963      -216.7649
  13   2.0000      -5.945103      -161.7745
  14   2.0000      -5.941132      -161.6664
  15   2.0000      -5.937672      -161.5723
  16   2.0000      -5.935187      -161.5047
  17   2.0000      -5.931155      -161.3949
  18   2.0000      -5.924886      -161.2243
  19   2.0000      -1.089708       -29.6525
  20   2.0000      -0.893123       -24.3031
  21   2.0000      -0.836021       -22.7493
  22   2.0000      -0.800243       -21.7757
  23   2.0000      -0.741334       -20.1727
  24   2.0000      -0.732734       -19.9387
  25   2.0000      -0.688652       -18.7392
  26   2.0000      -0.633913       -17.2496
  27   2.0000      -0.596442       -16.2300
  28   2.0000      -0.578572       -15.7438
  29   2.0000      -0.539169       -14.6715
  30   2.0000      -0.502145       -13.6641
  31   2.0000      -0.489050       -13.3077
  32   2.0000      -0.464042       -12.6272
  33   2.0000      -0.461501       -12.5581
  34   2.0000      -0.438510       -11.9325
  35   2.0000      -0.418576       -11.3900
  36   2.0000      -0.405718       -11.0401
  37   2.0000      -0.390224       -10.6185
  38   2.0000      -0.386034       -10.5045
  39   2.0000      -0.369682       -10.0595
  40   2.0000      -0.360538        -9.8108
  41   2.0000      -0.342617        -9.3231
  42   2.0000      -0.339471        -9.2375
  43   2.0000      -0.306802        -8.3485
  44   2.0000      -0.259440        -7.0597
  45   2.0000      -0.239026        -6.5042
  46   2.0000      -0.192495        -5.2381
  47   0.0000      -0.038873        -1.0578
  48   0.0000      -0.023827        -0.6484
  49   0.0000       0.030832         0.8390
  50   0.0000       0.033374         0.9081
  51   0.0000       0.045559         1.2397

MULLIKEN ATOMIC CHARGES
-----------------------
   0 C :   -0.130107
   1 C :    0.210638
   2 O :   -0.270388
   3 C :    0.234718
   4 C :   -0.145887
   5 S :    0.107398
   6 C :   -0.136268
   7 C :   -0.042083
   8 S :    0.093785
   9 C :   -0.040038
  10 C :   -0.001699
  11 H :    0.028584
  12 H :    0.022544
  13 H :    0.027198
  14 H :   -0.010260
  15 H :    0.030064
  16 H :    0.021801
Sum of atomic charges:   -0.0000000

LOEWDIN ATOMIC CHARGES
----------------------
   0 C :   -0.219264
   1 C :    0.026603
   2 O :   -0.054577
   3 C :    0.004456
   4 C :   -0.215407
   5 S :    0.431335
   6 C :   -0.209065
   7 C :   -0.216311
   8 S :    0.355045
   9 C :   -0.039167
  10 C :   -0.042729
  11 H :    0.034681
  12 H :    0.030738
  13 H :    0.027659
  14 H :    0.032660
  15 H :    0.026720
  16 H :    0.026623

  Mayer bond orders larger than 0.100000
B(  0-C ,  1-C ) :   1.6955 B(  0-C ,  8-S ) :   1.0204 B(  0-C , 10-C ) :   0.1120
B(  0-C , 11-H ) :   0.9277 B(  1-C ,  2-O ) :   1.0482 B(  1-C ,  9-C ) :   1.1180
B(  2-O ,  3-C ) :   1.0617 B(  3-C ,  4-C ) :   1.5808 B(  3-C ,  7-C ) :   1.2239
B(  4-C ,  5-S ) :   1.1321 B(  4-C , 12-H ) :   0.9587 B(  5-S ,  6-C ) :   1.1643
B(  6-C ,  7-C ) :   1.5665 B(  6-C , 13-H ) :   0.9654 B(  7-C ,  8-S ) :   0.9800
B(  9-C , 10-C ) :   1.9019 B(  9-C , 14-H ) :   0.9617 B( 10-C , 15-H ) :   0.9436
B( 10-C , 16-H ) :   0.9426

Dispersion correction           -0.039348254
FINAL SINGLE POINT ENERGY     -1179.546145153680

DIPOLE MOMENT
-------------
                                X             Y             Z
Electronic contribution:     -8.23495       5.16660       1.53088
Nuclear contribution   :      8.34907      -5.13557      -1.48554
                        -----------------------------------------
Total Dipole Moment    :      0.11412       0.03103       0.04534
                        -----------------------------------------
Magnitude (a.u.)       :      0.12666
Magnitude (Debye)      :      0.32194

Rotational constants in cm-1:     0.051737     0.020828     0.014859
Rotational constants in MHz :  1551.025246   624.421919   445.456768

                             ****ORCA TERMINATED NORMALLY****
TOTAL RUN TIME: 0 days 0 hours 7 minutes 21 seconds 78 msec
