                         Program Version 4.2.0 -  RELEASE  -
|  1> # ORCA input file
|  2> # SCF done        -26.912272366343          0.000972280310
|  3> ! B3LYP/G D3BJ Opt RIJCOSX def2-SVP def2/J
|  4> * xyz 0 1
|  5>    C        0.88681         1.45126         0.17056
|  6>    S        2.32159         0.51343         0.12520
|  7>    C        1.45979        -0.99523        -0.07319
|  8>    C        0.11547        -0.73345        -0.09787
|  9>    C       -0.21677         0.65771         0.04190
| 10>    N       -1.55522         0.92715         0.02233
| 11>    C       -2.23315        -0.13750        -0.12028
| 12>    S       -1.34416        -1.65684        -0.25629
| 13>    C        2.18557        -2.23078        -0.17093
| 14>    C        1.62431        -3.42635        -0.33235
| 15>    H        0.93480         2.51366         0.28855
| 16>    H       -3.30493        -0.15724        -0.16318
| 17>    H        3.26085        -2.13271        -0.10049
| 18>    H        0.55743        -3.54891        -0.40892
| 19>    H        2.22051        -4.31904        -0.39596
| 20> *
| 21>
| 22>                          ****END OF INPUT****
 Total Charge           Charge          ....    0
 Multiplicity           Mult            ....    1
 Number of Electrons    NEL             ....   86
Dispersion correction           -0.036926799
FINAL SINGLE POINT ENERGY     -1120.428678872471
Dispersion correction            ... done
Dispersion correction           -0.036682974
FINAL SINGLE POINT ENERGY     -1120.431424447676
Dispersion correction            ... done
Dispersion correction           -0.036626127
FINAL SINGLE POINT ENERGY     -1120.431511277345
Dispersion correction            ... done
FINAL SINGLE POINT ENERGY     -1120.431484508191
Dispersion correction            ... done
Dispersion correction           -0.036599281
FINAL SINGLE POINT ENERGY     -1120.431521224537
Dispersion correction            ... done
Dispersion correction           -0.036603422
FINAL SINGLE POINT ENERGY     -1120.431531928972
Dispersion correction            ... done
                    ***********************HURRAY********************

CARTESIAN COORDINATES (ANGSTROEM)
---------------------------------
  C      0.893236    1.467407    0.172615
  S      2.320494    0.510275    0.122245
  C      1.451414   -1.002331   -0.075623
  C      0.096356   -0.726568   -0.096505
  C     -0.227340    0.670613    0.042976
  N     -1.576312    0.975184    0.023214
  C     -2.271410   -0.097370   -0.117635
  S     -1.384274   -1.641196   -0.245773
  C      2.191150   -2.245940   -0.176174
  C      1.664079   -3.472820   -0.333070
  H      0.942695    2.545993    0.302687
  H     -3.363533   -0.117048   -0.172300
  H      3.280529   -2.146597   -0.110010
  H      0.587009   -3.642701   -0.410485
  H      2.308806   -4.351744   -0.397081

 Multiplicity           Mult            ....    1
 Number of Electrons    NEL             ....   86
 Basis Dimension        Dim             ....  173

ORBITAL ENERGIES
----------------

  NO   OCC          E(Eh)            E(eV)
   0   2.0000     -88.889275     -2418.8001
   1   2.0000     -88.883948     -2418.6552
   2   2.0000     -14.340758      -390.2319
   3   2.0000     -10.262155      -279.2474
   4   2.0000     -10.232633      -278.4441
   5   2.0000     -10.232179      -278.4317
   6   2.0000     -10.226684      -278.2822
   7   2.0000     -10.224065      -278.2109
   8   2.0000     -10.212386      -277.8932
   9   2.0000     -10.196225      -277.4534
  10   2.0000      -7.983932      -217.2538
  11   2.0000      -7.978759      -217.1131
  12   2.0000      -5.952009      -161.9624
  13   2.0000      -5.947940      -161.8517
  14   2.0000      -5.947135      -161.8298
  15   2.0000      -5.945364      -161.7816
  16   2.0000      -5.943328      -161.7262
  17   2.0000      -5.939191      -161.6136
  18   2.0000      -0.970723       -26.4147
  19   2.0000      -0.885736       -24.1021
  20   2.0000      -0.807567       -21.9750
  21   2.0000      -0.784326       -21.3426
  22   2.0000      -0.735054       -20.0018
  23   2.0000      -0.705328       -19.1930
  24   2.0000      -0.619819       -16.8661
  25   2.0000      -0.611073       -16.6281
  26   2.0000      -0.565327       -15.3833
  27   2.0000      -0.535524       -14.5723
  28   2.0000      -0.477685       -12.9985
  29   2.0000      -0.468775       -12.7560
  30   2.0000      -0.465603       -12.6697
  31   2.0000      -0.450948       -12.2709
  32   2.0000      -0.438479       -11.9316
  33   2.0000      -0.404084       -10.9957
  34   2.0000      -0.386163       -10.5080
  35   2.0000      -0.372991       -10.1496
  36   2.0000      -0.362723        -9.8702
  37   2.0000      -0.352312        -9.5869
  38   2.0000      -0.323596        -8.8055
  39   2.0000      -0.289660        -7.8820
  40   2.0000      -0.287148        -7.8137
  41   2.0000      -0.254769        -6.9326
  42   2.0000      -0.215648        -5.8681
  43   0.0000      -0.062406        -1.6981
  44   0.0000      -0.028978        -0.7885
  45   0.0000       0.008445         0.2298
  46   0.0000       0.019083         0.5193
  47   0.0000       0.046830         1.2743

MULLIKEN ATOMIC CHARGES
-----------------------
   0 C :   -0.145664
   1 S :    0.124003
   2 C :   -0.201373
   3 C :   -0.006830
   4 C :    0.103890
   5 N :   -0.078287
   6 C :    0.009008
   7 S :    0.076109
   8 C :    0.041320
   9 C :   -0.040491
  10 H :    0.028001
  11 H :    0.052052
  12 H :   -0.008965
  13 H :    0.018597
  14 H :    0.028628
Sum of atomic charges:   -0.0000000

LOEWDIN ATOMIC CHARGES
----------------------
   0 C :   -0.195809
   1 S :    0.460554
   2 C :   -0.201006
   3 C :   -0.203666
   4 C :   -0.063665
   5 N :   -0.092037
   6 C :   -0.097559
   7 S :    0.358305
   8 C :   -0.045078
   9 C :   -0.052466
  10 H :    0.033554
  11 H :    0.023495
  12 H :    0.030248
  13 H :    0.016056
  14 H :    0.029073

  Mayer bond orders larger than 0.100000
B(  0-C ,  1-S ) :   1.1675 B(  0-C ,  2-C ) :   0.1039 B(  0-C ,  4-C ) :   1.4509
B(  0-C , 10-H ) :   0.9745 B(  1-S ,  2-C ) :   1.1354 B(  2-C ,  3-C ) :   1.5063
B(  2-C ,  8-C ) :   1.1319 B(  3-C ,  4-C ) :   1.2258 B(  3-C ,  7-S ) :   1.0560
B(  4-C ,  5-N ) :   1.2515 B(  5-N ,  6-C ) :   1.7826 B(  5-N ,  7-S ) :   0.1221
B(  6-C ,  7-S ) :   1.0614 B(  6-C , 11-H ) :   0.9557 B(  8-C ,  9-C ) :   1.9046
B(  8-C , 12-H ) :   0.9478 B(  9-C , 13-H ) :   0.9514 B(  9-C , 14-H ) :   0.9439

Dispersion correction           -0.036602863
FINAL SINGLE POINT ENERGY     -1120.431531931851

DIPOLE MOMENT
-------------
                                X             Y             Z
Electronic contribution:     -1.77500       4.24660       0.39336
Nuclear contribution   :      1.89742      -4.55364      -0.41764
                        -----------------------------------------
Total Dipole Moment    :      0.12242      -0.30704      -0.02428
                        -----------------------------------------
Magnitude (a.u.)       :      0.33144
Magnitude (Debye)      :      0.84245

Rotational constants in cm-1:     0.047916     0.035722     0.020465
Rotational constants in MHz :  1436.482198  1070.928467   613.531795

                             ****ORCA TERMINATED NORMALLY****
TOTAL RUN TIME: 0 days 0 hours 5 minutes 15 seconds 661 msec
