                         Program Version 4.2.0 -  RELEASE  -
|  1> # ORCA input file
|  2> # SCF done        -18.281654293496          0.000746455879
|  3> ! B3LYP/G D3BJ Opt RIJCOSX def2-SVP def2/J
|  4> * xyz 0 1
|  5>    C        1.00402         1.26701         0.00605
|  6>    C       -0.41463         1.72494         0.00522
|  7>    N       -1.29651         0.78237         0.00225
|  8>    C       -0.54291        -0.37540         0.00105
|  9>    C       -0.46279        -1.72592         0.00001
| 10>    S        1.31818        -1.82966         0.00220
| 11>    C        0.87772        -0.05919         0.00370
| 12>    H        1.86099         1.91066         0.00808
| 13>    H       -0.70861         2.75914         0.00594
| 14>    H       -1.16146        -2.54043        -0.00153
| 15> *
| 16>
| 17>                          ****END OF INPUT****
 Total Charge           Charge          ....    0
 Multiplicity           Mult            ....    1
 Number of Electrons    NEL             ....   56
Dispersion correction           -0.018844538
FINAL SINGLE POINT ENERGY      -644.877258946643
Dispersion correction            ... done
Dispersion correction           -0.018851643
FINAL SINGLE POINT ENERGY      -644.879833155950
Dispersion correction            ... done
Dispersion correction           -0.018850181
FINAL SINGLE POINT ENERGY      -644.880224240971
Dispersion correction            ... done
FINAL SINGLE POINT ENERGY      -644.880366458083
FINAL SINGLE POINT ENERGY      -644.880399493066
Dispersion correction            ... done
Dispersion correction           -0.018863632
FINAL SINGLE POINT ENERGY      -644.880404988799
Dispersion correction            ... done
Dispersion correction           -0.018866700
FINAL SINGLE POINT ENERGY      -644.880406689980
Dispersion correction            ... done
                    ***********************HURRAY********************

CARTESIAN COORDINATES (ANGSTROEM)
---------------------------------
  C      1.014299    1.269463    0.005957
  C     -0.427563    1.729055    0.004825
  N     -1.318286    0.776298    0.002299
  C     -0.528650   -0.375714    0.001549
  C     -0.479455   -1.730213    0.000037
  S      1.364784   -1.836210    0.002177
  C      0.888489   -0.071263    0.003720
  H      1.887706    1.919919    0.008217
  H     -0.728096    2.782588    0.006002
  H     -1.199227   -2.550404   -0.001812

 Multiplicity           Mult            ....    1
 Number of Electrons    NEL             ....   56
 Basis Dimension        Dim             ....  117

ORBITAL ENERGIES
----------------

  NO   OCC          E(Eh)            E(eV)
   0   2.0000     -88.875238     -2418.4182
   1   2.0000     -14.328945      -389.9104
   2   2.0000     -10.259563      -279.1769
   3   2.0000     -10.245705      -278.7998
   4   2.0000     -10.228682      -278.3366
   5   2.0000     -10.228268      -278.3253
   6   2.0000     -10.218398      -278.0567
   7   2.0000      -7.968662      -216.8383
   8   2.0000      -5.938238      -161.5877
   9   2.0000      -5.935053      -161.5010
  10   2.0000      -5.926175      -161.2594
  11   2.0000      -0.968219       -26.3466
  12   2.0000      -0.868365       -23.6294
  13   2.0000      -0.766019       -20.8444
  14   2.0000      -0.688051       -18.7228
  15   2.0000      -0.646827       -17.6011
  16   2.0000      -0.578876       -15.7520
  17   2.0000      -0.529049       -14.3962
  18   2.0000      -0.500783       -13.6270
  19   2.0000      -0.453978       -12.3534
  20   2.0000      -0.432930       -11.7806
  21   2.0000      -0.410096       -11.1593
  22   2.0000      -0.392855       -10.6901
  23   2.0000      -0.344148        -9.3647
  24   2.0000      -0.333352        -9.0710
  25   2.0000      -0.277815        -7.5597
  26   2.0000      -0.277515        -7.5516
  27   2.0000      -0.221399        -6.0246
  28   0.0000      -0.102760        -2.7962
  29   0.0000      -0.018543        -0.5046
  30   0.0000       0.038933         1.0594
  31   0.0000       0.041658         1.1336
  32   0.0000       0.082748         2.2517

MULLIKEN ATOMIC CHARGES
-----------------------
   0 C :   -0.170093
   1 C :    0.054210
   2 N :   -0.111972
   3 C :    0.174862
   4 C :   -0.142859
   5 S :    0.043226
   6 C :    0.092222
   7 H :    0.006934
   8 H :    0.015305
   9 H :    0.038165
Sum of atomic charges:   -0.0000000

LOEWDIN ATOMIC CHARGES
----------------------
   0 C :   -0.069202
   1 C :    0.058543
   2 N :   -0.110469
   3 C :   -0.061874
   4 C :   -0.041106
   5 S :    0.256685
   6 C :   -0.113986
   7 H :    0.030496
   8 H :    0.021511
   9 H :    0.029401

  Mayer bond orders larger than 0.100000
B(  0-C ,  1-C ) :   0.9940 B(  0-C ,  4-C ) :   0.1048 B(  0-C ,  6-C ) :   1.7619
B(  0-C ,  7-H ) :   0.9992 B(  1-C ,  2-N ) :   1.7865 B(  1-C ,  4-C ) :   0.1238
B(  1-C ,  8-H ) :   0.9766 B(  2-N ,  3-C ) :   1.1737 B(  3-C ,  4-C ) :   1.5527
B(  3-C ,  6-C ) :   1.0695 B(  4-C ,  5-S ) :   0.9755 B(  4-C ,  9-H ) :   1.0036
B(  5-S ,  6-C ) :   0.9239

Dispersion correction           -0.018867403
FINAL SINGLE POINT ENERGY      -644.880407586138

DIPOLE MOMENT
-------------
                                X             Y             Z
Electronic contribution:      1.25566      -2.97586      -0.00297
Nuclear contribution   :     -0.87310       2.99608       0.00372
                        -----------------------------------------
Total Dipole Moment    :      0.38256       0.02023       0.00075
                        -----------------------------------------
Magnitude (a.u.)       :      0.38309
Magnitude (Debye)      :      0.97374

Rotational constants in cm-1:     0.204243     0.069013     0.051583
Rotational constants in MHz :  6123.065962  2068.959420  1546.427717

                             ****ORCA TERMINATED NORMALLY****
TOTAL RUN TIME: 0 days 0 hours 2 minutes 49 seconds 464 msec
