                         Program Version 4.2.0 -  RELEASE  -
|  1> # ORCA input file
|  2> # SCF done        -25.434492127176          0.000344542233
|  3> ! B3LYP/G D3BJ Opt RIJCOSX def2-SVP def2/J
|  4> * xyz 0 1
|  5>    C        1.44445         0.69882         0.03631
|  6>    C        0.17438         1.19197         0.03235
|  7>    C       -0.26721         2.61474         0.00813
|  8>    C       -0.70180         3.03383        -1.39825
|  9>    S       -0.98503        -0.09324        -0.00875
| 10>    C        0.27032        -1.30145        -0.01842
| 11>    C        1.50329        -0.70692         0.01021
| 12>    C       -0.09413        -2.69323        -0.05284
| 13>    C        0.76128        -3.71064        -0.10926
| 14>    H        2.31665         1.32884         0.06240
| 15>    H        0.56000         3.24630         0.33986
| 16>    H       -1.10353         2.75355         0.69752
| 17>    H        0.12179         2.91558        -2.09895
| 18>    H       -1.01632         4.07457        -1.40228
| 19>    H       -1.53233         2.41725        -1.73465
| 20>    H        2.42558        -1.25897         0.01494
| 21>    H       -1.15898        -2.88696        -0.03211
| 22>    H        1.82691        -3.56275        -0.13554
| 23>    H        0.41731        -4.72955        -0.13240
| 24> *
| 25>
| 26>                          ****END OF INPUT****
 Total Charge           Charge          ....    0
 Multiplicity           Mult            ....    1
 Number of Electrons    NEL             ....   74
Dispersion correction           -0.035275767
FINAL SINGLE POINT ENERGY      -708.739061590635
Dispersion correction            ... done
Dispersion correction           -0.034942578
FINAL SINGLE POINT ENERGY      -708.742033366709
Dispersion correction            ... done
Dispersion correction           -0.034891578
FINAL SINGLE POINT ENERGY      -708.742137222566
Dispersion correction            ... done
FINAL SINGLE POINT ENERGY      -708.742147832079
FINAL SINGLE POINT ENERGY      -708.742163014488
FINAL SINGLE POINT ENERGY      -708.742147995536
FINAL SINGLE POINT ENERGY      -708.742125910163
Dispersion correction            ... done
Dispersion correction           -0.034912010
FINAL SINGLE POINT ENERGY      -708.742102984295
Dispersion correction            ... done
Dispersion correction           -0.034908450
FINAL SINGLE POINT ENERGY      -708.742104384161
Dispersion correction            ... done
                    ***********************HURRAY********************

CARTESIAN COORDINATES (ANGSTROEM)
---------------------------------
  C      1.502442    0.700625    0.090078
  C      0.226724    1.211300   -0.010545
  C     -0.219444    2.644116   -0.034910
  C     -0.809327    3.071190   -1.386181
  S     -0.928059   -0.081089   -0.163265
  C      0.311508   -1.311111   -0.075261
  C      1.554249   -0.721225    0.055969
  C     -0.079382   -2.713028   -0.127450
  C      0.740240   -3.774662   -0.069888
  H      2.381678    1.338809    0.196097
  H      0.648427    3.274416    0.218859
  H     -0.964767    2.817292    0.761247
  H     -0.060396    2.968960   -2.186517
  H     -1.154840    4.116863   -1.358424
  H     -1.669722    2.439720   -1.656481
  H      2.477757   -1.295815    0.134976
  H     -1.156013   -2.895204   -0.220789
  H      1.825088   -3.670714    0.024305
  H      0.336467   -4.788704   -0.113549

 Multiplicity           Mult            ....    1
 Number of Electrons    NEL             ....   74
 Basis Dimension        Dim             ....  180

ORBITAL ENERGIES
----------------

  NO   OCC          E(Eh)            E(eV)
   0   2.0000     -88.866983     -2418.1935
   1   2.0000     -10.213351      -277.9194
   2   2.0000     -10.213002      -277.9099
   3   2.0000     -10.202747      -277.6309
   4   2.0000     -10.201248      -277.5901
   5   2.0000     -10.189690      -277.2756
   6   2.0000     -10.189347      -277.2662
   7   2.0000     -10.186830      -277.1977
   8   2.0000     -10.186578      -277.1909
   9   2.0000      -7.962235      -216.6634
  10   2.0000      -5.930149      -161.3675
  11   2.0000      -5.926366      -161.2646
  12   2.0000      -5.923689      -161.1918
  13   2.0000      -0.878344       -23.9010
  14   2.0000      -0.793380       -21.5890
  15   2.0000      -0.761929       -20.7331
  16   2.0000      -0.727668       -19.8009
  17   2.0000      -0.693366       -18.8675
  18   2.0000      -0.627463       -17.0741
  19   2.0000      -0.596834       -16.2407
  20   2.0000      -0.535535       -14.5726
  21   2.0000      -0.522400       -14.2152
  22   2.0000      -0.495840       -13.4925
  23   2.0000      -0.458111       -12.4658
  24   2.0000      -0.445610       -12.1257
  25   2.0000      -0.427539       -11.6339
  26   2.0000      -0.419412       -11.4128
  27   2.0000      -0.394436       -10.7332
  28   2.0000      -0.383695       -10.4409
  29   2.0000      -0.370865       -10.0917
  30   2.0000      -0.360017        -9.7966
  31   2.0000      -0.357038        -9.7155
  32   2.0000      -0.350573        -9.5396
  33   2.0000      -0.334586        -9.1046
  34   2.0000      -0.296366        -8.0645
  35   2.0000      -0.252429        -6.8689
  36   2.0000      -0.211020        -5.7422
  37   0.0000      -0.043023        -1.1707
  38   0.0000       0.025979         0.7069
  39   0.0000       0.029518         0.8032
  40   0.0000       0.064608         1.7581
  41   0.0000       0.077688         2.1140

MULLIKEN ATOMIC CHARGES
-----------------------
   0 C :    0.024566
   1 C :   -0.186927
   2 C :    0.098078
   3 C :   -0.001961
   4 S :    0.097420
   5 C :   -0.105852
   6 C :    0.010223
   7 C :    0.053004
   8 C :   -0.039183
   9 H :   -0.025579
  10 H :    0.002958
  11 H :    0.017826
  12 H :    0.020809
  13 H :    0.013375
  14 H :    0.016922
  15 H :   -0.024925
  16 H :   -0.010915
  17 H :    0.019109
  18 H :    0.021052
Sum of atomic charges:    0.0000000

LOEWDIN ATOMIC CHARGES
----------------------
   0 C :   -0.071702
   1 C :   -0.173264
   2 C :   -0.042501
   3 C :   -0.053022
   4 S :    0.416008
   5 C :   -0.181534
   6 C :   -0.058154
   7 C :   -0.041726
   8 C :   -0.054656
   9 H :    0.026214
  10 H :    0.032082
  11 H :    0.030976
  12 H :    0.025888
  13 H :    0.023423
  14 H :    0.020067
  15 H :    0.026696
  16 H :    0.027602
  17 H :    0.021763
  18 H :    0.025839

  Mayer bond orders larger than 0.100000
B(  0-C ,  1-C ) :   1.5626 B(  0-C ,  6-C ) :   1.2447 B(  0-C ,  9-H ) :   0.9888
B(  1-C ,  2-C ) :   1.0556 B(  1-C ,  4-S ) :   1.1413 B(  2-C ,  3-C ) :   1.0968
B(  2-C , 10-H ) :   0.9280 B(  2-C , 11-H ) :   0.9242 B(  3-C , 12-H ) :   0.9706
B(  3-C , 13-H ) :   0.9636 B(  3-C , 14-H ) :   0.9708 B(  4-S ,  5-C ) :   1.1129
B(  5-C ,  6-C ) :   1.5289 B(  5-C ,  7-C ) :   1.1048 B(  6-C , 15-H ) :   0.9869
B(  7-C ,  8-C ) :   1.9279 B(  7-C , 16-H ) :   0.9495 B(  8-C , 17-H ) :   0.9523
B(  8-C , 18-H ) :   0.9449

Dispersion correction           -0.034905702
FINAL SINGLE POINT ENERGY      -708.742108457126

DIPOLE MOMENT
-------------
                                X             Y             Z
Electronic contribution:     -1.63136      -4.32588       2.03322
Nuclear contribution   :      1.73482       4.64959      -2.02891
                        -----------------------------------------
Total Dipole Moment    :      0.10346       0.32371       0.00431
                        -----------------------------------------
Magnitude (a.u.)       :      0.33987
Magnitude (Debye)      :      0.86389

Rotational constants in cm-1:     0.128596     0.026137     0.022844
Rotational constants in MHz :  3855.220761   783.571963   684.834249

                             ****ORCA TERMINATED NORMALLY****
TOTAL RUN TIME: 0 days 0 hours 8 minutes 28 seconds 743 msec
