                         Program Version 4.2.0 -  RELEASE  -
|  1> # ORCA input file
|  2> # SCF done        -38.634882702589          0.000901378180
|  3> ! B3LYP/G D3BJ Opt RIJCOSX def2-SVP def2/J
|  4> * xyz 0 1
|  5>    C        3.13639         0.01781        -1.39669
|  6>    C        2.70235         0.38704        -0.19324
|  7>    C        3.16570         1.54269         0.51858
|  8>    O        4.10840         2.36644        -0.00492
|  9>    C        4.34547         3.36633         0.88245
| 10>    C        3.54076         3.18235         1.99489
| 11>    C        2.78347         2.01268         1.76206
| 12>    O        1.86612         1.46142         2.59204
| 13>    O        3.43632         3.93133         3.13031
| 14>    C        5.29770         4.38983         0.59769
| 15>    C        6.02026         4.46474        -0.53716
| 16>    C        6.97311         5.50284        -0.80482
| 17>    C        7.68519         5.58162        -1.92910
| 18>    H        2.75573        -0.85902        -1.88879
| 19>    H        3.88519         0.58917        -1.91800
| 20>    H        1.95048        -0.17878         0.33766
| 21>    H        1.81791         2.01310         3.38306
| 22>    H        4.03375         4.68385         3.07246
| 23>    H        5.42393         5.14479         1.36558
| 24>    H        5.88358         3.70678        -1.29507
| 25>    H        7.09943         6.25172        -0.03166
| 26>    H        7.57717         4.85208        -2.71454
| 27>    H        8.39341         6.37291        -2.10200
| 28> *
| 29>
| 30>                          ****END OF INPUT****
 Total Charge           Charge          ....    0
 Multiplicity           Mult            ....    1
 Number of Electrons    NEL             ....   94
Dispersion correction           -0.038431101
FINAL SINGLE POINT ENERGY      -612.265783873429
Dispersion correction            ... done
Dispersion correction           -0.038274247
FINAL SINGLE POINT ENERGY      -612.268414644648
Dispersion correction            ... done
Dispersion correction           -0.038246446
FINAL SINGLE POINT ENERGY      -612.268577807257
Dispersion correction            ... done
FINAL SINGLE POINT ENERGY      -612.268593161613
FINAL SINGLE POINT ENERGY      -612.268571482603
FINAL SINGLE POINT ENERGY      -612.268554238273
Dispersion correction            ... done
Dispersion correction           -0.038245589
FINAL SINGLE POINT ENERGY      -612.268546430465
Dispersion correction            ... done
Dispersion correction           -0.038245243
FINAL SINGLE POINT ENERGY      -612.268542191188
Dispersion correction            ... done
                    ***********************HURRAY********************

CARTESIAN COORDINATES (ANGSTROEM)
---------------------------------
  C      3.182545   -0.011283   -1.394203
  C      2.700289    0.389587   -0.203534
  C      3.142885    1.538725    0.536720
  O      4.125269    2.350024    0.036362
  C      4.375908    3.354039    0.931004
  C      3.537847    3.184436    2.022915
  C      2.748501    2.027815    1.768893
  O      1.798770    1.509215    2.575374
  O      3.385919    3.906112    3.161316
  C      5.351905    4.354953    0.626548
  C      6.029255    4.464256   -0.546230
  C      7.008193    5.493145   -0.821908
  C      7.665969    5.626145   -1.990223
  H      2.785834   -0.900729   -1.887088
  H      3.978882    0.539881   -1.900192
  H      1.906431   -0.177583    0.291459
  H      1.737114    2.063773    3.366164
  H      3.959790    4.682434    3.151673
  H      5.550215    5.086421    1.419762
  H      5.819925    3.736291   -1.337174
  H      7.211899    6.205369   -0.011637
  H      7.486675    4.935004   -2.819960
  H      8.391798    6.425689   -2.155251

 Multiplicity           Mult            ....    1
 Number of Electrons    NEL             ....   94
 Basis Dimension        Dim             ....  232

ORBITAL ENERGIES
----------------

  NO   OCC          E(Eh)            E(eV)
   0   2.0000     -19.195143      -522.3264
   1   2.0000     -19.190341      -522.1957
   2   2.0000     -19.174619      -521.7679
   3   2.0000     -10.255065      -279.0545
   4   2.0000     -10.249228      -278.8957
   5   2.0000     -10.246509      -278.8217
   6   2.0000     -10.239501      -278.6310
   7   2.0000     -10.207191      -277.7518
   8   2.0000     -10.196076      -277.4493
   9   2.0000     -10.195457      -277.4325
  10   2.0000     -10.194185      -277.3979
  11   2.0000     -10.186952      -277.2011
  12   2.0000     -10.181668      -277.0573
  13   2.0000      -1.104288       -30.0492
  14   2.0000      -1.073469       -29.2106
  15   2.0000      -1.055025       -28.7087
  16   2.0000      -0.818406       -22.2700
  17   2.0000      -0.795242       -21.6396
  18   2.0000      -0.787891       -21.4396
  19   2.0000      -0.751789       -20.4572
  20   2.0000      -0.701997       -19.1023
  21   2.0000      -0.650141       -17.6912
  22   2.0000      -0.620358       -16.8808
  23   2.0000      -0.605851       -16.4860
  24   2.0000      -0.583161       -15.8686
  25   2.0000      -0.559995       -15.2382
  26   2.0000      -0.537245       -14.6192
  27   2.0000      -0.504176       -13.7193
  28   2.0000      -0.491410       -13.3719
  29   2.0000      -0.477070       -12.9817
  30   2.0000      -0.469885       -12.7862
  31   2.0000      -0.457129       -12.4391
  32   2.0000      -0.435192       -11.8422
  33   2.0000      -0.418375       -11.3846
  34   2.0000      -0.407879       -11.0989
  35   2.0000      -0.407280       -11.0826
  36   2.0000      -0.401671       -10.9300
  37   2.0000      -0.392344       -10.6762
  38   2.0000      -0.389620       -10.6021
  39   2.0000      -0.363555        -9.8928
  40   2.0000      -0.353929        -9.6309
  41   2.0000      -0.350313        -9.5325
  42   2.0000      -0.338580        -9.2132
  43   2.0000      -0.301365        -8.2005
  44   2.0000      -0.263965        -7.1829
  45   2.0000      -0.231130        -6.2894
  46   2.0000      -0.187093        -5.0911
  47   0.0000      -0.062001        -1.6871
  48   0.0000      -0.004091        -0.1113
  49   0.0000       0.014224         0.3871
  50   0.0000       0.054176         1.4742
  51   0.0000       0.057585         1.5670

MULLIKEN ATOMIC CHARGES
-----------------------
   0 C :   -0.014440
   1 C :   -0.029316
   2 C :    0.071155
   3 O :   -0.247759
   4 C :    0.102277
   5 C :    0.079719
   6 C :    0.089436
   7 O :   -0.182611
   8 O :   -0.202400
   9 C :   -0.050086
  10 C :    0.011870
  11 C :    0.000143
  12 C :   -0.030566
  13 H :    0.017497
  14 H :    0.023253
  15 H :   -0.001442
  16 H :    0.187408
  17 H :    0.190723
  18 H :   -0.037012
  19 H :   -0.001314
  20 H :   -0.014271
  21 H :    0.016774
  22 H :    0.020961
Sum of atomic charges:   -0.0000000

LOEWDIN ATOMIC CHARGES
----------------------
   0 C :   -0.052652
   1 C :   -0.040162
   2 C :    0.003830
   3 O :   -0.010981
   4 C :   -0.012647
   5 C :   -0.022259
   6 C :   -0.008854
   7 O :   -0.047159
   8 O :   -0.057459
   9 C :   -0.054146
  10 C :   -0.025641
  11 C :   -0.031654
  12 C :   -0.054927
  13 H :    0.024474
  14 H :    0.024209
  15 H :    0.039178
  16 H :    0.100441
  17 H :    0.100351
  18 H :    0.022759
  19 H :    0.031497
  20 H :    0.024945
  21 H :    0.022798
  22 H :    0.024059

  Mayer bond orders larger than 0.100000
B(  0-C ,  1-C ) :   1.8603 B(  0-C , 13-H ) :   0.9416 B(  0-C , 14-H ) :   0.9548
B(  1-C ,  2-C ) :   1.1705 B(  1-C , 15-H ) :   0.9542 B(  2-C ,  3-O ) :   1.0944
B(  2-C ,  4-C ) :   0.1040 B(  2-C ,  6-C ) :   1.3956 B(  3-O ,  4-C ) :   1.1055
B(  4-C ,  5-C ) :   1.3023 B(  4-C ,  9-C ) :   1.1501 B(  5-C ,  6-C ) :   1.2179
B(  5-C ,  8-O ) :   1.2255 B(  6-C ,  7-O ) :   1.2553 B(  7-O , 16-H ) :   0.9537
B(  8-O , 17-H ) :   0.9548 B(  9-C , 10-C ) :   1.6517 B(  9-C , 12-C ) :   0.1090
B(  9-C , 18-H ) :   0.9534 B( 10-C , 11-C ) :   1.1238 B( 10-C , 19-H ) :   0.9794
B( 11-C , 12-C ) :   1.8650 B( 11-C , 20-H ) :   0.9654 B( 12-C , 21-H ) :   0.9525
B( 12-C , 22-H ) :   0.9481

Dispersion correction           -0.038244746
FINAL SINGLE POINT ENERGY      -612.268538270175

DIPOLE MOMENT
-------------
                                X             Y             Z
Electronic contribution:     -6.33390      -2.31963       7.82141
Nuclear contribution   :      6.39971       3.05623      -7.05705
                        -----------------------------------------
Total Dipole Moment    :      0.06582       0.73660       0.76436
                        -----------------------------------------
Magnitude (a.u.)       :      1.06356
Magnitude (Debye)      :      2.70335

Rotational constants in cm-1:     0.039736     0.015167     0.010984
Rotational constants in MHz :  1191.270207   454.680792   329.277082

                             ****ORCA TERMINATED NORMALLY****
TOTAL RUN TIME: 0 days 0 hours 11 minutes 19 seconds 705 msec
