                         Program Version 4.2.0 -  RELEASE  -
|  1> # ORCA input file
|  2> # SCF done        -38.951122860813          0.000739346554
|  3> ! B3LYP/G D3BJ Opt RIJCOSX def2-SVP def2/J
|  4> * xyz 0 1
|  5>    C        1.47452        -1.27392        -0.12380
|  6>    S        2.72902        -0.11464        -0.05316
|  7>    C        1.57772         1.18384         0.06199
|  8>    C        0.28475         0.70322         0.03137
|  9>    C        0.23197        -0.71418        -0.07835
| 10>    C       -1.01467        -1.54048        -0.19920
| 11>    C       -2.20583        -0.88077         0.46036
| 12>    S       -2.41991         0.69497        -0.41578
| 13>    O       -2.39618         0.44813        -1.82972
| 14>    O       -3.54805         1.40747         0.11945
| 15>    C       -0.91483         1.58386         0.08577
| 16>    C        2.10943         2.52158         0.15717
| 17>    C        1.48339         3.62332         0.56199
| 18>    H        1.71735        -2.31484        -0.20540
| 19>    H       -0.83428        -2.53611         0.21379
| 20>    H       -1.25099        -1.65208        -1.26252
| 21>    H       -2.04379        -0.63954         1.50709
| 22>    H       -3.11789        -1.45963         0.34582
| 23>    H       -1.12805         1.93657         1.09453
| 24>    H       -0.81392         2.43660        -0.58394
| 25>    H        3.15421         2.58864        -0.12190
| 26>    H        0.46383         3.63758         0.89842
| 27>    H        2.00286         4.56538         0.58525
| 28> *
| 29>
| 30>                          ****END OF INPUT****
 Total Charge           Charge          ....    0
 Multiplicity           Mult            ....    1
 Number of Electrons    NEL             ....  112
Dispersion correction           -0.056179921
FINAL SINGLE POINT ENERGY     -1295.172654127710
Dispersion correction            ... done
Dispersion correction           -0.055702205
FINAL SINGLE POINT ENERGY     -1295.179315972772
Dispersion correction            ... done
Dispersion correction           -0.055517754
FINAL SINGLE POINT ENERGY     -1295.180262851555
Dispersion correction            ... done
FINAL SINGLE POINT ENERGY     -1295.180300654645
FINAL SINGLE POINT ENERGY     -1295.180225366385
FINAL SINGLE POINT ENERGY     -1295.180284567561
FINAL SINGLE POINT ENERGY     -1295.180305465058
FINAL SINGLE POINT ENERGY     -1295.180305466704
FINAL SINGLE POINT ENERGY     -1295.180298557941
FINAL SINGLE POINT ENERGY     -1295.180288564166
FINAL SINGLE POINT ENERGY     -1295.180288381955
Dispersion correction            ... done
Dispersion correction           -0.055475185
FINAL SINGLE POINT ENERGY     -1295.180293763959
Dispersion correction            ... done
Dispersion correction           -0.055480598
FINAL SINGLE POINT ENERGY     -1295.180300869025
Dispersion correction            ... done
                    ***********************HURRAY********************

CARTESIAN COORDINATES (ANGSTROEM)
---------------------------------
  C      1.520773   -1.310037   -0.075932
  S      2.762668   -0.126301    0.019087
  C      1.604761    1.177736    0.099347
  C      0.306561    0.679348    0.050400
  C      0.261911   -0.753202   -0.065038
  C     -1.000235   -1.563709   -0.245157
  C     -2.232636   -0.914310    0.374792
  S     -2.459719    0.745767   -0.310235
  O     -2.470413    0.611104   -1.774593
  O     -3.552264    1.421442    0.398749
  C     -0.906610    1.558766    0.163087
  C      2.131661    2.531559    0.192896
  C      1.477717    3.687518    0.407913
  H      1.771310   -2.366167   -0.164659
  H     -0.864547   -2.570739    0.178831
  H     -1.196895   -1.689867   -1.322916
  H     -2.173538   -0.802259    1.467873
  H     -3.163061   -1.440612    0.114358
  H     -1.070063    1.930782    1.186829
  H     -0.862237    2.424158   -0.515180
  H      3.217623    2.592643    0.056560
  H      0.404228    3.753922    0.583153
  H      2.033664    4.627426    0.429064

 Multiplicity           Mult            ....    1
 Number of Electrons    NEL             ....  112
 Basis Dimension        Dim             ....  240

ORBITAL ENERGIES
----------------

  NO   OCC          E(Eh)            E(eV)
   0   2.0000     -89.052964     -2423.2543
   1   2.0000     -88.888051     -2418.7668
   2   2.0000     -19.116191      -520.1780
   3   2.0000     -19.115187      -520.1507
   4   2.0000     -10.234883      -278.5053
   5   2.0000     -10.234057      -278.4829
   6   2.0000     -10.233452      -278.4664
   7   2.0000     -10.225366      -278.2463
   8   2.0000     -10.222923      -278.1799
   9   2.0000     -10.222533      -278.1693
  10   2.0000     -10.218928      -278.0712
  11   2.0000     -10.217934      -278.0441
  12   2.0000     -10.203649      -277.6554
  13   2.0000      -8.119048      -220.9305
  14   2.0000      -7.983230      -217.2347
  15   2.0000      -6.086840      -165.6313
  16   2.0000      -6.086392      -165.6191
  17   2.0000      -6.086123      -165.6118
  18   2.0000      -5.951158      -161.9392
  19   2.0000      -5.947243      -161.8327
  20   2.0000      -5.944760      -161.7651
  21   2.0000      -1.091078       -29.6898
  22   2.0000      -0.981645       -26.7119
  23   2.0000      -0.904173       -24.6038
  24   2.0000      -0.832654       -22.6577
  25   2.0000      -0.805242       -21.9117
  26   2.0000      -0.780152       -21.2290
  27   2.0000      -0.745423       -20.2840
  28   2.0000      -0.709962       -19.3191
  29   2.0000      -0.664251       -18.0752
  30   2.0000      -0.621456       -16.9107
  31   2.0000      -0.600919       -16.3518
  32   2.0000      -0.559367       -15.2212
  33   2.0000      -0.539731       -14.6868
  34   2.0000      -0.509842       -13.8735
  35   2.0000      -0.501320       -13.6416
  36   2.0000      -0.482602       -13.1323
  37   2.0000      -0.478437       -13.0189
  38   2.0000      -0.472420       -12.8552
  39   2.0000      -0.452333       -12.3086
  40   2.0000      -0.441455       -12.0126
  41   2.0000      -0.437773       -11.9124
  42   2.0000      -0.421362       -11.4658
  43   2.0000      -0.407563       -11.0904
  44   2.0000      -0.400355       -10.8942
  45   2.0000      -0.389458       -10.5977
  46   2.0000      -0.386125       -10.5070
  47   2.0000      -0.372397       -10.1334
  48   2.0000      -0.357503        -9.7282
  49   2.0000      -0.323037        -8.7903
  50   2.0000      -0.315930        -8.5969
  51   2.0000      -0.312775        -8.5110
  52   2.0000      -0.295812        -8.0494
  53   2.0000      -0.283729        -7.7206
  54   2.0000      -0.262943        -7.1550
  55   2.0000      -0.233072        -6.3422
  56   0.0000      -0.060939        -1.6582
  57   0.0000       0.003525         0.0959
  58   0.0000       0.015953         0.4341
  59   0.0000       0.039810         1.0833
  60   0.0000       0.048111         1.3092

MULLIKEN ATOMIC CHARGES
-----------------------
   0 C :   -0.123899
   1 S :    0.124445
   2 C :   -0.161639
   3 C :   -0.021666
   4 C :   -0.055442
   5 C :    0.131708
   6 C :   -0.059143
   7 S :    0.687206
   8 O :   -0.475992
   9 O :   -0.470743
  10 C :    0.036169
  11 C :    0.038476
  12 C :   -0.042011
  13 H :    0.020604
  14 H :    0.014658
  15 H :    0.053164
  16 H :    0.053083
  17 H :    0.064054
  18 H :    0.065949
  19 H :    0.076073
  20 H :   -0.002433
  21 H :    0.018978
  22 H :    0.028404
Sum of atomic charges:   -0.0000000

LOEWDIN ATOMIC CHARGES
----------------------
   0 C :   -0.194686
   1 S :    0.450986
   2 C :   -0.176042
   3 C :   -0.079157
   4 C :   -0.067418
   5 C :   -0.034785
   6 C :   -0.142339
   7 S :    1.172094
   8 O :   -0.527930
   9 O :   -0.524106
  10 C :   -0.138999
  11 C :   -0.041975
  12 C :   -0.049358
  13 H :    0.026241
  14 H :    0.037867
  15 H :    0.044912
  16 H :    0.032629
  17 H :    0.041547
  18 H :    0.040273
  19 H :    0.047627
  20 H :    0.031478
  21 H :    0.020763
  22 H :    0.030378

  Mayer bond orders larger than 0.100000
B(  0-C ,  1-S ) :   1.1616 B(  0-C ,  4-C ) :   1.5496 B(  0-C , 13-H ) :   0.9647
B(  1-S ,  2-C ) :   1.1449 B(  2-C ,  3-C ) :   1.5245 B(  2-C , 11-C ) :   1.1204
B(  3-C ,  4-C ) :   1.2872 B(  3-C , 10-C ) :   1.0172 B(  4-C ,  5-C ) :   1.0491
B(  5-C ,  6-C ) :   1.0296 B(  5-C , 14-H ) :   0.9126 B(  5-C , 15-H ) :   0.9113
B(  6-C ,  7-S ) :   0.8601 B(  6-C , 16-H ) :   0.9341 B(  6-C , 17-H ) :   0.9264
B(  7-S ,  8-O ) :   1.6452 B(  7-S ,  9-O ) :   1.6764 B(  7-S , 10-C ) :   0.8239
B( 10-C , 18-H ) :   0.9093 B( 10-C , 19-H ) :   0.8888 B( 11-C , 12-C ) :   1.9059
B( 11-C , 20-H ) :   0.9412 B( 12-C , 21-H ) :   0.9558 B( 12-C , 22-H ) :   0.9399

Dispersion correction           -0.055484216
FINAL SINGLE POINT ENERGY     -1295.180304372217

DIPOLE MOMENT
-------------
                                X             Y             Z
Electronic contribution:      1.00225      -1.64577      -1.89474
Nuclear contribution   :      0.32318       0.83138       2.68403
                        -----------------------------------------
Total Dipole Moment    :      1.32543      -0.81439       0.78929
                        -----------------------------------------
Magnitude (a.u.)       :      1.74441
Magnitude (Debye)      :      4.43395

Rotational constants in cm-1:     0.035354     0.016025     0.011936
Rotational constants in MHz :  1059.897364   480.429631   357.838866

                             ****ORCA TERMINATED NORMALLY****
TOTAL RUN TIME: 0 days 0 hours 22 minutes 7 seconds 779 msec
