                         Program Version 4.2.0 -  RELEASE  -
|  1> # ORCA input file
|  2> # SCF done        -49.365530666905          0.000256701067
|  3> ! B3LYP/G D3BJ Opt RIJCOSX def2-SVP def2/J
|  4> * xyz 0 1
|  5>    C        3.11153        -0.42788        -0.08853
|  6>    S        1.90058        -1.65558         0.03974
|  7>    C        2.60579         0.83685        -0.10045
|  8>    C        1.19964         0.84857         0.00083
|  9>    C        0.08449         1.80341         0.05633
| 10>    C        0.13775         3.14690         0.14116
| 11>    C       -1.10646         3.98833         0.22036
| 12>    N       -1.80665         3.95933        -1.06158
| 13>    C        1.44131         3.89308         0.05438
| 14>    N        1.78543         4.07065        -1.35583
| 15>    C        0.68690        -0.44730         0.07584
| 16>    C       -0.72775        -0.38108         0.13260
| 17>    S       -2.05509        -1.45697         0.18368
| 18>    C       -1.11600         0.95994         0.09168
| 19>    C       -2.50764         1.10520         0.07100
| 20>    C       -3.16781        -0.10216         0.12115
| 21>    C       -4.57757        -0.37570         0.12269
| 22>    C       -5.54181         0.54056         0.05303
| 23>    H        4.13973        -0.72395        -0.15341
| 24>    H        3.24421         1.69674        -0.19143
| 25>    H       -0.82686         5.00878         0.52884
| 26>    H       -1.78217         3.58310         0.98137
| 27>    H       -1.15843         4.21032        -1.80119
| 28>    H       -2.55866         4.64109        -1.06202
| 29>    H        2.21193         3.36180         0.63409
| 30>    H        1.33238         4.89193         0.48798
| 31>    H        1.85624         3.16423        -1.80759
| 32>    H        2.68295         4.53621        -1.44263
| 33>    H       -3.02063         2.04130        -0.02520
| 34>    H       -4.83886        -1.42455         0.18577
| 35>    H       -5.32712         1.59261        -0.01527
| 36>    H       -6.58012         0.26004         0.05902
| 37> *
| 38>
| 39>                          ****END OF INPUT****
 Total Charge           Charge          ....    0
 Multiplicity           Mult            ....    1
 Number of Electrons    NEL             ....  144
Dispersion correction           -0.078365023
FINAL SINGLE POINT ENERGY     -1447.113169937227
Dispersion correction            ... done
Dispersion correction           -0.077733997
FINAL SINGLE POINT ENERGY     -1447.117793780095
Dispersion correction            ... done
Dispersion correction           -0.077567269
FINAL SINGLE POINT ENERGY     -1447.118221572577
Dispersion correction            ... done
FINAL SINGLE POINT ENERGY     -1447.118299658527
FINAL SINGLE POINT ENERGY     -1447.118259884977
FINAL SINGLE POINT ENERGY     -1447.118234333010
FINAL SINGLE POINT ENERGY     -1447.118227688771
FINAL SINGLE POINT ENERGY     -1447.118520843833
FINAL SINGLE POINT ENERGY     -1447.118580544790
FINAL SINGLE POINT ENERGY     -1447.118661331734
Dispersion correction            ... done
Dispersion correction           -0.076978639
FINAL SINGLE POINT ENERGY     -1447.118678674372
Dispersion correction            ... done
Dispersion correction           -0.076979328
FINAL SINGLE POINT ENERGY     -1447.118687199986
Dispersion correction            ... done
                    ***********************HURRAY********************

CARTESIAN COORDINATES (ANGSTROEM)
---------------------------------
  C      3.157664   -0.638696    0.169572
  S      1.881932   -1.811664    0.350680
  C      2.682588    0.646886    0.041673
  C      1.256488    0.708763    0.076643
  C      0.144641    1.704683    0.045274
  C      0.207367    3.060801    0.037324
  C     -1.028435    3.930204    0.155855
  N     -1.673212    4.148530   -1.141921
  C      1.488778    3.834252   -0.148354
  N      1.397033    4.597758   -1.400892
  C      0.699318   -0.567259    0.239573
  C     -0.733920   -0.464343    0.264813
  S     -2.094653   -1.508702    0.316801
  C     -1.092622    0.883115    0.124657
  C     -2.495759    1.054813    0.024046
  C     -3.192530   -0.142295    0.128634
  C     -4.620898   -0.400896    0.093862
  C     -5.596219    0.522944    0.060858
  H      4.193077   -0.974217    0.154798
  H      3.356335    1.492034   -0.087914
  H     -0.713178    4.870529    0.654303
  H     -1.749000    3.446180    0.832849
  H     -0.987255    4.606578   -1.745535
  H     -2.444614    4.808582   -1.028943
  H      2.370070    3.177588   -0.082962
  H      1.580348    4.562908    0.675502
  H      1.492177    3.963090   -2.194888
  H      2.155895    5.275345   -1.471890
  H     -2.985909    2.000613   -0.195729
  H     -4.908954   -1.458500    0.096050
  H     -5.379924    1.595152    0.069437
  H     -6.645398    0.221026    0.022233

 Multiplicity           Mult            ....    1
 Number of Electrons    NEL             ....  144
 Basis Dimension        Dim             ....  330

ORBITAL ENERGIES
----------------

  NO   OCC          E(Eh)            E(eV)
   0   2.0000     -88.876904     -2418.4635
   1   2.0000     -88.873401     -2418.3682
   2   2.0000     -14.325475      -389.8160
   3   2.0000     -14.299237      -389.1020
   4   2.0000     -10.223211      -278.1877
   5   2.0000     -10.214745      -277.9574
   6   2.0000     -10.212220      -277.8886
   7   2.0000     -10.211232      -277.8618
   8   2.0000     -10.210668      -277.8464
   9   2.0000     -10.209844      -277.8240
  10   2.0000     -10.205611      -277.7088
  11   2.0000     -10.203892      -277.6620
  12   2.0000     -10.198580      -277.5175
  13   2.0000     -10.197367      -277.4845
  14   2.0000     -10.192773      -277.3595
  15   2.0000     -10.188562      -277.2449
  16   2.0000     -10.188115      -277.2327
  17   2.0000     -10.181894      -277.0634
  18   2.0000      -7.971232      -216.9083
  19   2.0000      -7.967697      -216.8121
  20   2.0000      -5.939438      -161.6203
  21   2.0000      -5.935750      -161.5200
  22   2.0000      -5.935353      -161.5092
  23   2.0000      -5.932566      -161.4333
  24   2.0000      -5.932008      -161.4181
  25   2.0000      -5.928966      -161.3354
  26   2.0000      -0.904920       -24.6241
  27   2.0000      -0.892262       -24.2797
  28   2.0000      -0.866956       -23.5911
  29   2.0000      -0.863399       -23.4943
  30   2.0000      -0.813490       -22.1362
  31   2.0000      -0.777534       -21.1578
  32   2.0000      -0.751537       -20.4503
  33   2.0000      -0.734159       -19.9775
  34   2.0000      -0.727905       -19.8073
  35   2.0000      -0.673518       -18.3274
  36   2.0000      -0.663761       -18.0618
  37   2.0000      -0.650639       -17.7048
  38   2.0000      -0.611837       -16.6489
  39   2.0000      -0.574599       -15.6356
  40   2.0000      -0.559420       -15.2226
  41   2.0000      -0.536369       -14.5953
  42   2.0000      -0.526252       -14.3200
  43   2.0000      -0.509682       -13.8692
  44   2.0000      -0.500121       -13.6090
  45   2.0000      -0.491140       -13.3646
  46   2.0000      -0.478702       -13.0261
  47   2.0000      -0.461417       -12.5558
  48   2.0000      -0.454640       -12.3714
  49   2.0000      -0.444248       -12.0886
  50   2.0000      -0.435989       -11.8639
  51   2.0000      -0.422986       -11.5100
  52   2.0000      -0.420325       -11.4376
  53   2.0000      -0.414937       -11.2910
  54   2.0000      -0.400618       -10.9014
  55   2.0000      -0.392041       -10.6680
  56   2.0000      -0.384506       -10.4629
  57   2.0000      -0.372939       -10.1482
  58   2.0000      -0.370788       -10.0897
  59   2.0000      -0.365127        -9.9356
  60   2.0000      -0.359601        -9.7852
  61   2.0000      -0.349514        -9.5107
  62   2.0000      -0.344495        -9.3742
  63   2.0000      -0.332393        -9.0449
  64   2.0000      -0.320706        -8.7269
  65   2.0000      -0.295462        -8.0399
  66   2.0000      -0.258626        -7.0376
  67   2.0000      -0.256139        -6.9699
  68   2.0000      -0.251228        -6.8363
  69   2.0000      -0.231911        -6.3106
  70   2.0000      -0.225278        -6.1301
  71   2.0000      -0.186195        -5.0666
  72   0.0000      -0.069374        -1.8878
  73   0.0000      -0.030184        -0.8213
  74   0.0000       0.006424         0.1748
  75   0.0000       0.028265         0.7691
  76   0.0000       0.045844         1.2475

MULLIKEN ATOMIC CHARGES
-----------------------
   0 C :   -0.096295
   1 S :    0.134291
   2 C :   -0.009339
   3 C :    0.036812
   4 C :    0.191664
   5 C :   -0.330722
   6 C :    0.201616
   7 N :   -0.217767
   8 C :    0.213336
   9 N :   -0.234499
  10 C :   -0.138925
  11 C :   -0.109420
  12 S :    0.131891
  13 C :    0.017944
  14 C :   -0.015015
  15 C :   -0.099375
  16 C :    0.039356
  17 C :   -0.040968
  18 H :    0.021381
  19 H :   -0.009384
  20 H :   -0.028501
  21 H :    0.001835
  22 H :    0.080758
  23 H :    0.086619
  24 H :   -0.031520
  25 H :   -0.002169
  26 H :    0.102085
  27 H :    0.096423
  28 H :   -0.017003
  29 H :   -0.014699
  30 H :    0.018422
  31 H :    0.021170
Sum of atomic charges:   -0.0000000

LOEWDIN ATOMIC CHARGES
----------------------
   0 C :   -0.196192
   1 S :    0.430021
   2 C :   -0.065460
   3 C :   -0.062221
   4 C :   -0.014694
   5 C :   -0.005763
   6 C :    0.028811
   7 N :   -0.122859
   8 C :    0.029071
   9 N :   -0.107185
  10 C :   -0.196499
  11 C :   -0.198822
  12 S :    0.430929
  13 C :   -0.048634
  14 C :   -0.039095
  15 C :   -0.177500
  16 C :   -0.043314
  17 C :   -0.059565
  18 H :    0.022652
  19 H :    0.025326
  20 H :    0.001972
  21 H :    0.020036
  22 H :    0.043695
  23 H :    0.052718
  24 H :    0.005405
  25 H :    0.026033
  26 H :    0.059458
  27 H :    0.057378
  28 H :    0.031052
  29 H :    0.026638
  30 H :    0.021505
  31 H :    0.025103

  Mayer bond orders larger than 0.100000
B(  0-C ,  1-S ) :   1.1379 B(  0-C ,  2-C ) :   1.5416 B(  0-C , 18-H ) :   0.9619
B(  1-S , 10-C ) :   1.1018 B(  2-C ,  3-C ) :   1.2553 B(  2-C , 19-H ) :   0.9844
B(  3-C ,  4-C ) :   1.0130 B(  3-C , 10-C ) :   1.4544 B(  4-C ,  5-C ) :   1.7321
B(  4-C , 13-C ) :   1.0290 B(  5-C ,  6-C ) :   1.0553 B(  5-C ,  8-C ) :   1.0732
B(  6-C ,  7-N ) :   1.0745 B(  6-C , 20-H ) :   0.9053 B(  6-C , 21-H ) :   0.9147
B(  7-N , 22-H ) :   0.9452 B(  7-N , 23-H ) :   0.9601 B(  8-C ,  9-N ) :   1.0815
B(  8-C , 24-H ) :   0.9298 B(  8-C , 25-H ) :   0.8996 B(  9-N , 26-H ) :   0.9635
B(  9-N , 27-H ) :   0.9644 B( 10-C , 11-C ) :   1.2195 B( 11-C , 12-S ) :   1.0985
B( 11-C , 13-C ) :   1.4354 B( 12-S , 15-C ) :   1.0894 B( 13-C , 14-C ) :   1.2862
B( 14-C , 15-C ) :   1.4595 B( 14-C , 28-H ) :   0.9785 B( 15-C , 16-C ) :   1.1162
B( 16-C , 17-C ) :   1.9123 B( 16-C , 29-H ) :   0.9498 B( 17-C , 30-H ) :   0.9504
B( 17-C , 31-H ) :   0.9448

Dispersion correction           -0.076977074
FINAL SINGLE POINT ENERGY     -1447.118685231348

DIPOLE MOMENT
-------------
                                X             Y             Z
Electronic contribution:      4.63943     -23.61902       3.79652
Nuclear contribution   :     -3.75309      24.73814      -3.93802
                        -----------------------------------------
Total Dipole Moment    :      0.88634       1.11912      -0.14150
                        -----------------------------------------
Magnitude (a.u.)       :      1.43459
Magnitude (Debye)      :      3.64644

Rotational constants in cm-1:     0.012901     0.010553     0.005939
Rotational constants in MHz :   386.764720   316.383410   178.033034

                             ****ORCA TERMINATED NORMALLY****
TOTAL RUN TIME: 0 days 0 hours 42 minutes 36 seconds 101 msec
