                         Program Version 4.2.0 -  RELEASE  -
|  1> # ORCA input file
|  2> # SCF done        -18.689387182330          0.000414534526
|  3> ! B3LYP/G D3BJ Opt RIJCOSX def2-SVP def2/J
|  4> * xyz 0 1
|  5>    C        0.34743         1.04704        -0.03562
|  6>    C       -0.99786         0.33549        -0.03247
|  7>    O       -2.12895         0.71032        -0.03154
|  8>    C        1.00153        -0.32709        -0.03961
|  9>    O        2.13260        -0.70192        -0.04677
| 10>    C       -0.34374        -1.03865        -0.03307
| 11>    H        0.55212         1.65523         0.84505
| 12>    H        0.54702         1.65880        -0.91492
| 13>    H       -0.54214        -1.64681         0.84906
| 14>    H       -0.54961        -1.65044        -0.91091
| 15> *
| 16>
| 17>                          ****END OF INPUT****
 Total Charge           Charge          ....    0
 Multiplicity           Mult            ....    1
 Number of Electrons    NEL             ....   44
Dispersion correction           -0.012947064
FINAL SINGLE POINT ENERGY      -305.021542706434
Dispersion correction            ... done
Dispersion correction           -0.012889303
FINAL SINGLE POINT ENERGY      -305.022988198624
Dispersion correction            ... done
Dispersion correction           -0.012881617
FINAL SINGLE POINT ENERGY      -305.023047436637
Dispersion correction            ... done
Dispersion correction           -0.012881875
FINAL SINGLE POINT ENERGY      -305.023053701236
Dispersion correction            ... done
Dispersion correction           -0.012882976
FINAL SINGLE POINT ENERGY      -305.023054971203
Dispersion correction            ... done
                    ***********************HURRAY********************

CARTESIAN COORDINATES (ANGSTROEM)
---------------------------------
  C      0.353166    1.066039   -0.036052
  C     -1.006801    0.337482   -0.032290
  O     -2.142049    0.713538   -0.030086
  C      1.010478   -0.329088   -0.039474
  O      2.145714   -0.705139   -0.045533
  C     -0.349484   -1.057647   -0.033407
  H      0.561419    1.679821    0.857326
  H      0.556245    1.682961   -0.928393
  H     -0.551507   -1.671402    0.861411
  H     -0.558779   -1.674595   -0.924302

 Multiplicity           Mult            ....    1
 Number of Electrons    NEL             ....   44
 Basis Dimension        Dim             ....  104

ORBITAL ENERGIES
----------------

  NO   OCC          E(Eh)            E(eV)
   0   2.0000     -19.152811      -521.1745
   1   2.0000     -19.152701      -521.1715
   2   2.0000     -10.298659      -280.2408
   3   2.0000     -10.298562      -280.2381
   4   2.0000     -10.217160      -278.0231
   5   2.0000     -10.217135      -278.0224
   6   2.0000      -1.061496       -28.8848
   7   2.0000      -1.056642       -28.7527
   8   2.0000      -0.857896       -23.3445
   9   2.0000      -0.708144       -19.2696
  10   2.0000      -0.557405       -15.1678
  11   2.0000      -0.553496       -15.0614
  12   2.0000      -0.506896       -13.7933
  13   2.0000      -0.480244       -13.0681
  14   2.0000      -0.474494       -12.9116
  15   2.0000      -0.431326       -11.7370
  16   2.0000      -0.424958       -11.5637
  17   2.0000      -0.420227       -11.4350
  18   2.0000      -0.408480       -11.1153
  19   2.0000      -0.369501       -10.0546
  20   2.0000      -0.286121        -7.7857
  21   2.0000      -0.254894        -6.9360
  22   0.0000      -0.066049        -1.7973
  23   0.0000      -0.020347        -0.5537
  24   0.0000       0.050919         1.3856
  25   0.0000       0.088607         2.4111
  26   0.0000       0.100123         2.7245

MULLIKEN ATOMIC CHARGES
-----------------------
   0 C :    0.000530
   1 C :   -0.010953
   2 O :   -0.141629
   3 C :   -0.010952
   4 O :   -0.141628
   5 C :    0.000534
   6 H :    0.076018
   7 H :    0.076031
   8 H :    0.076037
   9 H :    0.076011
Sum of atomic charges:   -0.0000000

LOEWDIN ATOMIC CHARGES
----------------------
   0 C :   -0.090352
   1 C :    0.079152
   2 O :   -0.108962
   3 C :    0.079152
   4 O :   -0.108961
   5 C :   -0.090352
   6 H :    0.060132
   7 H :    0.060029
   8 H :    0.060128
   9 H :    0.060033

  Mayer bond orders larger than 0.100000
B(  0-C ,  1-C ) :   0.9571 B(  0-C ,  3-C ) :   0.9580 B(  0-C ,  5-C ) :  -0.1177
B(  0-C ,  6-H ) :   0.9134 B(  0-C ,  7-H ) :   0.9135 B(  1-C ,  2-O ) :   2.2316
B(  1-C ,  5-C ) :   0.9580 B(  3-C ,  4-O ) :   2.2316 B(  3-C ,  5-C ) :   0.9571
B(  5-C ,  8-H ) :   0.9134 B(  5-C ,  9-H ) :   0.9134

Dispersion correction           -0.012883322
FINAL SINGLE POINT ENERGY      -305.023056262768

DIPOLE MOMENT
-------------
                                X             Y             Z
Electronic contribution:     -0.00001      -0.00000      -0.00637
Nuclear contribution   :      0.00003      -0.00000       0.01002
                        -----------------------------------------
Total Dipole Moment    :      0.00002      -0.00001       0.00364
                        -----------------------------------------
Magnitude (a.u.)       :      0.00364
Magnitude (Debye)      :      0.00926

Rotational constants in cm-1:     0.367610     0.087122     0.072374
Rotational constants in MHz : 11020.666419  2611.858185  2169.730803

                             ****ORCA TERMINATED NORMALLY****
TOTAL RUN TIME: 0 days 0 hours 1 minutes 25 seconds 353 msec
