                         Program Version 4.2.0 -  RELEASE  -
|  1> # ORCA input file
|  2> # SCF done        -25.437671319301          0.000719648596
|  3> ! B3LYP/G D3BJ Opt RIJCOSX def2-SVP def2/J
|  4> * xyz 0 1
|  5>    C       -0.68981        -1.37808        -0.13798
|  6>    C       -1.24505        -0.14896        -0.03178
|  7>    C       -2.68377         0.22701        -0.01710
|  8>    S       -0.01515         1.07489         0.09806
|  9>    C        1.24560        -0.10896         0.00616
| 10>    C        2.66985         0.32389         0.06609
| 11>    C        0.73725        -1.37723        -0.11829
| 12>    C        1.57461        -2.55601        -0.21571
| 13>    C        1.14207        -3.80556        -0.34120
| 14>    H       -1.27850        -2.27291        -0.22828
| 15>    H       -3.30061        -0.66573        -0.08964
| 16>    H       -2.91884         0.88532        -0.85351
| 17>    H       -2.93505         0.75447         0.90293
| 18>    H        2.72827         1.40406         0.17397
| 19>    H        3.19956         0.03828        -0.84334
| 20>    H        3.17845        -0.13629         0.91384
| 21>    H        2.63938        -2.36657        -0.18023
| 22>    H        0.09542        -4.05535        -0.38131
| 23>    H        1.82903        -4.63166        -0.40829
| 24> *
| 25>
| 26>                          ****END OF INPUT****
 Total Charge           Charge          ....    0
 Multiplicity           Mult            ....    1
 Number of Electrons    NEL             ....   74
Dispersion correction           -0.035667710
FINAL SINGLE POINT ENERGY      -708.743415591373
Dispersion correction            ... done
Dispersion correction           -0.035386867
FINAL SINGLE POINT ENERGY      -708.746012206048
Dispersion correction            ... done
Dispersion correction           -0.035333841
FINAL SINGLE POINT ENERGY      -708.746138585850
Dispersion correction            ... done
FINAL SINGLE POINT ENERGY      -708.746079227621
FINAL SINGLE POINT ENERGY      -708.746066810077
FINAL SINGLE POINT ENERGY      -708.746039074423
FINAL SINGLE POINT ENERGY      -708.746003733352
FINAL SINGLE POINT ENERGY      -708.745918348220
FINAL SINGLE POINT ENERGY      -708.745869945738
FINAL SINGLE POINT ENERGY      -708.745902252059
FINAL SINGLE POINT ENERGY      -708.745931129779
FINAL SINGLE POINT ENERGY      -708.745920538689
FINAL SINGLE POINT ENERGY      -708.745939614549
FINAL SINGLE POINT ENERGY      -708.745958168557
FINAL SINGLE POINT ENERGY      -708.745968575675
Dispersion correction            ... done
Dispersion correction           -0.035302590
FINAL SINGLE POINT ENERGY      -708.745983277928
Dispersion correction            ... done
Dispersion correction           -0.035301720
FINAL SINGLE POINT ENERGY      -708.745986394637
Dispersion correction            ... done
                    ***********************HURRAY********************

CARTESIAN COORDINATES (ANGSTROEM)
---------------------------------
  C     -0.696286   -1.378939   -0.110717
  C     -1.259335   -0.135407   -0.045939
  C     -2.707476    0.244492   -0.069901
  S     -0.012977    1.085893    0.065671
  C      1.263086   -0.099382    0.007829
  C      2.691291    0.353596    0.014811
  C      0.745939   -1.381829   -0.085323
  C      1.574709   -2.584394   -0.158954
  C      1.142257   -3.853389   -0.236847
  H     -1.295973   -2.286910   -0.184468
  H     -3.325612   -0.646932   -0.250934
  H     -2.925070    0.972786   -0.867901
  H     -3.033180    0.698671    0.881400
  H      2.841956    1.203218    0.697954
  H      3.021125    0.679602   -0.987491
  H      3.362172   -0.454239    0.339125
  H      2.656718   -2.414779   -0.150099
  H      0.080379   -4.112946   -0.255135
  H      1.848986   -4.684503   -0.288691

 Multiplicity           Mult            ....    1
 Number of Electrons    NEL             ....   74
 Basis Dimension        Dim             ....  180

ORBITAL ENERGIES
----------------

  NO   OCC          E(Eh)            E(eV)
   0   2.0000     -88.861712     -2418.0501
   1   2.0000     -10.211985      -277.8823
   2   2.0000     -10.211399      -277.8663
   3   2.0000     -10.198776      -277.5228
   4   2.0000     -10.198731      -277.5216
   5   2.0000     -10.192756      -277.3590
   6   2.0000     -10.189647      -277.2744
   7   2.0000     -10.182991      -277.0933
   8   2.0000     -10.181391      -277.0497
   9   2.0000      -7.957222      -216.5270
  10   2.0000      -5.925334      -161.2365
  11   2.0000      -5.921303      -161.1268
  12   2.0000      -5.918499      -161.0505
  13   2.0000      -0.875354       -23.8196
  14   2.0000      -0.784148       -21.3378
  15   2.0000      -0.763930       -20.7876
  16   2.0000      -0.717911       -19.5354
  17   2.0000      -0.704323       -19.1656
  18   2.0000      -0.649627       -17.6773
  19   2.0000      -0.576957       -15.6998
  20   2.0000      -0.539432       -14.6787
  21   2.0000      -0.515561       -14.0291
  22   2.0000      -0.479085       -13.0366
  23   2.0000      -0.447472       -12.1763
  24   2.0000      -0.433348       -11.7920
  25   2.0000      -0.425606       -11.5813
  26   2.0000      -0.420980       -11.4554
  27   2.0000      -0.412969       -11.2375
  28   2.0000      -0.399794       -10.8790
  29   2.0000      -0.382876       -10.4186
  30   2.0000      -0.359331        -9.7779
  31   2.0000      -0.357364        -9.7244
  32   2.0000      -0.348386        -9.4801
  33   2.0000      -0.329941        -8.9781
  34   2.0000      -0.296143        -8.0585
  35   2.0000      -0.235375        -6.4049
  36   2.0000      -0.210732        -5.7343
  37   0.0000      -0.026178        -0.7123
  38   0.0000       0.006450         0.1755
  39   0.0000       0.037247         1.0135
  40   0.0000       0.064753         1.7620
  41   0.0000       0.070551         1.9198

MULLIKEN ATOMIC CHARGES
-----------------------
   0 C :    0.002825
   1 C :   -0.208069
   2 C :    0.112111
   3 S :    0.085285
   4 C :   -0.281578
   5 C :    0.111481
   6 C :    0.118644
   7 C :   -0.029635
   8 C :   -0.030738
   9 H :   -0.032530
  10 H :    0.015014
  11 H :    0.028209
  12 H :    0.029714
  13 H :    0.020126
  14 H :    0.034028
  15 H :    0.022737
  16 H :   -0.020810
  17 H :    0.006050
  18 H :    0.017137
Sum of atomic charges:    0.0000000

LOEWDIN ATOMIC CHARGES
----------------------
   0 C :   -0.064657
   1 C :   -0.177406
   2 C :   -0.057819
   3 S :    0.396819
   4 C :   -0.177518
   5 C :   -0.059529
   6 C :   -0.075056
   7 C :   -0.024522
   8 C :   -0.060016
   9 H :    0.023973
  10 H :    0.036117
  11 H :    0.034066
  12 H :    0.034658
  13 H :    0.032889
  14 H :    0.036870
  15 H :    0.034173
  16 H :    0.025484
  17 H :    0.017748
  18 H :    0.023725

  Mayer bond orders larger than 0.100000
B(  0-C ,  1-C ) :   1.6136 B(  0-C ,  6-C ) :   1.1887 B(  0-C ,  9-H ) :   0.9878
B(  1-C ,  2-C ) :   1.0809 B(  1-C ,  3-S ) :   1.1147 B(  2-C , 10-H ) :   0.9539
B(  2-C , 11-H ) :   0.9503 B(  2-C , 12-H ) :   0.9498 B(  3-S ,  4-C ) :   1.1255
B(  4-C ,  5-C ) :   1.1009 B(  4-C ,  6-C ) :   1.5231 B(  5-C , 13-H ) :   0.9449
B(  5-C , 14-H ) :   0.9472 B(  5-C , 15-H ) :   0.9456 B(  6-C ,  7-C ) :   1.0985
B(  7-C ,  8-C ) :   1.9275 B(  7-C , 16-H ) :   0.9570 B(  8-C , 17-H ) :   0.9485
B(  8-C , 18-H ) :   0.9438

Dispersion correction           -0.035301984
FINAL SINGLE POINT ENERGY      -708.745986377694

DIPOLE MOMENT
-------------
                                X             Y             Z
Electronic contribution:     -0.65917       4.91595       0.49021
Nuclear contribution   :      0.60154      -4.81643      -0.51523
                        -----------------------------------------
Total Dipole Moment    :     -0.05763       0.09952      -0.02502
                        -----------------------------------------
Magnitude (a.u.)       :      0.11769
Magnitude (Debye)      :      0.29915

Rotational constants in cm-1:     0.066019     0.038832     0.024680
Rotational constants in MHz :  1979.195794  1164.147405   739.902606

                             ****ORCA TERMINATED NORMALLY****
TOTAL RUN TIME: 0 days 0 hours 15 minutes 36 seconds 6 msec
