                         Program Version 4.2.0 -  RELEASE  -
|  1> # ORCA input file
|  2> # SCF done        -29.052086475168          0.000569067327
|  3> ! B3LYP/G D3BJ Opt RIJCOSX def2-SVP def2/J
|  4> * xyz 0 1
|  5>    C        1.37830        -0.27346         0.10616
|  6>    C        0.92206         1.02773         0.20618
|  7>    C       -0.43870         1.30221         0.20245
|  8>    C       -0.95421         2.71243         0.31452
|  9>    N       -2.00332         2.94693        -0.67085
| 10>    C       -1.33393         0.24732         0.08541
| 11>    C       -0.87746        -1.05305        -0.02379
| 12>    C        0.48303        -1.32851        -0.00913
| 13>    C        0.99848        -2.73864        -0.12275
| 14>    N        2.09712        -2.79969        -1.07969
| 15>    H        2.43620        -0.48612         0.10390
| 16>    H        1.63238         1.83860         0.29225
| 17>    H       -0.10887         3.41714         0.23008
| 18>    H       -1.40532         2.85335         1.30436
| 19>    H       -1.63563         2.80706        -1.60650
| 20>    H       -2.33942         3.90157        -0.60689
| 21>    H       -2.39133         0.46172         0.06799
| 22>    H       -1.58756        -1.86318        -0.11816
| 23>    H        0.16163        -3.41333        -0.37329
| 24>    H        1.39960        -3.05471         0.84796
| 25>    H        1.77645        -2.49596        -1.99352
| 26>    H        2.43504        -3.75179        -1.16785
| 27> *
| 28>
| 29>                          ****END OF INPUT****
 Total Charge           Charge          ....    0
 Multiplicity           Mult            ....    1
 Number of Electrons    NEL             ....   74
Dispersion correction           -0.037798968
FINAL SINGLE POINT ENERGY      -421.301971269468
Dispersion correction            ... done
Dispersion correction           -0.037460742
FINAL SINGLE POINT ENERGY      -421.304088859141
Dispersion correction            ... done
Dispersion correction           -0.037416140
FINAL SINGLE POINT ENERGY      -421.304224278266
Dispersion correction            ... done
FINAL SINGLE POINT ENERGY      -421.304292842749
FINAL SINGLE POINT ENERGY      -421.304332713397
FINAL SINGLE POINT ENERGY      -421.304393407290
FINAL SINGLE POINT ENERGY      -421.304470083917
FINAL SINGLE POINT ENERGY      -421.304573220936
FINAL SINGLE POINT ENERGY      -421.304684361214
FINAL SINGLE POINT ENERGY      -421.304749621284
FINAL SINGLE POINT ENERGY      -421.304822902575
FINAL SINGLE POINT ENERGY      -421.304937678831
FINAL SINGLE POINT ENERGY      -421.304838708420
FINAL SINGLE POINT ENERGY      -421.304553039947
FINAL SINGLE POINT ENERGY      -421.304436151406
FINAL SINGLE POINT ENERGY      -421.304517041658
FINAL SINGLE POINT ENERGY      -421.304553531384
Dispersion correction            ... done
Dispersion correction           -0.037431471
FINAL SINGLE POINT ENERGY      -421.304561607137
Dispersion correction            ... done
Dispersion correction           -0.037428252
FINAL SINGLE POINT ENERGY      -421.304563266804
Dispersion correction            ... done
                    ***********************HURRAY********************

CARTESIAN COORDINATES (ANGSTROEM)
---------------------------------
  C      1.384051   -0.297363   -0.054024
  C      0.950899    1.025781    0.042678
  C     -0.413489    1.343201    0.057924
  C     -0.860705    2.781699    0.221990
  N     -2.228483    2.994304   -0.230176
  C     -1.338017    0.296041   -0.051921
  C     -0.904483   -1.025626   -0.168246
  C      0.459879   -1.344538   -0.159094
  C      0.910823   -2.789270   -0.236826
  N      2.304680   -2.915762   -0.637979
  H      2.447978   -0.540692   -0.053613
  H      1.690161    1.829627    0.115051
  H     -0.108088    3.436584   -0.266205
  H     -0.819571    3.039762    1.296737
  H     -2.293252    2.873743   -1.241854
  H     -2.535295    3.943134   -0.023308
  H     -2.402556    0.537393   -0.052931
  H     -1.642821   -1.827327   -0.269786
  H      0.196063   -3.342625   -0.883075
  H      0.809310   -3.243916    0.765747
  H      2.423816   -2.632736   -1.611487
  H      2.613638   -3.883793   -0.570763

 Multiplicity           Mult            ....    1
 Number of Electrons    NEL             ....   74
 Basis Dimension        Dim             ....  200

ORBITAL ENERGIES
----------------

  NO   OCC          E(Eh)            E(eV)
   0   2.0000     -14.306588      -389.3020
   1   2.0000     -14.306507      -389.2999
   2   2.0000     -10.210368      -277.8382
   3   2.0000     -10.210078      -277.8304
   4   2.0000     -10.180554      -277.0270
   5   2.0000     -10.180503      -277.0256
   6   2.0000     -10.177062      -276.9319
   7   2.0000     -10.176888      -276.9272
   8   2.0000     -10.173215      -276.8273
   9   2.0000     -10.172821      -276.8165
  10   2.0000      -0.877461       -23.8769
  11   2.0000      -0.873890       -23.7798
  12   2.0000      -0.829578       -22.5740
  13   2.0000      -0.748604       -20.3706
  14   2.0000      -0.722994       -19.6737
  15   2.0000      -0.674495       -18.3539
  16   2.0000      -0.620614       -16.8878
  17   2.0000      -0.592119       -16.1124
  18   2.0000      -0.554448       -15.0873
  19   2.0000      -0.506413       -13.7802
  20   2.0000      -0.492120       -13.3913
  21   2.0000      -0.475057       -12.9270
  22   2.0000      -0.459629       -12.5071
  23   2.0000      -0.438921       -11.9436
  24   2.0000      -0.434443       -11.8218
  25   2.0000      -0.409752       -11.1499
  26   2.0000      -0.406590       -11.0639
  27   2.0000      -0.402358       -10.9487
  28   2.0000      -0.398056       -10.8316
  29   2.0000      -0.372452       -10.1349
  30   2.0000      -0.340379        -9.2622
  31   2.0000      -0.330110        -8.9828
  32   2.0000      -0.328475        -8.9383
  33   2.0000      -0.244921        -6.6646
  34   2.0000      -0.242535        -6.5997
  35   2.0000      -0.237763        -6.4699
  36   2.0000      -0.222249        -6.0477
  37   0.0000      -0.001686        -0.0459
  38   0.0000       0.005080         0.1382
  39   0.0000       0.057475         1.5640
  40   0.0000       0.058312         1.5868
  41   0.0000       0.089674         2.4401

MULLIKEN ATOMIC CHARGES
-----------------------
   0 C :   -0.004992
   1 C :   -0.005049
   2 C :   -0.066501
   3 C :    0.191598
   4 N :   -0.221894
   5 C :   -0.007834
   6 C :   -0.004332
   7 C :   -0.070645
   8 C :    0.191156
   9 N :   -0.221643
  10 H :   -0.025237
  11 H :   -0.039454
  12 H :   -0.017849
  13 H :    0.009923
  14 H :    0.092719
  15 H :    0.089470
  16 H :   -0.024778
  17 H :   -0.039431
  18 H :   -0.015431
  19 H :    0.008067
  20 H :    0.092308
  21 H :    0.089828
Sum of atomic charges:   -0.0000000

LOEWDIN ATOMIC CHARGES
----------------------
   0 C :   -0.027622
   1 C :   -0.030615
   2 C :   -0.040357
   3 C :    0.026802
   4 N :   -0.113185
   5 C :   -0.027329
   6 C :   -0.030585
   7 C :   -0.040574
   8 C :    0.026733
   9 N :   -0.112443
  10 H :    0.023147
  11 H :    0.019934
  12 H :    0.002159
  13 H :    0.028019
  14 H :    0.055069
  15 H :    0.055821
  16 H :    0.023315
  17 H :    0.019985
  18 H :    0.002887
  19 H :    0.027870
  20 H :    0.055085
  21 H :    0.055885

  Mayer bond orders larger than 0.100000
B(  0-C ,  1-C ) :   1.3503 B(  0-C ,  7-C ) :   1.3973 B(  0-C , 10-H ) :   0.9797
B(  1-C ,  2-C ) :   1.3868 B(  1-C , 11-H ) :   0.9849 B(  2-C ,  3-C ) :   1.0126
B(  2-C ,  5-C ) :   1.3940 B(  3-C ,  4-N ) :   1.1006 B(  3-C , 12-H ) :   0.9293
B(  3-C , 13-H ) :   0.9185 B(  4-N , 14-H ) :   0.9699 B(  4-N , 15-H ) :   0.9636
B(  5-C ,  6-C ) :   1.3529 B(  5-C , 16-H ) :   0.9804 B(  6-C ,  7-C ) :   1.3846
B(  6-C , 17-H ) :   0.9854 B(  7-C ,  8-C ) :   1.0099 B(  8-C ,  9-N ) :   1.1011
B(  8-C , 18-H ) :   0.9304 B(  8-C , 19-H ) :   0.9186 B(  9-N , 20-H ) :   0.9691
B(  9-N , 21-H ) :   0.9640

Dispersion correction           -0.037427155
FINAL SINGLE POINT ENERGY      -421.304565584188

DIPOLE MOMENT
-------------
                                X             Y             Z
Electronic contribution:     -0.02501      -0.04921       0.49739
Nuclear contribution   :      0.04861       0.08110      -1.04278
                        -----------------------------------------
Total Dipole Moment    :      0.02360       0.03189      -0.54538
                        -----------------------------------------
Magnitude (a.u.)       :      0.54683
Magnitude (Debye)      :      1.38992

Rotational constants in cm-1:     0.139229     0.021701     0.019203
Rotational constants in MHz :  4173.986943   650.565928   575.688816

                             ****ORCA TERMINATED NORMALLY****
TOTAL RUN TIME: 0 days 0 hours 21 minutes 1 seconds 973 msec
