                         Program Version 4.2.0 -  RELEASE  -
|  1> # ORCA input file
|  2> # SCF done        -36.285700863442          0.000707888622
|  3> ! B3LYP/G D3BJ Opt RIJCOSX def2-SVP def2/J
|  4> * xyz 0 1
|  5>    C       -1.40564         0.18552        -0.17335
|  6>    S       -0.68223        -0.38734         1.29578
|  7>    C       -0.64084        -0.03592        -1.27726
|  8>    C        0.56395        -0.68343        -0.94604
|  9>    C        1.75217        -1.17651        -1.62158
| 10>    S        2.08837        -1.11318        -3.21996
| 11>    C        0.67708        -0.93791         0.42292
| 12>    C        1.92467        -1.59281         0.65913
| 13>    S        2.82420        -2.22924         1.96063
| 14>    C        2.58117        -1.74169        -0.56582
| 15>    C        3.82198        -2.37710        -0.44136
| 16>    C        4.11030        -2.71009         0.86303
| 17>    C        5.29248        -3.36752         1.34178
| 18>    C        5.53893        -3.67328         2.61356
| 19>    H       -2.36683         0.65614        -0.11807
| 20>    H       -0.92435         0.24908        -2.27369
| 21>    H        4.48227        -2.58606        -1.26351
| 22>    H        6.01178        -3.61188         0.57141
| 23>    H        4.83713        -3.43775         3.39662
| 24>    H        6.44669        -4.16792         2.90896
| 25> *
| 26>
| 27>                          ****END OF INPUT****
 Total Charge           Charge          ....    0
 Multiplicity           Mult            ....    1
 Number of Electrons    NEL             ....  120
Dispersion correction           -0.055216367
FINAL SINGLE POINT ENERGY     -1616.715350294573
Dispersion correction            ... done
Dispersion correction           -0.055025858
FINAL SINGLE POINT ENERGY     -1616.719225167976
Dispersion correction            ... done
Dispersion correction           -0.054984735
FINAL SINGLE POINT ENERGY     -1616.719397504518
Dispersion correction            ... done
FINAL SINGLE POINT ENERGY     -1616.719402311316
Dispersion correction            ... done
Dispersion correction           -0.054968942
FINAL SINGLE POINT ENERGY     -1616.719423503674
Dispersion correction            ... done
Dispersion correction           -0.054972927
FINAL SINGLE POINT ENERGY     -1616.719428532886
Dispersion correction            ... done
                    ***********************HURRAY********************

CARTESIAN COORDINATES (ANGSTROEM)
---------------------------------
  C     -1.467872    0.193958   -0.186877
  S     -0.716332   -0.369313    1.288472
  C     -0.682785   -0.023326   -1.296476
  C      0.541685   -0.652338   -0.951474
  C      1.751273   -1.152959   -1.643622
  S      2.074301   -1.099724   -3.246550
  C      0.662501   -0.899924    0.418059
  C      1.935685   -1.560643    0.657313
  S      2.831727   -2.207738    1.965348
  C      2.592972   -1.720296   -0.564834
  C      3.839608   -2.376873   -0.438783
  C      4.131018   -2.715552    0.875157
  C      5.313218   -3.394693    1.369485
  C      5.590156   -3.713529    2.645312
  H     -2.450266    0.659505   -0.136655
  H     -0.969430    0.257777   -2.309993
  H      4.503850   -2.604000   -1.273308
  H      6.030260   -3.662929    0.585807
  H      4.908332   -3.465156    3.464499
  H      6.513378   -4.231138    2.912300

 Multiplicity           Mult            ....    1
 Number of Electrons    NEL             ....  120
 Basis Dimension        Dim             ....  238

ORBITAL ENERGIES
----------------

  NO   OCC          E(Eh)            E(eV)
   0   2.0000     -88.899698     -2419.0838
   1   2.0000     -88.895822     -2418.9783
   2   2.0000     -88.829228     -2417.1662
   3   2.0000     -10.259648      -279.1792
   4   2.0000     -10.240012      -278.6449
   5   2.0000     -10.238956      -278.6162
   6   2.0000     -10.231314      -278.4082
   7   2.0000     -10.227064      -278.2926
   8   2.0000     -10.212685      -277.9013
   9   2.0000     -10.212000      -277.8827
  10   2.0000     -10.211639      -277.8728
  11   2.0000     -10.205714      -277.7116
  12   2.0000     -10.205168      -277.6967
  13   2.0000     -10.196395      -277.4580
  14   2.0000      -7.993793      -217.5222
  15   2.0000      -7.990067      -217.4208
  16   2.0000      -7.924496      -215.6365
  17   2.0000      -5.961855      -162.2303
  18   2.0000      -5.958106      -162.1283
  19   2.0000      -5.957723      -162.1179
  20   2.0000      -5.955436      -162.0557
  21   2.0000      -5.954142      -162.0204
  22   2.0000      -5.951494      -161.9484
  23   2.0000      -5.892611      -160.3461
  24   2.0000      -5.891728      -160.3221
  25   2.0000      -5.882649      -160.0750
  26   2.0000      -0.926092       -25.2003
  27   2.0000      -0.887374       -24.1467
  28   2.0000      -0.835184       -22.7265
  29   2.0000      -0.791253       -21.5311
  30   2.0000      -0.762786       -20.7565
  31   2.0000      -0.747500       -20.3405
  32   2.0000      -0.740339       -20.1456
  33   2.0000      -0.693455       -18.8699
  34   2.0000      -0.630008       -17.1434
  35   2.0000      -0.623525       -16.9670
  36   2.0000      -0.568732       -15.4760
  37   2.0000      -0.548631       -14.9290
  38   2.0000      -0.543169       -14.7804
  39   2.0000      -0.537430       -14.6242
  40   2.0000      -0.481402       -13.0996
  41   2.0000      -0.478955       -13.0330
  42   2.0000      -0.450791       -12.2666
  43   2.0000      -0.439288       -11.9536
  44   2.0000      -0.434759       -11.8304
  45   2.0000      -0.422077       -11.4853
  46   2.0000      -0.404793       -11.0150
  47   2.0000      -0.394918       -10.7463
  48   2.0000      -0.392101       -10.6696
  49   2.0000      -0.384027       -10.4499
  50   2.0000      -0.376700       -10.2505
  51   2.0000      -0.363460        -9.8902
  52   2.0000      -0.351942        -9.5768
  53   2.0000      -0.346884        -9.4392
  54   2.0000      -0.317754        -8.6465
  55   2.0000      -0.272926        -7.4267
  56   2.0000      -0.270238        -7.3535
  57   2.0000      -0.258416        -7.0319
  58   2.0000      -0.226818        -6.1720
  59   2.0000      -0.206320        -5.6142
  60   0.0000      -0.119673        -3.2565
  61   0.0000      -0.054722        -1.4891
  62   0.0000      -0.010577        -0.2878
  63   0.0000       0.014151         0.3851
  64   0.0000       0.036458         0.9921

MULLIKEN ATOMIC CHARGES
-----------------------
   0 C :   -0.095681
   1 S :    0.160437
   2 C :    0.047137
   3 C :    0.029591
   4 C :    0.001077
   5 S :   -0.107488
   6 C :   -0.107624
   7 C :   -0.100677
   8 S :    0.155573
   9 C :    0.062293
  10 C :    0.000824
  11 C :   -0.091200
  12 C :    0.021576
  13 C :   -0.045605
  14 H :    0.034113
  15 H :   -0.004837
  16 H :   -0.008646
  17 H :   -0.001851
  18 H :    0.022300
  19 H :    0.028689
Sum of atomic charges:   -0.0000000

LOEWDIN ATOMIC CHARGES
----------------------
   0 C :   -0.185879
   1 S :    0.458914
   2 C :   -0.030698
   3 C :   -0.088555
   4 C :   -0.126756
   5 S :    0.082289
   6 C :   -0.190060
   7 C :   -0.180981
   8 S :    0.455749
   9 C :   -0.089107
  10 C :   -0.024172
  11 C :   -0.170247
  12 C :   -0.039305
  13 C :   -0.060365
  14 H :    0.027319
  15 H :    0.038439
  16 H :    0.037801
  17 H :    0.037948
  18 H :    0.018765
  19 H :    0.028900

  Mayer bond orders larger than 0.100000
B(  0-C ,  1-S ) :   1.1377 B(  0-C ,  2-C ) :   1.5263 B(  0-C , 14-H ) :   0.9626
B(  1-S ,  6-C ) :   1.1356 B(  2-C ,  3-C ) :   1.2799 B(  2-C , 15-H ) :   0.9919
B(  3-C ,  4-C ) :   1.0377 B(  3-C ,  6-C ) :   1.4508 B(  4-C ,  5-S ) :   1.7209
B(  4-C ,  9-C ) :   1.0296 B(  6-C ,  7-C ) :   1.1494 B(  7-C ,  8-S ) :   1.1318
B(  7-C ,  9-C ) :   1.4516 B(  8-S , 11-C ) :   1.0778 B(  9-C , 10-C ) :   1.2592
B( 10-C , 11-C ) :   1.4545 B( 10-C , 16-H ) :   0.9953 B( 11-C , 12-C ) :   1.1528
B( 12-C , 13-C ) :   1.8880 B( 12-C , 17-H ) :   0.9552 B( 13-C , 18-H ) :   0.9517
B( 13-C , 19-H ) :   0.9459

Dispersion correction           -0.054974330
FINAL SINGLE POINT ENERGY     -1616.719423926769

DIPOLE MOMENT
-------------
                                X             Y             Z
Electronic contribution:     -7.02693       3.92867      -2.01883
Nuclear contribution   :      6.77417      -3.91668       2.70826
                        -----------------------------------------
Total Dipole Moment    :     -0.25276       0.01198       0.68943
                        -----------------------------------------
Magnitude (a.u.)       :      0.73440
Magnitude (Debye)      :      1.86670

Rotational constants in cm-1:     0.026815     0.012039     0.008309
Rotational constants in MHz :   803.884940   360.923455   249.102155

                             ****ORCA TERMINATED NORMALLY****
TOTAL RUN TIME: 0 days 0 hours 10 minutes 43 seconds 342 msec
