                         Program Version 4.2.0 -  RELEASE  -
|  1> # ORCA input file
|  2> # SCF done        -47.641538860444          0.000609535375
|  3> ! B3LYP/G D3BJ Opt RIJCOSX def2-SVP def2/J
|  4> * xyz 0 1
|  5>    C        1.53591        -1.29489        -0.09288
|  6>    S        2.75796        -0.09927        -0.12898
|  7>    C        1.59007         1.18419        -0.03107
|  8>    C        0.31422         0.67164         0.00226
|  9>    C        0.29013        -0.74853        -0.02038
| 10>    C       -0.98419        -1.53260        -0.08165
| 11>    F       -1.20298        -1.90266        -1.40106
| 12>    C       -2.17273        -0.68255         0.38055
| 13>    F       -3.33462        -1.36721         0.14343
| 14>    C       -2.15132         0.64147        -0.38712
| 15>    F       -3.29775         1.35610        -0.16142
| 16>    C       -0.94868         1.46843         0.08365
| 17>    F       -1.17326         1.83128         1.40594
| 18>    C        2.06678         2.54829        -0.01506
| 19>    C        1.44685         3.58584         0.53780
| 20>    H        1.79656        -2.33344        -0.13438
| 21>    H       -0.92946        -2.47105         0.48247
| 22>    H       -2.12744        -0.49768         1.46115
| 23>    H       -2.10071         0.45455        -1.46709
| 24>    H       -0.88374         2.40962        -0.47607
| 25>    H        3.03699         2.68358        -0.47665
| 26>    H        0.51825         3.49611         1.07163
| 27>    H        1.88199         4.56940         0.49919
| 28> *
| 29>
| 30>                          ****END OF INPUT****
 Total Charge           Charge          ....    0
 Multiplicity           Mult            ....    1
 Number of Electrons    NEL             ....  120
Dispersion correction           -0.049899746
FINAL SINGLE POINT ENERGY     -1182.747993516439
Dispersion correction            ... done
Dispersion correction           -0.049812548
FINAL SINGLE POINT ENERGY     -1182.750704042869
Dispersion correction            ... done
Dispersion correction           -0.049845832
FINAL SINGLE POINT ENERGY     -1182.750884255513
Dispersion correction            ... done
FINAL SINGLE POINT ENERGY     -1182.750971373951
Dispersion correction            ... done
Dispersion correction           -0.049861773
FINAL SINGLE POINT ENERGY     -1182.750988598254
Dispersion correction            ... done
Dispersion correction           -0.049866022
FINAL SINGLE POINT ENERGY     -1182.750992390304
Dispersion correction            ... done
                    ***********************HURRAY********************

CARTESIAN COORDINATES (ANGSTROEM)
---------------------------------
  C      1.547134   -1.323762   -0.080736
  S      2.772473   -0.113661   -0.131011
  C      1.603858    1.180417   -0.048079
  C      0.318611    0.662184   -0.006228
  C      0.290862   -0.770781   -0.019897
  C     -0.998259   -1.538863   -0.090804
  F     -1.245531   -1.904151   -1.414784
  C     -2.170678   -0.678626    0.374919
  F     -3.346439   -1.349955    0.140292
  C     -2.146554    0.647909   -0.376740
  F     -3.293730    1.365131   -0.140994
  C     -0.940476    1.467751    0.071719
  F     -1.169599    1.862657    1.399297
  C      2.068741    2.561881   -0.017651
  C      1.428046    3.592216    0.559336
  H      1.810405   -2.379610   -0.120720
  H     -0.955252   -2.471208    0.493256
  H     -2.087982   -0.480373    1.456497
  H     -2.074892    0.443998   -1.458005
  H     -0.867877    2.392948   -0.519967
  H      3.036275    2.743916   -0.498625
  H      0.495171    3.463239    1.111169
  H      1.854521    4.597362    0.512016

 Multiplicity           Mult            ....    1
 Number of Electrons    NEL             ....  120
 Basis Dimension        Dim             ....  254

ORBITAL ENERGIES
----------------

  NO   OCC          E(Eh)            E(eV)
   0   2.0000     -88.898537     -2419.0522
   1   2.0000     -24.683549      -671.6735
   2   2.0000     -24.680972      -671.6034
   3   2.0000     -24.680955      -671.6029
   4   2.0000     -24.679431      -671.5615
   5   2.0000     -10.287504      -279.9372
   6   2.0000     -10.286521      -279.9105
   7   2.0000     -10.279488      -279.7191
   8   2.0000     -10.279370      -279.7159
   9   2.0000     -10.243704      -278.7453
  10   2.0000     -10.237507      -278.5767
  11   2.0000     -10.221456      -278.1400
  12   2.0000     -10.221335      -278.1367
  13   2.0000     -10.219673      -278.0914
  14   2.0000     -10.207227      -277.7528
  15   2.0000      -7.993653      -217.5184
  16   2.0000      -5.961591      -162.2231
  17   2.0000      -5.957519      -162.1123
  18   2.0000      -5.955306      -162.0521
  19   2.0000      -1.199078       -32.6286
  20   2.0000      -1.188725       -32.3469
  21   2.0000      -1.178117       -32.0582
  22   2.0000      -1.173493       -31.9324
  23   2.0000      -0.912625       -24.8338
  24   2.0000      -0.838767       -22.8240
  25   2.0000      -0.807545       -21.9744
  26   2.0000      -0.764944       -20.8152
  27   2.0000      -0.753381       -20.5005
  28   2.0000      -0.712241       -19.3811
  29   2.0000      -0.658306       -17.9134
  30   2.0000      -0.632605       -17.2141
  31   2.0000      -0.610510       -16.6128
  32   2.0000      -0.586301       -15.9541
  33   2.0000      -0.564691       -15.3660
  34   2.0000      -0.540305       -14.7024
  35   2.0000      -0.531341       -14.4585
  36   2.0000      -0.526056       -14.3147
  37   2.0000      -0.518859       -14.1189
  38   2.0000      -0.505751       -13.7622
  39   2.0000      -0.492534       -13.4025
  40   2.0000      -0.483873       -13.1668
  41   2.0000      -0.475909       -12.9501
  42   2.0000      -0.469595       -12.7783
  43   2.0000      -0.464560       -12.6413
  44   2.0000      -0.438726       -11.9383
  45   2.0000      -0.422010       -11.4835
  46   2.0000      -0.411999       -11.2111
  47   2.0000      -0.408577       -11.1179
  48   2.0000      -0.400814       -10.9067
  49   2.0000      -0.395080       -10.7507
  50   2.0000      -0.388170       -10.5626
  51   2.0000      -0.379169       -10.3177
  52   2.0000      -0.364009        -9.9052
  53   2.0000      -0.357549        -9.7294
  54   2.0000      -0.342449        -9.3185
  55   2.0000      -0.338553        -9.2125
  56   2.0000      -0.323331        -8.7983
  57   2.0000      -0.317656        -8.6438
  58   2.0000      -0.280876        -7.6430
  59   2.0000      -0.245320        -6.6755
  60   0.0000      -0.067921        -1.8482
  61   0.0000      -0.015474        -0.4211
  62   0.0000       0.014104         0.3838
  63   0.0000       0.027646         0.7523
  64   0.0000       0.060559         1.6479

MULLIKEN ATOMIC CHARGES
-----------------------
   0 C :   -0.104914
   1 S :    0.137311
   2 C :   -0.142151
   3 C :   -0.042923
   4 C :   -0.060516
   5 C :    0.328496
   6 F :   -0.261012
   7 C :    0.217069
   8 F :   -0.237360
   9 C :    0.223086
  10 F :   -0.236809
  11 C :    0.305090
  12 F :   -0.262954
  13 C :    0.001695
  14 C :   -0.032281
  15 H :    0.029517
  16 H :    0.004813
  17 H :    0.017525
  18 H :    0.018649
  19 H :    0.013134
  20 H :    0.003022
  21 H :    0.049609
  22 H :    0.031903
Sum of atomic charges:   -0.0000000

LOEWDIN ATOMIC CHARGES
----------------------
   0 C :   -0.172210
   1 S :    0.462925
   2 C :   -0.159771
   3 C :   -0.082688
   4 C :   -0.084869
   5 C :    0.110108
   6 F :   -0.134726
   7 C :    0.078712
   8 F :   -0.109609
   9 C :    0.080830
  10 F :   -0.109054
  11 C :    0.107487
  12 F :   -0.136202
  13 C :   -0.047231
  14 C :   -0.028026
  15 H :    0.031565
  16 H :    0.026327
  17 H :    0.024232
  18 H :    0.024955
  19 H :    0.027414
  20 H :    0.031693
  21 H :    0.027618
  22 H :    0.030522

  Mayer bond orders larger than 0.100000
B(  0-C ,  1-S ) :   1.1728 B(  0-C ,  4-C ) :   1.5451 B(  0-C , 15-H ) :   0.9644
B(  1-S ,  2-C ) :   1.1498 B(  2-C ,  3-C ) :   1.5225 B(  2-C , 13-C ) :   1.0857
B(  3-C ,  4-C ) :   1.2988 B(  3-C , 11-C ) :   0.9888 B(  4-C ,  5-C ) :   0.9653
B(  5-C ,  6-F ) :   0.9955 B(  5-C ,  7-C ) :   1.0025 B(  5-C , 16-H ) :   0.9166
B(  7-C ,  8-F ) :   1.0356 B(  7-C ,  9-C ) :   0.9843 B(  7-C , 17-H ) :   0.9251
B(  9-C , 10-F ) :   1.0373 B(  9-C , 11-C ) :   1.0001 B(  9-C , 18-H ) :   0.9254
B( 11-C , 12-F ) :   0.9509 B( 11-C , 19-H ) :   0.9111 B( 13-C , 14-C ) :   1.9240
B( 13-C , 20-H ) :   0.9481 B( 14-C , 21-H ) :   0.9428 B( 14-C , 22-H ) :   0.9436

Dispersion correction           -0.049868221
FINAL SINGLE POINT ENERGY     -1182.750991428447

DIPOLE MOMENT
-------------
                                X             Y             Z
Electronic contribution:     -9.03288      -6.58086      -0.90656
Nuclear contribution   :     10.56098       6.64467       0.92021
                        -----------------------------------------
Total Dipole Moment    :      1.52810       0.06381       0.01365
                        -----------------------------------------
Magnitude (a.u.)       :      1.52949
Magnitude (Debye)      :      3.88766

Rotational constants in cm-1:     0.026922     0.015094     0.010429
Rotational constants in MHz :   807.105389   452.506295   312.663572

                             ****ORCA TERMINATED NORMALLY****
TOTAL RUN TIME: 0 days 0 hours 12 minutes 17 seconds 930 msec
