                         Program Version 4.2.0 -  RELEASE  -
|  1> # ORCA input file
|  2> # SCF done        -27.666385485675          0.000923861673
|  3> ! B3LYP/G D3BJ Opt RIJCOSX def2-SVP def2/J
|  4> * xyz 0 2
|  5>    C        1.13330         0.34198         0.14561
|  6>    C        0.66831        -0.94001        -0.07778
|  7>    C       -0.76826        -0.95875        -0.11877
|  8>    C       -1.32205         0.28096         0.05173
|  9>    S       -0.12382         1.50403         0.21672
| 10>    O        0.01312         2.22070        -1.41527
| 11>    O       -1.52479        -2.07315        -0.21417
| 12>    C        1.54214        -2.07834        -0.20898
| 13>    C        1.29083        -3.21256        -0.86812
| 14>    H        2.15195         0.64210         0.28093
| 15>    H       -2.36410         0.50996         0.12867
| 16>    H       -0.41310         3.08030        -1.44868
| 17>    H       -0.94380        -2.84565        -0.18532
| 18>    H        2.50989        -1.95427         0.26038
| 19>    H        0.39814        -3.38097        -1.44854
| 20>    H        2.02117        -4.00246        -0.90241
| 21> *
| 22>
| 23>                          ****END OF INPUT****
 Total Charge           Charge          ....    0
 Multiplicity           Mult            ....    2
 Number of Electrons    NEL             ....   75
 Basis Dimension        Dim             ....  165

ORBITAL ENERGIES
----------------
                 SPIN UP ORBITALS
  NO   OCC          E(Eh)            E(eV)
   0   1.0000     -88.944531     -2420.3037
   1   1.0000     -19.173989      -521.7508
   2   1.0000     -19.128980      -520.5260
   3   1.0000     -10.257372      -279.1173
   4   1.0000     -10.205051      -277.6936
   5   1.0000     -10.200786      -277.5775
   6   1.0000     -10.200188      -277.5612
   7   1.0000     -10.192417      -277.3498
   8   1.0000     -10.186909      -277.1999
   9   1.0000      -8.029946      -218.5059
  10   1.0000      -5.999130      -163.2446
  11   1.0000      -5.995800      -163.1540
  12   1.0000      -5.990690      -163.0150
  13   1.0000      -1.062196       -28.9038
  14   1.0000      -0.993128       -27.0244
  15   1.0000      -0.883839       -24.0505
  16   1.0000      -0.799490       -21.7552
  17   1.0000      -0.734299       -19.9813
  18   1.0000      -0.718468       -19.5505
  19   1.0000      -0.608879       -16.5684
  20   1.0000      -0.596727       -16.2378
  21   1.0000      -0.582953       -15.8630
  22   1.0000      -0.513008       -13.9596
  23   1.0000      -0.501829       -13.6555
  24   1.0000      -0.484347       -13.1798
  25   1.0000      -0.455599       -12.3975
  26   1.0000      -0.438980       -11.9453
  27   1.0000      -0.423939       -11.5360
  28   1.0000      -0.414640       -11.2829
  29   1.0000      -0.409856       -11.1528
  30   1.0000      -0.388347       -10.5675
  31   1.0000      -0.357059        -9.7161
  32   1.0000      -0.344690        -9.3795
  33   1.0000      -0.332613        -9.0509
  34   1.0000      -0.297157        -8.0861
  35   1.0000      -0.274779        -7.4771
  36   1.0000      -0.225626        -6.1396
  37   1.0000      -0.162630        -4.4254
  38   0.0000      -0.022173        -0.6033
  39   0.0000       0.024690         0.6719
  40   0.0000       0.039533         1.0757
  41   0.0000       0.069815         1.8998
  42   0.0000       0.073085         1.9888

                 SPIN DOWN ORBITALS
  NO   OCC          E(Eh)            E(eV)
   0   1.0000     -88.943558     -2420.2773
   1   1.0000     -19.172608      -521.7132
   2   1.0000     -19.120949      -520.3075
   3   1.0000     -10.255042      -279.0539
   4   1.0000     -10.205977      -277.7187
   5   1.0000     -10.198333      -277.5107
   6   1.0000     -10.197714      -277.4939
   7   1.0000     -10.190512      -277.2979
   8   1.0000     -10.187277      -277.2099
   9   1.0000      -8.028817      -218.4752
  10   1.0000      -5.996558      -163.1746
  11   1.0000      -5.995006      -163.1324
  12   1.0000      -5.990043      -162.9974
  13   1.0000      -1.059171       -28.8215
  14   1.0000      -0.976071       -26.5602
  15   1.0000      -0.875939       -23.8355
  16   1.0000      -0.795835       -21.6558
  17   1.0000      -0.727036       -19.7837
  18   1.0000      -0.714781       -19.4502
  19   1.0000      -0.604599       -16.4520
  20   1.0000      -0.594262       -16.1707
  21   1.0000      -0.577967       -15.7273
  22   1.0000      -0.511003       -13.9051
  23   1.0000      -0.489029       -13.3072
  24   1.0000      -0.481920       -13.1137
  25   1.0000      -0.452466       -12.3122
  26   1.0000      -0.435630       -11.8541
  27   1.0000      -0.417469       -11.3599
  28   1.0000      -0.406763       -11.0686
  29   1.0000      -0.403482       -10.9793
  30   1.0000      -0.383970       -10.4484
  31   1.0000      -0.353215        -9.6115
  32   1.0000      -0.336220        -9.1490
  33   1.0000      -0.322430        -8.7738
  34   1.0000      -0.289300        -7.8722
  35   1.0000      -0.258284        -7.0283
  36   1.0000      -0.216141        -5.8815
  37   0.0000      -0.091728        -2.4961
  38   0.0000      -0.008731        -0.2376
  39   0.0000       0.037107         1.0097
  40   0.0000       0.049303         1.3416
  41   0.0000       0.072237         1.9657

MULLIKEN ATOMIC CHARGES AND SPIN POPULATIONS
--------------------------------------------
   0 C :   -0.144931    0.165191
   1 C :    0.067172    0.187922
   2 C :    0.171940    0.132544
   3 C :   -0.173504   -0.016297
   4 S :    0.372779    0.208112
   5 O :   -0.407693    0.210558
   6 O :   -0.173574    0.039685
   7 C :   -0.000594   -0.078115
   8 C :   -0.069462    0.144785
   9 H :    0.007558   -0.007776
  10 H :   -0.001435   -0.000054
  11 H :    0.154261    0.021304
  12 H :    0.171663   -0.000650
  13 H :   -0.012401    0.006001
  14 H :    0.013867   -0.006909
  15 H :    0.024355   -0.006301
Sum of atomic charges         :    0.0000000

LOEWDIN ATOMIC CHARGES AND SPIN POPULATIONS
-------------------------------------------
   0 C :   -0.232524    0.147419
   1 C :   -0.091762    0.170805
   2 C :    0.043382    0.126358
   3 C :   -0.288242    0.000211
   4 S :    0.803355    0.184002
   5 O :   -0.338616    0.224388
   6 O :   -0.031585    0.042314
   7 C :   -0.011347   -0.038073
   8 C :   -0.078384    0.114984
   9 H :    0.016706    0.000743
  10 H :    0.017707   -0.000283
  11 H :    0.037110    0.022932
  12 H :    0.082983    0.000817
  13 H :    0.031709    0.002863
  14 H :    0.015170    0.000165
  15 H :    0.024338    0.000355

  Mayer bond orders larger than 0.100000
B(  0-C ,  1-C ) :   1.4131 B(  0-C ,  4-S ) :   1.1737 B(  0-C ,  9-H ) :   0.9713
B(  1-C ,  2-C ) :   1.1594 B(  1-C ,  7-C ) :   1.1284 B(  2-C ,  3-C ) :   1.4833
B(  2-C ,  6-O ) :   1.2503 B(  3-C ,  4-S ) :   1.1203 B(  3-C , 10-H ) :   0.9677
B(  4-S ,  5-O ) :   0.6784 B(  5-O , 11-H ) :   0.9730 B(  6-O , 12-H ) :   0.9447
B(  7-C ,  8-C ) :   1.8601 B(  7-C , 13-H ) :   0.9540 B(  8-C , 14-H ) :   0.9504
B(  8-C , 15-H ) :   0.9447

Dispersion correction           -0.030476455
FINAL SINGLE POINT ENERGY      -780.985667502621
Dispersion correction            ... done
Dispersion correction           -0.030363580
FINAL SINGLE POINT ENERGY      -780.989071080995
Dispersion correction            ... done
Dispersion correction           -0.030285357
FINAL SINGLE POINT ENERGY      -780.990112611307
Dispersion correction            ... done
FINAL SINGLE POINT ENERGY      -780.990695728658
FINAL SINGLE POINT ENERGY      -780.991136169259
FINAL SINGLE POINT ENERGY      -780.991729008873
FINAL SINGLE POINT ENERGY      -780.992815735809
FINAL SINGLE POINT ENERGY      -780.994272132111
FINAL SINGLE POINT ENERGY      -780.995795211398
FINAL SINGLE POINT ENERGY      -780.996553833286
FINAL SINGLE POINT ENERGY      -780.998737800353
FINAL SINGLE POINT ENERGY      -780.998742283024
FINAL SINGLE POINT ENERGY      -780.998749048793
FINAL SINGLE POINT ENERGY      -780.998760553302
FINAL SINGLE POINT ENERGY      -780.998775672551
FINAL SINGLE POINT ENERGY      -780.998793861780
FINAL SINGLE POINT ENERGY      -780.998811008033
Dispersion correction           -0.030281716
FINAL SINGLE POINT ENERGY      -780.998827338294
Dispersion correction            ... done
Dispersion correction           -0.030114743
FINAL SINGLE POINT ENERGY      -780.998626174552
Dispersion correction            ... done

CARTESIAN COORDINATES (ANGSTROEM)
---------------------------------
  C      0.966432    0.403584    0.201840
  C      0.579546   -0.887461   -0.073838
  C     -0.871213   -1.008153   -0.021916
  C     -1.504537    0.173372    0.274820
  S     -0.369398    1.463229    0.493473
  O      0.548449    2.847085   -1.244120
  O     -1.540714   -2.165391   -0.215701
  C      1.517478   -1.978839   -0.340078
  C      1.264317   -3.142680   -0.967634
  H      1.970609    0.823387    0.205474
  H     -2.571223    0.327930    0.419834
  H      0.320030    2.238430   -1.972654
  H     -0.924289   -2.901542   -0.083359
  H      2.532017   -1.801672    0.035504
  H      0.301091   -3.364109   -1.434093
  H      2.050335   -3.893302   -1.081552

Dispersion correction           -0.030140027
FINAL SINGLE POINT ENERGY      -780.998795898717
Dispersion correction            ... done

DIPOLE MOMENT
-------------
                                X             Y             Z
Electronic contribution:     -3.29346       5.53655       2.85573
Nuclear contribution   :      3.51221      -6.74985      -2.77613
                        -----------------------------------------
Total Dipole Moment    :      0.21875      -1.21331       0.07960
                        -----------------------------------------
Magnitude (a.u.)       :      1.23544
Magnitude (Debye)      :      3.14023

Rotational constants in cm-1:     0.076212     0.031656     0.025032
Rotational constants in MHz :  2284.772317   949.017648   750.453427

                             ****ORCA TERMINATED NORMALLY****
TOTAL RUN TIME: 0 days 0 hours 53 minutes 40 seconds 50 msec
