                         Program Version 4.2.0 -  RELEASE  -
|  1> # ORCA input file
|  2> # SCF done        -28.665021823988          0.000626289244
|  3> ! B3LYP/G D3BJ Opt RIJCOSX def2-SVP def2/J
|  4> * xyz 0 1
|  5>    C       -1.21855         1.29597        -0.00118
|  6>    C        0.00961         0.72944        -0.00049
|  7>    C       -0.00491        -0.71405        -0.00062
|  8>    C       -1.31150        -1.30523        -0.00147
|  9>    O       -1.68958        -2.43756        -0.00180
| 10>    S       -2.49284         0.13113        -0.00209
| 11>    C        1.29064        -1.14515         0.00015
| 12>    N        2.11750        -0.06831         0.00070
| 13>    C        1.40718         1.15236         0.00040
| 14>    O        1.93328         2.23577         0.00080
| 15>    H       -1.46262         2.34170        -0.00121
| 16>    H        1.67257        -2.14970         0.00029
| 17>    H        3.12524        -0.10956         0.00127
| 18> *
| 19>
| 20>                          ****END OF INPUT****
 Total Charge           Charge          ....    0
 Multiplicity           Mult            ....    1
 Number of Electrons    NEL             ....   78
Dispersion correction           -0.028319421
FINAL SINGLE POINT ENERGY      -833.419659675661
Dispersion correction            ... done
Dispersion correction           -0.028307684
FINAL SINGLE POINT ENERGY      -833.421805230683
Dispersion correction            ... done
Dispersion correction           -0.028309929
FINAL SINGLE POINT ENERGY      -833.422020636369
Dispersion correction            ... done
FINAL SINGLE POINT ENERGY      -833.422089395119
FINAL SINGLE POINT ENERGY      -833.422102833959
Dispersion correction            ... done
Dispersion correction           -0.028315195
FINAL SINGLE POINT ENERGY      -833.422106528239
Dispersion correction            ... done
Dispersion correction           -0.028314917
FINAL SINGLE POINT ENERGY      -833.422107799036
Dispersion correction            ... done
                    ***********************HURRAY********************

CARTESIAN COORDINATES (ANGSTROEM)
---------------------------------
  C     -1.227430    1.304418   -0.001102
  C      0.001792    0.723031   -0.000584
  C     -0.007867   -0.720687   -0.000709
  C     -1.325990   -1.329507   -0.001451
  O     -1.695010   -2.469564   -0.001619
  S     -2.533446    0.144631   -0.002196
  C      1.294772   -1.154787    0.000017
  N      2.131703   -0.069105    0.000656
  C      1.412496    1.168485    0.000094
  O      1.936831    2.255853    0.001001
  H     -1.442355    2.374815   -0.001138
  H      1.685665   -2.171967    0.000274
  H      3.144860   -0.098805    0.001507

 Multiplicity           Mult            ....    1
 Number of Electrons    NEL             ....   78
 Basis Dimension        Dim             ....  159

ORBITAL ENERGIES
----------------

  NO   OCC          E(Eh)            E(eV)
   0   2.0000     -88.872076     -2418.3321
   1   2.0000     -19.148885      -521.0676
   2   2.0000     -19.135215      -520.6957
   3   2.0000     -14.401399      -391.8820
   4   2.0000     -10.318211      -280.7728
   5   2.0000     -10.312002      -280.6038
   6   2.0000     -10.282886      -279.8116
   7   2.0000     -10.254038      -279.0266
   8   2.0000     -10.215336      -277.9734
   9   2.0000     -10.213452      -277.9222
  10   2.0000      -7.968021      -216.8209
  11   2.0000      -5.936140      -161.5306
  12   2.0000      -5.932468      -161.4307
  13   2.0000      -5.928533      -161.3236
  14   2.0000      -1.060465       -28.8567
  15   2.0000      -1.058061       -28.7913
  16   2.0000      -0.984235       -26.7824
  17   2.0000      -0.874372       -23.7929
  18   2.0000      -0.781471       -21.2649
  19   2.0000      -0.743325       -20.2269
  20   2.0000      -0.686454       -18.6794
  21   2.0000      -0.655728       -17.8433
  22   2.0000      -0.577676       -15.7194
  23   2.0000      -0.549396       -14.9498
  24   2.0000      -0.531898       -14.4737
  25   2.0000      -0.502055       -13.6616
  26   2.0000      -0.475991       -12.9524
  27   2.0000      -0.475512       -12.9394
  28   2.0000      -0.448299       -12.1988
  29   2.0000      -0.443555       -12.0698
  30   2.0000      -0.429288       -11.6815
  31   2.0000      -0.422459       -11.4957
  32   2.0000      -0.373917       -10.1748
  33   2.0000      -0.367781       -10.0078
  34   2.0000      -0.354913        -9.6577
  35   2.0000      -0.288852        -7.8601
  36   2.0000      -0.276611        -7.5270
  37   2.0000      -0.275674        -7.5015
  38   2.0000      -0.231142        -6.2897
  39   0.0000      -0.105006        -2.8574
  40   0.0000      -0.038572        -1.0496
  41   0.0000       0.007872         0.2142
  42   0.0000       0.038254         1.0409
  43   0.0000       0.059435         1.6173

MULLIKEN ATOMIC CHARGES
-----------------------
   0 C :   -0.089871
   1 C :   -0.018516
   2 C :    0.020248
   3 C :    0.042126
   4 O :   -0.147039
   5 S :    0.004380
   6 C :    0.089585
   7 N :   -0.143386
   8 C :    0.186111
   9 O :   -0.160322
  10 H :    0.049564
  11 H :    0.031352
  12 H :    0.135770
Sum of atomic charges:   -0.0000000

LOEWDIN ATOMIC CHARGES
----------------------
   0 C :   -0.097398
   1 C :   -0.118643
   2 C :   -0.149882
   3 C :   -0.025605
   4 O :   -0.133311
   5 S :    0.298440
   6 C :    0.107490
   7 N :    0.024585
   8 C :    0.083485
   9 O :   -0.161187
  10 H :    0.039507
  11 H :    0.040301
  12 H :    0.092217

  Mayer bond orders larger than 0.100000
B(  0-C ,  1-C ) :   1.5778 B(  0-C ,  5-S ) :   1.1375 B(  0-C , 10-H ) :   0.9576
B(  1-C ,  2-C ) :   1.1701 B(  1-C ,  8-C ) :   0.9444 B(  2-C ,  3-C ) :   0.9496
B(  2-C ,  6-C ) :   1.4748 B(  3-C ,  4-O ) :   2.1725 B(  3-C ,  5-S ) :   0.9295
B(  4-O ,  5-S ) :   0.1271 B(  6-C ,  7-N ) :   1.2150 B(  6-C , 11-H ) :   0.9831
B(  7-N ,  8-C ) :   1.0128 B(  7-N , 12-H ) :   0.9253 B(  8-C ,  9-O ) :   2.2031

Dispersion correction           -0.028314752
FINAL SINGLE POINT ENERGY      -833.422108175855

DIPOLE MOMENT
-------------
                                X             Y             Z
Electronic contribution:     -3.02458      -0.33986      -0.00242
Nuclear contribution   :      4.04648       0.08535       0.00278
                        -----------------------------------------
Total Dipole Moment    :      1.02190      -0.25451       0.00036
                        -----------------------------------------
Magnitude (a.u.)       :      1.05312
Magnitude (Debye)      :      2.67682

Rotational constants in cm-1:     0.077278     0.032381     0.022819
Rotational constants in MHz :  2316.721244   970.764388   684.106564

                             ****ORCA TERMINATED NORMALLY****
TOTAL RUN TIME: 0 days 0 hours 7 minutes 5 seconds 392 msec
