                         Program Version 4.2.0 -  RELEASE  -
|  1> # ORCA input file
|  2> # SCF done        -41.214987441817          0.000432319014
|  3> ! B3LYP/G D3BJ Opt RIJCOSX def2-SVP def2/J
|  4> * xyz 0 1
|  5>    C        1.38629        -1.34357         0.25268
|  6>    S        2.63960        -0.17984         0.17690
|  7>    C        1.49348         1.10480        -0.08885
|  8>    C        0.20851         0.61548        -0.09617
|  9>    C        0.15288        -0.78837         0.09926
| 10>    C       -1.13146        -1.55676         0.17067
| 11>    C       -2.29568        -0.74421        -0.39277
| 12>    C       -2.27682         0.67874         0.17094
| 13>    N       -2.36816         0.58606         1.65410
| 14>    O       -1.47653         1.04719         2.31919
| 15>    O       -3.35741         0.04567         2.09001
| 16>    C       -1.03110         1.44121        -0.25882
| 17>    C        2.01922         2.43796        -0.23813
| 18>    C        1.40737         3.49895        -0.75704
| 19>    H        1.62733        -2.37569         0.41250
| 20>    H       -1.33338        -1.81399         1.21596
| 21>    H       -1.03454        -2.49736        -0.37503
| 22>    H       -3.24115        -1.22645        -0.13970
| 23>    H       -2.21870        -0.68182        -1.47945
| 24>    H       -3.18181         1.20967        -0.14485
| 25>    H       -0.93336         2.35833         0.32765
| 26>    H       -1.15309         1.72209        -1.30927
| 27>    H        3.04161         2.54236         0.10333
| 28>    H        0.41223         3.47016        -1.15983
| 29>    H        1.91233         4.44773        -0.81161
| 30> *
| 31>
| 32>                          ****END OF INPUT****
 Total Charge           Charge          ....    0
 Multiplicity           Mult            ....    1
 Number of Electrons    NEL             ....  110
Dispersion correction           -0.056532871
FINAL SINGLE POINT ENERGY      -990.473727106257
Dispersion correction            ... done
Dispersion correction           -0.055817027
FINAL SINGLE POINT ENERGY      -990.477691339943
Dispersion correction            ... done
Dispersion correction           -0.055453803
FINAL SINGLE POINT ENERGY      -990.477120462006
Dispersion correction            ... done
FINAL SINGLE POINT ENERGY      -990.478007591873
FINAL SINGLE POINT ENERGY      -990.478087075264
FINAL SINGLE POINT ENERGY      -990.478114298234
FINAL SINGLE POINT ENERGY      -990.478096340773
FINAL SINGLE POINT ENERGY      -990.477994233682
FINAL SINGLE POINT ENERGY      -990.477809607866
FINAL SINGLE POINT ENERGY      -990.477988393531
FINAL SINGLE POINT ENERGY      -990.478092475266
FINAL SINGLE POINT ENERGY      -990.478153994772
FINAL SINGLE POINT ENERGY      -990.478132119645
FINAL SINGLE POINT ENERGY      -990.478203243584
FINAL SINGLE POINT ENERGY      -990.478208645323
FINAL SINGLE POINT ENERGY      -990.478169800267
FINAL SINGLE POINT ENERGY      -990.478060432870
Dispersion correction            ... done
Dispersion correction           -0.055299483
FINAL SINGLE POINT ENERGY      -990.478068696742
Dispersion correction            ... done
Dispersion correction           -0.055304557
FINAL SINGLE POINT ENERGY      -990.478069825616
Dispersion correction            ... done
                    ***********************HURRAY********************

CARTESIAN COORDINATES (ANGSTROEM)
---------------------------------
  C      1.470368   -1.397503    0.124763
  S      2.712218   -0.227924   -0.094854
  C      1.554866    1.079413   -0.203942
  C      0.259584    0.593133   -0.065132
  C      0.218844   -0.825540    0.130669
  C     -1.078835   -1.562761    0.326355
  C     -2.239666   -0.821386   -0.341439
  C     -2.286473    0.650446    0.082824
  N     -2.664099    0.684718    1.564510
  O     -1.830972    1.050351    2.372419
  O     -3.792085    0.310492    1.830390
  C     -0.993023    1.421005   -0.182455
  C      2.080856    2.415486   -0.435386
  C      1.418307    3.580129   -0.560851
  H      1.718998   -2.449588    0.255589
  H     -1.288211   -1.669634    1.405907
  H     -1.004160   -2.584382   -0.075907
  H     -3.201867   -1.294371   -0.097936
  H     -2.122345   -0.845945   -1.437576
  H     -3.139003    1.146266   -0.399240
  H     -0.950277    2.286215    0.493960
  H     -1.058237    1.832859   -1.204837
  H      3.173612    2.454406   -0.518053
  H      0.334062    3.668672   -0.494960
  H      1.975200    4.503785   -0.733146

 Multiplicity           Mult            ....    1
 Number of Electrons    NEL             ....  110
 Basis Dimension        Dim             ....  255

ORBITAL ENERGIES
----------------

  NO   OCC          E(Eh)            E(eV)
   0   2.0000     -88.875376     -2418.4219
   1   2.0000     -19.171398      -521.6803
   2   2.0000     -19.167914      -521.5855
   3   2.0000     -14.556344      -396.0983
   4   2.0000     -10.257546      -279.1220
   5   2.0000     -10.219825      -278.0956
   6   2.0000     -10.215369      -277.9743
   7   2.0000     -10.214353      -277.9467
   8   2.0000     -10.213453      -277.9222
   9   2.0000     -10.208915      -277.7987
  10   2.0000     -10.207613      -277.7633
  11   2.0000     -10.203737      -277.6578
  12   2.0000     -10.201885      -277.6074
  13   2.0000     -10.193270      -277.3730
  14   2.0000      -7.970543      -216.8895
  15   2.0000      -5.938488      -161.5945
  16   2.0000      -5.934632      -161.4895
  17   2.0000      -5.931982      -161.4174
  18   2.0000      -1.227074       -33.3904
  19   2.0000      -1.055305       -28.7163
  20   2.0000      -0.894018       -24.3275
  21   2.0000      -0.854875       -23.2623
  22   2.0000      -0.795568       -21.6485
  23   2.0000      -0.768238       -20.9048
  24   2.0000      -0.758405       -20.6373
  25   2.0000      -0.707257       -19.2454
  26   2.0000      -0.680931       -18.5291
  27   2.0000      -0.642789       -17.4912
  28   2.0000      -0.606385       -16.5006
  29   2.0000      -0.579809       -15.7774
  30   2.0000      -0.564436       -15.3591
  31   2.0000      -0.557366       -15.1667
  32   2.0000      -0.529619       -14.4117
  33   2.0000      -0.513821       -13.9818
  34   2.0000      -0.505306       -13.7501
  35   2.0000      -0.493165       -13.4197
  36   2.0000      -0.463638       -12.6162
  37   2.0000      -0.461018       -12.5449
  38   2.0000      -0.455538       -12.3958
  39   2.0000      -0.436450       -11.8764
  40   2.0000      -0.423596       -11.5266
  41   2.0000      -0.417094       -11.3497
  42   2.0000      -0.399520       -10.8715
  43   2.0000      -0.394153       -10.7254
  44   2.0000      -0.378573       -10.3015
  45   2.0000      -0.372630       -10.1398
  46   2.0000      -0.353977        -9.6322
  47   2.0000      -0.350003        -9.5241
  48   2.0000      -0.337974        -9.1967
  49   2.0000      -0.318515        -8.6672
  50   2.0000      -0.307398        -8.3647
  51   2.0000      -0.303783        -8.2664
  52   2.0000      -0.298563        -8.1243
  53   2.0000      -0.249487        -6.7889
  54   2.0000      -0.220393        -5.9972
  55   0.0000      -0.070327        -1.9137
  56   0.0000      -0.049233        -1.3397
  57   0.0000       0.017794         0.4842
  58   0.0000       0.028235         0.7683
  59   0.0000       0.038938         1.0596

MULLIKEN ATOMIC CHARGES
-----------------------
   0 C :   -0.129070
   1 S :    0.109570
   2 C :   -0.162404
   3 C :   -0.040926
   4 C :   -0.052958
   5 C :    0.133159
   6 C :    0.020455
   7 C :    0.018559
   8 N :    0.195329
   9 O :   -0.225027
  10 O :   -0.239167
  11 C :    0.158509
  12 C :    0.039332
  13 C :   -0.041351
  14 H :    0.013728
  15 H :    0.032342
  16 H :    0.002820
  17 H :    0.026284
  18 H :    0.027692
  19 H :    0.026314
  20 H :    0.041740
  21 H :    0.025150
  22 H :   -0.008863
  23 H :    0.007448
  24 H :    0.021338
Sum of atomic charges:    0.0000000

LOEWDIN ATOMIC CHARGES
----------------------
   0 C :   -0.198618
   1 S :    0.437921
   2 C :   -0.180397
   3 C :   -0.055631
   4 C :   -0.065606
   5 C :   -0.024043
   6 C :   -0.022255
   7 C :    0.020618
   8 N :    0.263778
   9 O :   -0.193314
  10 O :   -0.206843
  11 C :   -0.028579
  12 C :   -0.040266
  13 C :   -0.058806
  14 H :    0.023761
  15 H :    0.035434
  16 H :    0.033799
  17 H :    0.031753
  18 H :    0.034685
  19 H :    0.038435
  20 H :    0.039249
  21 H :    0.040851
  22 H :    0.029147
  23 H :    0.017804
  24 H :    0.027123

  Mayer bond orders larger than 0.100000
B(  0-C ,  1-S ) :   1.1573 B(  0-C ,  4-C ) :   1.5376 B(  0-C , 14-H ) :   0.9645
B(  1-S ,  2-C ) :   1.1331 B(  2-C ,  3-C ) :   1.5049 B(  2-C , 12-C ) :   1.1253
B(  3-C ,  4-C ) :   1.3010 B(  3-C , 11-C ) :   1.0548 B(  4-C ,  5-C ) :   1.0302
B(  5-C ,  6-C ) :   1.0779 B(  5-C , 15-H ) :   0.9161 B(  5-C , 16-H ) :   0.9162
B(  6-C ,  7-C ) :   1.0657 B(  6-C , 17-H ) :   0.9264 B(  6-C , 18-H ) :   0.9404
B(  7-C ,  8-N ) :   0.8060 B(  7-C , 11-C ) :   1.0261 B(  7-C , 19-H ) :   0.9127
B(  8-N ,  9-O ) :   1.5614 B(  8-N , 10-O ) :   1.5349 B(  9-O , 10-O ) :   0.2871
B( 11-C , 20-H ) :   0.8888 B( 11-C , 21-H ) :   0.8921 B( 12-C , 13-C ) :   1.9050
B( 12-C , 22-H ) :   0.9417 B( 13-C , 23-H ) :   0.9530 B( 13-C , 24-H ) :   0.9390

Dispersion correction           -0.055299647
FINAL SINGLE POINT ENERGY      -990.478062117670

DIPOLE MOMENT
-------------
                                X             Y             Z
Electronic contribution:      3.54272      -2.29239       4.77301
Nuclear contribution   :     -3.36810       2.06352      -6.00237
                        -----------------------------------------
Total Dipole Moment    :      0.17462      -0.22886      -1.22936
                        -----------------------------------------
Magnitude (a.u.)       :      1.26261
Magnitude (Debye)      :      3.20930

Rotational constants in cm-1:     0.034714     0.015070     0.011971
Rotational constants in MHz :  1040.685118   451.793693   358.878919

                             ****ORCA TERMINATED NORMALLY****
TOTAL RUN TIME: 0 days 0 hours 46 minutes 46 seconds 118 msec
