                         Program Version 4.2.0 -  RELEASE  -
|  1> # ORCA input file
|  2> # SCF done        -20.010691630831          0.000046155232
|  3> ! B3LYP/G D3BJ Opt RIJCOSX def2-SVP def2/J
|  4> * xyz 0 1
|  5>    C        0.12402         1.21744         0.02231
|  6>    S       -1.05767        -0.03640        -0.08922
|  7>    C        0.15743        -1.23297        -0.08314
|  8>    C        1.41712        -0.69663         0.00073
|  9>    C        1.38246         0.72740         0.06130
| 10>    C        2.64036        -1.48683         0.02493
| 11>    O        3.75689        -1.03947         0.09823
| 12>    H       -0.19890         2.23890         0.05142
| 13>    H       -0.11174        -2.26947        -0.14132
| 14>    H        2.27351         1.32371         0.13009
| 15>    H        2.46102        -2.57952        -0.03153
| 16> *
| 17>
| 18>                          ****END OF INPUT****
 Total Charge           Charge          ....    0
 Multiplicity           Mult            ....    1
 Number of Electrons    NEL             ....   58
Dispersion correction           -0.020644685
FINAL SINGLE POINT ENERGY      -666.045888027347
Dispersion correction            ... done
Dispersion correction           -0.020585817
FINAL SINGLE POINT ENERGY      -666.047460193609
Dispersion correction            ... done
Dispersion correction           -0.020579546
FINAL SINGLE POINT ENERGY      -666.047515017555
Dispersion correction            ... done
FINAL SINGLE POINT ENERGY      -666.047493042238
FINAL SINGLE POINT ENERGY      -666.047513367345
Dispersion correction            ... done
Dispersion correction           -0.020581930
FINAL SINGLE POINT ENERGY      -666.047507533954
Dispersion correction            ... done
Dispersion correction           -0.020580395
FINAL SINGLE POINT ENERGY      -666.047521216571
Dispersion correction            ... done
                    ***********************HURRAY********************

CARTESIAN COORDINATES (ANGSTROEM)
---------------------------------
  C      0.110736    1.235712    0.019653
  S     -1.069094   -0.036595   -0.084802
  C      0.154401   -1.242127   -0.081136
  C      1.418597   -0.690944   -0.002315
  C      1.385721    0.743273    0.055766
  C      2.645687   -1.503571    0.025005
  O      3.766872   -1.057729    0.121704
  H     -0.219408    2.273309    0.055786
  H     -0.104808   -2.298959   -0.136117
  H      2.287378    1.351615    0.122823
  H      2.468420   -2.607823   -0.052567

 Multiplicity           Mult            ....    1
 Number of Electrons    NEL             ....   58
 Basis Dimension        Dim             ....  122

ORBITAL ENERGIES
----------------

  NO   OCC          E(Eh)            E(eV)
   0   2.0000     -88.895096     -2418.9586
   1   2.0000     -19.131311      -520.5894
   2   2.0000     -10.277971      -279.6778
   3   2.0000     -10.237515      -278.5770
   4   2.0000     -10.229037      -278.3462
   5   2.0000     -10.209650      -277.8187
   6   2.0000     -10.209003      -277.8011
   7   2.0000      -7.990188      -217.4241
   8   2.0000      -5.958176      -162.1302
   9   2.0000      -5.953924      -162.0145
  10   2.0000      -5.951970      -161.9613
  11   2.0000      -1.034026       -28.1373
  12   2.0000      -0.897375       -24.4188
  13   2.0000      -0.763725       -20.7820
  14   2.0000      -0.741584       -20.1795
  15   2.0000      -0.628933       -17.1141
  16   2.0000      -0.584627       -15.9085
  17   2.0000      -0.549102       -14.9418
  18   2.0000      -0.517977       -14.0949
  19   2.0000      -0.451032       -12.2732
  20   2.0000      -0.433844       -11.8055
  21   2.0000      -0.421467       -11.4687
  22   2.0000      -0.419671       -11.4198
  23   2.0000      -0.400184       -10.8896
  24   2.0000      -0.380561       -10.3556
  25   2.0000      -0.369505       -10.0547
  26   2.0000      -0.272403        -7.4125
  27   2.0000      -0.262520        -7.1435
  28   2.0000      -0.260870        -7.0986
  29   0.0000      -0.062932        -1.7125
  30   0.0000      -0.017980        -0.4893
  31   0.0000       0.030518         0.8304
  32   0.0000       0.064481         1.7546
  33   0.0000       0.080653         2.1947

MULLIKEN ATOMIC CHARGES
-----------------------
   0 C :   -0.090794
   1 S :    0.122546
   2 C :   -0.105255
   3 C :   -0.011530
   4 C :    0.054531
   5 C :    0.165010
   6 O :   -0.193305
   7 H :    0.040555
   8 H :    0.037601
   9 H :    0.010101
  10 H :   -0.029460
Sum of atomic charges:    0.0000000

LOEWDIN ATOMIC CHARGES
----------------------
   0 C :   -0.180910
   1 S :    0.452339
   2 C :   -0.167252
   3 C :   -0.120221
   4 C :   -0.034675
   5 C :    0.103556
   6 O :   -0.143067
   7 H :    0.029082
   8 H :    0.030413
   9 H :    0.039904
  10 H :   -0.009169

  Mayer bond orders larger than 0.100000
B(  0-C ,  1-S ) :   1.1512 B(  0-C ,  4-C ) :   1.5777 B(  0-C ,  7-H ) :   0.9684
B(  1-S ,  2-C ) :   1.2059 B(  2-C ,  3-C ) :   1.4771 B(  2-C ,  8-H ) :   0.9650
B(  3-C ,  4-C ) :   1.2367 B(  3-C ,  5-C ) :   0.9975 B(  4-C ,  9-H ) :   0.9981
B(  5-C ,  6-O ) :   2.1515 B(  5-C , 10-H ) :   0.9469

Dispersion correction           -0.020580438
FINAL SINGLE POINT ENERGY      -666.047520317052

DIPOLE MOMENT
-------------
                                X             Y             Z
Electronic contribution:     -2.09254       0.01793      -0.08132
Nuclear contribution   :      0.94054       0.01278       0.01407
                        -----------------------------------------
Total Dipole Moment    :     -1.15200       0.03071      -0.06725
                        -----------------------------------------
Magnitude (a.u.)       :      1.15437
Magnitude (Debye)      :      2.93418

Rotational constants in cm-1:     0.225868     0.048618     0.040008
Rotational constants in MHz :  6771.337709  1457.528872  1199.410506

                             ****ORCA TERMINATED NORMALLY****
TOTAL RUN TIME: 0 days 0 hours 4 minutes 10 seconds 774 msec
