                         Program Version 4.2.0 -  RELEASE  -
|  1> # ORCA input file
|  2> # SCF done        -26.708894116448          0.000720048051
|  3> ! B3LYP/G D3BJ Opt RIJCOSX def2-SVP def2/J
|  4> * xyz 0 1
|  5>    C        1.19714         0.17422        -0.04745
|  6>    C        0.53591        -0.99835         0.05138
|  7>    C       -0.86628        -0.72033         0.06485
|  8>    C       -1.06129         0.63313        -0.02771
|  9>    C        0.24475         1.33543        -0.10815
| 10>    N       -2.38062         0.99507        -0.02082
| 11>    C       -3.07428        -0.10425         0.07699
| 12>    C       -2.20669        -1.35587         0.14344
| 13>    C       -4.50715        -0.08525         0.11811
| 14>    C       -5.28397        -1.16182         0.23907
| 15>    H        2.26374         0.30394        -0.08077
| 16>    H        0.97686        -1.97756         0.11116
| 17>    H        0.39682         2.02851         0.72069
| 18>    H        0.35662         1.90476        -1.03208
| 19>    H       -2.41495        -2.02520        -0.69202
| 20>    H       -2.37059        -1.90422         1.07143
| 21>    H       -4.94189         0.90227         0.04636
| 22>    H       -4.87913        -2.15703         0.31648
| 23>    H       -6.35642        -1.07978         0.26695
| 24> *
| 25>
| 26>                          ****END OF INPUT****
 Total Charge           Charge          ....    0
 Multiplicity           Mult            ....    1
 Number of Electrons    NEL             ....   70
Dispersion correction           -0.033317322
FINAL SINGLE POINT ENERGY      -402.795911338781
Dispersion correction            ... done
Dispersion correction           -0.033249133
FINAL SINGLE POINT ENERGY      -402.799148811487
Dispersion correction            ... done
Dispersion correction           -0.033223500
FINAL SINGLE POINT ENERGY      -402.799263645546
Dispersion correction            ... done
Dispersion correction           -0.033207447
FINAL SINGLE POINT ENERGY      -402.799287601412
Dispersion correction            ... done
Dispersion correction           -0.033205360
FINAL SINGLE POINT ENERGY      -402.799289576204
Dispersion correction            ... done
                    ***********************HURRAY********************

CARTESIAN COORDINATES (ANGSTROEM)
---------------------------------
  C      1.237656    0.183774   -0.059087
  C      0.575873   -1.002902    0.048914
  C     -0.851822   -0.726460    0.073171
  C     -1.052418    0.621185   -0.022443
  C      0.256646    1.337488   -0.116775
  N     -2.389196    1.001772   -0.010117
  C     -3.086452   -0.102194    0.095103
  C     -2.206412   -1.357022    0.166694
  C     -4.535897   -0.085907    0.134777
  C     -5.330183   -1.167420    0.211601
  H      2.319358    0.319505   -0.101271
  H      1.041019   -1.987981    0.109156
  H      0.414124    2.053324    0.710478
  H      0.359578    1.919091   -1.050889
  H     -2.434448   -2.054263   -0.657557
  H     -2.376627   -1.910316    1.106617
  H     -4.970197    0.917530    0.090053
  H     -4.923771   -2.182070    0.254350
  H     -6.418250   -1.069465    0.235135

 Multiplicity           Mult            ....    1
 Number of Electrons    NEL             ....   70
 Basis Dimension        Dim             ....  185

ORBITAL ENERGIES
----------------

  NO   OCC          E(Eh)            E(eV)
   0   2.0000     -14.318761      -389.6333
   1   2.0000     -10.226569      -278.2791
   2   2.0000     -10.207059      -277.7482
   3   2.0000     -10.200483      -277.5693
   4   2.0000     -10.198898      -277.5261
   5   2.0000     -10.196402      -277.4582
   6   2.0000     -10.195990      -277.4470
   7   2.0000     -10.194961      -277.4190
   8   2.0000     -10.191055      -277.3127
   9   2.0000     -10.184558      -277.1359
  10   2.0000      -0.947681       -25.7877
  11   2.0000      -0.843127       -22.9427
  12   2.0000      -0.779059       -21.1993
  13   2.0000      -0.751432       -20.4475
  14   2.0000      -0.695356       -18.9216
  15   2.0000      -0.675811       -18.3898
  16   2.0000      -0.612634       -16.6706
  17   2.0000      -0.551964       -15.0197
  18   2.0000      -0.536399       -14.5962
  19   2.0000      -0.520769       -14.1708
  20   2.0000      -0.489977       -13.3330
  21   2.0000      -0.464998       -12.6532
  22   2.0000      -0.454706       -12.3732
  23   2.0000      -0.437611       -11.9080
  24   2.0000      -0.432042       -11.7565
  25   2.0000      -0.396954       -10.8017
  26   2.0000      -0.392947       -10.6926
  27   2.0000      -0.372942       -10.1483
  28   2.0000      -0.366529        -9.9738
  29   2.0000      -0.349310        -9.5052
  30   2.0000      -0.343613        -9.3502
  31   2.0000      -0.308019        -8.3816
  32   2.0000      -0.279167        -7.5965
  33   2.0000      -0.266076        -7.2403
  34   2.0000      -0.198215        -5.3937
  35   0.0000      -0.066942        -1.8216
  36   0.0000      -0.003652        -0.0994
  37   0.0000       0.048118         1.3094
  38   0.0000       0.066136         1.7997
  39   0.0000       0.078246         2.1292

MULLIKEN ATOMIC CHARGES
-----------------------
   0 C :   -0.124855
   1 C :    0.026840
   2 C :   -0.115089
   3 C :   -0.133172
   4 C :    0.199333
   5 N :   -0.087367
   6 C :   -0.144594
   7 C :    0.212288
   8 C :    0.045764
   9 C :   -0.042019
  10 H :   -0.005505
  11 H :   -0.026157
  12 H :    0.039084
  13 H :    0.037022
  14 H :    0.038795
  15 H :    0.037455
  16 H :   -0.007097
  17 H :    0.016921
  18 H :    0.032354
Sum of atomic charges:    0.0000000

LOEWDIN ATOMIC CHARGES
----------------------
   0 C :   -0.030833
   1 C :   -0.028706
   2 C :   -0.054955
   3 C :   -0.024134
   4 C :   -0.025981
   5 N :   -0.085071
   6 C :    0.012133
   7 C :   -0.033028
   8 C :   -0.031821
   9 C :   -0.045316
  10 H :    0.020399
  11 H :    0.022669
  12 H :    0.055198
  13 H :    0.054946
  14 H :    0.054762
  15 H :    0.055124
  16 H :    0.035996
  17 H :    0.020266
  18 H :    0.028350

  Mayer bond orders larger than 0.100000
B(  0-C ,  1-C ) :   1.7042 B(  0-C ,  4-C ) :   1.0340 B(  0-C , 10-H ) :   0.9840
B(  1-C ,  2-C ) :   1.0942 B(  1-C , 11-H ) :   1.0077 B(  2-C ,  3-C ) :   1.6528
B(  2-C ,  7-C ) :   1.0386 B(  3-C ,  4-C ) :   1.0762 B(  3-C ,  5-N ) :   1.2204
B(  4-C , 12-H ) :   0.8806 B(  4-C , 13-H ) :   0.8798 B(  5-N ,  6-C ) :   1.7502
B(  6-C ,  7-C ) :   1.0068 B(  6-C ,  8-C ) :   1.1147 B(  7-C , 14-H ) :   0.8685
B(  7-C , 15-H ) :   0.8681 B(  8-C ,  9-C ) :   1.8622 B(  8-C , 16-H ) :   0.9541
B(  9-C , 17-H ) :   0.9473 B(  9-C , 18-H ) :   0.9483

Dispersion correction           -0.033205686
FINAL SINGLE POINT ENERGY      -402.799290903504

DIPOLE MOMENT
-------------
                                X             Y             Z
Electronic contribution:      1.31858       1.96991      -0.16125
Nuclear contribution   :     -1.09462      -2.60769       0.20538
                        -----------------------------------------
Total Dipole Moment    :      0.22397      -0.63777       0.04414
                        -----------------------------------------
Magnitude (a.u.)       :      0.67740
Magnitude (Debye)      :      1.72180

Rotational constants in cm-1:     0.148679     0.027790     0.023622
Rotational constants in MHz :  4457.275195   833.130487   708.155691

                             ****ORCA TERMINATED NORMALLY****
TOTAL RUN TIME: 0 days 0 hours 7 minutes 21 seconds 592 msec
