                         Program Version 4.2.0 -  RELEASE  -
|  1> # ORCA input file
|  2> # SCF done        -42.280311497118          0.000458862707
|  3> ! B3LYP/G D3BJ Opt RIJCOSX def2-SVP def2/J
|  4> * xyz 0 1
|  5>    N       -2.65168         0.79196         0.53907
|  6>    C       -3.43281        -0.27976        -0.03122
|  7>    N       -2.48141        -1.37083        -0.22137
|  8>    C       -1.22868        -0.75309        -0.64374
|  9>    C       -0.04564        -1.43245         0.04685
| 10>    C        1.25264        -0.67945        -0.21979
| 11>    C        1.09123         0.86307        -0.11407
| 12>    C       -0.20315         1.23781         0.61041
| 13>    C       -1.39150         0.73262        -0.19604
| 14>    N        2.27023         1.27239         0.62627
| 15>    C        3.15726         0.12697         0.77872
| 16>    N        2.30315        -1.03296         0.73062
| 17>    C        2.75939         2.55071         0.52898
| 18>    C        3.99180         2.94850         0.83005
| 19>    H       -2.47414         0.58543         1.51837
| 20>    H       -3.86503         0.08128        -0.98164
| 21>    H       -4.24225        -0.58839         0.63272
| 22>    H       -2.81271        -2.07840        -0.86369
| 23>    H       -1.08013        -0.79752        -1.73386
| 24>    H        0.04585        -2.46154        -0.30123
| 25>    H       -0.24905        -1.46990         1.11844
| 26>    H        1.62645        -0.92931        -1.22063
| 27>    H        1.07345         1.31520        -1.11688
| 28>    H       -0.27120         2.31977         0.72943
| 29>    H       -0.20220         0.79579         1.60849
| 30>    H       -1.51146         1.35961        -1.08897
| 31>    H        3.70680         0.18213         1.72078
| 32>    H        3.88037         0.07579        -0.05329
| 33>    H        1.88616        -1.18545         1.64459
| 34>    H        2.01415         3.26978         0.21473
| 35>    H        4.76062         2.27006         1.15113
| 36>    H        4.25544         3.98822         0.77625
| 37> *
| 38>
| 39>                          ****END OF INPUT****
 Total Charge           Charge          ....    0
 Multiplicity           Mult            ....    1
 Number of Electrons    NEL             ....  106
Dispersion correction           -0.062836506
FINAL SINGLE POINT ENERGY      -610.475720334478
Dispersion correction            ... done
Dispersion correction           -0.062263952
FINAL SINGLE POINT ENERGY      -610.478526457002
Dispersion correction            ... done
Dispersion correction           -0.062212179
FINAL SINGLE POINT ENERGY      -610.478768416143
Dispersion correction            ... done
FINAL SINGLE POINT ENERGY      -610.478877542729
FINAL SINGLE POINT ENERGY      -610.478897754285
FINAL SINGLE POINT ENERGY      -610.478888150655
FINAL SINGLE POINT ENERGY      -610.478843614342
Dispersion correction            ... done
Dispersion correction           -0.062307796
FINAL SINGLE POINT ENERGY      -610.478789196318
Dispersion correction            ... done
Dispersion correction           -0.062292816
FINAL SINGLE POINT ENERGY      -610.478765255866
Dispersion correction            ... done
                    ***********************HURRAY********************

CARTESIAN COORDINATES (ANGSTROEM)
---------------------------------
  N     -2.638475    0.739908    0.622629
  C     -3.455656   -0.295498    0.023767
  N     -2.518291   -1.375623   -0.316207
  C     -1.235188   -0.756498   -0.666072
  C     -0.051859   -1.446050    0.018980
  C      1.259317   -0.699575   -0.227474
  C      1.089153    0.854368   -0.166700
  C     -0.189832    1.250877    0.575638
  C     -1.409844    0.726258   -0.175312
  N      2.313319    1.276878    0.496323
  C      3.158397    0.129378    0.815395
  N      2.285162   -1.023893    0.769681
  C      2.799400    2.559445    0.457283
  C      4.017943    2.974020    0.863064
  H     -2.408031    0.456266    1.576170
  H     -3.970482    0.127172   -0.866014
  H     -4.232293   -0.641856    0.725009
  H     -2.866071   -2.001504   -1.038185
  H     -1.055623   -0.757900   -1.759299
  H      0.030247   -2.493147   -0.309949
  H     -0.265351   -1.470983    1.100972
  H      1.653199   -0.963257   -1.224811
  H      1.033229    1.263291   -1.193313
  H     -0.250173    2.342950    0.699192
  H     -0.152725    0.816822    1.588957
  H     -1.578553    1.359901   -1.063971
  H      3.625193    0.237700    1.809004
  H      3.981423    0.038209    0.075595
  H      1.831888   -1.134382    1.676230
  H      2.083786    3.290379    0.064622
  H      4.770823    2.292933    1.263609
  H      4.277918    4.031452    0.804667

 Multiplicity           Mult            ....    1
 Number of Electrons    NEL             ....  106
 Basis Dimension        Dim             ....  286

ORBITAL ENERGIES
----------------

  NO   OCC          E(Eh)            E(eV)
   0   2.0000     -14.333812      -390.0429
   1   2.0000     -14.316939      -389.5837
   2   2.0000     -14.314378      -389.5140
   3   2.0000     -14.309524      -389.3820
   4   2.0000     -10.240152      -278.6487
   5   2.0000     -10.234706      -278.5005
   6   2.0000     -10.223399      -278.1928
   7   2.0000     -10.218872      -278.0696
   8   2.0000     -10.216352      -278.0011
   9   2.0000     -10.215958      -277.9904
  10   2.0000     -10.211795      -277.8771
  11   2.0000     -10.189748      -277.2771
  12   2.0000     -10.186080      -277.1773
  13   2.0000     -10.154115      -276.3075
  14   2.0000      -0.970135       -26.3987
  15   2.0000      -0.952652       -25.9230
  16   2.0000      -0.877893       -23.8887
  17   2.0000      -0.844954       -22.9924
  18   2.0000      -0.813347       -22.1323
  19   2.0000      -0.744683       -20.2638
  20   2.0000      -0.727385       -19.7931
  21   2.0000      -0.708704       -19.2848
  22   2.0000      -0.644992       -17.5511
  23   2.0000      -0.633566       -17.2402
  24   2.0000      -0.614949       -16.7336
  25   2.0000      -0.598411       -16.2836
  26   2.0000      -0.558310       -15.1924
  27   2.0000      -0.540009       -14.6944
  28   2.0000      -0.521968       -14.2035
  29   2.0000      -0.518485       -14.1087
  30   2.0000      -0.502006       -13.6603
  31   2.0000      -0.490766       -13.3544
  32   2.0000      -0.461950       -12.5703
  33   2.0000      -0.456077       -12.4105
  34   2.0000      -0.445780       -12.1303
  35   2.0000      -0.434670       -11.8280
  36   2.0000      -0.423964       -11.5367
  37   2.0000      -0.409738       -11.1495
  38   2.0000      -0.402968       -10.9653
  39   2.0000      -0.397477       -10.8159
  40   2.0000      -0.386302       -10.5118
  41   2.0000      -0.380623       -10.3573
  42   2.0000      -0.376591       -10.2476
  43   2.0000      -0.366386        -9.9699
  44   2.0000      -0.351866        -9.5748
  45   2.0000      -0.348898        -9.4940
  46   2.0000      -0.330632        -8.9970
  47   2.0000      -0.325414        -8.8550
  48   2.0000      -0.302113        -8.2209
  49   2.0000      -0.244926        -6.6648
  50   2.0000      -0.241638        -6.5753
  51   2.0000      -0.225501        -6.1362
  52   2.0000      -0.190335        -5.1793
  53   0.0000       0.031302         0.8518
  54   0.0000       0.042639         1.1603
  55   0.0000       0.044891         1.2216
  56   0.0000       0.058442         1.5903
  57   0.0000       0.072416         1.9705

MULLIKEN ATOMIC CHARGES
-----------------------
   0 N :   -0.219563
   1 C :    0.233076
   2 N :   -0.275283
   3 C :    0.000265
   4 C :    0.238302
   5 C :   -0.041505
   6 C :    0.055585
   7 C :    0.234225
   8 C :   -0.056309
   9 N :   -0.318349
  10 C :    0.266293
  11 N :   -0.220910
  12 C :    0.089067
  13 C :   -0.113161
  14 H :    0.096636
  15 H :   -0.017552
  16 H :    0.004880
  17 H :    0.095413
  18 H :   -0.022578
  19 H :   -0.000002
  20 H :   -0.050552
  21 H :   -0.008027
  22 H :   -0.019738
  23 H :    0.009942
  24 H :   -0.059770
  25 H :   -0.011974
  26 H :    0.008284
  27 H :    0.001978
  28 H :    0.094992
  29 H :   -0.004385
  30 H :    0.005192
  31 H :    0.005525
Sum of atomic charges:    0.0000000

LOEWDIN ATOMIC CHARGES
----------------------
   0 N :   -0.100425
   1 C :    0.077265
   2 N :   -0.131658
   3 C :    0.010184
   4 C :   -0.033343
   5 C :    0.023572
   6 C :    0.027510
   7 C :   -0.033525
   8 C :    0.017546
   9 N :   -0.074869
  10 C :    0.095200
  11 N :   -0.097039
  12 C :    0.016815
  13 C :   -0.168049
  14 H :    0.053555
  15 H :   -0.004509
  16 H :    0.012215
  17 H :    0.054767
  18 H :    0.002469
  19 H :    0.026207
  20 H :    0.014337
  21 H :    0.017541
  22 H :    0.009057
  23 H :    0.027416
  24 H :    0.012490
  25 H :    0.016117
  26 H :    0.015259
  27 H :    0.004987
  28 H :    0.053041
  29 H :    0.021207
  30 H :    0.013595
  31 H :    0.021063

  Mayer bond orders larger than 0.100000
B(  0-N ,  1-C ) :   1.0773 B(  0-N ,  8-C ) :   1.0876 B(  0-N , 14-H ) :   0.9365
B(  1-C ,  2-N ) :   1.0096 B(  1-C , 15-H ) :   0.9397 B(  1-C , 16-H ) :   0.9534
B(  2-N ,  3-C ) :   1.0729 B(  2-N , 17-H ) :   0.9401 B(  3-C ,  4-C ) :   1.0973
B(  3-C ,  8-C ) :   0.9696 B(  3-C , 18-H ) :   0.9053 B(  4-C ,  5-C ) :   1.0678
B(  4-C , 19-H ) :   0.9266 B(  4-C , 20-H ) :   0.8507 B(  5-C ,  6-C ) :   0.9784
B(  5-C , 11-N ) :   1.0699 B(  5-C , 21-H ) :   0.8965 B(  6-C ,  7-C ) :   1.1063
B(  6-C ,  9-N ) :   1.0004 B(  6-C , 22-H ) :   0.8979 B(  7-C ,  8-C ) :   1.0875
B(  7-C , 23-H ) :   0.9258 B(  7-C , 24-H ) :   0.8414 B(  8-C , 25-H ) :   0.8948
B(  9-N , 10-C ) :   0.9508 B(  9-N , 12-C ) :   1.1461 B( 10-C , 11-N ) :   1.0789
B( 10-C , 26-H ) :   0.9451 B( 10-C , 27-H ) :   0.9398 B( 11-N , 28-H ) :   0.9415
B( 12-C , 13-C ) :   1.8556 B( 12-C , 29-H ) :   0.9563 B( 13-C , 30-H ) :   0.9526
B( 13-C , 31-H ) :   0.9463

Dispersion correction           -0.062287400
FINAL SINGLE POINT ENERGY      -610.478760775986

DIPOLE MOMENT
-------------
                                X             Y             Z
Electronic contribution:     -0.63695      -1.15204      -0.14245
Nuclear contribution   :     -0.04065       0.70541      -0.15477
                        -----------------------------------------
Total Dipole Moment    :     -0.67760      -0.44663      -0.29722
                        -----------------------------------------
Magnitude (a.u.)       :      0.86427
Magnitude (Debye)      :      2.19680

Rotational constants in cm-1:     0.054610     0.013640     0.011589
Rotational constants in MHz :  1637.167300   408.913498   347.423933

                             ****ORCA TERMINATED NORMALLY****
TOTAL RUN TIME: 0 days 0 hours 28 minutes 2 seconds 458 msec
