                         Program Version 4.2.0 -  RELEASE  -
|  1> # ORCA input file
|  2> # SCF done        -51.728434723588          0.000509312559
|  3> ! B3LYP/G D3BJ Opt RIJCOSX def2-SVP def2/J
|  4> * xyz 0 1
|  5>    C       -2.73763        -1.33075         0.03147
|  6>    S       -3.95635        -0.13390         0.03053
|  7>    C       -2.77191         1.14693         0.03447
|  8>    C       -1.48952         0.62766         0.03385
|  9>    C       -1.47961        -0.79882         0.03309
| 10>    C       -0.25174        -1.60145         0.03550
| 11>    O       -0.25933        -2.81855         0.04938
| 12>    C        0.99427        -0.80778         0.01651
| 13>    C        2.21217        -1.48361        -0.00076
| 14>    C        3.40682        -0.79237        -0.02840
| 15>    C        3.41961         0.59958        -0.04081
| 16>    C        4.71392         1.35651        -0.03010
| 17>    C        5.16731         1.60766         1.41038
| 18>    C        2.20708         1.27383        -0.01537
| 19>    C        0.99359         0.59456         0.01132
| 20>    C       -0.24947         1.40578         0.03161
| 21>    O       -0.21145         2.62427         0.04468
| 22>    C       -3.16103         2.52840         0.03742
| 23>    C       -4.42250         2.95336         0.03740
| 24>    H       -2.99460        -2.37196         0.03000
| 25>    H        2.19236        -2.56357         0.00585
| 26>    H        4.34127        -1.33470        -0.04531
| 27>    H        4.58681         2.31370        -0.53845
| 28>    H        5.48197         0.78555        -0.55541
| 29>    H        4.41888         2.18652         1.94650
| 30>    H        6.10532         2.15722         1.42061
| 31>    H        5.31084         0.66469         1.93312
| 32>    H        2.18042         2.35440        -0.02076
| 33>    H       -2.33454         3.22605         0.04050
| 34>    H       -5.25334         2.26534         0.03420
| 35>    H       -4.66093         4.00203         0.03968
| 36> *
| 37>
| 38>                          ****END OF INPUT****
 Total Charge           Charge          ....    0
 Multiplicity           Mult            ....    1
 Number of Electrons    NEL             ....  140
Dispersion correction           -0.074694499
FINAL SINGLE POINT ENERGY     -1164.976837218705
Dispersion correction            ... done
Dispersion correction           -0.074063875
FINAL SINGLE POINT ENERGY     -1164.981084558866
Dispersion correction            ... done
Dispersion correction           -0.073939711
FINAL SINGLE POINT ENERGY     -1164.981234137680
Dispersion correction            ... done
FINAL SINGLE POINT ENERGY     -1164.981174995045
Dispersion correction            ... done
Dispersion correction           -0.073911170
FINAL SINGLE POINT ENERGY     -1164.981260439065
Dispersion correction            ... done
Dispersion correction           -0.073925722
FINAL SINGLE POINT ENERGY     -1164.981259370026
Dispersion correction            ... done
                    ***********************HURRAY********************

CARTESIAN COORDINATES (ANGSTROEM)
---------------------------------
  C     -2.760068   -1.361519    0.091532
  S     -3.981288   -0.150015    0.128596
  C     -2.808229    1.148628    0.059460
  C     -1.517989    0.624278    0.018369
  C     -1.502738   -0.813241    0.033131
  C     -0.259251   -1.612229   -0.008730
  O     -0.266860   -2.832983   -0.012343
  C      1.005561   -0.821531   -0.035918
  C      2.225191   -1.508884   -0.050429
  C      3.428407   -0.810795   -0.055297
  C      3.449961    0.595137   -0.050336
  C      4.758760    1.345404    0.012939
  C      5.197798    1.632660    1.456408
  C      2.227576    1.276989   -0.049394
  C      1.007368    0.591125   -0.039392
  C     -0.259019    1.399161   -0.027813
  O     -0.223082    2.621603   -0.051834
  C     -3.214732    2.543598    0.044029
  C     -4.481729    2.990776    0.047851
  H     -3.003655   -2.422385    0.114698
  H      2.194984   -2.600302   -0.055571
  H      4.373762   -1.360092   -0.064847
  H      4.663025    2.295349   -0.537031
  H      5.539693    0.761700   -0.501897
  H      4.438711    2.227425    1.988071
  H      6.145588    2.193315    1.477323
  H      5.341713    0.697720    2.019955
  H      2.194972    2.369015   -0.054547
  H     -2.375093    3.240791    0.020224
  H     -5.342120    2.314901    0.063720
  H     -4.698526    4.060984    0.031771

 Multiplicity           Mult            ....    1
 Number of Electrons    NEL             ....  140
 Basis Dimension        Dim             ....  330

ORBITAL ENERGIES
----------------

  NO   OCC          E(Eh)            E(eV)
   0   2.0000     -88.898224     -2419.0437
   1   2.0000     -19.131267      -520.5882
   2   2.0000     -19.126810      -520.4670
   3   2.0000     -10.286916      -279.9212
   4   2.0000     -10.281897      -279.7846
   5   2.0000     -10.245508      -278.7944
   6   2.0000     -10.237228      -278.5691
   7   2.0000     -10.214705      -277.9562
   8   2.0000     -10.214516      -277.9511
   9   2.0000     -10.212997      -277.9098
  10   2.0000     -10.211801      -277.8772
  11   2.0000     -10.209764      -277.8218
  12   2.0000     -10.209578      -277.8168
  13   2.0000     -10.207876      -277.7704
  14   2.0000     -10.206543      -277.7342
  15   2.0000     -10.205355      -277.7018
  16   2.0000     -10.204305      -277.6732
  17   2.0000     -10.202002      -277.6106
  18   2.0000     -10.192087      -277.3408
  19   2.0000      -7.993205      -217.5062
  20   2.0000      -5.961050      -162.2084
  21   2.0000      -5.957009      -162.0985
  22   2.0000      -5.955002      -162.0438
  23   2.0000      -1.037515       -28.2322
  24   2.0000      -1.032922       -28.1072
  25   2.0000      -0.906153       -24.6577
  26   2.0000      -0.873684       -23.7741
  27   2.0000      -0.813905       -22.1475
  28   2.0000      -0.798077       -21.7168
  29   2.0000      -0.779103       -21.2005
  30   2.0000      -0.758421       -20.6377
  31   2.0000      -0.738082       -20.0842
  32   2.0000      -0.730239       -19.8708
  33   2.0000      -0.668748       -18.1976
  34   2.0000      -0.656554       -17.8658
  35   2.0000      -0.624278       -16.9875
  36   2.0000      -0.616661       -16.7802
  37   2.0000      -0.592692       -16.1280
  38   2.0000      -0.586527       -15.9602
  39   2.0000      -0.538690       -14.6585
  40   2.0000      -0.531650       -14.4669
  41   2.0000      -0.521154       -14.1813
  42   2.0000      -0.489294       -13.3144
  43   2.0000      -0.476649       -12.9703
  44   2.0000      -0.466498       -12.6940
  45   2.0000      -0.458243       -12.4694
  46   2.0000      -0.449770       -12.2389
  47   2.0000      -0.444769       -12.1028
  48   2.0000      -0.441753       -12.0207
  49   2.0000      -0.439291       -11.9537
  50   2.0000      -0.434484       -11.8229
  51   2.0000      -0.429872       -11.6974
  52   2.0000      -0.415174       -11.2975
  53   2.0000      -0.406878       -11.0717
  54   2.0000      -0.402209       -10.9447
  55   2.0000      -0.397825       -10.8254
  56   2.0000      -0.388154       -10.5622
  57   2.0000      -0.384879       -10.4731
  58   2.0000      -0.368279       -10.0214
  59   2.0000      -0.362166        -9.8550
  60   2.0000      -0.356188        -9.6924
  61   2.0000      -0.354029        -9.6336
  62   2.0000      -0.348225        -9.4757
  63   2.0000      -0.318364        -8.6631
  64   2.0000      -0.281122        -7.6497
  65   2.0000      -0.271651        -7.3920
  66   2.0000      -0.269052        -7.3213
  67   2.0000      -0.263918        -7.1816
  68   2.0000      -0.262373        -7.1395
  69   2.0000      -0.239050        -6.5049
  70   0.0000      -0.101343        -2.7577
  71   0.0000      -0.081835        -2.2268
  72   0.0000      -0.034953        -0.9511
  73   0.0000      -0.008276        -0.2252
  74   0.0000       0.021125         0.5748

MULLIKEN ATOMIC CHARGES
-----------------------
   0 C :   -0.107559
   1 S :    0.140566
   2 C :   -0.175118
   3 C :    0.084010
   4 C :    0.000051
   5 C :    0.139909
   6 O :   -0.176137
   7 C :   -0.017751
   8 C :   -0.024454
   9 C :    0.019427
  10 C :    0.006342
  11 C :    0.061513
  12 C :    0.016326
  13 C :   -0.071341
  14 C :    0.014281
  15 C :    0.126223
  16 O :   -0.185638
  17 C :    0.013523
  18 C :   -0.019489
  19 H :    0.039729
  20 H :   -0.001124
  21 H :   -0.021671
  22 H :    0.007484
  23 H :    0.006201
  24 H :    0.017931
  25 H :    0.020087
  26 H :    0.011380
  27 H :   -0.011268
  28 H :    0.027470
  29 H :    0.023346
  30 H :    0.035754
Sum of atomic charges:    0.0000000

LOEWDIN ATOMIC CHARGES
----------------------
   0 C :   -0.137511
   1 S :    0.470180
   2 C :   -0.132387
   3 C :   -0.089038
   4 C :   -0.093518
   5 C :    0.077853
   6 O :   -0.156146
   7 C :   -0.054684
   8 C :    0.014226
   9 C :   -0.009558
  10 C :   -0.002191
  11 C :   -0.026987
  12 C :   -0.047567
  13 C :    0.008110
  14 C :   -0.044446
  15 C :    0.084715
  16 O :   -0.154551
  17 C :   -0.037591
  18 C :   -0.030541
  19 H :    0.037994
  20 H :    0.036770
  21 H :    0.028628
  22 H :    0.029789
  23 H :    0.027765
  24 H :    0.025642
  25 H :    0.025825
  26 H :    0.023747
  27 H :    0.032728
  28 H :    0.042153
  29 H :    0.018382
  30 H :    0.032209

  Mayer bond orders larger than 0.100000
B(  0-C ,  1-S ) :   1.1741 B(  0-C ,  4-C ) :   1.5208 B(  0-C , 19-H ) :   0.9615
B(  1-S ,  2-C ) :   1.1316 B(  2-C ,  3-C ) :   1.4500 B(  2-C , 17-C ) :   1.1603
B(  3-C ,  4-C ) :   1.2021 B(  3-C , 15-C ) :   0.9757 B(  4-C ,  5-C ) :   0.9564
B(  5-C ,  6-O ) :   2.1955 B(  5-C ,  7-C ) :   0.9366 B(  7-C ,  8-C ) :   1.3790
B(  7-C , 14-C ) :   1.3212 B(  8-C ,  9-C ) :   1.3377 B(  8-C , 20-H ) :   0.9909
B(  9-C , 10-C ) :   1.3520 B(  9-C , 21-H ) :   0.9908 B( 10-C , 11-C ) :   1.0466
B( 10-C , 13-C ) :   1.3212 B( 11-C , 12-C ) :   1.1044 B( 11-C , 22-H ) :   0.9270
B( 11-C , 23-H ) :   0.9297 B( 12-C , 24-H ) :   0.9687 B( 12-C , 25-H ) :   0.9649
B( 12-C , 26-H ) :   0.9667 B( 13-C , 14-C ) :   1.3689 B( 13-C , 27-H ) :   0.9961
B( 14-C , 15-C ) :   0.9401 B( 15-C , 16-O ) :   2.1153 B( 17-C , 18-C ) :   1.8651
B( 17-C , 28-H ) :   0.9374 B( 18-C , 29-H ) :   0.9523 B( 18-C , 30-H ) :   0.9474

Dispersion correction           -0.073939094
FINAL SINGLE POINT ENERGY     -1164.981246284477

DIPOLE MOMENT
-------------
                                X             Y             Z
Electronic contribution:    -19.76742      -8.76358      -3.08209
Nuclear contribution   :     19.96387       9.05036       3.16963
                        -----------------------------------------
Total Dipole Moment    :      0.19646       0.28677       0.08754
                        -----------------------------------------
Magnitude (a.u.)       :      0.35846
Magnitude (Debye)      :      0.91114

Rotational constants in cm-1:     0.023324     0.007006     0.005495
Rotational constants in MHz :   699.225489   210.033293   164.748989

                             ****ORCA TERMINATED NORMALLY****
TOTAL RUN TIME: 0 days 0 hours 25 minutes 12 seconds 372 msec
