                         Program Version 4.2.0 -  RELEASE  -
|  1> # ORCA input file
|  2> # SCF done        -43.631339674105          0.000296592102
|  3> ! B3LYP/G D3BJ Opt RIJCOSX def2-SVP def2/J
|  4> * xyz 0 1
|  5>    C       -2.49809        -1.33110         0.14424
|  6>    C       -3.47843        -0.40864         0.14068
|  7>    S       -2.89671         1.22249         0.12999
|  8>    C       -1.24725         0.65479         0.12950
|  9>    C       -1.18574        -0.75964         0.13901
| 10>    C        0.04872        -1.41137         0.14646
| 11>    C        0.13844        -2.91030         0.15800
| 12>    C        0.15127        -3.46715        -1.26714
| 13>    C        1.19592        -0.61710         0.10560
| 14>    C        1.08790         0.79455         0.09652
| 15>    C       -0.12400         1.46700         0.12201
| 16>    C       -0.21365         2.96209         0.09826
| 17>    C       -0.26787         3.48336        -1.33839
| 18>    S        2.65716         1.55503         0.05203
| 19>    C        3.42946         0.00499         0.04345
| 20>    C        2.56674        -1.02787         0.07363
| 21>    H       -2.68976        -2.38894         0.14391
| 22>    H       -4.53887        -0.57099         0.13958
| 23>    H       -0.71101        -3.32549         0.70229
| 24>    H        1.04636        -3.22068         0.67719
| 25>    H       -0.75496        -3.17829        -1.79486
| 26>    H        0.21302        -4.55307        -1.24951
| 27>    H        1.00499        -3.07865        -1.81802
| 28>    H        0.65907         3.38292         0.60285
| 29>    H       -1.11325         3.27751         0.63177
| 30>    H        0.62405         3.18232        -1.88326
| 31>    H       -0.32737         4.56887        -1.34199
| 32>    H       -1.14064         3.08577        -1.85147
| 33>    H        4.50126        -0.02959         0.01243
| 34>    H        2.88323        -2.05531         0.06677
| 35> *
| 36>
| 37>                          ****END OF INPUT****
 Total Charge           Charge          ....    0
 Multiplicity           Mult            ....    1
 Number of Electrons    NEL             ....  130
Dispersion correction           -0.074762444
FINAL SINGLE POINT ENERGY     -1337.784831264800
Dispersion correction            ... done
Dispersion correction           -0.074270441
FINAL SINGLE POINT ENERGY     -1337.789276912682
Dispersion correction            ... done
Dispersion correction           -0.074206043
FINAL SINGLE POINT ENERGY     -1337.789273497304
Dispersion correction            ... done
FINAL SINGLE POINT ENERGY     -1337.789207207132
FINAL SINGLE POINT ENERGY     -1337.789172478160
FINAL SINGLE POINT ENERGY     -1337.789212976600
Dispersion correction            ... done
Dispersion correction           -0.074200028
FINAL SINGLE POINT ENERGY     -1337.789236021173
Dispersion correction            ... done
Dispersion correction           -0.074194204
FINAL SINGLE POINT ENERGY     -1337.789240568002
Dispersion correction            ... done
                    ***********************HURRAY********************

CARTESIAN COORDINATES (ANGSTROEM)
---------------------------------
  C     -2.533134   -1.313205    0.231534
  C     -3.513124   -0.371117    0.240828
  S     -2.902472    1.266646    0.214076
  C     -1.244546    0.677265    0.197062
  C     -1.200466   -0.751316    0.208528
  C      0.036411   -1.423288    0.189583
  C      0.115279   -2.926553    0.084514
  C      0.225762   -3.392723   -1.375525
  C      1.203008   -0.634259    0.178019
  C      1.112299    0.792107    0.162584
  C     -0.103092    1.485084    0.161868
  C     -0.187766    2.984412    0.034979
  C     -0.347842    3.427951   -1.427056
  S      2.708805    1.533159    0.128817
  C      3.469679   -0.039414    0.143947
  C      2.581921   -1.069507    0.165837
  H     -2.746400   -2.382604    0.245127
  H     -4.589127   -0.542456    0.265498
  H     -0.769041   -3.383902    0.553783
  H      0.979880   -3.297120    0.657368
  H     -0.650988   -3.066629   -1.956694
  H      0.295477   -4.490218   -1.447289
  H      1.116030   -2.960528   -1.856877
  H      0.714700    3.443206    0.470247
  H     -1.035812    3.355107    0.634537
  H      0.511946    3.095567   -2.028792
  H     -0.420652    4.524031   -1.509455
  H     -1.255190    2.990860   -1.869825
  H      4.557171   -0.108098    0.136813
  H      2.891273   -2.114951    0.177496

 Multiplicity           Mult            ....    1
 Number of Electrons    NEL             ....  130
 Basis Dimension        Dim             ....  302

ORBITAL ENERGIES
----------------

  NO   OCC          E(Eh)            E(eV)
   0   2.0000     -88.867545     -2418.2088
   1   2.0000     -88.867320     -2418.2027
   2   2.0000     -10.215470      -277.9771
   3   2.0000     -10.215407      -277.9753
   4   2.0000     -10.215135      -277.9679
   5   2.0000     -10.214477      -277.9500
   6   2.0000     -10.202855      -277.6338
   7   2.0000     -10.197718      -277.4940
   8   2.0000     -10.196339      -277.4565
   9   2.0000     -10.196252      -277.4541
  10   2.0000     -10.195846      -277.4431
  11   2.0000     -10.194793      -277.4144
  12   2.0000     -10.194535      -277.4074
  13   2.0000     -10.193483      -277.3788
  14   2.0000     -10.183824      -277.1159
  15   2.0000     -10.182368      -277.0763
  16   2.0000      -7.962234      -216.6634
  17   2.0000      -7.962057      -216.6586
  18   2.0000      -5.930711      -161.3829
  19   2.0000      -5.930519      -161.3776
  20   2.0000      -5.926725      -161.2744
  21   2.0000      -5.926527      -161.2690
  22   2.0000      -5.922772      -161.1668
  23   2.0000      -5.922622      -161.1627
  24   2.0000      -0.894848       -24.3501
  25   2.0000      -0.866832       -23.5877
  26   2.0000      -0.810244       -22.0479
  27   2.0000      -0.807985       -21.9864
  28   2.0000      -0.754101       -20.5201
  29   2.0000      -0.733784       -19.9673
  30   2.0000      -0.730829       -19.8869
  31   2.0000      -0.706294       -19.2192
  32   2.0000      -0.681588       -18.5469
  33   2.0000      -0.641966       -17.4688
  34   2.0000      -0.606223       -16.4962
  35   2.0000      -0.599136       -16.3033
  36   2.0000      -0.572146       -15.5689
  37   2.0000      -0.545746       -14.8505
  38   2.0000      -0.540157       -14.6984
  39   2.0000      -0.523312       -14.2400
  40   2.0000      -0.477816       -13.0020
  41   2.0000      -0.458699       -12.4818
  42   2.0000      -0.447337       -12.1727
  43   2.0000      -0.441835       -12.0229
  44   2.0000      -0.437064       -11.8931
  45   2.0000      -0.435078       -11.8391
  46   2.0000      -0.422941       -11.5088
  47   2.0000      -0.410459       -11.1692
  48   2.0000      -0.392180       -10.6718
  49   2.0000      -0.391264       -10.6468
  50   2.0000      -0.384692       -10.4680
  51   2.0000      -0.375389       -10.2149
  52   2.0000      -0.374692       -10.1959
  53   2.0000      -0.371933       -10.1208
  54   2.0000      -0.361262        -9.8304
  55   2.0000      -0.357444        -9.7265
  56   2.0000      -0.355803        -9.6819
  57   2.0000      -0.344198        -9.3661
  58   2.0000      -0.330372        -8.9899
  59   2.0000      -0.323030        -8.7901
  60   2.0000      -0.300482        -8.1765
  61   2.0000      -0.285737        -7.7753
  62   2.0000      -0.254480        -6.9248
  63   2.0000      -0.228892        -6.2285
  64   2.0000      -0.198523        -5.4021
  65   0.0000      -0.037667        -1.0250
  66   0.0000      -0.022659        -0.6166
  67   0.0000       0.019239         0.5235
  68   0.0000       0.030908         0.8410
  69   0.0000       0.041865         1.1392

MULLIKEN ATOMIC CHARGES
-----------------------
   0 C :   -0.007076
   1 C :   -0.059775
   2 S :    0.080149
   3 C :   -0.142865
   4 C :    0.108685
   5 C :   -0.126817
   6 C :    0.061234
   7 C :    0.017173
   8 C :    0.101437
   9 C :   -0.143105
  10 C :   -0.083267
  11 C :    0.044312
  12 C :    0.017035
  13 S :    0.080275
  14 C :   -0.060326
  15 C :   -0.003189
  16 H :   -0.017448
  17 H :    0.026040
  18 H :   -0.003203
  19 H :    0.000509
  20 H :    0.013307
  21 H :    0.017030
  22 H :    0.011465
  23 H :    0.004158
  24 H :    0.007880
  25 H :    0.016190
  26 H :    0.019411
  27 H :    0.012769
  28 H :    0.027603
  29 H :   -0.019591
Sum of atomic charges:   -0.0000000

LOEWDIN ATOMIC CHARGES
----------------------
   0 C :   -0.065054
   1 C :   -0.169887
   2 S :    0.381876
   3 C :   -0.151825
   4 C :   -0.050015
   5 C :   -0.016719
   6 C :   -0.025053
   7 C :   -0.050150
   8 C :   -0.050598
   9 C :   -0.151831
  10 C :   -0.058684
  11 C :   -0.033046
  12 C :   -0.049925
  13 S :    0.380801
  14 C :   -0.170177
  15 C :   -0.064514
  16 H :    0.028320
  17 H :    0.025719
  18 H :    0.024148
  19 H :    0.025229
  20 H :    0.024769
  21 H :    0.022997
  22 H :    0.023463
  23 H :    0.022213
  24 H :    0.024170
  25 H :    0.024338
  26 H :    0.024355
  27 H :    0.021209
  28 H :    0.025970
  29 H :    0.027902

  Mayer bond orders larger than 0.100000
B(  0-C ,  1-C ) :   1.6331 B(  0-C ,  4-C ) :   1.1611 B(  0-C , 16-H ) :   0.9827
B(  1-C ,  2-S ) :   1.0975 B(  1-C , 17-H ) :   0.9630 B(  2-S ,  3-C ) :   1.0573
B(  3-C ,  4-C ) :   1.2700 B(  3-C , 10-C ) :   1.4355 B(  4-C ,  5-C ) :   1.3477
B(  5-C ,  6-C ) :   1.0922 B(  5-C ,  8-C ) :   1.3403 B(  6-C ,  7-C ) :   1.1078
B(  6-C , 18-H ) :   0.9154 B(  6-C , 19-H ) :   0.9124 B(  7-C , 20-H ) :   0.9655
B(  7-C , 21-H ) :   0.9650 B(  7-C , 22-H ) :   0.9668 B(  8-C ,  9-C ) :   1.2722
B(  8-C , 15-C ) :   1.1645 B(  9-C , 10-C ) :   1.4379 B(  9-C , 13-S ) :   1.0578
B( 10-C , 11-C ) :   1.0770 B( 11-C , 12-C ) :   1.1041 B( 11-C , 23-H ) :   0.9166
B( 11-C , 24-H ) :   0.9155 B( 12-C , 25-H ) :   0.9668 B( 12-C , 26-H ) :   0.9657
B( 12-C , 27-H ) :   0.9666 B( 13-S , 14-C ) :   1.0981 B( 14-C , 15-C ) :   1.6291
B( 14-C , 28-H ) :   0.9627 B( 15-C , 29-H ) :   0.9827

Dispersion correction           -0.074192868
FINAL SINGLE POINT ENERGY     -1337.789234793961

DIPOLE MOMENT
-------------
                                X             Y             Z
Electronic contribution:     -0.20907       7.15527       6.64766
Nuclear contribution   :      0.22643      -7.58489      -6.74121
                        -----------------------------------------
Total Dipole Moment    :      0.01737      -0.42962      -0.09356
                        -----------------------------------------
Magnitude (a.u.)       :      0.44003
Magnitude (Debye)      :      1.11847

Rotational constants in cm-1:     0.018239     0.014466     0.008684
Rotational constants in MHz :   546.782528   433.668352   260.351043

                             ****ORCA TERMINATED NORMALLY****
TOTAL RUN TIME: 0 days 0 hours 27 minutes 29 seconds 144 msec
