                         Program Version 4.2.0 -  RELEASE  -
|  1> # ORCA input file
|  2> # SCF done        -38.103502860157          0.000777622059
|  3> ! B3LYP/G D3BJ Opt RIJCOSX def2-SVP def2/J
|  4> * xyz 0 1
|  5>    C        1.81896        -0.94969         0.00994
|  6>    S        2.54562         0.61190        -0.02738
|  7>    C        1.03281         1.41346        -0.04682
|  8>    C        0.00139         0.51174        -0.02587
|  9>    C        0.46373        -0.84510         0.00663
| 10>    S       -0.84979        -1.98662         0.03266
| 11>    C       -2.01854        -0.66853         0.00191
| 12>    C       -3.43201        -1.06339         0.01253
| 13>    O       -3.73299        -2.23553         0.03818
| 14>    C       -4.43982         0.06186        -0.01343
| 15>    C       -5.86824        -0.46235        -0.00039
| 16>    C       -1.42018         0.55734        -0.02750
| 17>    F       -2.08629         1.72002        -0.05520
| 18>    H        2.43016        -1.82736         0.03114
| 19>    H        0.98335         2.48277        -0.07239
| 20>    H       -4.25965         0.66564        -0.90652
| 21>    H       -4.25860         0.70594         0.85077
| 22>    H       -6.04384        -1.09579        -0.86606
| 23>    H       -6.57442         0.36361        -0.01724
| 24>    H       -6.04149        -1.05785         0.89226
| 25> *
| 26>
| 27>                          ****END OF INPUT****
 Total Charge           Charge          ....    0
 Multiplicity           Mult            ....    1
 Number of Electrons    NEL             ....  110
Dispersion correction           -0.045543486
FINAL SINGLE POINT ENERGY     -1318.036276682387
Dispersion correction            ... done
Dispersion correction           -0.045368414
FINAL SINGLE POINT ENERGY     -1318.038742537762
Dispersion correction            ... done
Dispersion correction           -0.045342240
FINAL SINGLE POINT ENERGY     -1318.038880111342
Dispersion correction            ... done
FINAL SINGLE POINT ENERGY     -1318.038821775588
Dispersion correction            ... done
Dispersion correction           -0.045341436
FINAL SINGLE POINT ENERGY     -1318.038876878327
Dispersion correction            ... done
Dispersion correction           -0.045344127
FINAL SINGLE POINT ENERGY     -1318.038878474784
Dispersion correction            ... done
                    ***********************HURRAY********************

CARTESIAN COORDINATES (ANGSTROEM)
---------------------------------
  C      1.861788   -0.947267    0.049984
  S      2.570505    0.635355    0.004027
  C      1.046402    1.431345   -0.058515
  C      0.019940    0.506447   -0.045728
  C      0.490930   -0.855201    0.019261
  S     -0.827868   -2.016616    0.042932
  C     -2.010324   -0.690900   -0.026954
  C     -3.438928   -1.066564   -0.023207
  O     -3.754513   -2.243415   -0.022528
  C     -4.465165    0.053682    0.001586
  C     -5.899613   -0.454493    0.018606
  C     -1.413215    0.541144   -0.075839
  F     -2.080713    1.694736   -0.151426
  H      2.490675   -1.833877    0.095625
  H      0.983469    2.516790   -0.096421
  H     -4.273935    0.713536   -0.862160
  H     -4.246463    0.686550    0.879891
  H     -6.119977   -1.047904   -0.881116
  H     -6.605356    0.388277    0.065393
  H     -6.077477   -1.109554    0.883808

 Multiplicity           Mult            ....    1
 Number of Electrons    NEL             ....  110
 Basis Dimension        Dim             ....  225

ORBITAL ENERGIES
----------------

  NO   OCC          E(Eh)            E(eV)
   0   2.0000     -88.901069     -2419.1211
   1   2.0000     -88.880096     -2418.5504
   2   2.0000     -24.731327      -672.9736
   3   2.0000     -19.127412      -520.4833
   4   2.0000     -10.301982      -280.3312
   5   2.0000     -10.282564      -279.8028
   6   2.0000     -10.237515      -278.5769
   7   2.0000     -10.236437      -278.5476
   8   2.0000     -10.232308      -278.4352
   9   2.0000     -10.230765      -278.3933
  10   2.0000     -10.223329      -278.1909
  11   2.0000     -10.198228      -277.5079
  12   2.0000     -10.181137      -277.0428
  13   2.0000      -7.995627      -217.5721
  14   2.0000      -7.973993      -216.9834
  15   2.0000      -5.963732      -162.2814
  16   2.0000      -5.959380      -162.1630
  17   2.0000      -5.957302      -162.1064
  18   2.0000      -5.942910      -161.7148
  19   2.0000      -5.939051      -161.6098
  20   2.0000      -5.933476      -161.4581
  21   2.0000      -1.239638       -33.7323
  22   2.0000      -1.035293       -28.1718
  23   2.0000      -0.919510       -25.0211
  24   2.0000      -0.860164       -23.4063
  25   2.0000      -0.781014       -21.2525
  26   2.0000      -0.769739       -20.9457
  27   2.0000      -0.744943       -20.2709
  28   2.0000      -0.708120       -19.2689
  29   2.0000      -0.668630       -18.1943
  30   2.0000      -0.612194       -16.6586
  31   2.0000      -0.601047       -16.3553
  32   2.0000      -0.574234       -15.6257
  33   2.0000      -0.559162       -15.2156
  34   2.0000      -0.524162       -14.2632
  35   2.0000      -0.501902       -13.6574
  36   2.0000      -0.492260       -13.3951
  37   2.0000      -0.467517       -12.7218
  38   2.0000      -0.463127       -12.6023
  39   2.0000      -0.442763       -12.0482
  40   2.0000      -0.431419       -11.7395
  41   2.0000      -0.429055       -11.6752
  42   2.0000      -0.422076       -11.4853
  43   2.0000      -0.409193       -11.1347
  44   2.0000      -0.392771       -10.6878
  45   2.0000      -0.385802       -10.4982
  46   2.0000      -0.367785       -10.0079
  47   2.0000      -0.365765        -9.9530
  48   2.0000      -0.349876        -9.5206
  49   2.0000      -0.349096        -9.4994
  50   2.0000      -0.339268        -9.2320
  51   2.0000      -0.295258        -8.0344
  52   2.0000      -0.262897        -7.1538
  53   2.0000      -0.260015        -7.0754
  54   2.0000      -0.223083        -6.0704
  55   0.0000      -0.080783        -2.1982
  56   0.0000      -0.021385        -0.5819
  57   0.0000       0.010464         0.2847
  58   0.0000       0.022044         0.5998
  59   0.0000       0.034974         0.9517

MULLIKEN ATOMIC CHARGES
-----------------------
   0 C :   -0.164424
   1 S :    0.132143
   2 C :   -0.130009
   3 C :    0.042173
   4 C :    0.020250
   5 S :    0.165976
   6 C :   -0.182879
   7 C :    0.045066
   8 O :   -0.201199
   9 C :   -0.032060
  10 C :    0.053992
  11 C :    0.253918
  12 F :   -0.175457
  13 H :    0.033664
  14 H :    0.036787
  15 H :    0.029523
  16 H :    0.028013
  17 H :    0.018168
  18 H :    0.007210
  19 H :    0.019145
Sum of atomic charges:    0.0000000

LOEWDIN ATOMIC CHARGES
----------------------
   0 C :   -0.217494
   1 S :    0.474516
   2 C :   -0.190664
   3 C :   -0.102961
   4 C :   -0.182707
   5 S :    0.409747
   6 C :   -0.228674
   7 C :    0.063339
   8 O :   -0.158286
   9 C :   -0.066118
  10 C :   -0.048978
  11 C :    0.066063
  12 F :   -0.041282
  13 H :    0.031231
  14 H :    0.033443
  15 H :    0.037953
  16 H :    0.038773
  17 H :    0.028738
  18 H :    0.024586
  19 H :    0.028776

  Mayer bond orders larger than 0.100000
B(  0-C ,  1-S ) :   1.1738 B(  0-C ,  2-C ) :   0.1036 B(  0-C ,  4-C ) :   1.5174
B(  0-C , 13-H ) :   0.9722 B(  1-S ,  2-C ) :   1.1975 B(  2-C ,  3-C ) :   1.4277
B(  2-C , 14-H ) :   0.9697 B(  3-C ,  4-C ) :   1.2380 B(  3-C , 11-C ) :   1.1270
B(  4-C ,  5-S ) :   1.0272 B(  5-S ,  6-C ) :   1.0406 B(  6-C ,  7-C ) :   0.9968
B(  6-C , 11-C ) :   1.5296 B(  7-C ,  8-O ) :   2.1524 B(  7-C ,  9-C ) :   1.0243
B(  9-C , 10-C ) :   1.1062 B(  9-C , 15-H ) :   0.9115 B(  9-C , 16-H ) :   0.9150
B( 10-C , 17-H ) :   0.9671 B( 10-C , 18-H ) :   0.9592 B( 10-C , 19-H ) :   0.9658
B( 11-C , 12-F ) :   1.1419

Dispersion correction           -0.045346235
FINAL SINGLE POINT ENERGY     -1318.038872886368

DIPOLE MOMENT
-------------
                                X             Y             Z
Electronic contribution:     15.28065       0.54160      -0.28399
Nuclear contribution   :    -14.44975       0.44107       0.30555
                        -----------------------------------------
Total Dipole Moment    :      0.83090       0.98268       0.02156
                        -----------------------------------------
Magnitude (a.u.)       :      1.28705
Magnitude (Debye)      :      3.27143

Rotational constants in cm-1:     0.052931     0.011935     0.009777
Rotational constants in MHz :  1586.818628   357.807486   293.113174

                             ****ORCA TERMINATED NORMALLY****
TOTAL RUN TIME: 0 days 0 hours 9 minutes 29 seconds 452 msec
