                         Program Version 4.2.0 -  RELEASE  -
|  1> # ORCA input file
|  2> # SCF done        -30.636473411344          0.000183594962
|  3> ! B3LYP/G D3BJ Opt RIJCOSX def2-SVP def2/J
|  4> * xyz 0 1
|  5>    C       -1.59376        -1.22462         0.04668
|  6>    S       -2.80236        -0.01663         0.05071
|  7>    C       -1.65059         1.24153         0.09560
|  8>    C       -0.36348         0.75540         0.10730
|  9>    C       -0.32819        -0.68403         0.07893
| 10>    C        0.91522        -1.35198         0.08616
| 11>    C        2.07682        -0.62624         0.11999
| 12>    O        3.23777        -1.34669         0.12343
| 13>    C        4.46829        -0.66845         0.16286
| 14>    C        2.03816         0.79633         0.14814
| 15>    C        0.85657         1.47015         0.14223
| 16>    H       -1.87338        -2.25821         0.02112
| 17>    H       -1.97434         2.26280         0.11078
| 18>    H        0.95672        -2.42893         0.06479
| 19>    H        5.23000        -1.44708         0.16127
| 20>    H        4.57248        -0.06795         1.07272
| 21>    H        4.60876        -0.02902        -0.71505
| 22>    H        2.96097         1.35410         0.17456
| 23>    H        0.83595         2.54957         0.16421
| 24> *
| 25>
| 26>                          ****END OF INPUT****
 Total Charge           Charge          ....    0
 Multiplicity           Mult            ....    1
 Number of Electrons    NEL             ....   86
Dispersion correction           -0.039399357
FINAL SINGLE POINT ENERGY      -820.782477061907
Dispersion correction            ... done
Dispersion correction           -0.039293561
FINAL SINGLE POINT ENERGY      -820.784994848411
Dispersion correction            ... done
Dispersion correction           -0.039274040
FINAL SINGLE POINT ENERGY      -820.785080877832
Dispersion correction            ... done
FINAL SINGLE POINT ENERGY      -820.785090946524
Dispersion correction            ... done
Dispersion correction           -0.039272167
FINAL SINGLE POINT ENERGY      -820.785094177405
Dispersion correction            ... done
Dispersion correction           -0.039272937
FINAL SINGLE POINT ENERGY      -820.785096800384
Dispersion correction            ... done
                    ***********************HURRAY********************

CARTESIAN COORDINATES (ANGSTROEM)
---------------------------------
  C     -1.624718   -1.235940    0.052088
  S     -2.822471   -0.006298    0.047012
  C     -1.671275    1.259302    0.089541
  C     -0.372594    0.758532    0.107275
  C     -0.341150   -0.696211    0.083328
  C      0.913218   -1.373711    0.089499
  C      2.083062   -0.646789    0.114719
  O      3.249196   -1.350487    0.106339
  C      4.477410   -0.665272    0.162784
  C      2.051818    0.791330    0.146128
  C      0.861650    1.472749    0.142630
  H     -1.911691   -2.285090    0.029036
  H     -1.987917    2.300444    0.101556
  H      0.966382   -2.463602    0.069870
  H      5.262321   -1.433309    0.149216
  H      4.579213   -0.069081    1.088088
  H      4.622446    0.004037   -0.704589
  H      2.983681    1.354212    0.173982
  H      0.853030    2.565234    0.167929

 Multiplicity           Mult            ....    1
 Number of Electrons    NEL             ....   86
 Basis Dimension        Dim             ....  198

ORBITAL ENERGIES
----------------

  NO   OCC          E(Eh)            E(eV)
   0   2.0000     -88.880492     -2418.5611
   1   2.0000     -19.161129      -521.4008
   2   2.0000     -10.246804      -278.8297
   3   2.0000     -10.246451      -278.8201
   4   2.0000     -10.208865      -277.7973
   5   2.0000     -10.203447      -277.6499
   6   2.0000     -10.197677      -277.4929
   7   2.0000     -10.196350      -277.4568
   8   2.0000     -10.194969      -277.4192
   9   2.0000     -10.193712      -277.3850
  10   2.0000     -10.180285      -277.0196
  11   2.0000      -7.975027      -217.0115
  12   2.0000      -5.942699      -161.7091
  13   2.0000      -5.938603      -161.5976
  14   2.0000      -5.937504      -161.5677
  15   2.0000      -1.056129       -28.7387
  16   2.0000      -0.885326       -24.0909
  17   2.0000      -0.823301       -22.4032
  18   2.0000      -0.761710       -20.7272
  19   2.0000      -0.735140       -20.0042
  20   2.0000      -0.711134       -19.3509
  21   2.0000      -0.670571       -18.2472
  22   2.0000      -0.616823       -16.7846
  23   2.0000      -0.571120       -15.5410
  24   2.0000      -0.569079       -15.4854
  25   2.0000      -0.525629       -14.3031
  26   2.0000      -0.501086       -13.6352
  27   2.0000      -0.481017       -13.0891
  28   2.0000      -0.470670       -12.8076
  29   2.0000      -0.449997       -12.2450
  30   2.0000      -0.428065       -11.6482
  31   2.0000      -0.423012       -11.5107
  32   2.0000      -0.408000       -11.1023
  33   2.0000      -0.401196       -10.9171
  34   2.0000      -0.383759       -10.4426
  35   2.0000      -0.360189        -9.8012
  36   2.0000      -0.359677        -9.7873
  37   2.0000      -0.346877        -9.4390
  38   2.0000      -0.325614        -8.8604
  39   2.0000      -0.308946        -8.4068
  40   2.0000      -0.276507        -7.5241
  41   2.0000      -0.236188        -6.4270
  42   2.0000      -0.192889        -5.2488
  43   0.0000      -0.055278        -1.5042
  44   0.0000       0.026013         0.7078
  45   0.0000       0.033958         0.9240
  46   0.0000       0.054734         1.4894
  47   0.0000       0.060845         1.6557

MULLIKEN ATOMIC CHARGES
-----------------------
   0 C :   -0.155768
   1 S :    0.131853
   2 C :   -0.141288
   3 C :    0.097723
   4 C :    0.112451
   5 C :   -0.067845
   6 C :    0.224119
   7 O :   -0.318597
   8 C :    0.186056
   9 C :   -0.058767
  10 C :   -0.010667
  11 H :    0.014030
  12 H :    0.013799
  13 H :   -0.035589
  14 H :    0.031479
  15 H :    0.016516
  16 H :    0.017771
  17 H :   -0.030739
  18 H :   -0.026538
Sum of atomic charges:   -0.0000000

LOEWDIN ATOMIC CHARGES
----------------------
   0 C :   -0.225039
   1 S :    0.478234
   2 C :   -0.213295
   3 C :   -0.059882
   4 C :   -0.042953
   5 C :   -0.059910
   6 C :    0.047366
   7 O :   -0.105973
   8 C :    0.077376
   9 C :   -0.065400
  10 C :   -0.011674
  11 H :    0.022612
  12 H :    0.023322
  13 H :    0.030369
  14 H :    0.026731
  15 H :    0.011519
  16 H :    0.011388
  17 H :    0.026624
  18 H :    0.028584

  Mayer bond orders larger than 0.100000
B(  0-C ,  1-S ) :   1.1927 B(  0-C ,  2-C ) :   0.1240 B(  0-C ,  4-C ) :   1.3972
B(  0-C , 11-H ) :   0.9650 B(  1-S ,  2-C ) :   1.2141 B(  2-C ,  3-C ) :   1.3938
B(  2-C , 12-H ) :   0.9656 B(  3-C ,  4-C ) :   1.1985 B(  3-C , 10-C ) :   1.1846
B(  4-C ,  5-C ) :   1.1696 B(  5-C ,  6-C ) :   1.4991 B(  5-C , 10-C ) :   0.1012
B(  5-C , 13-H ) :   1.0037 B(  6-C ,  7-O ) :   1.1095 B(  6-C ,  9-C ) :   1.1463
B(  7-O ,  8-C ) :   0.9744 B(  8-C , 14-H ) :   0.9761 B(  8-C , 15-H ) :   0.9652
B(  8-C , 16-H ) :   0.9651 B(  9-C , 10-C ) :   1.5216 B(  9-C , 17-H ) :   0.9829
B( 10-C , 18-H ) :   0.9917

Dispersion correction           -0.039273413
FINAL SINGLE POINT ENERGY      -820.785096228530

DIPOLE MOMENT
-------------
                                X             Y             Z
Electronic contribution:    -11.61611      -0.69649      -0.24551
Nuclear contribution   :     12.10279       1.13491       0.27172
                        -----------------------------------------
Total Dipole Moment    :      0.48668       0.43841       0.02621
                        -----------------------------------------
Magnitude (a.u.)       :      0.65555
Magnitude (Debye)      :      1.66628

Rotational constants in cm-1:     0.106722     0.017913     0.015384
Rotational constants in MHz :  3199.448732   537.018446   461.204787

                             ****ORCA TERMINATED NORMALLY****
TOTAL RUN TIME: 0 days 0 hours 9 minutes 19 seconds 82 msec
