                         Program Version 4.2.0 -  RELEASE  -
|  1> # ORCA input file
|  2> # SCF done        -39.357048984795          0.000936625506
|  3> ! B3LYP/G D3BJ Opt RIJCOSX def2-SVP def2/J
|  4> * xyz 0 1
|  5>    C        1.40169         1.23465        -0.12263
|  6>    S        2.60749         0.04370         0.15704
|  7>    C        1.40809        -1.17667         0.29957
|  8>    C        0.15064        -0.68686         0.13523
|  9>    C        0.14601         0.71422        -0.11117
| 10>    C       -1.11371         1.48511        -0.35309
| 11>    C       -2.32249         0.76044         0.24386
| 12>    N       -2.30579         0.90433         1.67325
| 13>    C       -2.32870        -0.73004        -0.23591
| 14>    N       -2.42278        -0.71124        -1.70816
| 15>    O       -1.47838        -1.08951        -2.35786
| 16>    O       -3.46067        -0.28507        -2.16631
| 17>    C       -1.10399        -1.50248         0.23668
| 18>    H        1.69080         2.25343        -0.28550
| 19>    H        1.70192        -2.18887         0.49338
| 20>    H       -1.25766         1.62004        -1.42902
| 21>    H       -1.04353         2.47626         0.09678
| 22>    H       -3.24554         1.22315        -0.12734
| 23>    H       -1.43099         0.58236         2.06925
| 24>    H       -3.07771         0.42583         2.11974
| 25>    H       -3.25227        -1.19939         0.12129
| 26>    H       -0.99544        -2.41398        -0.35659
| 27>    H       -1.25907        -1.80861         1.27638
| 28> *
| 29>
| 30>                          ****END OF INPUT****
 Total Charge           Charge          ....    0
 Multiplicity           Mult            ....    1
 Number of Electrons    NEL             ....  104
Dispersion correction           -0.051866463
FINAL SINGLE POINT ENERGY      -968.431005278695
Dispersion correction            ... done
Dispersion correction           -0.051471427
FINAL SINGLE POINT ENERGY      -968.433886823837
Dispersion correction            ... done
Dispersion correction           -0.051039717
FINAL SINGLE POINT ENERGY      -968.433014304910
Dispersion correction            ... done
FINAL SINGLE POINT ENERGY      -968.434523324333
FINAL SINGLE POINT ENERGY      -968.434518327338
FINAL SINGLE POINT ENERGY      -968.434461166431
FINAL SINGLE POINT ENERGY      -968.434489465264
FINAL SINGLE POINT ENERGY      -968.434500586319
Dispersion correction            ... done
Dispersion correction           -0.051242266
FINAL SINGLE POINT ENERGY      -968.434509073885
Dispersion correction            ... done
Dispersion correction           -0.051255192
FINAL SINGLE POINT ENERGY      -968.434513659852
Dispersion correction            ... done
                    ***********************HURRAY********************

CARTESIAN COORDINATES (ANGSTROEM)
---------------------------------
  C      1.431194    1.268296   -0.045177
  S      2.641628    0.059938    0.198575
  C      1.448788   -1.188675    0.271165
  C      0.176186   -0.693997    0.115848
  C      0.167108    0.731372   -0.084855
  C     -1.108493    1.484376   -0.362655
  C     -2.322955    0.767193    0.237347
  N     -2.319095    0.915657    1.678867
  C     -2.328513   -0.721549   -0.225746
  N     -2.483449   -0.738655   -1.737750
  O     -1.604800   -1.243213   -2.411474
  O     -3.491818   -0.209124   -2.174741
  C     -1.096734   -1.497610    0.224650
  H      1.715515    2.311109   -0.177137
  H      1.747582   -2.221551    0.444209
  H     -1.250991    1.581361   -1.452479
  H     -1.063126    2.504080    0.045387
  H     -3.240805    1.222143   -0.162568
  H     -1.423129    0.646073    2.083517
  H     -3.047319    0.363815    2.129318
  H     -3.251698   -1.198054    0.133599
  H     -1.022019   -2.437513   -0.338447
  H     -1.265136   -1.774673    1.279420

 Multiplicity           Mult            ....    1
 Number of Electrons    NEL             ....  104
 Basis Dimension        Dim             ....  236

ORBITAL ENERGIES
----------------

  NO   OCC          E(Eh)            E(eV)
   0   2.0000     -88.876039     -2418.4400
   1   2.0000     -19.169053      -521.6165
   2   2.0000     -19.165614      -521.5229
   3   2.0000     -14.555435      -396.0735
   4   2.0000     -14.325560      -389.8183
   5   2.0000     -10.252534      -278.9856
   6   2.0000     -10.239008      -278.6176
   7   2.0000     -10.214757      -277.9577
   8   2.0000     -10.212323      -277.8914
   9   2.0000     -10.211513      -277.8694
  10   2.0000     -10.202573      -277.6261
  11   2.0000     -10.202422      -277.6220
  12   2.0000     -10.200597      -277.5724
  13   2.0000      -7.971102      -216.9047
  14   2.0000      -5.939162      -161.6128
  15   2.0000      -5.935042      -161.5007
  16   2.0000      -5.932635      -161.4352
  17   2.0000      -1.225115       -33.3371
  18   2.0000      -1.052775       -28.6475
  19   2.0000      -0.913752       -24.8644
  20   2.0000      -0.881338       -23.9824
  21   2.0000      -0.831001       -22.6127
  22   2.0000      -0.773212       -21.0402
  23   2.0000      -0.756978       -20.5984
  24   2.0000      -0.702984       -19.1292
  25   2.0000      -0.677901       -18.4466
  26   2.0000      -0.628510       -17.1026
  27   2.0000      -0.581598       -15.8261
  28   2.0000      -0.578063       -15.7299
  29   2.0000      -0.553869       -15.0715
  30   2.0000      -0.542978       -14.7752
  31   2.0000      -0.519465       -14.1354
  32   2.0000      -0.513493       -13.9729
  33   2.0000      -0.503226       -13.6935
  34   2.0000      -0.497188       -13.5292
  35   2.0000      -0.458335       -12.4719
  36   2.0000      -0.450124       -12.2485
  37   2.0000      -0.430923       -11.7260
  38   2.0000      -0.418933       -11.3997
  39   2.0000      -0.413263       -11.2455
  40   2.0000      -0.407465       -11.0877
  41   2.0000      -0.404514       -11.0074
  42   2.0000      -0.367264        -9.9938
  43   2.0000      -0.357590        -9.7305
  44   2.0000      -0.350298        -9.5321
  45   2.0000      -0.343410        -9.3447
  46   2.0000      -0.317054        -8.6275
  47   2.0000      -0.310083        -8.4378
  48   2.0000      -0.297021        -8.0823
  49   2.0000      -0.257720        -7.0129
  50   2.0000      -0.245986        -6.6936
  51   2.0000      -0.239558        -6.5187
  52   0.0000      -0.069585        -1.8935
  53   0.0000      -0.025105        -0.6831
  54   0.0000       0.027772         0.7557
  55   0.0000       0.045418         1.2359
  56   0.0000       0.047961         1.3051

MULLIKEN ATOMIC CHARGES
-----------------------
   0 C :   -0.139400
   1 S :    0.103579
   2 C :   -0.139230
   3 C :   -0.044128
   4 C :   -0.067797
   5 C :    0.178592
   6 C :   -0.021495
   7 N :   -0.164193
   8 C :    0.028423
   9 N :    0.197988
  10 O :   -0.224970
  11 O :   -0.242315
  12 C :    0.204109
  13 H :    0.014797
  14 H :    0.012398
  15 H :    0.035844
  16 H :    0.008875
  17 H :    0.015372
  18 H :    0.102506
  19 H :    0.092938
  20 H :    0.019079
  21 H :    0.022034
  22 H :    0.006996
Sum of atomic charges:   -0.0000000

LOEWDIN ATOMIC CHARGES
----------------------
   0 C :   -0.199564
   1 S :    0.433941
   2 C :   -0.198150
   3 C :   -0.071906
   4 C :   -0.073798
   5 C :   -0.022132
   6 C :    0.019548
   7 N :   -0.087246
   8 C :    0.001789
   9 N :    0.263623
  10 O :   -0.193047
  11 O :   -0.210425
  12 C :   -0.028134
  13 H :    0.023867
  14 H :    0.022839
  15 H :    0.038202
  16 H :    0.036439
  17 H :    0.024800
  18 H :    0.056834
  19 H :    0.055804
  20 H :    0.033462
  21 H :    0.039439
  22 H :    0.033816

  Mayer bond orders larger than 0.100000
B(  0-C ,  1-S ) :   1.1660 B(  0-C ,  4-C ) :   1.5508 B(  0-C , 13-H ) :   0.9635
B(  1-S ,  2-C ) :   1.1674 B(  2-C ,  3-C ) :   1.5547 B(  2-C , 14-H ) :   0.9655
B(  3-C ,  4-C ) :   1.2890 B(  3-C , 12-C ) :   1.0230 B(  4-C ,  5-C ) :   1.0239
B(  5-C ,  6-C ) :   1.0509 B(  5-C , 15-H ) :   0.9162 B(  5-C , 16-H ) :   0.9087
B(  6-C ,  7-N ) :   1.1220 B(  6-C ,  8-C ) :   0.9749 B(  6-C , 17-H ) :   0.9116
B(  7-N , 18-H ) :   0.9643 B(  7-N , 19-H ) :   0.9646 B(  8-C ,  9-N ) :   0.8061
B(  8-C , 12-C ) :   1.0329 B(  8-C , 20-H ) :   0.9096 B(  9-N , 10-O ) :   1.5668
B(  9-N , 11-O ) :   1.5191 B( 10-O , 11-O ) :   0.2844 B( 12-C , 21-H ) :   0.8973
B( 12-C , 22-H ) :   0.8971

Dispersion correction           -0.051263270
FINAL SINGLE POINT ENERGY      -968.434514085466

DIPOLE MOMENT
-------------
                                X             Y             Z
Electronic contribution:      5.94087      -1.98480      -5.26721
Nuclear contribution   :     -5.84718       1.67276       6.61414
                        -----------------------------------------
Total Dipole Moment    :      0.09369      -0.31203       1.34693
                        -----------------------------------------
Magnitude (a.u.)       :      1.38577
Magnitude (Debye)      :      3.52234

Rotational constants in cm-1:     0.043131     0.017115     0.015170
Rotational constants in MHz :  1293.045284   513.088566   454.778218

                             ****ORCA TERMINATED NORMALLY****
TOTAL RUN TIME: 0 days 0 hours 23 minutes 40 seconds 419 msec
