                         Program Version 4.2.0 -  RELEASE  -
|  1> # ORCA input file
|  2> # SCF done        -35.574308257622          0.000478882271
|  3> ! B3LYP/G D3BJ Opt RIJCOSX def2-SVP def2/J
|  4> * xyz 0 1
|  5>    C       -1.44203         1.34461        -0.05259
|  6>    C       -0.18451         0.79170        -0.02679
|  7>    N        0.99324         1.45686         0.05859
|  8>    C        2.07763         0.73507         0.06665
|  9>    C        3.37846         1.46259         0.15530
| 10>    C        2.04409        -0.70405        -0.00691
| 11>    C        3.30738        -1.49941         0.01205
| 12>    N        0.92447        -1.36791        -0.09043
| 13>    C       -0.21706        -0.64494        -0.10488
| 14>    C       -1.50509        -1.15756        -0.19077
| 15>    S       -2.64967         0.14178        -0.17186
| 16>    C       -1.86748        -2.53871        -0.28570
| 17>    C       -3.11304        -3.00172        -0.37055
| 18>    H       -1.71072         2.38023        -0.00942
| 19>    H        3.18580         2.52995         0.21650
| 20>    H        3.98939         1.25718        -0.72273
| 21>    H        3.93508         1.14477         1.03564
| 22>    H        3.94840        -1.21900        -0.82219
| 23>    H        3.06507        -2.55573        -0.05950
| 24>    H        3.85676        -1.31915         0.93471
| 25>    H       -1.01800        -3.20887        -0.28519
| 26>    H       -3.96129        -2.33657        -0.37306
| 27>    H       -3.32041        -4.05432        -0.44119
| 28> *
| 29>
| 30>                          ****END OF INPUT****
 Total Charge           Charge          ....    0
 Multiplicity           Mult            ....    1
 Number of Electrons    NEL             ....  100
Dispersion correction           -0.049049990
FINAL SINGLE POINT ENERGY      -894.333053341836
Dispersion correction            ... done
Dispersion correction           -0.048780050
FINAL SINGLE POINT ENERGY      -894.336411882067
Dispersion correction            ... done
Dispersion correction           -0.048736530
FINAL SINGLE POINT ENERGY      -894.336522375898
Dispersion correction            ... done
FINAL SINGLE POINT ENERGY      -894.336485303589
FINAL SINGLE POINT ENERGY      -894.336495147302
FINAL SINGLE POINT ENERGY      -894.336507075754
FINAL SINGLE POINT ENERGY      -894.336497164995
FINAL SINGLE POINT ENERGY      -894.336473702836
Dispersion correction            ... done
Dispersion correction           -0.048732536
FINAL SINGLE POINT ENERGY      -894.336449137861
Dispersion correction            ... done
Dispersion correction           -0.048731834
FINAL SINGLE POINT ENERGY      -894.336433128798
Dispersion correction            ... done
                    ***********************HURRAY********************

CARTESIAN COORDINATES (ANGSTROEM)
---------------------------------
  C     -1.457485    1.381050   -0.139640
  C     -0.192522    0.813576   -0.075976
  N      0.992644    1.479437    0.051137
  C      2.079846    0.752527    0.079505
  C      3.401225    1.454287    0.234874
  C      2.041969   -0.708580   -0.032137
  C      3.326007   -1.489807   -0.037511
  N      0.913737   -1.366035   -0.131790
  C     -0.232245   -0.630113   -0.147556
  C     -1.532869   -1.144863   -0.236751
  S     -2.668057    0.168336   -0.264477
  C     -1.904120   -2.542749   -0.279768
  C     -3.149158   -3.049704   -0.285987
  H     -1.716098    2.437250   -0.110189
  H      3.225419    2.529648    0.366395
  H      4.044872    1.300144   -0.647408
  H      3.959595    1.068812    1.103991
  H      4.004875   -1.141934   -0.833495
  H      3.101139   -2.552554   -0.194332
  H      3.871468   -1.373373    0.914008
  H     -1.037486   -3.211496   -0.295060
  H     -4.035860   -2.409255   -0.257867
  H     -3.320425   -4.127805   -0.314285

 Multiplicity           Mult            ....    1
 Number of Electrons    NEL             ....  100
 Basis Dimension        Dim             ....  236

ORBITAL ENERGIES
----------------

  NO   OCC          E(Eh)            E(eV)
   0   2.0000     -88.890261     -2418.8270
   1   2.0000     -14.335831      -390.0978
   2   2.0000     -14.333499      -390.0343
   3   2.0000     -10.240926      -278.6698
   4   2.0000     -10.240328      -278.6535
   5   2.0000     -10.226148      -278.2676
   6   2.0000     -10.225540      -278.2511
   7   2.0000     -10.221940      -278.1531
   8   2.0000     -10.218062      -278.0476
   9   2.0000     -10.202023      -277.6112
  10   2.0000     -10.195536      -277.4346
  11   2.0000     -10.195076      -277.4221
  12   2.0000     -10.189656      -277.2746
  13   2.0000      -7.984674      -217.2740
  14   2.0000      -5.952333      -161.9712
  15   2.0000      -5.948437      -161.8652
  16   2.0000      -5.946886      -161.8230
  17   2.0000      -0.975038       -26.5321
  18   2.0000      -0.905873       -24.6501
  19   2.0000      -0.882552       -24.0155
  20   2.0000      -0.789566       -21.4852
  21   2.0000      -0.780849       -21.2480
  22   2.0000      -0.734444       -19.9852
  23   2.0000      -0.707447       -19.2506
  24   2.0000      -0.695810       -18.9340
  25   2.0000      -0.623988       -16.9796
  26   2.0000      -0.610962       -16.6251
  27   2.0000      -0.594336       -16.1727
  28   2.0000      -0.554086       -15.0774
  29   2.0000      -0.524432       -14.2705
  30   2.0000      -0.492638       -13.4054
  31   2.0000      -0.471817       -12.8388
  32   2.0000      -0.462321       -12.5804
  33   2.0000      -0.436658       -11.8821
  34   2.0000      -0.431967       -11.7544
  35   2.0000      -0.420516       -11.4428
  36   2.0000      -0.419144       -11.4055
  37   2.0000      -0.414640       -11.2829
  38   2.0000      -0.403463       -10.9788
  39   2.0000      -0.398296       -10.8382
  40   2.0000      -0.388518       -10.5721
  41   2.0000      -0.372816       -10.1448
  42   2.0000      -0.358556        -9.7568
  43   2.0000      -0.349137        -9.5005
  44   2.0000      -0.341026        -9.2798
  45   2.0000      -0.305578        -8.3152
  46   2.0000      -0.295099        -8.0300
  47   2.0000      -0.255256        -6.9459
  48   2.0000      -0.245114        -6.6699
  49   2.0000      -0.210217        -5.7203
  50   0.0000      -0.084390        -2.2964
  51   0.0000      -0.023639        -0.6433
  52   0.0000       0.003781         0.1029
  53   0.0000       0.038360         1.0438
  54   0.0000       0.049858         1.3567

MULLIKEN ATOMIC CHARGES
-----------------------
   0 C :   -0.151604
   1 C :    0.084130
   2 N :   -0.023540
   3 C :   -0.159836
   4 C :    0.112028
   5 C :   -0.156938
   6 C :    0.114132
   7 N :   -0.027290
   8 C :    0.047621
   9 C :   -0.171679
  10 S :    0.145415
  11 C :    0.019031
  12 C :   -0.038982
  13 H :    0.016550
  14 H :    0.027341
  15 H :    0.026238
  16 H :    0.018068
  17 H :    0.021287
  18 H :    0.025385
  19 H :    0.024810
  20 H :    0.004686
  21 H :    0.015172
  22 H :    0.027975
Sum of atomic charges:   -0.0000000

LOEWDIN ATOMIC CHARGES
----------------------
   0 C :   -0.198880
   1 C :   -0.053243
   2 N :   -0.059911
   3 C :   -0.004120
   4 C :   -0.054324
   5 C :   -0.003852
   6 C :   -0.054051
   7 N :   -0.058811
   8 C :   -0.047361
   9 C :   -0.193678
  10 S :    0.486528
  11 C :   -0.032920
  12 C :   -0.057288
  13 H :    0.029797
  14 H :    0.037224
  15 H :    0.036983
  16 H :    0.034666
  17 H :    0.035552
  18 H :    0.036481
  19 H :    0.036994
  20 H :    0.039492
  21 H :    0.017100
  22 H :    0.027624

  Mayer bond orders larger than 0.100000
B(  0-C ,  1-C ) :   1.3865 B(  0-C ,  9-C ) :   0.1202 B(  0-C , 10-S ) :   1.1883
B(  0-C , 13-H ) :   0.9711 B(  1-C ,  2-N ) :   1.3308 B(  1-C ,  8-C ) :   1.1890
B(  2-N ,  3-C ) :   1.7554 B(  3-C ,  4-C ) :   1.1056 B(  3-C ,  5-C ) :   1.0886
B(  4-C , 14-H ) :   0.9421 B(  4-C , 15-H ) :   0.9383 B(  4-C , 16-H ) :   0.9381
B(  5-C ,  6-C ) :   1.1071 B(  5-C ,  7-N ) :   1.7378 B(  6-C , 17-H ) :   0.9378
B(  6-C , 18-H ) :   0.9419 B(  6-C , 19-H ) :   0.9371 B(  7-N ,  8-C ) :   1.3735
B(  8-C ,  9-C ) :   1.3338 B(  9-C , 10-S ) :   1.1553 B(  9-C , 11-C ) :   1.1730
B( 11-C , 12-C ) :   1.8668 B( 11-C , 20-H ) :   0.9508 B( 12-C , 21-H ) :   0.9536
B( 12-C , 22-H ) :   0.9489

Dispersion correction           -0.048731576
FINAL SINGLE POINT ENERGY      -894.336431269035

DIPOLE MOMENT
-------------
                                X             Y             Z
Electronic contribution:    -11.86988       3.96768      -0.75251
Nuclear contribution   :     12.32551      -3.94225       0.78615
                        -----------------------------------------
Total Dipole Moment    :      0.45562       0.02543       0.03364
                        -----------------------------------------
Magnitude (a.u.)       :      0.45757
Magnitude (Debye)      :      1.16305

Rotational constants in cm-1:     0.047675     0.016564     0.012358
Rotational constants in MHz :  1429.256619   496.584499   370.477227

                             ****ORCA TERMINATED NORMALLY****
TOTAL RUN TIME: 0 days 0 hours 19 minutes 18 seconds 927 msec
