                         Program Version 4.2.0 -  RELEASE  -
|  1> # ORCA input file
|  2> # SCF done        -46.696637539151          0.000897050406
|  3> ! B3LYP/G D3BJ Opt RIJCOSX def2-SVP def2/J
|  4> * xyz 0 1
|  5>    C       -0.14729         0.29205         0.45660
|  6>    S       -1.66498        -0.31203         0.98129
|  7>    C       -1.69157         0.80621         2.29006
|  8>    C       -0.58379         1.58233         2.31488
|  9>    C        0.31842         1.30509         1.24568
| 10>    C        1.59367         1.98807         1.11626
| 11>    C        2.29839         2.23025         0.00483
| 12>    C        3.69083         2.81280         0.09873
| 13>    C        4.69722         1.74978        -0.20834
| 14>    S        5.86911         1.96445        -1.46967
| 15>    C        6.54982         0.39500        -1.17418
| 16>    C        7.67704        -0.10971        -2.00821
| 17>    C        7.18331        -0.59471        -3.37325
| 18>    C        5.88721        -0.23507        -0.16935
| 19>    C        4.83450         0.53236         0.37957
| 20>    C        1.86620         1.97172        -1.36890
| 21>    C        0.68098         2.29138        -1.86724
| 22>    H        0.32434        -0.14463        -0.40013
| 23>    H       -2.52627         0.81032         2.96234
| 24>    H       -0.40330         2.34263         3.05424
| 25>    H        2.01095         2.30972         2.06419
| 26>    H        3.86332         3.20402         1.10545
| 27>    H        3.80382         3.63362        -0.61318
| 28>    H        8.16342        -0.93324        -1.48058
| 29>    H        8.41194         0.68552        -2.15495
| 30>    H        6.45871        -1.39608        -3.24996
| 31>    H        8.01522        -0.96554        -3.96616
| 32>    H        6.70792         0.22098        -3.91300
| 33>    H        6.14455        -1.22093         0.17638
| 34>    H        4.20150         0.19234         1.18020
| 35>    H        2.63429         1.56786        -2.01902
| 36>    H       -0.09041         2.72835        -1.25593
| 37>    H        0.43799         2.12457        -2.90267
| 38> *
| 39>
| 40>                          ****END OF INPUT****
 Total Charge           Charge          ....    0
 Multiplicity           Mult            ....    1
 Number of Electrons    NEL             ....  138
Dispersion correction           -0.074900275
FINAL SINGLE POINT ENERGY     -1376.987452265390
Dispersion correction            ... done
Dispersion correction           -0.073085928
FINAL SINGLE POINT ENERGY     -1376.993046426634
Dispersion correction            ... done
Dispersion correction           -0.073083279
FINAL SINGLE POINT ENERGY     -1376.993231226860
Dispersion correction            ... done
FINAL SINGLE POINT ENERGY     -1376.993344780674
FINAL SINGLE POINT ENERGY     -1376.993489809447
FINAL SINGLE POINT ENERGY     -1376.993535341369
FINAL SINGLE POINT ENERGY     -1376.993487275278
FINAL SINGLE POINT ENERGY     -1376.993362590380
FINAL SINGLE POINT ENERGY     -1376.993399834287
FINAL SINGLE POINT ENERGY     -1376.993517731356
FINAL SINGLE POINT ENERGY     -1376.993546703421
FINAL SINGLE POINT ENERGY     -1376.993544985518
FINAL SINGLE POINT ENERGY     -1376.993555592658
Dispersion correction            ... done
Dispersion correction           -0.073094376
FINAL SINGLE POINT ENERGY     -1376.993561587542
Dispersion correction            ... done
Dispersion correction           -0.073075687
FINAL SINGLE POINT ENERGY     -1376.993562300616
Dispersion correction            ... done
                    ***********************HURRAY********************

CARTESIAN COORDINATES (ANGSTROEM)
---------------------------------
  C     -0.617156    0.588705    0.451660
  S     -2.069720    0.050179    1.208068
  C     -1.672191    0.867177    2.681620
  C     -0.472821    1.519097    2.577696
  C      0.156604    1.374337    1.288082
  C      1.468630    1.978281    1.031315
  C      2.184809    2.136969   -0.105644
  C      3.594344    2.699085   -0.025312
  C      4.644952    1.650845   -0.297348
  S      5.904167    1.924670   -1.469566
  C      6.644802    0.373505   -1.160096
  C      7.847580   -0.084608   -1.935071
  C      7.530921   -0.477560   -3.387526
  C      5.930904   -0.302704   -0.199487
  C      4.795346    0.416410    0.287351
  C      1.753206    1.813638   -1.481413
  C      0.622218    2.239331   -2.058056
  H     -0.401714    0.294361   -0.571007
  H     -2.341554    0.815792    3.538802
  H     -0.029029    2.093599    3.392704
  H      1.951539    2.343574    1.944656
  H      3.757006    3.137357    0.973727
  H      3.707091    3.522842   -0.749622
  H      8.281633   -0.945779   -1.401441
  H      8.622763    0.701848   -1.924350
  H      6.783259   -1.285466   -3.421328
  H      8.434872   -0.824703   -3.913404
  H      7.116867    0.376555   -3.946910
  H      6.218592   -1.295144    0.152584
  H      4.104934    0.035397    1.041850
  H      2.487329    1.263120   -2.085309
  H     -0.115906    2.822204   -1.499837
  H      0.392784    2.006568   -3.101408

 Multiplicity           Mult            ....    1
 Number of Electrons    NEL             ....  138
 Basis Dimension        Dim             ....  326

ORBITAL ENERGIES
----------------

  NO   OCC          E(Eh)            E(eV)
   0   2.0000     -88.872717     -2418.3496
   1   2.0000     -88.864098     -2418.1150
   2   2.0000     -10.210028      -277.8290
   3   2.0000     -10.209979      -277.8277
   4   2.0000     -10.208224      -277.7799
   5   2.0000     -10.205117      -277.6954
   6   2.0000     -10.203641      -277.6552
   7   2.0000     -10.200278      -277.5637
   8   2.0000     -10.200198      -277.5615
   9   2.0000     -10.197710      -277.4938
  10   2.0000     -10.195452      -277.4324
  11   2.0000     -10.193165      -277.3701
  12   2.0000     -10.191680      -277.3297
  13   2.0000     -10.188754      -277.2501
  14   2.0000     -10.185233      -277.1543
  15   2.0000     -10.184444      -277.1328
  16   2.0000     -10.183542      -277.1083
  17   2.0000      -7.967883      -216.8171
  18   2.0000      -7.959225      -216.5815
  19   2.0000      -5.935936      -161.5250
  20   2.0000      -5.931705      -161.4099
  21   2.0000      -5.929524      -161.3506
  22   2.0000      -5.927113      -161.2849
  23   2.0000      -5.923361      -161.1829
  24   2.0000      -5.920714      -161.1108
  25   2.0000      -0.877028       -23.8652
  26   2.0000      -0.874383       -23.7932
  27   2.0000      -0.822915       -22.3926
  28   2.0000      -0.780016       -21.2253
  29   2.0000      -0.754239       -20.5239
  30   2.0000      -0.745125       -20.2759
  31   2.0000      -0.722635       -19.6639
  32   2.0000      -0.718496       -19.5513
  33   2.0000      -0.697670       -18.9846
  34   2.0000      -0.662722       -18.0336
  35   2.0000      -0.618160       -16.8210
  36   2.0000      -0.606349       -16.4996
  37   2.0000      -0.567734       -15.4488
  38   2.0000      -0.554000       -15.0751
  39   2.0000      -0.533529       -14.5181
  40   2.0000      -0.530235       -14.4284
  41   2.0000      -0.521187       -14.1822
  42   2.0000      -0.492507       -13.4018
  43   2.0000      -0.486037       -13.2257
  44   2.0000      -0.464482       -12.6392
  45   2.0000      -0.448011       -12.1910
  46   2.0000      -0.438690       -11.9374
  47   2.0000      -0.432886       -11.7794
  48   2.0000      -0.427553       -11.6343
  49   2.0000      -0.408594       -11.1184
  50   2.0000      -0.399408       -10.8684
  51   2.0000      -0.397701       -10.8220
  52   2.0000      -0.388514       -10.5720
  53   2.0000      -0.386641       -10.5210
  54   2.0000      -0.384614       -10.4659
  55   2.0000      -0.382533       -10.4092
  56   2.0000      -0.370634       -10.0855
  57   2.0000      -0.360541        -9.8108
  58   2.0000      -0.351574        -9.5668
  59   2.0000      -0.349625        -9.5138
  60   2.0000      -0.340997        -9.2790
  61   2.0000      -0.333769        -9.0823
  62   2.0000      -0.331035        -9.0079
  63   2.0000      -0.304468        -8.2850
  64   2.0000      -0.274415        -7.4672
  65   2.0000      -0.248867        -6.7720
  66   2.0000      -0.246144        -6.6979
  67   2.0000      -0.221836        -6.0365
  68   2.0000      -0.211042        -5.7427
  69   0.0000      -0.048049        -1.3075
  70   0.0000      -0.012359        -0.3363
  71   0.0000       0.000937         0.0255
  72   0.0000       0.023656         0.6437
  73   0.0000       0.036847         1.0027

MULLIKEN ATOMIC CHARGES
-----------------------
   0 C :   -0.131569
   1 S :    0.097001
   2 C :   -0.089932
   3 C :    0.013100
   4 C :    0.071671
   5 C :    0.009418
   6 C :   -0.064174
   7 C :    0.235744
   8 C :   -0.226310
   9 S :    0.095130
  10 C :   -0.195652
  11 C :    0.094852
  12 C :   -0.001181
  13 C :    0.033964
  14 C :    0.022996
  15 C :   -0.058197
  16 C :   -0.011645
  17 H :    0.028685
  18 H :    0.028827
  19 H :   -0.014497
  20 H :   -0.034993
  21 H :    0.009797
  22 H :   -0.002560
  23 H :    0.000481
  24 H :    0.014933
  25 H :    0.019161
  26 H :    0.013973
  27 H :    0.016387
  28 H :   -0.029444
  29 H :   -0.018869
  30 H :    0.019550
  31 H :    0.032470
  32 H :    0.020883
Sum of atomic charges:    0.0000000

LOEWDIN ATOMIC CHARGES
----------------------
   0 C :   -0.189367
   1 S :    0.432703
   2 C :   -0.196186
   3 C :   -0.060206
   4 C :   -0.071743
   5 C :   -0.036289
   6 C :   -0.024051
   7 C :   -0.021442
   8 C :   -0.184618
   9 S :    0.403214
  10 C :   -0.178297
  11 C :   -0.042641
  12 C :   -0.054018
  13 C :   -0.072233
  14 C :   -0.071889
  15 C :   -0.025036
  16 C :   -0.038294
  17 H :    0.022798
  18 H :    0.024976
  19 H :    0.027684
  20 H :    0.024659
  21 H :    0.035967
  22 H :    0.030257
  23 H :    0.031699
  24 H :    0.029322
  25 H :    0.024995
  26 H :    0.023011
  27 H :    0.021137
  28 H :    0.024631
  29 H :    0.027881
  30 H :    0.030683
  31 H :    0.026495
  32 H :    0.024200

  Mayer bond orders larger than 0.100000
B(  0-C ,  1-S ) :   1.1688 B(  0-C ,  4-C ) :   1.5199 B(  0-C , 17-H ) :   0.9524
B(  1-S ,  2-C ) :   1.1665 B(  2-C ,  3-C ) :   1.5626 B(  2-C , 18-H ) :   0.9659
B(  3-C ,  4-C ) :   1.2365 B(  3-C , 19-H ) :   0.9912 B(  4-C ,  5-C ) :   1.0744
B(  5-C ,  6-C ) :   1.7815 B(  5-C , 20-H ) :   0.9448 B(  6-C ,  7-C ) :   1.0417
B(  6-C , 15-C ) :   1.0229 B(  7-C ,  8-C ) :   1.0493 B(  7-C , 21-H ) :   0.9050
B(  7-C , 22-H ) :   0.8974 B(  8-C ,  9-S ) :   1.1242 B(  8-C , 14-C ) :   1.5809
B(  9-S , 10-C ) :   1.1274 B( 10-C , 11-C ) :   1.0558 B( 10-C , 13-C ) :   1.5920
B( 11-C , 12-C ) :   1.0980 B( 11-C , 23-H ) :   0.9263 B( 11-C , 24-H ) :   0.9270
B( 12-C , 25-H ) :   0.9704 B( 12-C , 26-H ) :   0.9642 B( 12-C , 27-H ) :   0.9704
B( 13-C , 14-C ) :   1.2159 B( 13-C , 28-H ) :   0.9877 B( 14-C , 29-H ) :   0.9904
B( 15-C , 16-C ) :   1.9741 B( 15-C , 30-H ) :   0.9453 B( 16-C , 31-H ) :   0.9542
B( 16-C , 32-H ) :   0.9470

Dispersion correction           -0.073076432
FINAL SINGLE POINT ENERGY     -1376.993561888258

DIPOLE MOMENT
-------------
                                X             Y             Z
Electronic contribution:    -13.92908       1.93316       8.11302
Nuclear contribution   :     14.11192      -2.01482      -8.08786
                        -----------------------------------------
Total Dipole Moment    :      0.18284      -0.08167       0.02516
                        -----------------------------------------
Magnitude (a.u.)       :      0.20183
Magnitude (Debye)      :      0.51300

Rotational constants in cm-1:     0.031505     0.004697     0.004644
Rotational constants in MHz :   944.497123   140.816383   139.222074

                             ****ORCA TERMINATED NORMALLY****
TOTAL RUN TIME: 0 days 0 hours 52 minutes 50 seconds 74 msec
