                         Program Version 4.2.0 -  RELEASE  -
|  1> # ORCA input file
|  2> # SCF done        -23.996600478557          0.000545711760
|  3> ! B3LYP/G D3BJ Opt RIJCOSX def2-SVP def2/J
|  4> * xyz 0 1
|  5>    C       -1.09594         0.00445         0.17360
|  6>    O       -0.22110         1.02566         0.13495
|  7>    C        1.01101         0.50962        -0.06567
|  8>    C        0.92811        -0.86055        -0.15613
|  9>    C       -0.43962        -1.18384        -0.00071
| 10>    O       -1.01512        -2.41279        -0.01686
| 11>    C        2.12120         1.42333        -0.14698
| 12>    C        3.38583         1.07440        -0.36325
| 13>    H       -2.13090         0.22956         0.32467
| 14>    H        1.73589        -1.54701        -0.31137
| 15>    H       -0.33070        -3.07689        -0.15480
| 16>    H        1.84916         2.46221        -0.01801
| 17>    H        3.67844         0.04783        -0.49759
| 18>    H        4.16907         1.80940        -0.41252
| 19> *
| 20>
| 21>                          ****END OF INPUT****
 Total Charge           Charge          ....    0
 Multiplicity           Mult            ....    1
 Number of Electrons    NEL             ....   58
Dispersion correction           -0.020694716
FINAL SINGLE POINT ENERGY      -382.381869267001
Dispersion correction            ... done
Dispersion correction           -0.020659044
FINAL SINGLE POINT ENERGY      -382.383696038744
Dispersion correction            ... done
Dispersion correction           -0.020644397
FINAL SINGLE POINT ENERGY      -382.383784511076
Dispersion correction            ... done
FINAL SINGLE POINT ENERGY      -382.383788500365
FINAL SINGLE POINT ENERGY      -382.383785935257
Dispersion correction            ... done
Dispersion correction           -0.020627167
FINAL SINGLE POINT ENERGY      -382.383782098323
Dispersion correction            ... done
Dispersion correction           -0.020628278
FINAL SINGLE POINT ENERGY      -382.383782223508
Dispersion correction            ... done
                    ***********************HURRAY********************

CARTESIAN COORDINATES (ANGSTROEM)
---------------------------------
  C     -1.105955   -0.003166    0.182130
  O     -0.200300    1.010006    0.136403
  C      1.032228    0.476257   -0.074138
  C      0.928518   -0.897300   -0.156597
  C     -0.457837   -1.202589    0.010456
  O     -1.061633   -2.413406    0.012243
  C      2.129170    1.415887   -0.162219
  C      3.422342    1.112232   -0.354129
  H     -2.145138    0.260411    0.347935
  H      1.743682   -1.599059   -0.324517
  H     -0.409117   -3.093412   -0.195641
  H      1.823572    2.461944   -0.054502
  H      3.766787    0.080689   -0.467884
  H      4.179010    1.896887   -0.410210

 Multiplicity           Mult            ....    1
 Number of Electrons    NEL             ....   58
 Basis Dimension        Dim             ....  142

ORBITAL ENERGIES
----------------

  NO   OCC          E(Eh)            E(eV)
   0   2.0000     -19.199179      -522.4362
   1   2.0000     -19.168317      -521.5964
   2   2.0000     -10.246577      -278.8235
   3   2.0000     -10.244389      -278.7640
   4   2.0000     -10.227585      -278.3067
   5   2.0000     -10.202468      -277.6233
   6   2.0000     -10.191704      -277.3304
   7   2.0000     -10.190780      -277.3052
   8   2.0000      -1.104356       -30.0511
   9   2.0000      -1.052889       -28.6506
  10   2.0000      -0.800380       -21.7795
  11   2.0000      -0.784080       -21.3359
  12   2.0000      -0.721841       -19.6423
  13   2.0000      -0.633280       -17.2324
  14   2.0000      -0.593378       -16.1466
  15   2.0000      -0.559904       -15.2358
  16   2.0000      -0.540157       -14.6984
  17   2.0000      -0.490841       -13.3565
  18   2.0000      -0.466891       -12.7048
  19   2.0000      -0.463658       -12.6168
  20   2.0000      -0.432600       -11.7716
  21   2.0000      -0.424738       -11.5577
  22   2.0000      -0.392762       -10.6876
  23   2.0000      -0.390450       -10.6247
  24   2.0000      -0.375780       -10.2255
  25   2.0000      -0.349958        -9.5229
  26   2.0000      -0.310541        -8.4503
  27   2.0000      -0.254098        -6.9144
  28   2.0000      -0.206027        -5.6063
  29   0.0000      -0.038064        -1.0358
  30   0.0000       0.041357         1.1254
  31   0.0000       0.056462         1.5364
  32   0.0000       0.072279         1.9668
  33   0.0000       0.083521         2.2727

MULLIKEN ATOMIC CHARGES
-----------------------
   0 C :    0.050617
   1 O :   -0.211243
   2 C :    0.158452
   3 C :   -0.131738
   4 C :    0.166931
   5 O :   -0.201700
   6 C :    0.005132
   7 C :   -0.032496
   8 H :   -0.000221
   9 H :   -0.029324
  10 H :    0.181671
  11 H :    0.002698
  12 H :    0.012323
  13 H :    0.028899
Sum of atomic charges:    0.0000000

LOEWDIN ATOMIC CHARGES
----------------------
   0 C :   -0.011036
   1 O :    0.005736
   2 C :    0.026748
   3 C :   -0.109276
   4 C :   -0.000284
   5 O :   -0.056171
   6 C :   -0.036951
   7 C :   -0.049994
   8 H :    0.022691
   9 H :    0.025855
  10 H :    0.096191
  11 H :    0.037506
  12 H :    0.020941
  13 H :    0.028045

  Mayer bond orders larger than 0.100000
B(  0-C ,  1-O ) :   1.1030 B(  0-C ,  2-C ) :   0.1018 B(  0-C ,  4-C ) :   1.4846
B(  0-C ,  8-H ) :   1.0081 B(  1-O ,  2-C ) :   1.1468 B(  2-C ,  3-C ) :   1.4683
B(  2-C ,  6-C ) :   1.1130 B(  3-C ,  4-C ) :   1.1979 B(  3-C ,  9-H ) :   0.9995
B(  4-C ,  5-O ) :   1.1712 B(  5-O , 10-H ) :   0.9676 B(  6-C ,  7-C ) :   1.9111
B(  6-C , 11-H ) :   0.9493 B(  7-C , 12-H ) :   0.9509 B(  7-C , 13-H ) :   0.9463

Dispersion correction           -0.020629728
FINAL SINGLE POINT ENERGY      -382.383782709681

DIPOLE MOMENT
-------------
                                X             Y             Z
Electronic contribution:     -4.80122      -1.09147       0.60589
Nuclear contribution   :      5.28809       0.58338      -0.75704
                        -----------------------------------------
Total Dipole Moment    :      0.48687      -0.50809      -0.15116
                        -----------------------------------------
Magnitude (a.u.)       :      0.71976
Magnitude (Debye)      :      1.82948

Rotational constants in cm-1:     0.186639     0.044802     0.036130
Rotational constants in MHz :  5595.311123  1343.144560  1083.164349

                             ****ORCA TERMINATED NORMALLY****
TOTAL RUN TIME: 0 days 0 hours 5 minutes 19 seconds 911 msec
