                         Program Version 4.2.0 -  RELEASE  -
|  1> # ORCA input file
|  2> # SCF done        -30.374846156404          0.000681848149
|  3> ! B3LYP/G D3BJ Opt RIJCOSX def2-SVP def2/J
|  4> * xyz 0 1
|  5>    C       -1.22331        -1.35957         0.12875
|  6>    S       -2.45551        -0.14879         0.06558
|  7>    C       -1.31355         1.17482        -0.08652
|  8>    C       -0.04621         0.65031        -0.08396
|  9>    C       -0.00215        -0.77309         0.03752
| 10>    N        1.32568        -1.13032         0.02569
| 11>    C        2.10149        -0.00797        -0.09505
| 12>    S        3.73582         0.03999        -0.14992
| 13>    N        1.26016         1.07047        -0.16162
| 14>    C       -1.80123         2.52135        -0.18295
| 15>    C       -1.05250         3.61380        -0.31295
| 16>    H       -1.48866        -2.39112         0.22631
| 17>    H        1.71081        -2.05623         0.09518
| 18>    H        1.59828         2.01246        -0.25326
| 19>    H       -2.87831         2.61050        -0.14181
| 20>    H        0.02193         3.57887        -0.36016
| 21>    H       -1.50052         4.58893        -0.37752
| 22> *
| 23>
| 24>                          ****END OF INPUT****
 Total Charge           Charge          ....    0
 Multiplicity           Mult            ....    1
 Number of Electrons    NEL             ....   94
Dispersion correction           -0.038890331
FINAL SINGLE POINT ENERGY     -1175.769261986936
Dispersion correction            ... done
Dispersion correction           -0.038746332
FINAL SINGLE POINT ENERGY     -1175.772430786858
Dispersion correction            ... done
Dispersion correction           -0.038719295
FINAL SINGLE POINT ENERGY     -1175.772582687213
Dispersion correction            ... done
FINAL SINGLE POINT ENERGY     -1175.772605871152
FINAL SINGLE POINT ENERGY     -1175.772612146936
Dispersion correction            ... done
Dispersion correction           -0.038723079
FINAL SINGLE POINT ENERGY     -1175.772612315186
Dispersion correction            ... done
Dispersion correction           -0.038722437
FINAL SINGLE POINT ENERGY     -1175.772613124743
Dispersion correction            ... done
                    ***********************HURRAY********************

CARTESIAN COORDINATES (ANGSTROEM)
---------------------------------
  C     -1.242966   -1.380010    0.138800
  S     -2.479712   -0.158170    0.072077
  C     -1.330103    1.167279   -0.084307
  C     -0.055045    0.635958   -0.077869
  C     -0.009003   -0.787788    0.048051
  N      1.334318   -1.133731    0.029002
  C      2.136277   -0.013835   -0.105161
  S      3.785169    0.040371   -0.181305
  N      1.261249    1.058053   -0.164289
  C     -1.807930    2.530275   -0.199364
  C     -1.056010    3.640609   -0.294432
  H     -1.507053   -2.429142    0.246606
  H      1.738868   -2.057614    0.100029
  H      1.608069    2.000649   -0.272618
  H     -2.897682    2.641403   -0.208672
  H      0.036937    3.616908   -0.289677
  H     -1.523163    4.623195   -0.383564

 Multiplicity           Mult            ....    1
 Number of Electrons    NEL             ....   94
 Basis Dimension        Dim             ....  192

ORBITAL ENERGIES
----------------

  NO   OCC          E(Eh)            E(eV)
   0   2.0000     -88.886490     -2418.7244
   1   2.0000     -88.787977     -2416.0437
   2   2.0000     -14.396181      -391.7400
   3   2.0000     -14.394894      -391.7050
   4   2.0000     -10.303238      -280.3654
   5   2.0000     -10.251673      -278.9622
   6   2.0000     -10.249274      -278.8969
   7   2.0000     -10.232864      -278.4504
   8   2.0000     -10.228764      -278.3388
   9   2.0000     -10.217267      -278.0260
  10   2.0000     -10.200787      -277.5775
  11   2.0000      -7.980768      -217.1677
  12   2.0000      -7.884354      -214.5442
  13   2.0000      -5.949199      -161.8859
  14   2.0000      -5.945156      -161.7759
  15   2.0000      -5.941555      -161.6779
  16   2.0000      -5.853851      -159.2914
  17   2.0000      -5.848259      -159.1392
  18   2.0000      -5.844354      -159.0330
  19   2.0000      -1.041617       -28.3438
  20   2.0000      -0.917453       -24.9652
  21   2.0000      -0.891369       -24.2554
  22   2.0000      -0.796341       -21.6695
  23   2.0000      -0.777157       -21.1475
  24   2.0000      -0.720830       -19.6148
  25   2.0000      -0.704287       -19.1646
  26   2.0000      -0.665259       -18.1026
  27   2.0000      -0.625691       -17.0259
  28   2.0000      -0.595424       -16.2023
  29   2.0000      -0.583410       -15.8754
  30   2.0000      -0.535174       -14.5628
  31   2.0000      -0.515489       -14.0272
  32   2.0000      -0.486748       -13.2451
  33   2.0000      -0.479026       -13.0350
  34   2.0000      -0.471790       -12.8380
  35   2.0000      -0.430251       -11.7077
  36   2.0000      -0.406281       -11.0555
  37   2.0000      -0.388572       -10.5736
  38   2.0000      -0.387523       -10.5450
  39   2.0000      -0.376573       -10.2471
  40   2.0000      -0.359391        -9.7795
  41   2.0000      -0.356069        -9.6891
  42   2.0000      -0.307786        -8.3753
  43   2.0000      -0.281084        -7.6487
  44   2.0000      -0.222348        -6.0504
  45   2.0000      -0.217513        -5.9188
  46   2.0000      -0.207947        -5.6585
  47   0.0000      -0.061768        -1.6808
  48   0.0000      -0.002371        -0.0645
  49   0.0000       0.010888         0.2963
  50   0.0000       0.032821         0.8931
  51   0.0000       0.034254         0.9321

MULLIKEN ATOMIC CHARGES
-----------------------
   0 C :   -0.213659
   1 S :    0.106283
   2 C :   -0.212714
   3 C :    0.138818
   4 C :    0.181318
   5 N :   -0.070489
   6 C :    0.082640
   7 S :   -0.256750
   8 N :   -0.070987
   9 C :    0.057891
  10 C :   -0.043845
  11 H :    0.021591
  12 H :    0.131147
  13 H :    0.131986
  14 H :   -0.008740
  15 H :   -0.001985
  16 H :    0.027494
Sum of atomic charges:   -0.0000000

LOEWDIN ATOMIC CHARGES
----------------------
   0 C :   -0.227797
   1 S :    0.432306
   2 C :   -0.210329
   3 C :   -0.015091
   4 C :   -0.021698
   5 N :    0.034536
   6 C :   -0.093800
   7 S :   -0.128197
   8 N :    0.040538
   9 C :   -0.036811
  10 C :   -0.062732
  11 H :    0.028474
  12 H :    0.093711
  13 H :    0.090399
  14 H :    0.032442
  15 H :    0.014510
  16 H :    0.029541

  Mayer bond orders larger than 0.100000
B(  0-C ,  1-S ) :   1.1154 B(  0-C ,  2-C ) :   0.1004 B(  0-C ,  4-C ) :   1.4626
B(  0-C , 11-H ) :   0.9891 B(  1-S ,  2-C ) :   1.0970 B(  2-C ,  3-C ) :   1.4535
B(  2-C ,  9-C ) :   1.1385 B(  3-C ,  4-C ) :   1.2437 B(  3-C ,  8-N ) :   1.1351
B(  4-C ,  5-N ) :   1.1060 B(  5-N ,  6-C ) :   1.1440 B(  5-N , 12-H ) :   0.9294
B(  6-C ,  7-S ) :   1.6262 B(  6-C ,  8-N ) :   1.1342 B(  8-N , 13-H ) :   0.9253
B(  9-C , 10-C ) :   1.9034 B(  9-C , 14-H ) :   0.9410 B( 10-C , 15-H ) :   0.9543
B( 10-C , 16-H ) :   0.9418

Dispersion correction           -0.038720938
FINAL SINGLE POINT ENERGY     -1175.772611599866

DIPOLE MOMENT
-------------
                                X             Y             Z
Electronic contribution:      2.28978      -5.83123       0.41568
Nuclear contribution   :     -3.48927       5.63743      -0.35404
                        -----------------------------------------
Total Dipole Moment    :     -1.19949      -0.19380       0.06164
                        -----------------------------------------
Magnitude (a.u.)       :      1.21661
Magnitude (Debye)      :      3.09237

Rotational constants in cm-1:     0.051246     0.019027     0.013876
Rotational constants in MHz :  1536.328251   570.425883   415.988913

                             ****ORCA TERMINATED NORMALLY****
TOTAL RUN TIME: 0 days 0 hours 7 minutes 42 seconds 34 msec
