                         Program Version 4.2.0 -  RELEASE  -
|  1> # ORCA input file
|  2> # SCF done        -28.554502795172          0.000635270420
|  3> ! B3LYP/G D3BJ Opt RIJCOSX def2-SVP def2/J
|  4> * xyz 0 1
|  5>    C        0.80736         1.24288         0.11936
|  6>    C        1.38396        -0.01451         0.03015
|  7>    C        2.87224        -0.19565         0.01816
|  8>    C        0.54322        -1.11643        -0.04561
|  9>    C       -0.83854        -0.99339        -0.03444
| 10>    C       -1.67660        -2.24214        -0.08080
| 11>    C       -1.90600        -2.79394         1.32770
| 12>    C       -1.40934         0.27856         0.05826
| 13>    C       -2.89666         0.47782         0.06316
| 14>    C       -0.56859         1.38055         0.13099
| 15>    H        1.43483         2.12101         0.17682
| 16>    H        3.38090         0.76517        -0.00092
| 17>    H        3.18021        -0.77070        -0.85419
| 18>    H        3.19488        -0.73969         0.90582
| 19>    H        0.97962        -2.10375        -0.11799
| 20>    H       -1.16184        -2.99987        -0.67619
| 21>    H       -2.63853        -2.04232        -0.55351
| 22>    H       -0.95486        -3.03448         1.79730
| 23>    H       -2.51287        -3.69610         1.28983
| 24>    H       -2.41393        -2.06117         1.95045
| 25>    H       -3.37002        -0.09929         0.85579
| 26>    H       -3.32880         0.16197        -0.88694
| 27>    H       -3.13746         1.52774         0.21155
| 28>    H       -0.99989         2.36974         0.19883
| 29> *
| 30>
| 31>                          ****END OF INPUT****
 Total Charge           Charge          ....    0
 Multiplicity           Mult            ....    1
 Number of Electrons    NEL             ....   74
Dispersion correction           -0.042168433
FINAL SINGLE POINT ENERGY      -389.272776874876
Dispersion correction            ... done
Dispersion correction           -0.041727499
FINAL SINGLE POINT ENERGY      -389.275863887640
Dispersion correction            ... done
Dispersion correction           -0.041651649
FINAL SINGLE POINT ENERGY      -389.276002548106
Dispersion correction            ... done
Dispersion correction           -0.041629616
FINAL SINGLE POINT ENERGY      -389.276036239853
Dispersion correction            ... done
Dispersion correction           -0.041634687
FINAL SINGLE POINT ENERGY      -389.276037088631
Dispersion correction            ... done
                    ***********************HURRAY********************

CARTESIAN COORDINATES (ANGSTROEM)
---------------------------------
  C      0.831713    1.264725    0.098998
  C      1.427712    0.002639    0.010115
  C      2.925716   -0.164056   -0.014202
  C      0.581604   -1.113976   -0.052886
  C     -0.813434   -1.007039   -0.023961
  C     -1.652907   -2.266050   -0.067915
  C     -2.020972   -2.799171    1.325904
  C     -1.401514    0.274940    0.078643
  C     -2.898615    0.459191    0.107069
  C     -0.558380    1.391275    0.132685
  H      1.458677    2.159590    0.143550
  H      3.437316    0.808889   -0.041086
  H      3.254231   -0.743742   -0.892482
  H      3.284900   -0.706209    0.876853
  H      1.027095   -2.111021   -0.136790
  H     -1.096303   -3.044767   -0.614870
  H     -2.573843   -2.087648   -0.646011
  H     -1.115379   -3.046002    1.901465
  H     -2.637205   -3.709701    1.254261
  H     -2.586735   -2.053797    1.906628
  H     -3.378199   -0.142823    0.894108
  H     -3.365671    0.157809   -0.846585
  H     -3.161840    1.511718    0.286997
  H     -1.004677    2.387238    0.203091

 Multiplicity           Mult            ....    1
 Number of Electrons    NEL             ....   74
 Basis Dimension        Dim             ....  210

ORBITAL ENERGIES
----------------

  NO   OCC          E(Eh)            E(eV)
   0   2.0000     -10.186963      -277.2014
   1   2.0000     -10.186853      -277.1984
   2   2.0000     -10.186331      -277.1841
   3   2.0000     -10.185434      -277.1597
   4   2.0000     -10.184255      -277.1277
   5   2.0000     -10.183740      -277.1137
   6   2.0000     -10.181253      -277.0460
   7   2.0000     -10.179739      -277.0048
   8   2.0000     -10.178473      -276.9703
   9   2.0000     -10.177446      -276.9424
  10   2.0000      -0.848593       -23.0914
  11   2.0000      -0.784014       -21.3341
  12   2.0000      -0.762167       -20.7396
  13   2.0000      -0.711744       -19.3675
  14   2.0000      -0.707944       -19.2641
  15   2.0000      -0.644455       -17.5365
  16   2.0000      -0.621713       -16.9177
  17   2.0000      -0.584091       -15.8939
  18   2.0000      -0.547765       -14.9054
  19   2.0000      -0.481539       -13.1033
  20   2.0000      -0.479512       -13.0482
  21   2.0000      -0.445632       -12.1263
  22   2.0000      -0.428955       -11.6725
  23   2.0000      -0.422719       -11.5028
  24   2.0000      -0.414126       -11.2690
  25   2.0000      -0.408789       -11.1237
  26   2.0000      -0.397703       -10.8220
  27   2.0000      -0.392169       -10.6715
  28   2.0000      -0.386151       -10.5077
  29   2.0000      -0.370400       -10.0791
  30   2.0000      -0.367040        -9.9877
  31   2.0000      -0.346532        -9.4296
  32   2.0000      -0.333920        -9.0864
  33   2.0000      -0.327899        -8.9226
  34   2.0000      -0.322041        -8.7632
  35   2.0000      -0.241875        -6.5817
  36   2.0000      -0.229343        -6.2407
  37   0.0000      -0.002515        -0.0684
  38   0.0000      -0.000164        -0.0045
  39   0.0000       0.058517         1.5923
  40   0.0000       0.070533         1.9193
  41   0.0000       0.081272         2.2115

MULLIKEN ATOMIC CHARGES
-----------------------
   0 C :   -0.007389
   1 C :   -0.025176
   2 C :    0.084814
   3 C :   -0.069462
   4 C :   -0.035663
   5 C :    0.058802
   6 C :    0.013950
   7 C :   -0.076345
   8 C :    0.099533
   9 C :   -0.017853
  10 H :   -0.038723
  11 H :    0.001387
  12 H :    0.019604
  13 H :    0.022564
  14 H :   -0.049133
  15 H :   -0.002927
  16 H :   -0.004460
  17 H :    0.007978
  18 H :    0.013774
  19 H :    0.012591
  20 H :    0.012275
  21 H :    0.022296
  22 H :   -0.000268
  23 H :   -0.042169
Sum of atomic charges:    0.0000000

LOEWDIN ATOMIC CHARGES
----------------------
   0 C :   -0.036896
   1 C :   -0.030049
   2 C :   -0.045502
   3 C :   -0.032326
   4 C :   -0.020452
   5 C :   -0.029019
   6 C :   -0.050707
   7 C :   -0.032951
   8 C :   -0.046261
   9 C :   -0.029462
  10 H :    0.021246
  11 H :    0.025904
  12 H :    0.031647
  13 H :    0.032971
  14 H :    0.018771
  15 H :    0.025369
  16 H :    0.023696
  17 H :    0.022822
  18 H :    0.022478
  19 H :    0.020929
  20 H :    0.028199
  21 H :    0.031822
  22 H :    0.026761
  23 H :    0.021009

  Mayer bond orders larger than 0.100000
B(  0-C ,  1-C ) :   1.3920 B(  0-C ,  9-C ) :   1.3540 B(  0-C , 10-H ) :   0.9844
B(  1-C ,  2-C ) :   1.0604 B(  1-C ,  3-C ) :   1.3543 B(  2-C , 11-H ) :   0.9579
B(  2-C , 12-H ) :   0.9564 B(  2-C , 13-H ) :   0.9554 B(  3-C ,  4-C ) :   1.3885
B(  3-C , 14-H ) :   0.9892 B(  4-C ,  5-C ) :   1.0687 B(  4-C ,  7-C ) :   1.3853
B(  5-C ,  6-C ) :   1.1098 B(  5-C , 15-H ) :   0.9246 B(  5-C , 16-H ) :   0.9138
B(  6-C , 17-H ) :   0.9638 B(  6-C , 18-H ) :   0.9636 B(  6-C , 19-H ) :   0.9652
B(  7-C ,  8-C ) :   1.0923 B(  7-C ,  9-C ) :   1.3965 B(  8-C , 20-H ) :   0.9413
B(  8-C , 21-H ) :   0.9443 B(  8-C , 22-H ) :   0.9486 B(  9-C , 23-H ) :   0.9824

Dispersion correction           -0.041638502
FINAL SINGLE POINT ENERGY      -389.276035545693

DIPOLE MOMENT
-------------
                                X             Y             Z
Electronic contribution:      2.82466       4.13597      -1.72002
Nuclear contribution   :     -2.89382      -4.26479       1.72685
                        -----------------------------------------
Total Dipole Moment    :     -0.06916      -0.12883       0.00683
                        -----------------------------------------
Magnitude (a.u.)       :      0.14638
Magnitude (Debye)      :      0.37206

Rotational constants in cm-1:     0.067132     0.033807     0.023990
Rotational constants in MHz :  2012.577338  1013.503738   719.213220

                             ****ORCA TERMINATED NORMALLY****
TOTAL RUN TIME: 0 days 0 hours 7 minutes 27 seconds 4 msec
