                         Program Version 4.2.0 -  RELEASE  -
|  1> # ORCA input file
|  2> # SCF done        -34.586245273670          0.000863258937
|  3> ! B3LYP/G D3BJ Opt RIJCOSX def2-SVP def2/J
|  4> * xyz 0 1
|  5>    C       -1.24507         1.34119        -0.13998
|  6>    S       -2.47617         0.14095        -0.10124
|  7>    C       -1.33361        -1.17394         0.07290
|  8>    C       -0.06007        -0.65454         0.09431
|  9>    C       -0.02119         0.76196        -0.02636
| 10>    C        1.38801         1.17485         0.01099
| 11>    O        1.88999         2.25310        -0.05737
| 12>    O        2.12457         0.01541         0.14995
| 13>    C        1.32691        -1.11190         0.20727
| 14>    O        1.79007        -2.20610         0.32616
| 15>    C       -1.82780        -2.51983         0.16171
| 16>    C       -1.05394        -3.59663         0.29233
| 17>    H       -1.49668         2.37767        -0.24284
| 18>    H       -2.90501        -2.61219         0.11289
| 19>    H        0.01877        -3.52438         0.34277
| 20>    H       -1.48408        -4.58105         0.35275
| 21> *
| 22>
| 23>                          ****END OF INPUT****
 Total Charge           Charge          ....    0
 Multiplicity           Mult            ....    1
 Number of Electrons    NEL             ....   92
Dispersion correction           -0.036026914
FINAL SINGLE POINT ENERGY      -930.640422852338
Dispersion correction            ... done
Dispersion correction           -0.035841048
FINAL SINGLE POINT ENERGY      -930.642328482969
Dispersion correction            ... done
Dispersion correction           -0.035827061
FINAL SINGLE POINT ENERGY      -930.642454528251
Dispersion correction            ... done
FINAL SINGLE POINT ENERGY      -930.642455675182
Dispersion correction            ... done
Dispersion correction           -0.035827280
FINAL SINGLE POINT ENERGY      -930.642503587258
Dispersion correction            ... done
Dispersion correction           -0.035828767
FINAL SINGLE POINT ENERGY      -930.642505467348
Dispersion correction            ... done
                    ***********************HURRAY********************

CARTESIAN COORDINATES (ANGSTROEM)
---------------------------------
  C     -1.249743    1.364629   -0.137238
  S     -2.478985    0.145015   -0.090696
  C     -1.332240   -1.174112    0.086561
  C     -0.055787   -0.636870    0.107289
  C     -0.019152    0.775479   -0.024530
  C      1.397995    1.201156   -0.008821
  O      1.909891    2.271028   -0.122044
  O      2.144282    0.030194    0.166288
  C      1.336282   -1.106458    0.242207
  O      1.802044   -2.198308    0.394843
  C     -1.831322   -2.535771    0.169675
  C     -1.062809   -3.634091    0.264210
  H     -1.506034    2.416967   -0.247249
  H     -2.920891   -2.640458    0.142783
  H      0.028300   -3.572163    0.296862
  H     -1.527132   -4.621667    0.316099

 Multiplicity           Mult            ....    1
 Number of Electrons    NEL             ....   92
 Basis Dimension        Dim             ....  192

ORBITAL ENERGIES
----------------

  NO   OCC          E(Eh)            E(eV)
   0   2.0000     -88.919051     -2419.6104
   1   2.0000     -19.202578      -522.5287
   2   2.0000     -19.155387      -521.2446
   3   2.0000     -19.153190      -521.1848
   4   2.0000     -10.347468      -281.5689
   5   2.0000     -10.345664      -281.5198
   6   2.0000     -10.269597      -279.4499
   7   2.0000     -10.261281      -279.2237
   8   2.0000     -10.235991      -278.5355
   9   2.0000     -10.232968      -278.4532
  10   2.0000     -10.230321      -278.3812
  11   2.0000     -10.215883      -277.9883
  12   2.0000      -8.013826      -218.0673
  13   2.0000      -5.981819      -162.7736
  14   2.0000      -5.977558      -162.6576
  15   2.0000      -5.975523      -162.6022
  16   2.0000      -1.133121       -30.8338
  17   2.0000      -1.072633       -29.1878
  18   2.0000      -1.033229       -28.1156
  19   2.0000      -0.927615       -25.2417
  20   2.0000      -0.819436       -22.2980
  21   2.0000      -0.801331       -21.8053
  22   2.0000      -0.748325       -20.3629
  23   2.0000      -0.688433       -18.7332
  24   2.0000      -0.651128       -17.7181
  25   2.0000      -0.637089       -17.3361
  26   2.0000      -0.602168       -16.3858
  27   2.0000      -0.551106       -14.9963
  28   2.0000      -0.507699       -13.8152
  29   2.0000      -0.500589       -13.6217
  30   2.0000      -0.496009       -13.4971
  31   2.0000      -0.488728       -13.2990
  32   2.0000      -0.461851       -12.5676
  33   2.0000      -0.441628       -12.0173
  34   2.0000      -0.428655       -11.6643
  35   2.0000      -0.427926       -11.6445
  36   2.0000      -0.425214       -11.5707
  37   2.0000      -0.424734       -11.5576
  38   2.0000      -0.396059       -10.7773
  39   2.0000      -0.380985       -10.3671
  40   2.0000      -0.339594        -9.2408
  41   2.0000      -0.338313        -9.2060
  42   2.0000      -0.315867        -8.5952
  43   2.0000      -0.300968        -8.1897
  44   2.0000      -0.298623        -8.1260
  45   2.0000      -0.257918        -7.0183
  46   0.0000      -0.097090        -2.6420
  47   0.0000      -0.081707        -2.2234
  48   0.0000      -0.009719        -0.2645
  49   0.0000       0.001318         0.0359
  50   0.0000       0.057598         1.5673

MULLIKEN ATOMIC CHARGES
-----------------------
   0 C :   -0.116404
   1 S :    0.154405
   2 C :   -0.154733
   3 C :   -0.028521
   4 C :   -0.021423
   5 C :    0.258256
   6 O :   -0.119067
   7 O :   -0.270155
   8 C :    0.269037
   9 O :   -0.135627
  10 C :    0.030514
  11 C :   -0.013777
  12 H :    0.052775
  13 H :   -0.003796
  14 H :    0.063547
  15 H :    0.034969
Sum of atomic charges:   -0.0000000

LOEWDIN ATOMIC CHARGES
----------------------
   0 C :   -0.145277
   1 S :    0.482442
   2 C :   -0.129463
   3 C :   -0.111549
   4 C :   -0.102918
   5 C :    0.108806
   6 O :   -0.105378
   7 O :   -0.083301
   8 C :    0.113247
   9 O :   -0.114355
  10 C :   -0.056154
  11 C :    0.003898
  12 H :    0.041744
  13 H :    0.031468
  14 H :    0.033821
  15 H :    0.032968

  Mayer bond orders larger than 0.100000
B(  0-C ,  1-S ) :   1.1728 B(  0-C ,  4-C ) :   1.5215 B(  0-C , 12-H ) :   0.9663
B(  1-S ,  2-C ) :   1.1589 B(  2-C ,  3-C ) :   1.4705 B(  2-C , 10-C ) :   1.1242
B(  3-C ,  4-C ) :   1.2600 B(  3-C ,  8-C ) :   0.9371 B(  4-C ,  5-C ) :   0.9092
B(  5-C ,  6-O ) :   2.2602 B(  5-C ,  7-O ) :   1.0130 B(  7-O ,  8-C ) :   1.0328
B(  8-C ,  9-O ) :   2.1616 B( 10-C , 11-C ) :   1.8996 B( 10-C , 13-H ) :   0.9495
B( 11-C , 14-H ) :   0.9343 B( 11-C , 15-H ) :   0.9417

Dispersion correction           -0.035828022
FINAL SINGLE POINT ENERGY      -930.642506741037

DIPOLE MOMENT
-------------
                                X             Y             Z
Electronic contribution:      2.76959       6.16217      -0.30522
Nuclear contribution   :     -4.86589      -6.41047       0.21368
                        -----------------------------------------
Total Dipole Moment    :     -2.09630      -0.24831      -0.09154
                        -----------------------------------------
Magnitude (a.u.)       :      2.11294
Magnitude (Debye)      :      5.37066

Rotational constants in cm-1:     0.040328     0.027399     0.016320
Rotational constants in MHz :  1209.012668   821.397915   489.261405

                             ****ORCA TERMINATED NORMALLY****
TOTAL RUN TIME: 0 days 0 hours 8 minutes 49 seconds 177 msec
