                         Program Version 4.2.0 -  RELEASE  -
|  1> # ORCA input file
|  2> # SCF done        -38.303173290367          0.000644718475
|  3> ! B3LYP/G D3BJ Opt RIJCOSX def2-SVP def2/J
|  4> * xyz 0 1
|  5>    C       -2.91515         1.45092        -0.00358
|  6>    C       -3.39699         0.15142         0.00314
|  7>    C       -2.55191        -0.95799         0.04955
|  8>    C       -1.17670        -0.69976         0.06820
|  9>    C       -0.67622         0.61512         0.04162
| 10>    C       -1.55714         1.69157         0.01394
| 11>    C        0.76378         0.65794         0.03167
| 12>    C        1.32784        -0.62661         0.04175
| 13>    S        0.11504        -1.88339         0.07704
| 14>    C        2.69927        -0.82072         0.03281
| 15>    C        3.51898         0.29068         0.01004
| 16>    C        2.97715         1.57273        -0.00281
| 17>    C        1.61066         1.76258         0.00779
| 18>    C       -3.16210        -2.28155         0.05755
| 19>    C       -2.60535        -3.42815         0.42533
| 20>    H       -3.61000         2.27697        -0.03026
| 21>    H       -4.46434        -0.01555        -0.01932
| 22>    H       -1.17372         2.70009        -0.00200
| 23>    H        3.10871        -1.81901         0.04244
| 24>    H        4.59101         0.16288         0.00196
| 25>    H        3.63639         2.42777        -0.02132
| 26>    H        1.19609         2.75933        -0.00186
| 27>    H       -4.19966        -2.28255        -0.25501
| 28>    H       -1.59292        -3.50363         0.77942
| 29>    H       -3.16512        -4.34781         0.39820
| 30> *
| 31>
| 32>                          ****END OF INPUT****
 Total Charge           Charge          ....    0
 Multiplicity           Mult            ....    1
 Number of Electrons    NEL             ....  110
Dispersion correction           -0.062139893
FINAL SINGLE POINT ENERGY      -937.272102516187
Dispersion correction            ... done
Dispersion correction           -0.061699576
FINAL SINGLE POINT ENERGY      -937.275881390505
Dispersion correction            ... done
Dispersion correction           -0.061695389
FINAL SINGLE POINT ENERGY      -937.276032945035
Dispersion correction            ... done
FINAL SINGLE POINT ENERGY      -937.276070223680
FINAL SINGLE POINT ENERGY      -937.276097695377
FINAL SINGLE POINT ENERGY      -937.276032280699
FINAL SINGLE POINT ENERGY      -937.276194398851
FINAL SINGLE POINT ENERGY      -937.276282750223
Dispersion correction            ... done
Dispersion correction           -0.061644101
FINAL SINGLE POINT ENERGY      -937.276310041114
Dispersion correction            ... done
Dispersion correction           -0.061637872
FINAL SINGLE POINT ENERGY      -937.276308767241
Dispersion correction            ... done
                    ***********************HURRAY********************

CARTESIAN COORDINATES (ANGSTROEM)
---------------------------------
  C     -2.932195    1.465884   -0.037583
  C     -3.415110    0.155702    0.044613
  C     -2.566178   -0.963587    0.127596
  C     -1.175856   -0.697990    0.132054
  C     -0.673012    0.626222    0.041591
  C     -1.562531    1.706962   -0.041847
  C      0.780205    0.671005    0.043238
  C      1.349086   -0.619711    0.138514
  S      0.128030   -1.881250    0.237076
  C      2.734617   -0.811293    0.137085
  C      3.559966    0.307954    0.048864
  C      3.012151    1.599776   -0.037558
  C      1.632453    1.783912   -0.041730
  C     -3.196739   -2.286650    0.192775
  C     -2.636956   -3.506225    0.229558
  H     -3.634853    2.298863   -0.104587
  H     -4.494504   -0.017849    0.038445
  H     -1.176145    2.725810   -0.113672
  H      3.160433   -1.814702    0.202271
  H      4.644728    0.175394    0.043683
  H      3.674427    2.465060   -0.108064
  H      1.211001    2.788728   -0.117522
  H     -4.291820   -2.239143    0.205035
  H     -1.561339   -3.685390    0.213566
  H     -3.272256   -4.394201    0.272888

 Multiplicity           Mult            ....    1
 Number of Electrons    NEL             ....  110
 Basis Dimension        Dim             ....  264

ORBITAL ENERGIES
----------------

  NO   OCC          E(Eh)            E(eV)
   0   2.0000     -88.870907     -2418.3003
   1   2.0000     -10.225346      -278.2458
   2   2.0000     -10.222004      -278.1549
   3   2.0000     -10.209358      -277.8108
   4   2.0000     -10.204733      -277.6849
   5   2.0000     -10.203661      -277.6557
   6   2.0000     -10.202696      -277.6295
   7   2.0000     -10.200407      -277.5672
   8   2.0000     -10.200126      -277.5595
   9   2.0000     -10.199801      -277.5507
  10   2.0000     -10.199042      -277.5300
  11   2.0000     -10.198180      -277.5066
  12   2.0000     -10.196216      -277.4531
  13   2.0000     -10.195712      -277.4394
  14   2.0000     -10.190276      -277.2915
  15   2.0000      -7.965137      -216.7424
  16   2.0000      -5.933679      -161.4636
  17   2.0000      -5.929853      -161.3595
  18   2.0000      -5.925397      -161.2383
  19   2.0000      -0.897834       -24.4313
  20   2.0000      -0.852362       -23.1939
  21   2.0000      -0.811790       -22.0899
  22   2.0000      -0.795504       -21.6468
  23   2.0000      -0.761881       -20.7318
  24   2.0000      -0.732283       -19.9264
  25   2.0000      -0.719679       -19.5835
  26   2.0000      -0.704385       -19.1673
  27   2.0000      -0.637722       -17.3533
  28   2.0000      -0.614221       -16.7138
  29   2.0000      -0.592391       -16.1198
  30   2.0000      -0.587454       -15.9854
  31   2.0000      -0.554267       -15.0824
  32   2.0000      -0.513786       -13.9808
  33   2.0000      -0.502588       -13.6761
  34   2.0000      -0.491416       -13.3721
  35   2.0000      -0.467924       -12.7329
  36   2.0000      -0.454752       -12.3744
  37   2.0000      -0.450364       -12.2550
  38   2.0000      -0.434401       -11.8206
  39   2.0000      -0.429448       -11.6859
  40   2.0000      -0.421496       -11.4695
  41   2.0000      -0.418794       -11.3960
  42   2.0000      -0.393203       -10.6996
  43   2.0000      -0.379984       -10.3399
  44   2.0000      -0.374566       -10.1925
  45   2.0000      -0.365586        -9.9481
  46   2.0000      -0.357987        -9.7413
  47   2.0000      -0.350185        -9.5290
  48   2.0000      -0.330188        -8.9849
  49   2.0000      -0.321542        -8.7496
  50   2.0000      -0.317517        -8.6401
  51   2.0000      -0.281580        -7.6622
  52   2.0000      -0.251690        -6.8488
  53   2.0000      -0.230692        -6.2775
  54   2.0000      -0.218213        -5.9379
  55   0.0000      -0.053189        -1.4473
  56   0.0000      -0.033807        -0.9199
  57   0.0000      -0.013271        -0.3611
  58   0.0000       0.014980         0.4076
  59   0.0000       0.024457         0.6655

MULLIKEN ATOMIC CHARGES
-----------------------
   0 C :    0.038465
   1 C :   -0.046343
   2 C :    0.079086
   3 C :   -0.097596
   4 C :    0.105761
   5 C :   -0.042814
   6 C :    0.100283
   7 C :   -0.050370
   8 S :    0.093326
   9 C :   -0.009489
  10 C :    0.012138
  11 C :    0.029902
  12 C :   -0.036526
  13 C :   -0.029078
  14 C :   -0.038986
  15 H :   -0.017549
  16 H :   -0.021024
  17 H :   -0.029954
  18 H :   -0.023975
  19 H :   -0.008284
  20 H :   -0.016682
  21 H :   -0.031379
  22 H :   -0.011896
  23 H :    0.029642
  24 H :    0.023341
Sum of atomic charges:    0.0000000

LOEWDIN ATOMIC CHARGES
----------------------
   0 C :   -0.031954
   1 C :   -0.015785
   2 C :   -0.041980
   3 C :   -0.135768
   4 C :   -0.039480
   5 C :   -0.013831
   6 C :   -0.040605
   7 C :   -0.147757
   8 S :    0.394745
   9 C :   -0.039885
  10 C :   -0.023949
  11 C :   -0.030518
  12 C :   -0.014859
  13 C :   -0.027130
  14 C :   -0.054450
  15 H :    0.029108
  16 H :    0.027329
  17 H :    0.026826
  18 H :    0.028980
  19 H :    0.029628
  20 H :    0.028136
  21 H :    0.026347
  22 H :    0.029758
  23 H :    0.009021
  24 H :    0.028072

  Mayer bond orders larger than 0.100000
B(  0-C ,  1-C ) :   1.3401 B(  0-C ,  5-C ) :   1.3836 B(  0-C , 15-H ) :   0.9802
B(  1-C ,  2-C ) :   1.3620 B(  1-C , 16-H ) :   0.9844 B(  2-C ,  3-C ) :   1.3389
B(  2-C , 13-C ) :   1.1040 B(  3-C ,  4-C ) :   1.3272 B(  3-C ,  8-S ) :   1.0558
B(  4-C ,  5-C ) :   1.3287 B(  4-C ,  6-C ) :   1.0854 B(  5-C , 17-H ) :   0.9877
B(  6-C ,  7-C ) :   1.3297 B(  6-C , 12-C ) :   1.3337 B(  7-C ,  8-S ) :   1.0232
B(  7-C ,  9-C ) :   1.3547 B(  9-C , 10-C ) :   1.4127 B(  9-C , 18-H ) :   0.9897
B( 10-C , 11-C ) :   1.3377 B( 10-C , 19-H ) :   0.9829 B( 11-C , 12-C ) :   1.4091
B( 11-C , 20-H ) :   0.9808 B( 12-C , 21-H ) :   0.9852 B( 13-C , 14-C ) :   1.9045
B( 13-C , 22-H ) :   0.9563 B( 14-C , 23-H ) :   0.9422 B( 14-C , 24-H ) :   0.9405

Dispersion correction           -0.061637446
FINAL SINGLE POINT ENERGY      -937.276309601255

DIPOLE MOMENT
-------------
                                X             Y             Z
Electronic contribution:      2.64614      -1.21978       0.34700
Nuclear contribution   :     -2.59528       1.52392      -0.39160
                        -----------------------------------------
Total Dipole Moment    :      0.05086       0.30414      -0.04460
                        -----------------------------------------
Magnitude (a.u.)       :      0.31157
Magnitude (Debye)      :      0.79196

Rotational constants in cm-1:     0.036083     0.014487     0.010339
Rotational constants in MHz :  1081.728494   434.312851   309.943671

                             ****ORCA TERMINATED NORMALLY****
TOTAL RUN TIME: 0 days 0 hours 28 minutes 55 seconds 280 msec
