                         Program Version 4.2.0 -  RELEASE  -
|  1> # ORCA input file
|  2> # SCF done        -41.954187846273          0.000508338103
|  3> ! B3LYP/G D3BJ Opt RIJCOSX def2-SVP def2/J
|  4> * xyz 0 1
|  5>    C        1.30047         0.24615        -0.22137
|  6>    C        0.53916         1.39991        -0.38437
|  7>    O        1.08218         2.61349        -0.68444
|  8>    C        2.48618         2.76630        -0.67953
|  9>    C        2.78433         4.24711        -0.86431
| 10>    C       -0.85794         1.32462        -0.22204
| 11>    C       -1.42519         0.09432         0.11954
| 12>    C       -0.66087        -1.04944         0.28671
| 13>    C        0.71644        -0.96054         0.10482
| 14>    O       -1.14485        -2.28018         0.62213
| 15>    C       -2.52842        -2.42543         0.86474
| 16>    C       -2.77733        -3.87071         1.26785
| 17>    C       -1.77116         2.45088        -0.37208
| 18>    C       -1.52720         3.64386        -0.90200
| 19>    H        2.37039         0.27681        -0.35245
| 20>    H        2.93681         2.18627        -1.49762
| 21>    H        2.90360         2.41404         0.27398
| 22>    H        2.38558         4.59200        -1.81443
| 23>    H        3.85760         4.41415        -0.84706
| 24>    H        2.32039         4.81913        -0.06516
| 25>    H       -2.49639         0.05699         0.24617
| 26>    H        1.31681        -1.84762         0.22752
| 27>    H       -3.10039        -2.18123        -0.04224
| 28>    H       -2.84433        -1.74837         1.67135
| 29>    H       -2.46779        -4.53709         0.46777
| 30>    H       -3.83339        -4.02207         1.47198
| 31>    H       -2.20251        -4.10991         2.15846
| 32>    H       -2.77348         2.24319        -0.01333
| 33>    H       -0.56620         3.91612        -1.29472
| 34>    H       -2.30464         4.38811        -0.96095
| 35> *
| 36>
| 37>                          ****END OF INPUT****
 Total Charge           Charge          ....    0
 Multiplicity           Mult            ....    1
 Number of Electrons    NEL             ....  104
Dispersion correction           -0.051397989
FINAL SINGLE POINT ENERGY      -616.930048618789
Dispersion correction            ... done
Dispersion correction           -0.051084312
FINAL SINGLE POINT ENERGY      -616.932953759649
Dispersion correction            ... done
Dispersion correction           -0.051103566
FINAL SINGLE POINT ENERGY      -616.933050662454
Dispersion correction            ... done
FINAL SINGLE POINT ENERGY      -616.932969806658
FINAL SINGLE POINT ENERGY      -616.933001929690
FINAL SINGLE POINT ENERGY      -616.933058801485
FINAL SINGLE POINT ENERGY      -616.933103013106
FINAL SINGLE POINT ENERGY      -616.933135008975
Dispersion correction            ... done
Dispersion correction           -0.051123833
FINAL SINGLE POINT ENERGY      -616.933152794314
Dispersion correction            ... done
Dispersion correction           -0.051123715
FINAL SINGLE POINT ENERGY      -616.933162907159
Dispersion correction            ... done
                    ***********************HURRAY********************

CARTESIAN COORDINATES (ANGSTROEM)
---------------------------------
  C      1.311700    0.224243   -0.258992
  C      0.539033    1.383456   -0.424313
  O      1.083974    2.602774   -0.677803
  C      2.489016    2.768186   -0.652319
  C      2.792120    4.241017   -0.841043
  C     -0.872713    1.305632   -0.327959
  C     -1.449360    0.052314   -0.036543
  C     -0.675747   -1.095881    0.153385
  C      0.714740   -1.002388    0.022089
  O     -1.178310   -2.320603    0.466537
  C     -2.535883   -2.435456    0.855094
  C     -2.744641   -3.835730    1.397798
  C     -1.789844    2.437881   -0.507544
  C     -1.527685    3.732697   -0.749756
  H      2.396216    0.270863   -0.349376
  H      2.959325    2.163594   -1.451015
  H      2.892944    2.406523    0.312169
  H      2.415579    4.596359   -1.812399
  H      3.878044    4.418118   -0.800535
  H      2.313214    4.836133   -0.049768
  H     -2.535792    0.004351    0.043968
  H      1.315375   -1.902461    0.163973
  H     -3.200816   -2.243078   -0.008385
  H     -2.775639   -1.676235    1.623483
  H     -2.515646   -4.586767    0.627005
  H     -3.786780   -3.971180    1.726959
  H     -2.081492   -4.014940    2.257068
  H     -2.844570    2.148179   -0.425557
  H     -0.514321    4.114047   -0.850382
  H     -2.354178    4.439212   -0.860921

 Multiplicity           Mult            ....    1
 Number of Electrons    NEL             ....  104
 Basis Dimension        Dim             ....  276

ORBITAL ENERGIES
----------------

  NO   OCC          E(Eh)            E(eV)
   0   2.0000     -19.160604      -521.3865
   1   2.0000     -19.154519      -521.2210
   2   2.0000     -10.247286      -278.8428
   3   2.0000     -10.242915      -278.7239
   4   2.0000     -10.242220      -278.7050
   5   2.0000     -10.238279      -278.5977
   6   2.0000     -10.192951      -277.3643
   7   2.0000     -10.189930      -277.2821
   8   2.0000     -10.187975      -277.2289
   9   2.0000     -10.186392      -277.1858
  10   2.0000     -10.185547      -277.1628
  11   2.0000     -10.185308      -277.1563
  12   2.0000     -10.184374      -277.1309
  13   2.0000     -10.172025      -276.7949
  14   2.0000      -1.057118       -28.7657
  15   2.0000      -1.050611       -28.5886
  16   2.0000      -0.846865       -23.0444
  17   2.0000      -0.786411       -21.3993
  18   2.0000      -0.767628       -20.8882
  19   2.0000      -0.758333       -20.6353
  20   2.0000      -0.721965       -19.6457
  21   2.0000      -0.701012       -19.0755
  22   2.0000      -0.649612       -17.6768
  23   2.0000      -0.623814       -16.9748
  24   2.0000      -0.611642       -16.6436
  25   2.0000      -0.577903       -15.7255
  26   2.0000      -0.562183       -15.2978
  27   2.0000      -0.529316       -14.4034
  28   2.0000      -0.514895       -14.0110
  29   2.0000      -0.492845       -13.4110
  30   2.0000      -0.487936       -13.2774
  31   2.0000      -0.482806       -13.1378
  32   2.0000      -0.452756       -12.3201
  33   2.0000      -0.432811       -11.7774
  34   2.0000      -0.429032       -11.6745
  35   2.0000      -0.418201       -11.3798
  36   2.0000      -0.408378       -11.1125
  37   2.0000      -0.407133       -11.0786
  38   2.0000      -0.394856       -10.7446
  39   2.0000      -0.391640       -10.6571
  40   2.0000      -0.389604       -10.6017
  41   2.0000      -0.381591       -10.3836
  42   2.0000      -0.366740        -9.9795
  43   2.0000      -0.362060        -9.8522
  44   2.0000      -0.360502        -9.8098
  45   2.0000      -0.337140        -9.1740
  46   2.0000      -0.328341        -8.9346
  47   2.0000      -0.312367        -8.4999
  48   2.0000      -0.302517        -8.2319
  49   2.0000      -0.282822        -7.6960
  50   2.0000      -0.232848        -6.3361
  51   2.0000      -0.198373        -5.3980
  52   0.0000      -0.031764        -0.8644
  53   0.0000       0.013373         0.3639
  54   0.0000       0.057192         1.5563
  55   0.0000       0.060833         1.6554
  56   0.0000       0.061801         1.6817

MULLIKEN ATOMIC CHARGES
-----------------------
   0 C :   -0.081386
   1 C :    0.190186
   2 O :   -0.323191
   3 C :    0.153866
   4 C :    0.017524
   5 C :    0.087267
   6 C :   -0.165322
   7 C :    0.251375
   8 C :   -0.022582
   9 O :   -0.321546
  10 C :    0.153774
  11 C :    0.019306
  12 C :   -0.030370
  13 C :   -0.016426
  14 H :   -0.024082
  15 H :    0.011900
  16 H :    0.007115
  17 H :    0.023152
  18 H :    0.016380
  19 H :    0.026727
  20 H :   -0.032758
  21 H :   -0.024848
  22 H :    0.010134
  23 H :    0.005488
  24 H :    0.025574
  25 H :    0.010972
  26 H :    0.022304
  27 H :   -0.027541
  28 H :    0.026194
  29 H :    0.010814
Sum of atomic charges:   -0.0000000

LOEWDIN ATOMIC CHARGES
----------------------
   0 C :   -0.066945
   1 C :    0.047577
   2 O :   -0.093420
   3 C :    0.083469
   4 C :   -0.059510
   5 C :   -0.039819
   6 C :   -0.062484
   7 C :    0.035018
   8 C :   -0.039084
   9 O :   -0.109838
  10 C :    0.083440
  11 C :   -0.060134
  12 C :   -0.027629
  13 C :   -0.051885
  14 H :    0.028134
  15 H :    0.010456
  16 H :    0.010314
  17 H :    0.028570
  18 H :    0.030716
  19 H :    0.029391
  20 H :    0.024786
  21 H :    0.030490
  22 H :    0.009001
  23 H :    0.009283
  24 H :    0.029262
  25 H :    0.028813
  26 H :    0.028445
  27 H :    0.023573
  28 H :    0.019491
  29 H :    0.020518

  Mayer bond orders larger than 0.100000
B(  0-C ,  1-C ) :   1.3073 B(  0-C ,  8-C ) :   1.3314 B(  0-C , 14-H ) :   0.9873
B(  1-C ,  2-O ) :   1.1258 B(  1-C ,  5-C ) :   1.3225 B(  2-O ,  3-C ) :   0.9530
B(  3-C ,  4-C ) :   1.1038 B(  3-C , 15-H ) :   0.9434 B(  3-C , 16-H ) :   0.9437
B(  4-C , 17-H ) :   0.9662 B(  4-C , 18-H ) :   0.9596 B(  4-C , 19-H ) :   0.9654
B(  5-C ,  6-C ) :   1.3000 B(  5-C , 12-C ) :   1.1019 B(  6-C ,  7-C ) :   1.2816
B(  6-C , 20-H ) :   0.9950 B(  7-C ,  8-C ) :   1.3604 B(  7-C ,  9-O ) :   1.1119
B(  8-C , 21-H ) :   0.9903 B(  9-O , 10-C ) :   0.9544 B( 10-C , 11-C ) :   1.1042
B( 10-C , 22-H ) :   0.9459 B( 10-C , 23-H ) :   0.9417 B( 11-C , 24-H ) :   0.9660
B( 11-C , 25-H ) :   0.9587 B( 11-C , 26-H ) :   0.9658 B( 12-C , 13-C ) :   1.9228
B( 12-C , 27-H ) :   0.9543 B( 13-C , 28-H ) :   0.9356 B( 13-C , 29-H ) :   0.9364

Dispersion correction           -0.051124687
FINAL SINGLE POINT ENERGY      -616.933165535636

DIPOLE MOMENT
-------------
                                X             Y             Z
Electronic contribution:      0.38985      -1.82180      -1.49739
Nuclear contribution   :     -0.17455       1.79938       1.67439
                        -----------------------------------------
Total Dipole Moment    :      0.21530      -0.02242       0.17700
                        -----------------------------------------
Magnitude (a.u.)       :      0.27961
Magnitude (Debye)      :      0.71072

Rotational constants in cm-1:     0.050263     0.010813     0.009007
Rotational constants in MHz :  1506.841001   324.177709   270.033568

                             ****ORCA TERMINATED NORMALLY****
TOTAL RUN TIME: 0 days 0 hours 28 minutes 58 seconds 518 msec
