                         Program Version 4.2.0 -  RELEASE  -
|  1> # ORCA input file
|  2> # SCF done        -34.181279343008          0.000488182588
|  3> ! B3LYP/G D3BJ Opt RIJCOSX def2-SVP def2/J
|  4> * xyz 0 1
|  5>    C        1.66995        -1.26771        -0.00754
|  6>    C        2.02231         0.05432        -0.01821
|  7>    C        3.40610         0.60534        -0.03131
|  8>    F        4.32537        -0.36770        -0.04378
|  9>    F        3.64563         1.37679        -1.10566
| 10>    F        3.66844         1.37033         1.04251
| 11>    S        0.66387         1.11364        -0.01404
| 12>    C       -0.40236        -0.25292         0.00218
| 13>    C       -1.79231        -0.08344         0.01177
| 14>    N       -2.93223         0.03965         0.01921
| 15>    C        0.27918        -1.44558         0.00410
| 16>    H        2.38481        -2.07045        -0.00828
| 17>    H       -0.20964        -2.40266         0.01355
| 18> *
| 19>
| 20>                          ****END OF INPUT****
 Total Charge           Charge          ....    0
 Multiplicity           Mult            ....    1
 Number of Electrons    NEL             ....   88
Dispersion correction           -0.026667918
FINAL SINGLE POINT ENERGY      -981.764040504841
Dispersion correction            ... done
Dispersion correction           -0.026582845
FINAL SINGLE POINT ENERGY      -981.766111377269
Dispersion correction            ... done
Dispersion correction           -0.026564862
FINAL SINGLE POINT ENERGY      -981.766169328183
Dispersion correction            ... done
FINAL SINGLE POINT ENERGY      -981.766170246089
FINAL SINGLE POINT ENERGY      -981.766172352513
FINAL SINGLE POINT ENERGY      -981.766175723989
FINAL SINGLE POINT ENERGY      -981.766160834503
FINAL SINGLE POINT ENERGY      -981.766017538032
FINAL SINGLE POINT ENERGY      -981.766192970476
FINAL SINGLE POINT ENERGY      -981.766226314054
FINAL SINGLE POINT ENERGY      -981.766266804993
Dispersion correction            ... done
Dispersion correction           -0.026570690
FINAL SINGLE POINT ENERGY      -981.766267160071
Dispersion correction            ... done
Dispersion correction           -0.026570871
FINAL SINGLE POINT ENERGY      -981.766270402012
Dispersion correction            ... done
                    ***********************HURRAY********************

CARTESIAN COORDINATES (ANGSTROEM)
---------------------------------
  C      1.685783   -1.279451   -0.034098
  C      2.039779    0.049144    0.021566
  C      3.426607    0.617348   -0.020009
  F      4.341606   -0.352866    0.107275
  F      3.665914    1.252839   -1.179696
  F      3.619902    1.513382    0.961914
  S      0.667683    1.099783    0.084493
  C     -0.410377   -0.268223    0.026435
  C     -1.815747   -0.072250    0.037503
  N     -2.965436    0.095959    0.045543
  C      0.279253   -1.465876   -0.031853
  H      2.415490   -2.087415   -0.078832
  H     -0.221338   -2.432765   -0.075742

 Multiplicity           Mult            ....    1
 Number of Electrons    NEL             ....   88
 Basis Dimension        Dim             ....  168

ORBITAL ENERGIES
----------------

  NO   OCC          E(Eh)            E(eV)
   0   2.0000     -88.924568     -2419.7605
   1   2.0000     -24.741652      -673.2546
   2   2.0000     -24.736235      -673.1072
   3   2.0000     -24.734022      -673.0470
   4   2.0000     -14.349594      -390.4723
   5   2.0000     -10.462035      -284.6864
   6   2.0000     -10.279928      -279.7311
   7   2.0000     -10.263665      -279.2885
   8   2.0000     -10.251870      -278.9676
   9   2.0000     -10.245288      -278.7885
  10   2.0000     -10.242553      -278.7140
  11   2.0000      -8.019340      -218.2173
  12   2.0000      -5.987483      -162.9277
  13   2.0000      -5.983365      -162.8156
  14   2.0000      -5.980511      -162.7380
  15   2.0000      -1.318687       -35.8833
  16   2.0000      -1.228659       -33.4335
  17   2.0000      -1.222376       -33.2625
  18   2.0000      -0.937401       -25.5080
  19   2.0000      -0.911919       -24.8146
  20   2.0000      -0.808385       -21.9973
  21   2.0000      -0.784661       -21.3517
  22   2.0000      -0.726801       -19.7773
  23   2.0000      -0.661637       -18.0041
  24   2.0000      -0.632226       -17.2037
  25   2.0000      -0.611192       -16.6314
  26   2.0000      -0.608701       -16.5636
  27   2.0000      -0.572932       -15.5903
  28   2.0000      -0.532224       -14.4826
  29   2.0000      -0.490298       -13.3417
  30   2.0000      -0.488191       -13.2844
  31   2.0000      -0.474044       -12.8994
  32   2.0000      -0.455988       -12.4081
  33   2.0000      -0.452179       -12.3044
  34   2.0000      -0.440470       -11.9858
  35   2.0000      -0.435447       -11.8491
  36   2.0000      -0.427569       -11.6347
  37   2.0000      -0.419819       -11.4238
  38   2.0000      -0.396229       -10.7819
  39   2.0000      -0.379100       -10.3158
  40   2.0000      -0.374487       -10.1903
  41   2.0000      -0.356203        -9.6928
  42   2.0000      -0.301602        -8.2070
  43   2.0000      -0.281927        -7.6716
  44   0.0000      -0.091136        -2.4799
  45   0.0000      -0.019353        -0.5266
  46   0.0000      -0.006026        -0.1640
  47   0.0000       0.002241         0.0610
  48   0.0000       0.054650         1.4871

MULLIKEN ATOMIC CHARGES
-----------------------
   0 C :    0.030811
   1 C :   -0.236903
   2 C :    0.586395
   3 F :   -0.158172
   4 F :   -0.161881
   5 F :   -0.164534
   6 S :    0.235357
   7 C :   -0.256372
   8 C :   -0.097472
   9 N :    0.091464
  10 C :    0.102148
  11 H :    0.017846
  12 H :    0.011311
Sum of atomic charges:   -0.0000000

LOEWDIN ATOMIC CHARGES
----------------------
   0 C :   -0.033211
   1 C :   -0.230167
   2 C :    0.154755
   3 F :   -0.050922
   4 F :   -0.060243
   5 F :   -0.060031
   6 S :    0.507219
   7 C :   -0.209276
   8 C :   -0.049288
   9 N :   -0.044003
  10 C :   -0.014196
  11 H :    0.044024
  12 H :    0.045341

  Mayer bond orders larger than 0.100000
B(  0-C ,  1-C ) :   1.5536 B(  0-C , 10-C ) :   1.2481 B(  0-C , 11-H ) :   0.9921
B(  1-C ,  2-C ) :   0.9462 B(  1-C ,  6-S ) :   1.1489 B(  1-C ,  7-C ) :   0.1208
B(  2-C ,  3-F ) :   1.1585 B(  2-C ,  4-F ) :   1.1678 B(  2-C ,  5-F ) :   1.1567
B(  6-S ,  7-C ) :   1.1508 B(  7-C ,  8-C ) :   1.1751 B(  7-C , 10-C ) :   1.5089
B(  8-C ,  9-N ) :   2.9796 B( 10-C , 12-H ) :   0.9963

Dispersion correction           -0.026570893
FINAL SINGLE POINT ENERGY      -981.766273383545

DIPOLE MOMENT
-------------
                                X             Y             Z
Electronic contribution:      8.13643       5.54230       0.02989
Nuclear contribution   :     -7.36144      -6.25261      -0.03914
                        -----------------------------------------
Total Dipole Moment    :      0.77499      -0.71031      -0.00925
                        -----------------------------------------
Magnitude (a.u.)       :      1.05130
Magnitude (Debye)      :      2.67219

Rotational constants in cm-1:     0.087607     0.018041     0.016235
Rotational constants in MHz :  2626.394042   540.850535   486.719084

                             ****ORCA TERMINATED NORMALLY****
TOTAL RUN TIME: 0 days 0 hours 9 minutes 32 seconds 253 msec
