                         Program Version 4.2.0 -  RELEASE  -
|  1> # ORCA input file
|  2> # SCF done        -34.165002679026          0.000866986342
|  3> ! B3LYP/G D3BJ Opt RIJCOSX def2-SVP def2/J
|  4> * xyz 0 1
|  5>    C        1.46247        -1.53859         0.13479
|  6>    S        3.10256        -1.01861         0.05330
|  7>    C        2.64851         0.63682        -0.10361
|  8>    C        1.29826         0.76146        -0.09174
|  9>    C        0.60161        -0.48762         0.04538
| 10>    C       -0.81658        -0.28807         0.05075
| 11>    C       -1.13035         1.05570        -0.07752
| 12>    S        0.22654         2.14534        -0.21032
| 13>    S       -2.82042         1.34870        -0.07695
| 14>    C       -3.12955        -0.37293         0.10043
| 15>    C       -1.96668        -1.09428         0.15175
| 16>    C       -4.49704        -0.81467         0.16966
| 17>    C       -4.89194        -2.07708         0.31137
| 18>    H        1.24191        -2.58068         0.24298
| 19>    H        3.39933         1.39440        -0.19262
| 20>    H       -1.93113        -2.16258         0.25686
| 21>    H       -5.23393        -0.02541         0.09846
| 22>    H       -4.19356        -2.89114         0.38789
| 23>    H       -5.93531        -2.33371         0.35522
| 24> *
| 25>
| 26>                          ****END OF INPUT****
 Total Charge           Charge          ....    0
 Multiplicity           Mult            ....    1
 Number of Electrons    NEL             ....  114
Dispersion correction           -0.051901578
FINAL SINGLE POINT ENERGY     -1578.648970937996
Dispersion correction            ... done
Dispersion correction           -0.051757064
FINAL SINGLE POINT ENERGY     -1578.652346391441
Dispersion correction            ... done
Dispersion correction           -0.051732816
FINAL SINGLE POINT ENERGY     -1578.652453984728
Dispersion correction            ... done
FINAL SINGLE POINT ENERGY     -1578.652441584439
Dispersion correction            ... done
Dispersion correction           -0.051725160
FINAL SINGLE POINT ENERGY     -1578.652449886609
Dispersion correction            ... done
Dispersion correction           -0.051726452
FINAL SINGLE POINT ENERGY     -1578.652449906191
Dispersion correction            ... done
                    ***********************HURRAY********************

CARTESIAN COORDINATES (ANGSTROEM)
---------------------------------
  C      1.492216   -1.543033    0.139175
  S      3.140864   -1.015737    0.090734
  C      2.696904    0.652250   -0.086430
  C      1.332053    0.776643   -0.104265
  C      0.625735   -0.479268    0.029740
  C     -0.809073   -0.280135    0.022270
  C     -1.127472    1.070074   -0.118577
  S      0.242297    2.166660   -0.253337
  S     -2.827857    1.353154   -0.101550
  C     -3.145442   -0.373959    0.098675
  C     -1.968925   -1.094916    0.142620
  C     -4.526510   -0.821757    0.200975
  C     -4.939497   -2.096436    0.299344
  H      1.254410   -2.598832    0.255304
  H      3.461667    1.420929   -0.171242
  H     -1.943930   -2.177023    0.275582
  H     -5.281447   -0.027710    0.200904
  H     -4.240153   -2.936650    0.301504
  H     -6.001140   -2.337204    0.384655

 Multiplicity           Mult            ....    1
 Number of Electrons    NEL             ....  114
 Basis Dimension        Dim             ....  224

ORBITAL ENERGIES
----------------

  NO   OCC          E(Eh)            E(eV)
   0   2.0000     -88.885271     -2418.6912
   1   2.0000     -88.883942     -2418.6550
   2   2.0000     -88.880284     -2418.5555
   3   2.0000     -10.239543      -278.6321
   4   2.0000     -10.226591      -278.2797
   5   2.0000     -10.224876      -278.2330
   6   2.0000     -10.221941      -278.1532
   7   2.0000     -10.219442      -278.0852
   8   2.0000     -10.210180      -277.8331
   9   2.0000     -10.208412      -277.7850
  10   2.0000     -10.206250      -277.7262
  11   2.0000     -10.203018      -277.6382
  12   2.0000     -10.193020      -277.3662
  13   2.0000      -7.980013      -217.1472
  14   2.0000      -7.978633      -217.1096
  15   2.0000      -7.974439      -216.9955
  16   2.0000      -5.948288      -161.8612
  17   2.0000      -5.946852      -161.8221
  18   2.0000      -5.944391      -161.7551
  19   2.0000      -5.943475      -161.7302
  20   2.0000      -5.942631      -161.7072
  21   2.0000      -5.940821      -161.6579
  22   2.0000      -5.939953      -161.6343
  23   2.0000      -5.939597      -161.6246
  24   2.0000      -5.933759      -161.4658
  25   2.0000      -0.914612       -24.8878
  26   2.0000      -0.881811       -23.9953
  27   2.0000      -0.827368       -22.5138
  28   2.0000      -0.777983       -21.1700
  29   2.0000      -0.768477       -20.9113
  30   2.0000      -0.725363       -19.7381
  31   2.0000      -0.707479       -19.2515
  32   2.0000      -0.683178       -18.5902
  33   2.0000      -0.622125       -16.9289
  34   2.0000      -0.573118       -15.5953
  35   2.0000      -0.557332       -15.1658
  36   2.0000      -0.547083       -14.8869
  37   2.0000      -0.531030       -14.4501
  38   2.0000      -0.500745       -13.6260
  39   2.0000      -0.466528       -12.6949
  40   2.0000      -0.457287       -12.4434
  41   2.0000      -0.427677       -11.6377
  42   2.0000      -0.427384       -11.6297
  43   2.0000      -0.408621       -11.1191
  44   2.0000      -0.407637       -11.0924
  45   2.0000      -0.392607       -10.6834
  46   2.0000      -0.387118       -10.5340
  47   2.0000      -0.368786       -10.0352
  48   2.0000      -0.366375        -9.9696
  49   2.0000      -0.359302        -9.7771
  50   2.0000      -0.340837        -9.2747
  51   2.0000      -0.336036        -9.1440
  52   2.0000      -0.298965        -8.1352
  53   2.0000      -0.288892        -7.8612
  54   2.0000      -0.245463        -6.6794
  55   2.0000      -0.233888        -6.3644
  56   2.0000      -0.200971        -5.4687
  57   0.0000      -0.050353        -1.3702
  58   0.0000      -0.036475        -0.9925
  59   0.0000       0.015006         0.4083
  60   0.0000       0.016881         0.4593
  61   0.0000       0.021321         0.5802

MULLIKEN ATOMIC CHARGES
-----------------------
   0 C :   -0.146972
   1 S :    0.105664
   2 C :   -0.163652
   3 C :   -0.011531
   4 C :    0.111787
   5 C :    0.090894
   6 C :   -0.202043
   7 S :    0.127690
   8 S :    0.127781
   9 C :   -0.113294
  10 C :    0.005320
  11 C :    0.042270
  12 C :   -0.033471
  13 H :    0.019205
  14 H :    0.027076
  15 H :   -0.020781
  16 H :   -0.008166
  17 H :    0.016348
  18 H :    0.025876
Sum of atomic charges:   -0.0000000

LOEWDIN ATOMIC CHARGES
----------------------
   0 C :   -0.201837
   1 S :    0.443816
   2 C :   -0.217976
   3 C :   -0.181561
   4 C :   -0.070784
   5 C :   -0.083442
   6 C :   -0.328005
   7 S :    0.363980
   8 S :    0.422464
   9 C :   -0.170186
  10 C :   -0.047806
  11 C :   -0.043348
  12 C :   -0.050169
  13 H :    0.026687
  14 H :    0.028541
  15 H :    0.031392
  16 H :    0.029092
  17 H :    0.021476
  18 H :    0.027666

  Mayer bond orders larger than 0.100000
B(  0-C ,  1-S ) :   1.1533 B(  0-C ,  4-C ) :   1.5033 B(  0-C , 13-H ) :   0.9648
B(  1-S ,  2-C ) :   1.1673 B(  2-C ,  3-C ) :   1.5448 B(  2-C , 14-H ) :   0.9693
B(  3-C ,  4-C ) :   1.2223 B(  3-C ,  7-S ) :   1.0187 B(  4-C ,  5-C ) :   1.0831
B(  5-C ,  6-C ) :   1.4223 B(  5-C , 10-C ) :   1.2532 B(  6-C ,  7-S ) :   1.0386
B(  6-C ,  8-S ) :   1.1171 B(  8-S ,  9-C ) :   1.1032 B(  9-C , 10-C ) :   1.5214
B(  9-C , 11-C ) :   1.1034 B( 10-C , 15-H ) :   0.9875 B( 11-C , 12-C ) :   1.9282
B( 11-C , 16-H ) :   0.9489 B( 12-C , 17-H ) :   0.9508 B( 12-C , 18-H ) :   0.9460

Dispersion correction           -0.051727059
FINAL SINGLE POINT ENERGY     -1578.652444414595

DIPOLE MOMENT
-------------
                                X             Y             Z
Electronic contribution:      9.02335       8.41675      -1.11064
Nuclear contribution   :     -8.99702      -8.72282       1.17037
                        -----------------------------------------
Total Dipole Moment    :      0.02633      -0.30607       0.05973
                        -----------------------------------------
Magnitude (a.u.)       :      0.31295
Magnitude (Debye)      :      0.79546

Rotational constants in cm-1:     0.041372     0.011392     0.008933
Rotational constants in MHz :  1240.303120   341.529135   267.815106

                             ****ORCA TERMINATED NORMALLY****
TOTAL RUN TIME: 0 days 0 hours 9 minutes 45 seconds 255 msec
