                         Program Version 4.2.0 -  RELEASE  -
|  1> # ORCA input file
|  2> # SCF done        -23.756113665809          0.000374258906
|  3> ! B3LYP/G D3BJ Opt RIJCOSX def2-SVP def2/J
|  4> * xyz 0 1
|  5>    C        1.77546        -1.57429         0.19876
|  6>    N        1.50889        -0.30009         0.69129
|  7>    C        0.35370         0.11824         0.45185
|  8>    C       -0.32971         1.36517         0.81955
|  9>    C       -1.49550         1.52542        -0.16581
| 10>    N       -2.10925         0.22921        -0.22985
| 11>    S       -0.73245        -1.05459        -0.48232
| 12>    C        0.73243        -2.22282        -0.31448
| 13>    H        2.79298        -1.91165         0.31931
| 14>    H        0.35458         2.21270         0.80304
| 15>    H       -0.73205         1.25707         1.83132
| 16>    H       -1.10429         1.86940        -1.14170
| 17>    H       -2.20127         2.27960         0.19727
| 18>    H       -2.77597         0.16461        -0.98868
| 19>    H       -1.36373        -1.72061         0.49478
| 20>    H        0.76318        -3.18305        -0.79103
| 21> *
| 22>
| 23>                          ****END OF INPUT****
 Total Charge           Charge          ....    0
 Multiplicity           Mult            ....    1
 Number of Electrons    NEL             ....   68
Dispersion correction           -0.031169157
FINAL SINGLE POINT ENERGY      -702.586267365694
Dispersion correction            ... done
Dispersion correction           -0.030905694
FINAL SINGLE POINT ENERGY      -702.591400975430
Dispersion correction            ... done
Dispersion correction           -0.030766940
FINAL SINGLE POINT ENERGY      -702.593222716861
Dispersion correction            ... done
FINAL SINGLE POINT ENERGY      -702.594191147996
FINAL SINGLE POINT ENERGY      -702.594698129640
FINAL SINGLE POINT ENERGY      -702.595083778198
FINAL SINGLE POINT ENERGY      -702.595423942694
FINAL SINGLE POINT ENERGY      -702.595645040767
FINAL SINGLE POINT ENERGY      -702.595817683297
FINAL SINGLE POINT ENERGY      -702.595957805487
FINAL SINGLE POINT ENERGY      -702.596039867102
Dispersion correction            ... done
Dispersion correction           -0.030775272
FINAL SINGLE POINT ENERGY      -702.596065817804
Dispersion correction            ... done
Dispersion correction           -0.030776172
FINAL SINGLE POINT ENERGY      -702.596066220044
Dispersion correction            ... done
                    ***********************HURRAY********************

CARTESIAN COORDINATES (ANGSTROEM)
---------------------------------
  C      1.806438   -1.558265    0.234273
  N      1.584209   -0.240749    0.690785
  C      0.402206    0.172392    0.476303
  C     -0.301614    1.432087    0.809582
  C     -1.517161    1.525744   -0.130284
  N     -2.148167    0.225154   -0.079889
  S     -0.689265   -1.046246   -0.390047
  C      0.736510   -2.200963   -0.263791
  H      2.821538   -1.950596    0.326954
  H      0.382930    2.288564    0.727893
  H     -0.666148    1.367003    1.851346
  H     -1.151163    1.817515   -1.141866
  H     -2.195875    2.324608    0.213894
  H     -2.736399    0.094882   -0.907872
  H     -1.602544   -1.999195   -0.017394
  H      0.711506   -3.197614   -0.706587

 Multiplicity           Mult            ....    1
 Number of Electrons    NEL             ....   68
 Basis Dimension        Dim             ....  156

ORBITAL ENERGIES
----------------

  NO   OCC          E(Eh)            E(eV)
   0   2.0000     -88.939506     -2420.1670
   1   2.0000     -14.332346      -390.0030
   2   2.0000     -14.291608      -388.8944
   3   2.0000     -10.248001      -278.8623
   4   2.0000     -10.217884      -278.0428
   5   2.0000     -10.211962      -277.8816
   6   2.0000     -10.202698      -277.6295
   7   2.0000     -10.191479      -277.3242
   8   2.0000      -8.019703      -218.2272
   9   2.0000      -5.988275      -162.9492
  10   2.0000      -5.985678      -162.8786
  11   2.0000      -5.982824      -162.8009
  12   2.0000      -0.956238       -26.0206
  13   2.0000      -0.879687       -23.9375
  14   2.0000      -0.795538       -21.6477
  15   2.0000      -0.754709       -20.5367
  16   2.0000      -0.718825       -19.5602
  17   2.0000      -0.604257       -16.4427
  18   2.0000      -0.593551       -16.1514
  19   2.0000      -0.560264       -15.2456
  20   2.0000      -0.500993       -13.6327
  21   2.0000      -0.485205       -13.2031
  22   2.0000      -0.462471       -12.5845
  23   2.0000      -0.437356       -11.9011
  24   2.0000      -0.423439       -11.5224
  25   2.0000      -0.412601       -11.2274
  26   2.0000      -0.384584       -10.4651
  27   2.0000      -0.379059       -10.3147
  28   2.0000      -0.361179        -9.8282
  29   2.0000      -0.336122        -9.1463
  30   2.0000      -0.292726        -7.9655
  31   2.0000      -0.264503        -7.1975
  32   2.0000      -0.238881        -6.5003
  33   2.0000      -0.203610        -5.5405
  34   0.0000      -0.053618        -1.4590
  35   0.0000       0.006262         0.1704
  36   0.0000       0.041033         1.1166
  37   0.0000       0.062997         1.7142
  38   0.0000       0.077255         2.1022

MULLIKEN ATOMIC CHARGES
-----------------------
   0 C :    0.073874
   1 N :   -0.092617
   2 C :   -0.214532
   3 C :    0.162741
   4 C :    0.119001
   5 N :   -0.419565
   6 S :    0.253349
   7 C :   -0.111197
   8 H :    0.001613
   9 H :    0.029707
  10 H :    0.031411
  11 H :   -0.016031
  12 H :    0.005194
  13 H :    0.094720
  14 H :    0.063676
  15 H :    0.018655
Sum of atomic charges:   -0.0000000

LOEWDIN ATOMIC CHARGES
----------------------
   0 C :   -0.026633
   1 N :   -0.095037
   2 C :   -0.102257
   3 C :   -0.047002
   4 C :    0.003026
   5 N :   -0.337817
   6 S :    0.696248
   7 C :   -0.231069
   8 H :    0.020962
   9 H :    0.041830
  10 H :    0.044411
  11 H :   -0.006288
  12 H :    0.019978
  13 H :    0.030127
  14 H :   -0.032025
  15 H :    0.021547

  Mayer bond orders larger than 0.100000
B(  0-C ,  1-N ) :   1.1541 B(  0-C ,  7-C ) :   1.7407 B(  0-C ,  8-H ) :   0.9888
B(  1-N ,  2-C ) :   1.8900 B(  2-C ,  3-C ) :   1.0682 B(  2-C ,  6-S ) :   0.8247
B(  3-C ,  4-C ) :   1.0380 B(  3-C ,  9-H ) :   0.9306 B(  3-C , 10-H ) :   0.8960
B(  4-C ,  5-N ) :   1.0347 B(  4-C , 11-H ) :   0.9290 B(  4-C , 12-H ) :   0.9308
B(  5-N ,  6-S ) :   0.6292 B(  5-N , 13-H ) :   0.9401 B(  6-S ,  7-C ) :   0.8551
B(  6-S , 14-H ) :   0.8384 B(  7-C , 15-H ) :   0.9500

Dispersion correction           -0.030777141
FINAL SINGLE POINT ENERGY      -702.596063096865

DIPOLE MOMENT
-------------
                                X             Y             Z
Electronic contribution:      2.62303      -3.33627      -0.21886
Nuclear contribution   :     -2.92199       3.09861      -0.24017
                        -----------------------------------------
Total Dipole Moment    :     -0.29896      -0.23766      -0.45903
                        -----------------------------------------
Magnitude (a.u.)       :      0.59713
Magnitude (Debye)      :      1.51779

Rotational constants in cm-1:     0.118540     0.054886     0.038852
Rotational constants in MHz :  3553.736146  1645.436324  1164.741073

                             ****ORCA TERMINATED NORMALLY****
TOTAL RUN TIME: 0 days 0 hours 9 minutes 57 seconds 767 msec
