                         Program Version 4.2.0 -  RELEASE  -
|  1> # ORCA input file
|  2> # SCF done        -39.791428235675          0.000870441633
|  3> ! B3LYP/G D3BJ Opt RIJCOSX def2-SVP def2/J
|  4> * xyz 0 1
|  5>    C        1.46667        -1.52146        -0.03654
|  6>    S        2.74447        -0.42606        -0.35192
|  7>    C        1.65400         0.93212        -0.31680
|  8>    C        0.36512         0.51306        -0.08712
|  9>    C        0.26511        -0.89198         0.07996
| 10>    C       -1.04509        -1.60733         0.28408
| 11>    C       -1.37105        -2.27591        -0.95933
| 12>    N       -1.62023        -2.77933        -1.95467
| 13>    C       -2.16631        -0.62732         0.65721
| 14>    C       -2.13204         0.58265        -0.27110
| 15>    C       -0.85157         1.39711        -0.02925
| 16>    C       -0.91621         2.00276         1.28480
| 17>    N       -0.97476         2.44714         2.33644
| 18>    C        2.20952         2.24293        -0.55466
| 19>    C        1.69881         3.41109        -0.17757
| 20>    H        1.66996        -2.57139         0.03961
| 21>    H       -0.93756        -2.37772         1.05741
| 22>    H       -2.03032        -0.30121         1.69132
| 23>    H       -3.13148        -1.13258         0.58230
| 24>    H       -3.00348         1.21576        -0.09346
| 25>    H       -2.15521         0.25075        -1.31184
| 26>    H       -0.76336         2.19993        -0.77174
| 27>    H        3.15680         2.22622        -1.08044
| 28>    H        0.79937         3.50356         0.40364
| 29>    H        2.20504         4.33050        -0.41452
| 30> *
| 31>
| 32>                          ****END OF INPUT****
 Total Charge           Charge          ....    0
 Multiplicity           Mult            ....    1
 Number of Electrons    NEL             ....  112
Dispersion correction           -0.061774254
FINAL SINGLE POINT ENERGY      -970.459887974257
Dispersion correction            ... done
Dispersion correction           -0.060895222
FINAL SINGLE POINT ENERGY      -970.464982494193
Dispersion correction            ... done
Dispersion correction           -0.060766743
FINAL SINGLE POINT ENERGY      -970.465232329571
Dispersion correction            ... done
FINAL SINGLE POINT ENERGY      -970.465217750352
FINAL SINGLE POINT ENERGY      -970.465252390488
FINAL SINGLE POINT ENERGY      -970.465266192473
FINAL SINGLE POINT ENERGY      -970.465267054271
FINAL SINGLE POINT ENERGY      -970.465268006162
FINAL SINGLE POINT ENERGY      -970.465270721927
FINAL SINGLE POINT ENERGY      -970.465275048780
FINAL SINGLE POINT ENERGY      -970.465278554354
FINAL SINGLE POINT ENERGY      -970.465281008017
Dispersion correction            ... done
Dispersion correction           -0.060667002
FINAL SINGLE POINT ENERGY      -970.465281524586
Dispersion correction            ... done
Dispersion correction           -0.060667369
FINAL SINGLE POINT ENERGY      -970.465279929014
Dispersion correction            ... done
                    ***********************HURRAY********************

CARTESIAN COORDINATES (ANGSTROEM)
---------------------------------
  C      1.497788   -1.545273   -0.018281
  S      2.768255   -0.427510   -0.322732
  C      1.674479    0.934998   -0.296303
  C      0.374547    0.503820   -0.063004
  C      0.279098   -0.917184    0.090213
  C     -1.051380   -1.638993    0.245542
  C     -1.388643   -2.339400   -1.006141
  N     -1.668661   -2.871533   -1.996548
  C     -2.186756   -0.663625    0.631409
  C     -2.149194    0.592924   -0.234172
  C     -0.850535    1.395518    0.012728
  C     -0.922304    2.067215    1.321802
  N     -0.985459    2.589473    2.354055
  C      2.229762    2.259413   -0.549064
  C      1.719079    3.454004   -0.204868
  H      1.702930   -2.613147    0.040920
  H     -0.957780   -2.412758    1.025646
  H     -2.069106   -0.386634    1.691807
  H     -3.155043   -1.175363    0.529559
  H     -3.018046    1.232612   -0.020802
  H     -2.193923    0.315418   -1.299842
  H     -0.757212    2.195179   -0.742338
  H      3.188026    2.250180   -1.080442
  H      0.808296    3.575848    0.381014
  H      2.247983    4.368108   -0.484346

 Multiplicity           Mult            ....    1
 Number of Electrons    NEL             ....  112
 Basis Dimension        Dim             ....  264

ORBITAL ENERGIES
----------------

  NO   OCC          E(Eh)            E(eV)
   0   2.0000     -88.894338     -2418.9379
   1   2.0000     -14.335308      -390.0836
   2   2.0000     -14.332933      -390.0189
   3   2.0000     -10.259913      -279.1864
   4   2.0000     -10.259165      -279.1661
   5   2.0000     -10.240154      -278.6487
   6   2.0000     -10.235235      -278.5149
   7   2.0000     -10.233294      -278.4621
   8   2.0000     -10.233073      -278.4561
   9   2.0000     -10.227137      -278.2946
  10   2.0000     -10.226603      -278.2800
  11   2.0000     -10.224252      -278.2160
  12   2.0000     -10.224082      -278.2114
  13   2.0000     -10.220576      -278.1160
  14   2.0000     -10.205689      -277.7109
  15   2.0000      -7.989543      -217.4065
  16   2.0000      -5.957470      -162.1110
  17   2.0000      -5.953553      -162.0044
  18   2.0000      -5.951008      -161.9352
  19   2.0000      -0.921439       -25.0736
  20   2.0000      -0.906463       -24.6661
  21   2.0000      -0.900491       -24.5036
  22   2.0000      -0.855684       -23.2843
  23   2.0000      -0.820307       -22.3217
  24   2.0000      -0.789503       -21.4835
  25   2.0000      -0.760912       -20.7055
  26   2.0000      -0.718781       -19.5590
  27   2.0000      -0.693324       -18.8663
  28   2.0000      -0.637559       -17.3488
  29   2.0000      -0.615477       -16.7480
  30   2.0000      -0.591251       -16.0888
  31   2.0000      -0.563799       -15.3417
  32   2.0000      -0.533248       -14.5104
  33   2.0000      -0.515013       -14.0142
  34   2.0000      -0.507210       -13.8019
  35   2.0000      -0.477416       -12.9911
  36   2.0000      -0.467730       -12.7276
  37   2.0000      -0.465797       -12.6750
  38   2.0000      -0.459120       -12.4933
  39   2.0000      -0.441870       -12.0239
  40   2.0000      -0.419959       -11.4277
  41   2.0000      -0.402719       -10.9585
  42   2.0000      -0.397089       -10.8053
  43   2.0000      -0.389917       -10.6102
  44   2.0000      -0.380644       -10.3578
  45   2.0000      -0.372061       -10.1243
  46   2.0000      -0.367691       -10.0054
  47   2.0000      -0.365895        -9.9565
  48   2.0000      -0.360621        -9.8130
  49   2.0000      -0.341179        -9.2839
  50   2.0000      -0.339524        -9.2389
  51   2.0000      -0.335255        -9.1228
  52   2.0000      -0.332923        -9.0593
  53   2.0000      -0.316212        -8.6046
  54   2.0000      -0.273357        -7.4384
  55   2.0000      -0.240205        -6.5363
  56   0.0000      -0.065868        -1.7924
  57   0.0000      -0.011533        -0.3138
  58   0.0000       0.010667         0.2903
  59   0.0000       0.013028         0.3545
  60   0.0000       0.022574         0.6143

MULLIKEN ATOMIC CHARGES
-----------------------
   0 C :   -0.114430
   1 S :    0.136992
   2 C :   -0.162079
   3 C :    0.034812
   4 C :   -0.007435
   5 C :    0.028792
   6 C :   -0.238217
   7 N :    0.065152
   8 C :    0.061088
   9 C :    0.075012
  10 C :   -0.009331
  11 C :   -0.226360
  12 N :    0.061093
  13 C :    0.023396
  14 C :   -0.036489
  15 H :    0.029526
  16 H :    0.042540
  17 H :    0.033097
  18 H :    0.027985
  19 H :    0.025871
  20 H :    0.032741
  21 H :    0.043579
  22 H :    0.001068
  23 H :    0.040136
  24 H :    0.031462
Sum of atomic charges:   -0.0000000

LOEWDIN ATOMIC CHARGES
----------------------
   0 C :   -0.182232
   1 S :    0.462543
   2 C :   -0.168954
   3 C :   -0.051957
   4 C :   -0.057041
   5 C :   -0.037511
   6 C :   -0.032477
   7 N :   -0.073861
   8 C :   -0.008492
   9 C :   -0.006879
  10 C :   -0.039312
  11 C :   -0.031798
  12 N :   -0.074838
  13 C :   -0.045429
  14 C :   -0.036158
  15 H :    0.030750
  16 H :    0.060295
  17 H :    0.034968
  18 H :    0.036590
  19 H :    0.036189
  20 H :    0.035278
  21 H :    0.059206
  22 H :    0.031872
  23 H :    0.027951
  24 H :    0.031297

  Mayer bond orders larger than 0.100000
B(  0-C ,  1-S ) :   1.1690 B(  0-C ,  4-C ) :   1.5338 B(  0-C , 15-H ) :   0.9662
B(  1-S ,  2-C ) :   1.1487 B(  2-C ,  3-C ) :   1.5017 B(  2-C , 13-C ) :   1.0986
B(  3-C ,  4-C ) :   1.3183 B(  3-C , 10-C ) :   1.0156 B(  4-C ,  5-C ) :   0.9818
B(  5-C ,  6-C ) :   1.0392 B(  5-C ,  8-C ) :   1.0765 B(  5-C , 16-H ) :   0.8628
B(  6-C ,  7-N ) :   3.0786 B(  8-C ,  9-C ) :   1.0554 B(  8-C , 17-H ) :   0.9344
B(  8-C , 18-H ) :   0.9328 B(  9-C , 10-C ) :   1.0705 B(  9-C , 19-H ) :   0.9311
B(  9-C , 20-H ) :   0.9355 B( 10-C , 11-C ) :   1.0320 B( 10-C , 21-H ) :   0.8522
B( 11-C , 12-N ) :   3.0441 B( 13-C , 14-C ) :   1.9162 B( 13-C , 22-H ) :   0.9413
B( 14-C , 23-H ) :   0.9505 B( 14-C , 24-H ) :   0.9414

Dispersion correction           -0.060666436
FINAL SINGLE POINT ENERGY      -970.465277541285

DIPOLE MOMENT
-------------
                                X             Y             Z
Electronic contribution:      6.06857      -5.11607      -0.36989
Nuclear contribution   :     -5.70096       5.20004       0.31825
                        -----------------------------------------
Total Dipole Moment    :      0.36761       0.08397      -0.05164
                        -----------------------------------------
Magnitude (a.u.)       :      0.38060
Magnitude (Debye)      :      0.96740

Rotational constants in cm-1:     0.023831     0.017452     0.011625
Rotational constants in MHz :   714.431002   523.210485   348.507300

                             ****ORCA TERMINATED NORMALLY****
TOTAL RUN TIME: 0 days 0 hours 28 minutes 33 seconds 391 msec
