                         Program Version 4.2.0 -  RELEASE  -
|  1> # ORCA input file
|  2> # SCF done        -34.510800122787          0.000951274543
|  3> ! B3LYP/G D3BJ Opt RIJCOSX def2-SVP def2/J
|  4> * xyz 0 1
|  5>    C        1.61328         1.05458        -0.11230
|  6>    S        2.80923        -0.17724        -0.05933
|  7>    C        1.59843        -1.39088         0.03639
|  8>    C        0.34331        -0.86837         0.03228
|  9>    C        0.35177         0.55026        -0.06322
| 10>    C       -0.91254         1.36674        -0.04393
| 11>    C       -1.05834         1.91692         1.28860
| 12>    N       -1.16493         2.32538         2.35059
| 13>    C       -2.13160         0.49757        -0.38732
| 14>    C       -2.12505        -0.77961         0.44807
| 15>    C       -0.93258        -1.66642         0.05738
| 16>    C       -1.13697        -2.20767        -1.27082
| 17>    N       -1.29159        -2.60630        -2.33065
| 18>    H        1.91280         2.08202        -0.17317
| 19>    H        1.88379        -2.42295         0.08725
| 20>    H       -0.83220         2.20773        -0.74293
| 21>    H       -2.10243         0.24309        -1.44980
| 22>    H       -3.04581         1.06300        -0.19650
| 23>    H       -3.05438        -1.33179         0.29393
| 24>    H       -2.04965        -0.52496         1.50852
| 25>    H       -0.83940        -2.51077         0.75042
| 26> *
| 27>
| 28>                          ****END OF INPUT****
 Total Charge           Charge          ....    0
 Multiplicity           Mult            ....    1
 Number of Electrons    NEL             ....   98
Dispersion correction           -0.050220539
FINAL SINGLE POINT ENERGY      -893.105339221121
Dispersion correction            ... done
Dispersion correction           -0.049575125
FINAL SINGLE POINT ENERGY      -893.109877455420
Dispersion correction            ... done
Dispersion correction           -0.049403929
FINAL SINGLE POINT ENERGY      -893.110095533679
Dispersion correction            ... done
FINAL SINGLE POINT ENERGY      -893.110121918996
FINAL SINGLE POINT ENERGY      -893.110111409826
FINAL SINGLE POINT ENERGY      -893.110100870585
Dispersion correction            ... done
Dispersion correction           -0.049276642
FINAL SINGLE POINT ENERGY      -893.110110227068
Dispersion correction            ... done
Dispersion correction           -0.049277752
FINAL SINGLE POINT ENERGY      -893.110112107830
Dispersion correction            ... done
                    ***********************HURRAY********************

CARTESIAN COORDINATES (ANGSTROEM)
---------------------------------
  C      1.646880    1.067894   -0.098049
  S      2.838182   -0.179218   -0.069763
  C      1.629134   -1.406380    0.013023
  C      0.361418   -0.875547    0.020014
  C      0.371457    0.557985   -0.047147
  C     -0.905098    1.382095   -0.008007
  C     -1.071875    2.002724    1.317676
  N     -1.215491    2.477362    2.364796
  C     -2.140018    0.517957   -0.358395
  C     -2.137585   -0.796973    0.418339
  C     -0.928180   -1.679952    0.028711
  C     -1.146954   -2.297586   -1.290996
  N     -1.328878   -2.764444   -2.335715
  H      1.946326    2.114369   -0.132567
  H      1.912701   -2.457636    0.034090
  H     -0.825460    2.208075   -0.733952
  H     -2.126317    0.310319   -1.440701
  H     -3.054704    1.089592   -0.142611
  H     -3.067315   -1.354590    0.232026
  H     -2.086778   -0.589625    1.499635
  H     -0.836307   -2.506090    0.753051

 Multiplicity           Mult            ....    1
 Number of Electrons    NEL             ....   98
 Basis Dimension        Dim             ....  226

ORBITAL ENERGIES
----------------

  NO   OCC          E(Eh)            E(eV)
   0   2.0000     -88.896957     -2419.0092
   1   2.0000     -14.333202      -390.0263
   2   2.0000     -14.333189      -390.0259
   3   2.0000     -10.260176      -279.1936
   4   2.0000     -10.260142      -279.1927
   5   2.0000     -10.233589      -278.4701
   6   2.0000     -10.233570      -278.4696
   7   2.0000     -10.233205      -278.4597
   8   2.0000     -10.233137      -278.4578
   9   2.0000     -10.226969      -278.2900
  10   2.0000     -10.226732      -278.2835
  11   2.0000     -10.224878      -278.2331
  12   2.0000     -10.224802      -278.2310
  13   2.0000      -7.991933      -217.4715
  14   2.0000      -5.959922      -162.1777
  15   2.0000      -5.955760      -162.0645
  16   2.0000      -5.953636      -162.0067
  17   2.0000      -0.920064       -25.0362
  18   2.0000      -0.905075       -24.6283
  19   2.0000      -0.899209       -24.4687
  20   2.0000      -0.854307       -23.2469
  21   2.0000      -0.814563       -22.1654
  22   2.0000      -0.760803       -20.7025
  23   2.0000      -0.728685       -19.8285
  24   2.0000      -0.694055       -18.8862
  25   2.0000      -0.631035       -17.1713
  26   2.0000      -0.599481       -16.3127
  27   2.0000      -0.572855       -15.5882
  28   2.0000      -0.550354       -14.9759
  29   2.0000      -0.519972       -14.1492
  30   2.0000      -0.507806       -13.8181
  31   2.0000      -0.468968       -12.7613
  32   2.0000      -0.467525       -12.7220
  33   2.0000      -0.458147       -12.4668
  34   2.0000      -0.436102       -11.8669
  35   2.0000      -0.427634       -11.6365
  36   2.0000      -0.400005       -10.8847
  37   2.0000      -0.389615       -10.6020
  38   2.0000      -0.385469       -10.4891
  39   2.0000      -0.379534       -10.3277
  40   2.0000      -0.372344       -10.1320
  41   2.0000      -0.364694        -9.9238
  42   2.0000      -0.361842        -9.8462
  43   2.0000      -0.339855        -9.2479
  44   2.0000      -0.338924        -9.2226
  45   2.0000      -0.334528        -9.1030
  46   2.0000      -0.332457        -9.0466
  47   2.0000      -0.273577        -7.4444
  48   2.0000      -0.261003        -7.1023
  49   0.0000      -0.047742        -1.2991
  50   0.0000       0.000765         0.0208
  51   0.0000       0.012629         0.3437
  52   0.0000       0.022073         0.6006
  53   0.0000       0.029861         0.8125

MULLIKEN ATOMIC CHARGES
-----------------------
   0 C :   -0.126665
   1 S :    0.132668
   2 C :   -0.126468
   3 C :    0.008307
   4 C :    0.009189
   5 C :    0.028087
   6 C :   -0.234381
   7 N :    0.065283
   8 C :    0.060533
   9 C :    0.059900
  10 C :    0.029797
  11 C :   -0.235807
  12 N :    0.065475
  13 H :    0.028492
  14 H :    0.028686
  15 H :    0.041153
  16 H :    0.034922
  17 H :    0.027193
  18 H :    0.027511
  19 H :    0.035031
  20 H :    0.041094
Sum of atomic charges:    0.0000000

LOEWDIN ATOMIC CHARGES
----------------------
   0 C :   -0.183405
   1 S :    0.464933
   2 C :   -0.183283
   3 C :   -0.059277
   4 C :   -0.059158
   5 C :   -0.037691
   6 C :   -0.032546
   7 N :   -0.073718
   8 C :   -0.008235
   9 C :   -0.008382
  10 C :   -0.037603
  11 C :   -0.032596
  12 N :   -0.073740
  13 H :    0.030128
  14 H :    0.030206
  15 H :    0.060279
  16 H :    0.035436
  17 H :    0.036480
  18 H :    0.036556
  19 H :    0.035453
  20 H :    0.060163

  Mayer bond orders larger than 0.100000
B(  0-C ,  1-S ) :   1.1824 B(  0-C ,  4-C ) :   1.5387 B(  0-C , 13-H ) :   0.9661
B(  1-S ,  2-C ) :   1.1826 B(  2-C ,  3-C ) :   1.5385 B(  2-C , 14-H ) :   0.9660
B(  3-C ,  4-C ) :   1.3263 B(  3-C , 10-C ) :   0.9853 B(  4-C ,  5-C ) :   0.9847
B(  5-C ,  6-C ) :   1.0405 B(  5-C ,  8-C ) :   1.0763 B(  5-C , 15-H ) :   0.8629
B(  6-C ,  7-N ) :   3.0781 B(  8-C ,  9-C ) :   1.0565 B(  8-C , 16-H ) :   0.9354
B(  8-C , 17-H ) :   0.9328 B(  9-C , 10-C ) :   1.0761 B(  9-C , 18-H ) :   0.9329
B(  9-C , 19-H ) :   0.9355 B( 10-C , 11-C ) :   1.0403 B( 10-C , 20-H ) :   0.8624
B( 11-C , 12-N ) :   3.0778

Dispersion correction           -0.049276397
FINAL SINGLE POINT ENERGY      -893.110111694523

DIPOLE MOMENT
-------------
                                X             Y             Z
Electronic contribution:      7.87908      -0.06302      -0.14625
Nuclear contribution   :     -7.54210       0.05720       0.13919
                        -----------------------------------------
Total Dipole Moment    :      0.33698      -0.00583      -0.00707
                        -----------------------------------------
Magnitude (a.u.)       :      0.33710
Magnitude (Debye)      :      0.85684

Rotational constants in cm-1:     0.026455     0.025948     0.014689
Rotational constants in MHz :   793.097273   777.907180   440.364271

                             ****ORCA TERMINATED NORMALLY****
TOTAL RUN TIME: 0 days 0 hours 13 minutes 21 seconds 422 msec
