                         Program Version 4.2.0 -  RELEASE  -
|  1> # ORCA input file
|  2> # SCF done        -37.920709660966          0.000725390795
|  3> ! B3LYP/G D3BJ Opt RIJCOSX def2-SVP def2/J
|  4> * xyz 0 1
|  5>    C       -0.93323        -0.05034         0.80997
|  6>    O       -1.03261        -1.39963         0.92225
|  7>    C       -0.02878        -1.89826         0.20872
|  8>    C        0.73341        -0.88334        -0.37424
|  9>    C        0.12630         0.32543         0.02979
| 10>    C        1.82600        -1.45908        -1.14812
| 11>    S        2.97223        -0.68421        -2.00471
| 12>    C        1.65206        -2.90173        -0.97625
| 13>    C        0.54185        -3.15511        -0.16609
| 14>    O        0.35665        -4.45775         0.00775
| 15>    C        1.35291        -5.08604        -0.69004
| 16>    C        2.17472        -4.15877        -1.31371
| 17>    C        1.37647        -6.52223        -0.66137
| 18>    C        2.28596        -7.28402        -1.26471
| 19>    H       -1.67023         0.52998         1.32777
| 20>    H        0.42143         1.32467        -0.21415
| 21>    H        3.02736        -4.37275        -1.92347
| 22>    H        0.57169        -6.96787        -0.09252
| 23>    H        3.09448        -6.86250        -1.83580
| 24>    H        2.24296        -8.35660        -1.20600
| 25> *
| 26>
| 27>                          ****END OF INPUT****
 Total Charge           Charge          ....    0
 Multiplicity           Mult            ....    1
 Number of Electrons    NEL             ....  104
Dispersion correction           -0.042040588
FINAL SINGLE POINT ENERGY      -970.825524682764
Dispersion correction            ... done
Dispersion correction           -0.042115233
FINAL SINGLE POINT ENERGY      -970.829241215516
Dispersion correction            ... done
Dispersion correction           -0.042092618
FINAL SINGLE POINT ENERGY      -970.829655676570
Dispersion correction            ... done
FINAL SINGLE POINT ENERGY      -970.829741707927
FINAL SINGLE POINT ENERGY      -970.829791029367
Dispersion correction            ... done
Dispersion correction           -0.042056522
FINAL SINGLE POINT ENERGY      -970.829797356307
Dispersion correction            ... done
Dispersion correction           -0.042060051
FINAL SINGLE POINT ENERGY      -970.829797879723
Dispersion correction            ... done
                    ***********************HURRAY********************

CARTESIAN COORDINATES (ANGSTROEM)
---------------------------------
  C     -0.970022   -0.036742    0.825108
  O     -1.032261   -1.415537    0.915434
  C     -0.008084   -1.875031    0.197207
  C      0.730246   -0.848651   -0.368964
  C      0.092595    0.358479    0.048612
  C      1.854028   -1.416813   -1.154051
  S      3.013521   -0.624839   -1.984076
  C      1.679013   -2.886247   -0.997022
  C      0.581016   -3.140128   -0.189059
  O      0.387140   -4.443349   -0.007482
  C      1.390558   -5.094240   -0.723113
  C      2.202751   -4.156827   -1.347247
  C      1.380854   -6.535565   -0.652576
  C      2.258574   -7.351739   -1.260976
  H     -1.745520    0.498503    1.363542
  H      0.374402    1.380139   -0.194709
  H      3.065616   -4.375943   -1.970605
  H      0.577788   -6.954795   -0.038106
  H      3.075568   -6.965375   -1.877119
  H      2.183845   -8.435450   -1.149728

 Multiplicity           Mult            ....    1
 Number of Electrons    NEL             ....  104
 Basis Dimension        Dim             ....  230

ORBITAL ENERGIES
----------------

  NO   OCC          E(Eh)            E(eV)
   0   2.0000     -88.833648     -2417.2864
   1   2.0000     -19.231475      -523.3150
   2   2.0000     -19.229240      -523.2542
   3   2.0000     -10.270939      -279.4865
   4   2.0000     -10.269966      -279.4600
   5   2.0000     -10.267779      -279.4005
   6   2.0000     -10.258960      -279.1605
   7   2.0000     -10.256986      -279.1068
   8   2.0000     -10.213519      -277.9240
   9   2.0000     -10.211583      -277.8713
  10   2.0000     -10.210801      -277.8500
  11   2.0000     -10.204191      -277.6702
  12   2.0000     -10.203362      -277.6476
  13   2.0000     -10.198283      -277.5094
  14   2.0000      -7.928956      -215.7579
  15   2.0000      -5.897396      -160.4763
  16   2.0000      -5.896085      -160.4406
  17   2.0000      -5.886880      -160.1902
  18   2.0000      -1.133757       -30.8511
  19   2.0000      -1.127850       -30.6904
  20   2.0000      -0.890173       -24.2228
  21   2.0000      -0.818326       -22.2678
  22   2.0000      -0.805744       -21.9254
  23   2.0000      -0.776432       -21.1278
  24   2.0000      -0.774023       -21.0622
  25   2.0000      -0.718483       -19.5509
  26   2.0000      -0.676744       -18.4151
  27   2.0000      -0.629195       -17.1213
  28   2.0000      -0.603148       -16.4125
  29   2.0000      -0.581609       -15.8264
  30   2.0000      -0.566813       -15.4238
  31   2.0000      -0.563321       -15.3287
  32   2.0000      -0.518516       -14.1095
  33   2.0000      -0.505726       -13.7615
  34   2.0000      -0.499235       -13.5849
  35   2.0000      -0.471253       -12.8234
  36   2.0000      -0.462625       -12.5887
  37   2.0000      -0.441358       -12.0100
  38   2.0000      -0.433860       -11.8059
  39   2.0000      -0.426950       -11.6179
  40   2.0000      -0.421214       -11.4618
  41   2.0000      -0.413527       -11.2526
  42   2.0000      -0.393723       -10.7137
  43   2.0000      -0.377375       -10.2689
  44   2.0000      -0.373069       -10.1517
  45   2.0000      -0.363495        -9.8912
  46   2.0000      -0.328782        -8.9466
  47   2.0000      -0.301278        -8.1982
  48   2.0000      -0.277947        -7.5633
  49   2.0000      -0.269381        -7.3302
  50   2.0000      -0.229962        -6.2576
  51   2.0000      -0.201386        -5.4800
  52   0.0000      -0.117759        -3.2044
  53   0.0000      -0.052494        -1.4284
  54   0.0000       0.002698         0.0734
  55   0.0000       0.065026         1.7695
  56   0.0000       0.069770         1.8985

MULLIKEN ATOMIC CHARGES
-----------------------
   0 C :    0.139103
   1 O :   -0.188141
   2 C :    0.111326
   3 C :    0.004627
   4 C :   -0.032368
   5 C :   -0.010493
   6 S :   -0.093148
   7 C :    0.022793
   8 C :    0.129906
   9 O :   -0.196547
  10 C :    0.168327
  11 C :   -0.082050
  12 C :   -0.004721
  13 C :   -0.038371
  14 H :    0.015327
  15 H :    0.000284
  16 H :   -0.006035
  17 H :    0.005059
  18 H :    0.021182
  19 H :    0.033941
Sum of atomic charges:   -0.0000000

LOEWDIN ATOMIC CHARGES
----------------------
   0 C :    0.039426
   1 O :    0.021109
   2 C :    0.025923
   3 C :   -0.093742
   4 C :   -0.040271
   5 C :   -0.125187
   6 S :    0.098211
   7 C :   -0.085983
   8 C :    0.025398
   9 O :    0.020236
  10 C :    0.033254
  11 C :   -0.029998
  12 C :   -0.039223
  13 C :   -0.046764
  14 H :    0.026608
  15 H :    0.039874
  16 H :    0.038121
  17 H :    0.039217
  18 H :    0.023881
  19 H :    0.029911

  Mayer bond orders larger than 0.100000
B(  0-C ,  1-O ) :   1.0664 B(  0-C ,  4-C ) :   1.5198 B(  0-C , 14-H ) :   1.0037
B(  1-O ,  2-C ) :   1.2090 B(  2-C ,  3-C ) :   1.4403 B(  2-C ,  8-C ) :   1.0864
B(  3-C ,  4-C ) :   1.2315 B(  3-C ,  5-C ) :   1.0234 B(  4-C , 15-H ) :   1.0051
B(  5-C ,  6-S ) :   1.7441 B(  5-C ,  7-C ) :   1.0028 B(  7-C ,  8-C ) :   1.4283
B(  7-C , 11-C ) :   1.2401 B(  8-C ,  9-O ) :   1.2089 B(  9-O , 10-C ) :   1.0429
B( 10-C , 11-C ) :   1.4443 B( 10-C , 12-C ) :   1.1326 B( 11-C , 16-H ) :   1.0109
B( 12-C , 13-C ) :   1.8940 B( 12-C , 17-H ) :   0.9481 B( 13-C , 18-H ) :   0.9512
B( 13-C , 19-H ) :   0.9466

Dispersion correction           -0.042061874
FINAL SINGLE POINT ENERGY      -970.829799003352

DIPOLE MOMENT
-------------
                                X             Y             Z
Electronic contribution:     -1.00883       8.33640       0.48887
Nuclear contribution   :      0.61361      -8.49182      -0.20206
                        -----------------------------------------
Total Dipole Moment    :     -0.39523      -0.15542       0.28682
                        -----------------------------------------
Magnitude (a.u.)       :      0.51247
Magnitude (Debye)      :      1.30259

Rotational constants in cm-1:     0.035484     0.014661     0.010375
Rotational constants in MHz :  1063.771152   439.527573   311.028436

                             ****ORCA TERMINATED NORMALLY****
TOTAL RUN TIME: 0 days 0 hours 11 minutes 27 seconds 912 msec
