                         Program Version 4.2.0 -  RELEASE  -
|  1> # ORCA input file
|  2> # SCF done        -22.853134229207          0.000373665600
|  3> ! B3LYP/G D3BJ Opt RIJCOSX def2-SVP def2/J
|  4> * xyz 0 1
|  5>    C       -1.25417        -0.13559         0.00259
|  6>    S       -0.46967         1.38742        -0.00053
|  7>    C        1.07236         0.64098        -0.00309
|  8>    C        0.99096        -0.72328        -0.00154
|  9>    C       -0.36963        -1.17744         0.00165
| 10>    C       -0.74458        -2.53496         0.00401
| 11>    N       -1.05366        -3.63786         0.00555
| 12>    C        2.10622        -1.58332        -0.00295
| 13>    N        3.01599        -2.27919        -0.00496
| 14>    H       -2.32488        -0.19518         0.00504
| 15>    H        1.96417         1.23649        -0.00551
| 16> *
| 17>
| 18>                          ****END OF INPUT****
 Total Charge           Charge          ....    0
 Multiplicity           Mult            ....    1
 Number of Electrons    NEL             ....   68
Dispersion correction           -0.024848696
FINAL SINGLE POINT ENERGY      -737.145963248091
Dispersion correction            ... done
Dispersion correction           -0.024681061
FINAL SINGLE POINT ENERGY      -737.148505728228
Dispersion correction            ... done
Dispersion correction           -0.024651838
FINAL SINGLE POINT ENERGY      -737.148546677995
Dispersion correction            ... done
FINAL SINGLE POINT ENERGY      -737.148547131690
FINAL SINGLE POINT ENERGY      -737.148539032160
Dispersion correction            ... done
Dispersion correction           -0.024631252
FINAL SINGLE POINT ENERGY      -737.148527784547
Dispersion correction            ... done
Dispersion correction           -0.024632913
FINAL SINGLE POINT ENERGY      -737.148531157098
Dispersion correction            ... done
                    ***********************HURRAY********************

CARTESIAN COORDINATES (ANGSTROEM)
---------------------------------
  C     -1.268480   -0.131986    0.002656
  S     -0.472470    1.391793   -0.000339
  C      1.081172    0.650591   -0.003174
  C      0.997609   -0.725577   -0.001441
  C     -0.375649   -1.182953    0.001876
  C     -0.774935   -2.553130    0.004083
  N     -1.115057   -3.662588    0.005614
  C      2.141257   -1.580189   -0.003063
  N      3.083148   -2.258088   -0.005086
  H     -2.355034   -0.196728    0.004930
  H      1.991548    1.246925   -0.005797

 Multiplicity           Mult            ....    1
 Number of Electrons    NEL             ....   68
 Basis Dimension        Dim             ....  140

ORBITAL ENERGIES
----------------

  NO   OCC          E(Eh)            E(eV)
   0   2.0000     -88.931697     -2419.9545
   1   2.0000     -14.347439      -390.4137
   2   2.0000     -14.347242      -390.4083
   3   2.0000     -10.272839      -279.5382
   4   2.0000     -10.272612      -279.5320
   5   2.0000     -10.270253      -279.4678
   6   2.0000     -10.269996      -279.4608
   7   2.0000     -10.247983      -278.8618
   8   2.0000     -10.247720      -278.8546
   9   2.0000      -8.026920      -218.4236
  10   2.0000      -5.994923      -163.1302
  11   2.0000      -5.990552      -163.0112
  12   2.0000      -5.988598      -162.9580
  13   2.0000      -0.946170       -25.7466
  14   2.0000      -0.913445       -24.8561
  15   2.0000      -0.910491       -24.7757
  16   2.0000      -0.811027       -22.0692
  17   2.0000      -0.791321       -21.5329
  18   2.0000      -0.660127       -17.9630
  19   2.0000      -0.641001       -17.4425
  20   2.0000      -0.610925       -16.6241
  21   2.0000      -0.508938       -13.8489
  22   2.0000      -0.485425       -13.2091
  23   2.0000      -0.458780       -12.4840
  24   2.0000      -0.456418       -12.4198
  25   2.0000      -0.414898       -11.2900
  26   2.0000      -0.382694       -10.4136
  27   2.0000      -0.376714       -10.2509
  28   2.0000      -0.376524       -10.2457
  29   2.0000      -0.375726       -10.2240
  30   2.0000      -0.358842        -9.7646
  31   2.0000      -0.352638        -9.5958
  32   2.0000      -0.294821        -8.0225
  33   2.0000      -0.290038        -7.8923
  34   0.0000      -0.082136        -2.2350
  35   0.0000      -0.062252        -1.6940
  36   0.0000      -0.020566        -0.5596
  37   0.0000       0.007353         0.2001
  38   0.0000       0.041153         1.1198

MULLIKEN ATOMIC CHARGES
-----------------------
   0 C :   -0.095558
   1 S :    0.167973
   2 C :   -0.090436
   3 C :   -0.027322
   4 C :   -0.028061
   5 C :   -0.159632
   6 N :    0.141676
   7 C :   -0.161839
   8 N :    0.143472
   9 H :    0.056351
  10 H :    0.053375
Sum of atomic charges:   -0.0000000

LOEWDIN ATOMIC CHARGES
----------------------
   0 C :   -0.146993
   1 S :    0.499176
   2 C :   -0.145362
   3 C :   -0.081370
   4 C :   -0.081703
   5 C :   -0.028218
   6 N :   -0.037689
   7 C :   -0.028523
   8 N :   -0.037249
   9 H :    0.044113
  10 H :    0.043817

  Mayer bond orders larger than 0.100000
B(  0-C ,  1-S ) :   1.1929 B(  0-C ,  4-C ) :   1.5219 B(  0-C ,  9-H ) :   0.9696
B(  1-S ,  2-C ) :   1.1913 B(  2-C ,  3-C ) :   1.5265 B(  2-C , 10-H ) :   0.9700
B(  3-C ,  4-C ) :   1.2884 B(  3-C ,  7-C ) :   1.1276 B(  4-C ,  5-C ) :   1.1314
B(  5-C ,  6-N ) :   3.0081 B(  7-C ,  8-N ) :   3.0107

Dispersion correction           -0.024633291
FINAL SINGLE POINT ENERGY      -737.148531630974

DIPOLE MOMENT
-------------
                                X             Y             Z
Electronic contribution:     -0.01797       0.05069       0.00077
Nuclear contribution   :     -0.78312       2.34739      -0.00090
                        -----------------------------------------
Total Dipole Moment    :     -0.80110       2.39808      -0.00013
                        -----------------------------------------
Magnitude (a.u.)       :      2.52834
Magnitude (Debye)      :      6.42654

Rotational constants in cm-1:     0.066369     0.042797     0.026019
Rotational constants in MHz :  1989.706618  1283.012701   780.029890

                             ****ORCA TERMINATED NORMALLY****
TOTAL RUN TIME: 0 days 0 hours 4 minutes 22 seconds 938 msec
