                         Program Version 4.2.0 -  RELEASE  -
|  1> # ORCA input file
|  2> # SCF done        -21.417611857786          0.000441356450
|  3> ! B3LYP/G D3BJ Opt RIJCOSX def2-SVP def2/J
|  4> * xyz 0 1
|  5>    C        1.68478         0.98355        -0.08759
|  6>    S        2.06726        -0.79099         0.29499
|  7>    C        0.30127        -0.77254        -0.24638
|  8>    C        0.22377         0.67261         0.21522
|  9>    N       -1.04140         1.15439        -0.30166
| 10>    C       -1.90808        -0.01477        -0.01676
| 11>    C       -1.02714        -1.30311         0.22797
| 12>    H        1.90097         1.18530        -1.13543
| 13>    H        2.18490         1.69703         0.55897
| 14>    H        0.35428        -0.83150        -1.33888
| 15>    H        0.12037         0.68062         1.30817
| 16>    H       -0.97490         1.30415        -1.30578
| 17>    H       -2.60979        -0.16662        -0.83591
| 18>    H       -2.47857         0.21521         0.88538
| 19>    H       -1.39217        -2.15687        -0.33840
| 20>    H       -1.00971        -1.55770         1.28643
| 21> *
| 22>
| 23>                          ****END OF INPUT****
 Total Charge           Charge          ....    0
 Multiplicity           Mult            ....    1
 Number of Electrons    NEL             ....   62
Dispersion correction           -0.028365363
FINAL SINGLE POINT ENERGY      -648.558200872310
Dispersion correction            ... done
Dispersion correction           -0.028157214
FINAL SINGLE POINT ENERGY      -648.560170591665
Dispersion correction            ... done
Dispersion correction           -0.028108193
FINAL SINGLE POINT ENERGY      -648.560420224998
Dispersion correction            ... done
FINAL SINGLE POINT ENERGY      -648.560458438655
Dispersion correction            ... done
Dispersion correction           -0.028116064
FINAL SINGLE POINT ENERGY      -648.560466219378
Dispersion correction            ... done
Dispersion correction           -0.028119870
FINAL SINGLE POINT ENERGY      -648.560468686511
Dispersion correction            ... done
                    ***********************HURRAY********************

CARTESIAN COORDINATES (ANGSTROEM)
---------------------------------
  C      1.697992    0.996446   -0.091623
  S      2.095186   -0.808031    0.310082
  C      0.304969   -0.776682   -0.234974
  C      0.231982    0.664468    0.211537
  N     -1.037407    1.167428   -0.289491
  C     -1.925691   -0.006516   -0.019634
  C     -1.033900   -1.310313    0.231742
  H      1.908821    1.193825   -1.154302
  H      2.202164    1.735805    0.543613
  H      0.347276   -0.813102   -1.337639
  H      0.160227    0.655364    1.313980
  H     -0.972298    1.302849   -1.298462
  H     -2.619191   -0.148896   -0.861120
  H     -2.536403    0.191950    0.874586
  H     -1.403698   -2.179547   -0.329605
  H     -1.024189   -1.566289    1.301650

 Multiplicity           Mult            ....    1
 Number of Electrons    NEL             ....   62
 Basis Dimension        Dim             ....  147

ORBITAL ENERGIES
----------------

  NO   OCC          E(Eh)            E(eV)
   0   2.0000     -88.833680     -2417.2873
   1   2.0000     -14.315763      -389.5517
   2   2.0000     -10.222362      -278.1646
   3   2.0000     -10.219559      -278.0883
   4   2.0000     -10.218362      -278.0558
   5   2.0000     -10.208924      -277.7989
   6   2.0000     -10.196860      -277.4707
   7   2.0000      -7.927992      -215.7316
   8   2.0000      -5.897038      -160.4666
   9   2.0000      -5.894724      -160.4036
  10   2.0000      -5.885657      -160.1569
  11   2.0000      -0.928637       -25.2695
  12   2.0000      -0.828098       -22.5337
  13   2.0000      -0.752275       -20.4704
  14   2.0000      -0.666543       -18.1375
  15   2.0000      -0.646852       -17.6017
  16   2.0000      -0.592341       -16.1184
  17   2.0000      -0.562986       -15.3196
  18   2.0000      -0.499138       -13.5822
  19   2.0000      -0.467062       -12.7094
  20   2.0000      -0.455296       -12.3892
  21   2.0000      -0.444699       -12.1009
  22   2.0000      -0.409008       -11.1297
  23   2.0000      -0.394726       -10.7410
  24   2.0000      -0.359097        -9.7715
  25   2.0000      -0.346887        -9.4393
  26   2.0000      -0.342554        -9.3214
  27   2.0000      -0.334402        -9.0995
  28   2.0000      -0.305047        -8.3008
  29   2.0000      -0.231323        -6.2946
  30   2.0000      -0.222957        -6.0670
  31   0.0000       0.008984         0.2445
  32   0.0000       0.034176         0.9300
  33   0.0000       0.053011         1.4425
  34   0.0000       0.072777         1.9804
  35   0.0000       0.086190         2.3454

MULLIKEN ATOMIC CHARGES
-----------------------
   0 C :    0.031911
   1 S :   -0.080024
   2 C :   -0.138417
   3 C :   -0.034389
   4 N :   -0.200232
   5 C :    0.090637
   6 C :    0.081758
   7 H :    0.035179
   8 H :    0.045569
   9 H :    0.026683
  10 H :    0.018015
  11 H :    0.090325
  12 H :    0.009026
  13 H :    0.012330
  14 H :    0.005234
  15 H :    0.006397
Sum of atomic charges:   -0.0000000

LOEWDIN ATOMIC CHARGES
----------------------
   0 C :   -0.087211
   1 S :    0.167260
   2 C :   -0.128793
   3 C :   -0.028961
   4 N :   -0.115871
   5 C :    0.037917
   6 C :   -0.047258
   7 H :    0.017595
   8 H :    0.019952
   9 H :    0.010311
  10 H :    0.020821
  11 H :    0.049650
  12 H :    0.018627
  13 H :    0.019649
  14 H :    0.021194
  15 H :    0.025119

  Mayer bond orders larger than 0.100000
B(  0-C ,  1-S ) :   0.9941 B(  0-C ,  3-C ) :   1.0115 B(  0-C ,  7-H ) :   0.9414
B(  0-C ,  8-H ) :   0.9536 B(  1-S ,  2-C ) :   0.9707 B(  2-C ,  3-C ) :   0.9848
B(  2-C ,  6-C ) :   1.0902 B(  2-C ,  9-H ) :   0.9263 B(  3-C ,  4-N ) :   1.0721
B(  3-C , 10-H ) :   0.9263 B(  4-N ,  5-C ) :   1.0586 B(  4-N , 11-H ) :   0.9442
B(  5-C ,  6-C ) :   1.0130 B(  5-C , 12-H ) :   0.9535 B(  5-C , 13-H ) :   0.9502
B(  6-C , 14-H ) :   0.9398 B(  6-C , 15-H ) :   0.9328

Dispersion correction           -0.028120821
FINAL SINGLE POINT ENERGY      -648.560470547638

DIPOLE MOMENT
-------------
                                X             Y             Z
Electronic contribution:      6.24111      -1.38462       0.88662
Nuclear contribution   :     -6.68173       1.42948      -1.34497
                        -----------------------------------------
Total Dipole Moment    :     -0.44062       0.04486      -0.45836
                        -----------------------------------------
Magnitude (a.u.)       :      0.63738
Magnitude (Debye)      :      1.62008

Rotational constants in cm-1:     0.153442     0.060430     0.046454
Rotational constants in MHz :  4600.080910  1811.650759  1392.651012

                             ****ORCA TERMINATED NORMALLY****
TOTAL RUN TIME: 0 days 0 hours 4 minutes 10 seconds 126 msec
