                         Program Version 4.2.0 -  RELEASE  -
|  1> # ORCA input file
|  2> # SCF done        -46.844203375854          0.000378070398
|  3> ! B3LYP/G D3BJ Opt RIJCOSX def2-SVP def2/J
|  4> * xyz 0 1
|  5>    C       -0.00997         1.44454        -0.00975
|  6>    C        1.15813         0.69803        -0.00676
|  7>    C        2.58088         1.14024        -0.00734
|  8>    O        3.03464         2.23741        -0.01059
|  9>    O        3.35263         0.00232        -0.00341
| 10>    C        2.58399        -1.13781        -0.00010
| 11>    O        3.04086        -2.23368         0.00351
| 12>    C        1.16008        -0.69953        -0.00226
| 13>    C       -0.00593        -1.44933        -0.00035
| 14>    C       -1.17403        -0.70279        -0.00325
| 15>    C       -1.17598         0.69476        -0.00783
| 16>    C       -2.59996         1.13298        -0.00981
| 17>    O       -3.05678         2.22889        -0.01361
| 18>    O       -3.36853        -0.00708        -0.00626
| 19>    C       -2.59669        -1.14506        -0.00224
| 20>    O       -3.05051        -2.24220         0.00135
| 21>    H       -0.01148         2.52262        -0.01325
| 22>    H       -0.00442        -2.52740         0.00316
| 23> *
| 24>
| 25>                          ****END OF INPUT****
 Total Charge           Charge          ....    0
 Multiplicity           Mult            ....    1
 Number of Electrons    NEL             ....  110
Dispersion correction           -0.041643710
FINAL SINGLE POINT ENERGY      -833.075563107611
Dispersion correction            ... done
Dispersion correction           -0.041566372
FINAL SINGLE POINT ENERGY      -833.076643802001
Dispersion correction            ... done
Dispersion correction           -0.041560111
FINAL SINGLE POINT ENERGY      -833.076763439666
Dispersion correction            ... done
Dispersion correction           -0.041566875
FINAL SINGLE POINT ENERGY      -833.076787698732
Dispersion correction            ... done
Dispersion correction           -0.041571254
FINAL SINGLE POINT ENERGY      -833.076783540524
Dispersion correction            ... done
                    ***********************HURRAY********************

CARTESIAN COORDINATES (ANGSTROEM)
---------------------------------
  C     -0.009955    1.452549   -0.008720
  C      1.162623    0.699271   -0.006337
  C      2.584969    1.148259   -0.007771
  O      3.042904    2.246305   -0.012026
  O      3.369693    0.002340   -0.003490
  C      2.588151   -1.145783    0.000159
  O      3.049239   -2.242483    0.004840
  C      1.164552   -0.700811   -0.002559
  C     -0.005943   -1.457346   -0.001166
  C     -1.178520   -0.704064   -0.003519
  C     -1.180449    0.696017   -0.007339
  C     -2.604049    1.140992   -0.010103
  O     -3.065110    2.237704   -0.015020
  O     -3.385589   -0.007113   -0.006367
  C     -2.600864   -1.153049   -0.001970
  O     -3.058824   -2.251080    0.002479
  H     -0.011448    2.544345   -0.011416
  H     -0.004450   -2.549142    0.001533

 Multiplicity           Mult            ....    1
 Number of Electrons    NEL             ....  110
 Basis Dimension        Dim             ....  234

ORBITAL ENERGIES
----------------

  NO   OCC          E(Eh)            E(eV)
   0   2.0000     -19.231825      -523.3246
   1   2.0000     -19.231814      -523.3243
   2   2.0000     -19.181855      -521.9648
   3   2.0000     -19.181853      -521.9648
   4   2.0000     -19.181826      -521.9640
   5   2.0000     -19.181823      -521.9639
   6   2.0000     -10.371553      -282.2243
   7   2.0000     -10.371526      -282.2236
   8   2.0000     -10.371458      -282.2217
   9   2.0000     -10.371453      -282.2216
  10   2.0000     -10.279323      -279.7146
  11   2.0000     -10.279176      -279.7106
  12   2.0000     -10.275848      -279.6200
  13   2.0000     -10.275809      -279.6190
  14   2.0000     -10.275516      -279.6110
  15   2.0000     -10.275474      -279.6099
  16   2.0000      -1.165249       -31.7080
  17   2.0000      -1.164968       -31.7004
  18   2.0000      -1.101335       -29.9689
  19   2.0000      -1.101248       -29.9665
  20   2.0000      -1.063602       -28.9421
  21   2.0000      -1.063569       -28.9412
  22   2.0000      -0.942650       -25.6508
  23   2.0000      -0.858231       -23.3537
  24   2.0000      -0.831890       -22.6369
  25   2.0000      -0.742034       -20.1918
  26   2.0000      -0.736789       -20.0490
  27   2.0000      -0.710689       -19.3388
  28   2.0000      -0.673875       -18.3371
  29   2.0000      -0.634943       -17.2777
  30   2.0000      -0.600708       -16.3461
  31   2.0000      -0.591671       -16.1002
  32   2.0000      -0.551156       -14.9977
  33   2.0000      -0.540774       -14.7152
  34   2.0000      -0.533127       -14.5071
  35   2.0000      -0.516664       -14.0591
  36   2.0000      -0.512205       -13.9378
  37   2.0000      -0.505088       -13.7441
  38   2.0000      -0.494875       -13.4662
  39   2.0000      -0.485281       -13.2052
  40   2.0000      -0.473971       -12.8974
  41   2.0000      -0.455914       -12.4061
  42   2.0000      -0.452674       -12.3179
  43   2.0000      -0.449587       -12.2339
  44   2.0000      -0.442351       -12.0370
  45   2.0000      -0.440231       -11.9793
  46   2.0000      -0.430028       -11.7017
  47   2.0000      -0.367877       -10.0104
  48   2.0000      -0.365673        -9.9505
  49   2.0000      -0.349260        -9.5039
  50   2.0000      -0.344670        -9.3790
  51   2.0000      -0.338779        -9.2187
  52   2.0000      -0.338053        -9.1989
  53   2.0000      -0.325954        -8.8696
  54   2.0000      -0.321568        -8.7503
  55   0.0000      -0.150011        -4.0820
  56   0.0000      -0.117211        -3.1895
  57   0.0000      -0.085244        -2.3196
  58   0.0000       0.012519         0.3407
  59   0.0000       0.024918         0.6781

MULLIKEN ATOMIC CHARGES
-----------------------
   0 C :   -0.046774
   1 C :   -0.025856
   2 C :    0.257716
   3 O :   -0.101840
   4 O :   -0.248740
   5 C :    0.257722
   6 O :   -0.101801
   7 C :   -0.025958
   8 C :   -0.046795
   9 C :   -0.025837
  10 C :   -0.025962
  11 C :    0.257715
  12 O :   -0.101810
  13 O :   -0.248741
  14 C :    0.257717
  15 O :   -0.101835
  16 H :    0.035544
  17 H :    0.035536
Sum of atomic charges:    0.0000000

LOEWDIN ATOMIC CHARGES
----------------------
   0 C :    0.052202
   1 C :   -0.041515
   2 C :    0.106051
   3 O :   -0.086502
   4 O :   -0.066819
   5 C :    0.106056
   6 O :   -0.086479
   7 C :   -0.041525
   8 C :    0.052203
   9 C :   -0.041517
  10 C :   -0.041522
  11 C :    0.106049
  12 O :   -0.086484
  13 O :   -0.066819
  14 C :    0.106057
  15 O :   -0.086495
  16 H :    0.058531
  17 H :    0.058530

  Mayer bond orders larger than 0.100000
B(  0-C ,  1-C ) :   1.3340 B(  0-C ,  8-C ) :   0.1058 B(  0-C , 10-C ) :   1.3339
B(  0-C , 16-H ) :   1.0193 B(  1-C ,  2-C ) :   0.8985 B(  1-C ,  7-C ) :   1.3600
B(  2-C ,  3-O ) :   2.2701 B(  2-C ,  4-O ) :   1.0302 B(  4-O ,  5-C ) :   1.0301
B(  5-C ,  6-O ) :   2.2701 B(  5-C ,  7-C ) :   0.8985 B(  7-C ,  8-C ) :   1.3339
B(  8-C ,  9-C ) :   1.3340 B(  8-C , 17-H ) :   1.0193 B(  9-C , 10-C ) :   1.3600
B(  9-C , 14-C ) :   0.8985 B( 10-C , 11-C ) :   0.8985 B( 11-C , 12-O ) :   2.2701
B( 11-C , 13-O ) :   1.0301 B( 13-O , 14-C ) :   1.0301 B( 14-C , 15-O ) :   2.2701

Dispersion correction           -0.041570193
FINAL SINGLE POINT ENERGY      -833.076786629699

DIPOLE MOMENT
-------------
                                X             Y             Z
Electronic contribution:     -0.00001      -0.00006       0.00006
Nuclear contribution   :     -0.00000      -0.00001      -0.00002
                        -----------------------------------------
Total Dipole Moment    :     -0.00001      -0.00007       0.00004
                        -----------------------------------------
Magnitude (a.u.)       :      0.00008
Magnitude (Debye)      :      0.00021

Rotational constants in cm-1:     0.035636     0.012475     0.009240
Rotational constants in MHz :  1068.331717   373.997586   277.019629

                             ****ORCA TERMINATED NORMALLY****
TOTAL RUN TIME: 0 days 0 hours 8 minutes 12 seconds 282 msec
