                         Program Version 4.2.0 -  RELEASE  -
|  1> # ORCA input file
|  2> # SCF done        -25.639137548680          0.000775971368
|  3> ! B3LYP/G D3BJ Opt RIJCOSX def2-SVP def2/J
|  4> * xyz 0 1
|  5>    C       -0.70114        -1.21680        -0.15210
|  6>    C       -1.12733         0.07487        -0.03897
|  7>    C       -2.49702         0.65528        -0.00467
|  8>    N       -0.01581         0.86859         0.04815
|  9>    C        1.11184         0.10791        -0.00751
| 10>    C        2.46967         0.71423         0.06870
| 11>    C        0.72168        -1.21320        -0.13382
| 12>    C        1.61470        -2.34466        -0.22443
| 13>    C        1.24303        -3.61541        -0.33876
| 14>    H       -1.33019        -2.07950        -0.23944
| 15>    H       -3.23416        -0.14054        -0.05717
| 16>    H       -2.65575         1.33065        -0.84677
| 17>    H       -2.65865         1.21817         0.91569
| 18>    H       -0.03148         1.87121         0.13992
| 19>    H        2.39763         1.79857         0.12862
| 20>    H        3.05882         0.45598        -0.81101
| 21>    H        3.00578         0.35573         0.94766
| 22>    H        2.66919        -2.09921        -0.19083
| 23>    H        0.20784        -3.90559        -0.37614
| 24>    H        1.96427        -4.41230        -0.40060
| 25> *
| 26>
| 27>                          ****END OF INPUT****
 Total Charge           Charge          ....    0
 Multiplicity           Mult            ....    1
 Number of Electrons    NEL             ....   66
Dispersion correction           -0.032154565
FINAL SINGLE POINT ENERGY      -365.979156695635
Dispersion correction            ... done
Dispersion correction           -0.031969966
FINAL SINGLE POINT ENERGY      -365.982102757141
Dispersion correction            ... done
Dispersion correction           -0.031938674
FINAL SINGLE POINT ENERGY      -365.982195827049
Dispersion correction            ... done
FINAL SINGLE POINT ENERGY      -365.982209025968
FINAL SINGLE POINT ENERGY      -365.982202525322
FINAL SINGLE POINT ENERGY      -365.982170492955
FINAL SINGLE POINT ENERGY      -365.982042030188
FINAL SINGLE POINT ENERGY      -365.981967428419
FINAL SINGLE POINT ENERGY      -365.982082569403
FINAL SINGLE POINT ENERGY      -365.982301142309
FINAL SINGLE POINT ENERGY      -365.982561196707
FINAL SINGLE POINT ENERGY      -365.982571527802
FINAL SINGLE POINT ENERGY      -365.982599740078
FINAL SINGLE POINT ENERGY      -365.982644060939
FINAL SINGLE POINT ENERGY      -365.982681485221
FINAL SINGLE POINT ENERGY      -365.982721606911
FINAL SINGLE POINT ENERGY      -365.982745122589
Dispersion correction            ... done
Dispersion correction           -0.031918547
FINAL SINGLE POINT ENERGY      -365.982775777318
Dispersion correction            ... done
Dispersion correction           -0.031918693
FINAL SINGLE POINT ENERGY      -365.982770788100
Dispersion correction            ... done
                    ***********************HURRAY********************

CARTESIAN COORDINATES (ANGSTROEM)
---------------------------------
  C     -0.712483   -1.218619   -0.130271
  C     -1.144223    0.088703   -0.075397
  C     -2.517146    0.674209   -0.069645
  N     -0.013997    0.880915   -0.008705
  C      1.127761    0.113545   -0.020523
  C      2.483080    0.736040    0.027036
  C      0.725974   -1.220619   -0.099307
  C      1.614708   -2.372553   -0.147044
  C      1.252425   -3.664427   -0.213285
  H     -1.357398   -2.092614   -0.188631
  H     -3.263384   -0.119044   -0.213573
  H     -2.657800    1.413251   -0.877551
  H     -2.749484    1.185164    0.882265
  H     -0.023296    1.890512    0.052463
  H      2.589046    1.429753    0.879354
  H      2.710687    1.309094   -0.889915
  H      3.258529   -0.034257    0.134668
  H      2.686881   -2.142850   -0.129146
  H      0.203353   -3.972092   -0.237044
  H      1.999686   -4.460129   -0.249227

 Multiplicity           Mult            ....    1
 Number of Electrons    NEL             ....   66
 Basis Dimension        Dim             ....  181

ORBITAL ENERGIES
----------------

  NO   OCC          E(Eh)            E(eV)
   0   2.0000     -14.364267      -390.8716
   1   2.0000     -10.207387      -277.7571
   2   2.0000     -10.206058      -277.7210
   3   2.0000     -10.195787      -277.4415
   4   2.0000     -10.194872      -277.4166
   5   2.0000     -10.178977      -276.9840
   6   2.0000     -10.165846      -276.6267
   7   2.0000     -10.164398      -276.5873
   8   2.0000     -10.159387      -276.4510
   9   2.0000      -0.963849       -26.2277
  10   2.0000      -0.785055       -21.3624
  11   2.0000      -0.769124       -20.9289
  12   2.0000      -0.724450       -19.7133
  13   2.0000      -0.717229       -19.5168
  14   2.0000      -0.637888       -17.3578
  15   2.0000      -0.593348       -16.1458
  16   2.0000      -0.573331       -15.6011
  17   2.0000      -0.515959       -14.0400
  18   2.0000      -0.488420       -13.2906
  19   2.0000      -0.454335       -12.3631
  20   2.0000      -0.442553       -12.0425
  21   2.0000      -0.425074       -11.5669
  22   2.0000      -0.418030       -11.3752
  23   2.0000      -0.413452       -11.2506
  24   2.0000      -0.404184       -10.9984
  25   2.0000      -0.388088       -10.5604
  26   2.0000      -0.377331       -10.2677
  27   2.0000      -0.370207       -10.0738
  28   2.0000      -0.358135        -9.7453
  29   2.0000      -0.332442        -9.0462
  30   2.0000      -0.294372        -8.0103
  31   2.0000      -0.219874        -5.9831
  32   2.0000      -0.190056        -5.1717
  33   0.0000       0.002074         0.0564
  34   0.0000       0.038169         1.0386
  35   0.0000       0.046899         1.2762
  36   0.0000       0.069199         1.8830
  37   0.0000       0.088966         2.4209

MULLIKEN ATOMIC CHARGES
-----------------------
   0 C :   -0.084260
   1 C :   -0.057662
   2 C :    0.114435
   3 N :   -0.071487
   4 C :   -0.124090
   5 C :    0.111515
   6 C :    0.055931
   7 C :   -0.027976
   8 C :   -0.040287
   9 H :   -0.046563
  10 H :    0.012887
  11 H :    0.015172
  12 H :    0.017514
  13 H :    0.099619
  14 H :    0.013560
  15 H :    0.020604
  16 H :    0.010957
  17 H :   -0.028525
  18 H :   -0.000305
  19 H :    0.008962
Sum of atomic charges:    0.0000000

LOEWDIN ATOMIC CHARGES
----------------------
   0 C :   -0.080225
   1 C :   -0.024353
   2 C :   -0.055042
   3 N :    0.069695
   4 C :   -0.019453
   5 C :   -0.055435
   6 C :   -0.083209
   7 C :   -0.024787
   8 C :   -0.078030
   9 H :    0.018381
  10 H :    0.039395
  11 H :    0.029067
  12 H :    0.029748
  13 H :    0.079319
  14 H :    0.029909
  15 H :    0.031258
  16 H :    0.037027
  17 H :    0.021722
  18 H :    0.015703
  19 H :    0.019311

  Mayer bond orders larger than 0.100000
B(  0-C ,  1-C ) :   1.5325 B(  0-C ,  6-C ) :   1.2235 B(  0-C ,  9-H ) :   1.0039
B(  1-C ,  2-C ) :   1.1018 B(  1-C ,  3-N ) :   1.1817 B(  2-C , 10-H ) :   0.9442
B(  2-C , 11-H ) :   0.9446 B(  2-C , 12-H ) :   0.9442 B(  3-N ,  4-C ) :   1.2065
B(  3-N , 13-H ) :   0.9422 B(  4-C ,  5-C ) :   1.1221 B(  4-C ,  6-C ) :   1.4502
B(  5-C , 14-H ) :   0.9411 B(  5-C , 15-H ) :   0.9423 B(  5-C , 16-H ) :   0.9389
B(  6-C ,  7-C ) :   1.1039 B(  7-C ,  8-C ) :   1.9291 B(  7-C , 17-H ) :   0.9540
B(  8-C , 18-H ) :   0.9483 B(  8-C , 19-H ) :   0.9438

Dispersion correction           -0.031918506
FINAL SINGLE POINT ENERGY      -365.982778674407

DIPOLE MOMENT
-------------
                                X             Y             Z
Electronic contribution:     -0.14171      -0.04700       0.01272
Nuclear contribution   :      0.01538       1.21081       0.04302
                        -----------------------------------------
Total Dipole Moment    :     -0.12634       1.16381       0.05574
                        -----------------------------------------
Magnitude (a.u.)       :      1.17197
Magnitude (Debye)      :      2.97892

Rotational constants in cm-1:     0.079869     0.043441     0.028440
Rotational constants in MHz :  2394.401417  1302.323887   852.596655

                             ****ORCA TERMINATED NORMALLY****
TOTAL RUN TIME: 0 days 0 hours 19 minutes 7 seconds 655 msec
