                         Program Version 4.2.0 -  RELEASE  -
|  1> # ORCA input file
|  2> # SCF done        -34.179932265273          0.000625986342
|  3> ! B3LYP/G D3BJ Opt RIJCOSX def2-SVP def2/J
|  4> * xyz 0 1
|  5>    C        1.37597        -1.28899         0.24140
|  6>    S        2.63044        -0.13104         0.39294
|  7>    C        1.49149         1.18378         0.24706
|  8>    C        0.20916         0.70712         0.10431
|  9>    C        0.15150        -0.71218         0.09967
| 10>    C       -1.13184        -1.47697        -0.01211
| 11>    C       -2.25967        -0.57794        -0.51346
| 12>    C       -2.29539         0.74865         0.26658
| 13>    N       -2.44569         0.60854         1.70490
| 14>    C       -1.02148         1.54921        -0.02260
| 15>    C        2.02747         2.51978         0.30593
| 16>    C        1.43381         3.64964        -0.06980
| 17>    H        1.61329        -2.33437         0.26516
| 18>    H       -1.39211        -1.88424         0.97177
| 19>    H       -1.00076        -2.32985        -0.68233
| 20>    H       -3.21623        -1.09667        -0.41189
| 21>    H       -2.10933        -0.35389        -1.57130
| 22>    H       -3.15960         1.33170        -0.07881
| 23>    H       -1.61817         0.17897         2.10407
| 24>    H       -3.24430         0.02390         1.92568
| 25>    H       -0.97118         2.38616         0.67664
| 26>    H       -1.07894         1.95413        -1.03728
| 27>    H        3.04161         2.56450         0.68665
| 28>    H        0.44873         3.68423        -0.49475
| 29>    H        1.94488         4.59224         0.02479
| 30> *
| 31>
| 32>                          ****END OF INPUT****
 Total Charge           Charge          ....    0
 Multiplicity           Mult            ....    1
 Number of Electrons    NEL             ....   96
Dispersion correction           -0.053703102
FINAL SINGLE POINT ENERGY      -841.431565984998
Dispersion correction            ... done
Dispersion correction           -0.053333380
FINAL SINGLE POINT ENERGY      -841.434499649870
Dispersion correction            ... done
Dispersion correction           -0.053303546
FINAL SINGLE POINT ENERGY      -841.434635442750
Dispersion correction            ... done
FINAL SINGLE POINT ENERGY      -841.434612042117
FINAL SINGLE POINT ENERGY      -841.434609034205
Dispersion correction            ... done
Dispersion correction           -0.053316218
FINAL SINGLE POINT ENERGY      -841.434622742753
Dispersion correction            ... done
Dispersion correction           -0.053315539
FINAL SINGLE POINT ENERGY      -841.434621332646
Dispersion correction            ... done
                    ***********************HURRAY********************

CARTESIAN COORDINATES (ANGSTROEM)
---------------------------------
  C      1.391937   -1.312737    0.256543
  S      2.638259   -0.139471    0.436665
  C      1.505178    1.182976    0.268018
  C      0.212639    0.701523    0.095515
  C      0.154248   -0.733997    0.086460
  C     -1.146653   -1.490389   -0.038128
  C     -2.293795   -0.587037   -0.506372
  C     -2.304112    0.750350    0.260738
  N     -2.427444    0.621838    1.711911
  C     -1.028068    1.542719   -0.060091
  C      2.036482    2.536187    0.322454
  C      1.443958    3.685492   -0.048761
  H      1.629531   -2.375484    0.285746
  H     -1.407994   -1.916678    0.946656
  H     -1.026155   -2.351211   -0.714748
  H     -3.255992   -1.109132   -0.368422
  H     -2.200983   -0.375753   -1.586207
  H     -3.165476    1.342272   -0.093815
  H     -1.570065    0.239165    2.111554
  H     -3.174282   -0.028234    1.957328
  H     -0.979925    2.421815    0.600351
  H     -1.088912    1.928261   -1.093384
  H      3.059820    2.601562    0.709888
  H      0.443371    3.729980   -0.477636
  H      1.978092    4.632393    0.060959

 Multiplicity           Mult            ....    1
 Number of Electrons    NEL             ....   96
 Basis Dimension        Dim             ....  237

ORBITAL ENERGIES
----------------

  NO   OCC          E(Eh)            E(eV)
   0   2.0000     -88.867829     -2418.2166
   1   2.0000     -14.302152      -389.1814
   2   2.0000     -10.212850      -277.9058
   3   2.0000     -10.211082      -277.8577
   4   2.0000     -10.205899      -277.7166
   5   2.0000     -10.200674      -277.5744
   6   2.0000     -10.194656      -277.4107
   7   2.0000     -10.193481      -277.3787
   8   2.0000     -10.193011      -277.3659
   9   2.0000     -10.188273      -277.2370
  10   2.0000     -10.185732      -277.1679
  11   2.0000     -10.185355      -277.1576
  12   2.0000      -7.963025      -216.6849
  13   2.0000      -5.930999      -161.3907
  14   2.0000      -5.927110      -161.2849
  15   2.0000      -5.924452      -161.2125
  16   2.0000      -0.890631       -24.2353
  17   2.0000      -0.871112       -23.7042
  18   2.0000      -0.793324       -21.5875
  19   2.0000      -0.777888       -21.1674
  20   2.0000      -0.744076       -20.2473
  21   2.0000      -0.716858       -19.5067
  22   2.0000      -0.684741       -18.6327
  23   2.0000      -0.626859       -17.0577
  24   2.0000      -0.601999       -16.3812
  25   2.0000      -0.572633       -15.5821
  26   2.0000      -0.546808       -14.8794
  27   2.0000      -0.506582       -13.7848
  28   2.0000      -0.487775       -13.2730
  29   2.0000      -0.483061       -13.1448
  30   2.0000      -0.457141       -12.4394
  31   2.0000      -0.453968       -12.3531
  32   2.0000      -0.445649       -12.1267
  33   2.0000      -0.417644       -11.3647
  34   2.0000      -0.408413       -11.1135
  35   2.0000      -0.406460       -11.0603
  36   2.0000      -0.396413       -10.7870
  37   2.0000      -0.383381       -10.4323
  38   2.0000      -0.367262        -9.9937
  39   2.0000      -0.363856        -9.9010
  40   2.0000      -0.354099        -9.6355
  41   2.0000      -0.338042        -9.1986
  42   2.0000      -0.327812        -8.9202
  43   2.0000      -0.319492        -8.6938
  44   2.0000      -0.295895        -8.0517
  45   2.0000      -0.243539        -6.6270
  46   2.0000      -0.232597        -6.3293
  47   2.0000      -0.212835        -5.7915
  48   0.0000      -0.041084        -1.1179
  49   0.0000       0.022216         0.6045
  50   0.0000       0.037059         1.0084
  51   0.0000       0.043299         1.1782
  52   0.0000       0.069262         1.8847

MULLIKEN ATOMIC CHARGES
-----------------------
   0 C :   -0.130738
   1 S :    0.101052
   2 C :   -0.162575
   3 C :   -0.066281
   4 C :   -0.059285
   5 C :    0.119162
   6 C :    0.051883
   7 C :   -0.012854
   8 N :   -0.180061
   9 C :    0.136685
  10 C :    0.032626
  11 C :   -0.036154
  12 H :    0.009348
  13 H :   -0.006561
  14 H :    0.005816
  15 H :   -0.013758
  16 H :   -0.003987
  17 H :   -0.016475
  18 H :    0.094447
  19 H :    0.081811
  20 H :    0.020108
  21 H :    0.015993
  22 H :   -0.014268
  23 H :    0.013682
  24 H :    0.020382
Sum of atomic charges:   -0.0000000

LOEWDIN ATOMIC CHARGES
----------------------
   0 C :   -0.202392
   1 S :    0.427998
   2 C :   -0.185165
   3 C :   -0.060256
   4 C :   -0.070031
   5 C :   -0.028166
   6 C :   -0.041213
   7 C :    0.016112
   8 N :   -0.104897
   9 C :   -0.024408
  10 C :   -0.041000
  11 C :   -0.057706
  12 H :    0.021379
  13 H :    0.022012
  14 H :    0.030902
  15 H :    0.016968
  16 H :    0.021313
  17 H :    0.017405
  18 H :    0.052107
  19 H :    0.050723
  20 H :    0.033986
  21 H :    0.031454
  22 H :    0.026996
  23 H :    0.020440
  24 H :    0.025437

  Mayer bond orders larger than 0.100000
B(  0-C ,  1-S ) :   1.1552 B(  0-C ,  4-C ) :   1.5332 B(  0-C , 12-H ) :   0.9671
B(  1-S ,  2-C ) :   1.1270 B(  2-C ,  3-C ) :   1.4977 B(  2-C , 10-C ) :   1.1145
B(  3-C ,  4-C ) :   1.2938 B(  3-C ,  9-C ) :   1.0625 B(  4-C ,  5-C ) :   1.0339
B(  5-C ,  6-C ) :   1.0789 B(  5-C , 13-H ) :   0.9116 B(  5-C , 14-H ) :   0.9189
B(  6-C ,  7-C ) :   1.0249 B(  6-C , 15-H ) :   0.9267 B(  6-C , 16-H ) :   0.9284
B(  7-C ,  8-N ) :   1.1002 B(  7-C ,  9-C ) :   1.0520 B(  7-C , 17-H ) :   0.9122
B(  8-N , 18-H ) :   0.9676 B(  8-N , 19-H ) :   0.9698 B(  9-C , 20-H ) :   0.9012
B(  9-C , 21-H ) :   0.9047 B( 10-C , 11-C ) :   1.9159 B( 10-C , 22-H ) :   0.9394
B( 11-C , 23-H ) :   0.9485 B( 11-C , 24-H ) :   0.9414

Dispersion correction           -0.053315087
FINAL SINGLE POINT ENERGY      -841.434620113216

DIPOLE MOMENT
-------------
                                X             Y             Z
Electronic contribution:     12.53959      -2.74828       0.91001
Nuclear contribution   :    -12.85859       2.20275      -1.06717
                        -----------------------------------------
Total Dipole Moment    :     -0.31901      -0.54553      -0.15716
                        -----------------------------------------
Magnitude (a.u.)       :      0.65120
Magnitude (Debye)      :      1.65522

Rotational constants in cm-1:     0.040267     0.023369     0.016400
Rotational constants in MHz :  1207.160483   700.595096   491.673236

                             ****ORCA TERMINATED NORMALLY****
TOTAL RUN TIME: 0 days 0 hours 13 minutes 19 seconds 891 msec
