                         Program Version 4.2.0 -  RELEASE  -
|  1> # ORCA input file
|  2> # SCF done        -45.199583986821          0.000445318983
|  3> ! B3LYP/G D3BJ Opt RIJCOSX def2-SVP def2/J
|  4> * xyz 0 1
|  5>    C        1.62972         1.10680        -1.11539
|  6>    C        2.06453        -0.11561        -0.34498
|  7>    C        2.69760         0.46233         0.96175
|  8>    C        2.43554         1.95575         1.22268
|  9>    C        1.70624         2.30785         2.27863
| 10>    O        3.03918         3.00155         0.54506
| 11>    C        3.02504         3.15825        -0.89256
| 12>    C        3.00543         1.74029        -1.41732
| 13>    C        3.40689         1.09827        -2.70564
| 14>    C        3.37602        -0.22671        -2.59210
| 15>    C        3.03257        -0.92375        -1.28096
| 16>    C        2.44655        -2.30538        -1.57846
| 17>    C        4.26554         3.95524        -1.28459
| 18>    C        4.25367         5.36218        -0.69262
| 19>    C        5.49684         6.15060        -1.08383
| 20>    H        0.98469         1.74870        -0.51525
| 21>    H        1.10059         0.86472        -2.03808
| 22>    H        1.22274        -0.75771        -0.07574
| 23>    H        3.77674         0.28811         0.98933
| 24>    H        2.27997        -0.06659         1.81890
| 25>    H        1.29225         1.58283         2.95411
| 26>    H        1.53610         3.34500         2.50672
| 27>    H        2.12129         3.72430        -1.16674
| 28>    H        3.74431         1.29776        -0.74342
| 29>    H        3.65160         1.63181        -3.60852
| 30>    H        3.60809        -0.87757        -3.42176
| 31>    H        3.98081        -1.07907        -0.74726
| 32>    H        1.50838        -2.20788        -2.12100
| 33>    H        2.25829        -2.84869        -0.65502
| 34>    H        3.13437        -2.89151        -2.18417
| 35>    H        5.15195         3.42073        -0.93719
| 36>    H        4.30419         4.01002        -2.37472
| 37>    H        4.19037         5.28152         0.39312
| 38>    H        3.36280         5.89022        -1.04088
| 39>    H        6.39431         5.65389        -0.72194
| 40>    H        5.46362         7.15097        -0.65888
| 41>    H        5.56808         6.23969        -2.16614
| 42> *
| 43>
| 44>                          ****END OF INPUT****
 Total Charge           Charge          ....    0
 Multiplicity           Mult            ....    1
 Number of Electrons    NEL             ....  114
Dispersion correction           -0.072231087
FINAL SINGLE POINT ENERGY      -621.484033030702
Dispersion correction            ... done
Dispersion correction           -0.071387561
FINAL SINGLE POINT ENERGY      -621.488804705829
Dispersion correction            ... done
Dispersion correction           -0.071257383
FINAL SINGLE POINT ENERGY      -621.489000819228
Dispersion correction            ... done
FINAL SINGLE POINT ENERGY      -621.488859741945
FINAL SINGLE POINT ENERGY      -621.488850793269
Dispersion correction            ... done
Dispersion correction           -0.071312660
FINAL SINGLE POINT ENERGY      -621.488857638242
Dispersion correction            ... done
Dispersion correction           -0.071318244
FINAL SINGLE POINT ENERGY      -621.488860700055
Dispersion correction            ... done
                    ***********************HURRAY********************

CARTESIAN COORDINATES (ANGSTROEM)
---------------------------------
  C      1.548533    1.099067   -1.113521
  C      2.042423   -0.113409   -0.356572
  C      2.692369    0.480832    0.955461
  C      2.431095    1.973678    1.259561
  C      1.741884    2.330504    2.355117
  O      3.013582    3.006723    0.540917
  C      2.971196    3.176049   -0.909996
  C      2.903579    1.770320   -1.456735
  C      3.343172    1.134116   -2.748035
  C      3.367385   -0.206572   -2.635801
  C      3.039191   -0.914302   -1.309795
  C      2.534038   -2.338469   -1.569425
  C      4.218697    3.956012   -1.288660
  C      4.232174    5.395439   -0.773936
  C      5.572508    6.087033   -1.013354
  H      0.903340    1.726023   -0.482661
  H      0.988258    0.854277   -2.026533
  H      1.222462   -0.791030   -0.070285
  H      3.782863    0.315587    0.951005
  H      2.308117   -0.071597    1.823928
  H      1.352490    1.578339    3.041254
  H      1.592133    3.384832    2.595645
  H      2.066874    3.766988   -1.152540
  H      3.651556    1.332670   -0.786984
  H      3.570017    1.667638   -3.674924
  H      3.625815   -0.843680   -3.487436
  H      3.998933   -1.005252   -0.766544
  H      1.567652   -2.323559   -2.100019
  H      2.392415   -2.888887   -0.626601
  H      3.244134   -2.907638   -2.190170
  H      5.092774    3.407918   -0.895078
  H      4.311022    3.949079   -2.389411
  H      3.991827    5.388919    0.301715
  H      3.421658    5.962163   -1.266039
  H      6.385435    5.559261   -0.488841
  H      5.564974    7.127895   -0.653470
  H      5.830328    6.101943   -2.086095

 Multiplicity           Mult            ....    1
 Number of Electrons    NEL             ....  114
 Basis Dimension        Dim             ....  320

ORBITAL ENERGIES
----------------

  NO   OCC          E(Eh)            E(eV)
   0   2.0000     -19.139768      -520.8196
   1   2.0000     -10.241737      -278.6918
   2   2.0000     -10.240179      -278.6494
   3   2.0000     -10.198471      -277.5145
   4   2.0000     -10.195380      -277.4304
   5   2.0000     -10.193229      -277.3719
   6   2.0000     -10.189584      -277.2727
   7   2.0000     -10.184994      -277.1478
   8   2.0000     -10.183333      -277.1026
   9   2.0000     -10.183275      -277.1010
  10   2.0000     -10.181700      -277.0581
  11   2.0000     -10.178585      -276.9734
  12   2.0000     -10.178058      -276.9590
  13   2.0000     -10.175722      -276.8955
  14   2.0000     -10.164548      -276.5914
  15   2.0000      -1.025944       -27.9174
  16   2.0000      -0.853735       -23.2313
  17   2.0000      -0.807782       -21.9809
  18   2.0000      -0.771072       -20.9819
  19   2.0000      -0.763158       -20.7666
  20   2.0000      -0.741876       -20.1875
  21   2.0000      -0.706995       -19.2383
  22   2.0000      -0.678666       -18.4674
  23   2.0000      -0.655116       -17.8266
  24   2.0000      -0.621045       -16.8995
  25   2.0000      -0.600003       -16.3269
  26   2.0000      -0.585278       -15.9262
  27   2.0000      -0.576912       -15.6986
  28   2.0000      -0.534650       -14.5486
  29   2.0000      -0.520345       -14.1593
  30   2.0000      -0.488831       -13.3018
  31   2.0000      -0.482738       -13.1360
  32   2.0000      -0.471233       -12.8229
  33   2.0000      -0.453578       -12.3425
  34   2.0000      -0.450763       -12.2659
  35   2.0000      -0.444455       -12.0942
  36   2.0000      -0.436801       -11.8859
  37   2.0000      -0.422069       -11.4851
  38   2.0000      -0.410294       -11.1647
  39   2.0000      -0.404600       -11.0097
  40   2.0000      -0.394159       -10.7256
  41   2.0000      -0.385247       -10.4831
  42   2.0000      -0.379279       -10.3207
  43   2.0000      -0.369860       -10.0644
  44   2.0000      -0.368153       -10.0179
  45   2.0000      -0.364537        -9.9195
  46   2.0000      -0.357702        -9.7336
  47   2.0000      -0.345066        -9.3897
  48   2.0000      -0.343823        -9.3559
  49   2.0000      -0.335043        -9.1170
  50   2.0000      -0.326611        -8.8875
  51   2.0000      -0.315163        -8.5760
  52   2.0000      -0.312852        -8.5131
  53   2.0000      -0.294014        -8.0005
  54   2.0000      -0.279934        -7.6174
  55   2.0000      -0.243643        -6.6299
  56   2.0000      -0.226154        -6.1540
  57   0.0000       0.004015         0.1093
  58   0.0000       0.020086         0.5466
  59   0.0000       0.060678         1.6511
  60   0.0000       0.064145         1.7455
  61   0.0000       0.068293         1.8584

MULLIKEN ATOMIC CHARGES
-----------------------
   0 C :    0.139250
   1 C :   -0.141297
   2 C :    0.183606
   3 C :    0.031950
   4 C :   -0.055139
   5 O :   -0.372333
   6 C :    0.263155
   7 C :   -0.136526
   8 C :    0.000533
   9 C :   -0.051382
  10 C :    0.027334
  11 C :    0.037323
  12 C :    0.029723
  13 C :    0.000592
  14 C :    0.020811
  15 H :    0.015664
  16 H :   -0.001401
  17 H :   -0.015809
  18 H :    0.003192
  19 H :   -0.013145
  20 H :    0.002484
  21 H :    0.010558
  22 H :   -0.019006
  23 H :    0.033792
  24 H :   -0.023323
  25 H :   -0.018456
  26 H :    0.005961
  27 H :    0.010348
  28 H :    0.009879
  29 H :    0.011278
  30 H :   -0.011685
  31 H :   -0.002413
  32 H :    0.014289
  33 H :   -0.009147
  34 H :    0.008238
  35 H :    0.007294
  36 H :    0.003808
Sum of atomic charges:    0.0000000

LOEWDIN ATOMIC CHARGES
----------------------
   0 C :   -0.014353
   1 C :   -0.016608
   2 C :   -0.032995
   3 C :    0.051060
   4 C :   -0.108885
   5 O :   -0.144428
   6 C :    0.102375
   7 C :   -0.055056
   8 C :   -0.024483
   9 C :   -0.032758
  10 C :   -0.028921
  11 C :   -0.047934
  12 C :   -0.036072
  13 C :   -0.035999
  14 C :   -0.056447
  15 H :    0.020736
  16 H :    0.017798
  17 H :    0.014180
  18 H :    0.024884
  19 H :    0.029921
  20 H :    0.019781
  21 H :    0.022401
  22 H :    0.008352
  23 H :    0.040410
  24 H :    0.019603
  25 H :    0.018989
  26 H :    0.028610
  27 H :    0.022095
  28 H :    0.022017
  29 H :    0.021961
  30 H :    0.022418
  31 H :    0.023081
  32 H :    0.024132
  33 H :    0.017007
  34 H :    0.021517
  35 H :    0.022722
  36 H :    0.018891

  Mayer bond orders larger than 0.100000
B(  0-C ,  1-C ) :   1.1192 B(  0-C ,  7-C ) :   1.0111 B(  0-C , 15-H ) :   0.8989
B(  0-C , 16-H ) :   0.9220 B(  1-C ,  2-C ) :   0.9943 B(  1-C , 10-C ) :   0.9621
B(  1-C , 17-H ) :   0.9212 B(  2-C ,  3-C ) :   1.0192 B(  2-C , 18-H ) :   0.8900
B(  2-C , 19-H ) :   0.9077 B(  3-C ,  4-C ) :   1.9360 B(  3-C ,  5-O ) :   1.0657
B(  4-C , 20-H ) :   0.9387 B(  4-C , 21-H ) :   0.9374 B(  5-O ,  6-C ) :   0.9134
B(  6-C ,  7-C ) :   0.9941 B(  6-C , 12-C ) :   1.0600 B(  6-C , 22-H ) :   0.9121
B(  7-C ,  8-C ) :   0.9753 B(  7-C , 23-H ) :   0.8981 B(  8-C ,  9-C ) :   1.8547
B(  8-C , 24-H ) :   0.9834 B(  9-C , 10-C ) :   1.0265 B(  9-C , 25-H ) :   0.9670
B( 10-C , 11-C ) :   1.0839 B( 10-C , 26-H ) :   0.8967 B( 11-C , 27-H ) :   0.9653
B( 11-C , 28-H ) :   0.9612 B( 11-C , 29-H ) :   0.9602 B( 12-C , 13-C ) :   1.0918
B( 12-C , 30-H ) :   0.9227 B( 12-C , 31-H ) :   0.9304 B( 13-C , 14-C ) :   1.1061
B( 13-C , 32-H ) :   0.9434 B( 13-C , 33-H ) :   0.9384 B( 14-C , 34-H ) :   0.9684
B( 14-C , 35-H ) :   0.9632 B( 14-C , 36-H ) :   0.9684

Dispersion correction           -0.071320128
FINAL SINGLE POINT ENERGY      -621.488859157558

DIPOLE MOMENT
-------------
                                X             Y             Z
Electronic contribution:     -3.31690      -1.53716       1.41905
Nuclear contribution   :      3.28443       1.14863      -1.86281
                        -----------------------------------------
Total Dipole Moment    :     -0.03247      -0.38853      -0.44376
                        -----------------------------------------
Magnitude (a.u.)       :      0.59071
Magnitude (Debye)      :      1.50146

Rotational constants in cm-1:     0.031638     0.013168     0.010135
Rotational constants in MHz :   948.469239   394.766097   303.828215

                             ****ORCA TERMINATED NORMALLY****
TOTAL RUN TIME: 0 days 0 hours 25 minutes 20 seconds 778 msec
