                         Program Version 4.2.0 -  RELEASE  -
|  1> # ORCA input file
|  2> # SCF done        -27.377654244352          0.000867835628
|  3> ! B3LYP/G D3BJ Opt RIJCOSX def2-SVP def2/J
|  4> * xyz 0 1
|  5>    N        1.11840        -0.27345         0.21666
|  6>    C        2.47546        -0.17817         0.10610
|  7>    S        3.31257         1.32985         0.08273
|  8>    C        4.86627         0.58012         0.05124
|  9>    C        4.75429        -0.78168         0.06143
| 10>    C        3.37779        -1.23233         0.08805
| 11>    N        3.05404        -2.54239         0.07520
| 12>    C        4.06079        -3.37013         0.05421
| 13>    C        5.41612        -2.93456         0.04466
| 14>    N        5.77093        -1.68490         0.04376
| 15>    H        0.56639         0.51406        -0.07998
| 16>    H        0.74643        -1.18780         0.01035
| 17>    H        5.75003         1.18185         0.03257
| 18>    H        3.82095        -4.42438         0.04152
| 19>    H        6.21828        -3.66113         0.03350
| 20> *
| 21>
| 22>                          ****END OF INPUT****
 Total Charge           Charge          ....    0
 Multiplicity           Mult            ....    1
 Number of Electrons    NEL             ....   78
Dispersion correction           -0.032618881
FINAL SINGLE POINT ENERGY      -793.698348316072
Dispersion correction            ... done
Dispersion correction           -0.032580123
FINAL SINGLE POINT ENERGY      -793.700346737307
Dispersion correction            ... done
Dispersion correction           -0.032580090
FINAL SINGLE POINT ENERGY      -793.700520433498
Dispersion correction            ... done
FINAL SINGLE POINT ENERGY      -793.700591723579
FINAL SINGLE POINT ENERGY      -793.700644170926
FINAL SINGLE POINT ENERGY      -793.700665679751
FINAL SINGLE POINT ENERGY      -793.700679712815
Dispersion correction            ... done
Dispersion correction           -0.032595966
FINAL SINGLE POINT ENERGY      -793.700682513062
Dispersion correction            ... done
Dispersion correction           -0.032595759
FINAL SINGLE POINT ENERGY      -793.700683129083
Dispersion correction            ... done
                    ***********************HURRAY********************

CARTESIAN COORDINATES (ANGSTROEM)
---------------------------------
  N      1.110558   -0.267353    0.230793
  C      2.470644   -0.150220    0.124076
  S      3.317956    1.358888    0.118414
  C      4.888126    0.610179    0.070603
  C      4.767977   -0.765461    0.074771
  C      3.383812   -1.210305    0.101763
  N      3.032930   -2.522153    0.083958
  C      4.031352   -3.368508    0.049372
  C      5.410237   -2.938495    0.031092
  N      5.785104   -1.686591    0.041248
  H      0.533751    0.428645   -0.227249
  H      0.790512   -1.224832    0.108561
  H      5.788727    1.215460    0.021292
  H      3.800522   -4.440356    0.029872
  H      6.196531   -3.703940    0.003434

 Multiplicity           Mult            ....    1
 Number of Electrons    NEL             ....   78
 Basis Dimension        Dim             ....  169

ORBITAL ENERGIES
----------------

  NO   OCC          E(Eh)            E(eV)
   0   2.0000     -88.888401     -2418.7764
   1   2.0000     -14.359441      -390.7403
   2   2.0000     -14.341342      -390.2477
   3   2.0000     -14.332049      -389.9949
   4   2.0000     -10.260535      -279.2034
   5   2.0000     -10.230464      -278.3851
   6   2.0000     -10.227372      -278.3009
   7   2.0000     -10.222431      -278.1665
   8   2.0000     -10.216920      -278.0165
   9   2.0000     -10.202401      -277.6214
  10   2.0000      -7.983191      -217.2337
  11   2.0000      -5.951305      -161.9432
  12   2.0000      -5.947221      -161.8321
  13   2.0000      -5.944574      -161.7601
  14   2.0000      -0.972836       -26.4722
  15   2.0000      -0.934036       -25.4164
  16   2.0000      -0.899152       -24.4672
  17   2.0000      -0.856549       -23.3079
  18   2.0000      -0.749246       -20.3880
  19   2.0000      -0.710660       -19.3380
  20   2.0000      -0.657318       -17.8865
  21   2.0000      -0.616298       -16.7703
  22   2.0000      -0.584707       -15.9107
  23   2.0000      -0.540303       -14.7024
  24   2.0000      -0.533367       -14.5137
  25   2.0000      -0.499482       -13.5916
  26   2.0000      -0.480088       -13.0639
  27   2.0000      -0.447289       -12.1713
  28   2.0000      -0.439310       -11.9542
  29   2.0000      -0.418807       -11.3963
  30   2.0000      -0.398880       -10.8541
  31   2.0000      -0.381559       -10.3827
  32   2.0000      -0.359132        -9.7725
  33   2.0000      -0.345993        -9.4149
  34   2.0000      -0.311776        -8.4839
  35   2.0000      -0.309953        -8.4342
  36   2.0000      -0.260371        -7.0851
  37   2.0000      -0.244245        -6.6462
  38   2.0000      -0.194160        -5.2834
  39   0.0000      -0.075537        -2.0555
  40   0.0000       0.009359         0.2547
  41   0.0000       0.017649         0.4803
  42   0.0000       0.027382         0.7451
  43   0.0000       0.057184         1.5561

MULLIKEN ATOMIC CHARGES
-----------------------
   0 N :   -0.050735
   1 C :   -0.208626
   2 S :    0.104933
   3 C :   -0.182821
   4 C :    0.098076
   5 C :    0.058340
   6 N :   -0.063052
   7 C :    0.007082
   8 C :    0.014119
   9 N :   -0.050053
  10 H :    0.125935
  11 H :    0.128415
  12 H :    0.010596
  13 H :    0.001316
  14 H :    0.006473
Sum of atomic charges:    0.0000000

LOEWDIN ATOMIC CHARGES
----------------------
   0 N :   -0.019173
   1 C :   -0.140247
   2 S :    0.441006
   3 C :   -0.234601
   4 C :   -0.044447
   5 C :   -0.097769
   6 N :   -0.054361
   7 C :   -0.023491
   8 C :   -0.000612
   9 N :   -0.056587
  10 H :    0.077513
  11 H :    0.084195
  12 H :    0.026685
  13 H :    0.019901
  14 H :    0.021987

  Mayer bond orders larger than 0.100000
B(  0-N ,  1-C ) :   1.2925 B(  0-N , 10-H ) :   0.9372 B(  0-N , 11-H ) :   0.9318
B(  1-C ,  2-S ) :   1.1915 B(  1-C ,  3-C ) :   0.1030 B(  1-C ,  5-C ) :   1.2674
B(  2-S ,  3-C ) :   1.1049 B(  3-C ,  4-C ) :   1.4310 B(  3-C , 12-H ) :   0.9780
B(  4-C ,  5-C ) :   1.1793 B(  4-C ,  9-N ) :   1.3293 B(  5-C ,  6-N ) :   1.3684
B(  6-N ,  7-C ) :   1.6848 B(  7-C ,  8-C ) :   1.1680 B(  7-C , 13-H ) :   0.9638
B(  8-C ,  9-N ) :   1.7266 B(  8-C , 14-H ) :   0.9619

Dispersion correction           -0.032595714
FINAL SINGLE POINT ENERGY      -793.700683221620

DIPOLE MOMENT
-------------
                                X             Y             Z
Electronic contribution:      0.43351       3.70615       0.18028
Nuclear contribution   :     -1.39221      -3.57090      -0.49926
                        -----------------------------------------
Total Dipole Moment    :     -0.95870       0.13526      -0.31897
                        -----------------------------------------
Magnitude (a.u.)       :      1.01939
Magnitude (Debye)      :      2.59108

Rotational constants in cm-1:     0.076054     0.036699     0.024772
Rotational constants in MHz :  2280.047516  1100.195669   742.639397

                             ****ORCA TERMINATED NORMALLY****
TOTAL RUN TIME: 0 days 0 hours 8 minutes 4 seconds 654 msec
