                         Program Version 4.2.0 -  RELEASE  -
|  1> # ORCA input file
|  2> # SCF done        -37.103713572034          0.000306746994
|  3> ! B3LYP/G D3BJ Opt RIJCOSX def2-SVP def2/J
|  4> * xyz 0 1
|  5>    C       -1.07443         0.21816         0.77481
|  6>    S       -1.38834        -1.40404         1.30174
|  7>    C       -0.12791        -1.98194         0.30796
|  8>    C        0.50370        -0.95166        -0.39804
|  9>    C       -0.05208         0.31013        -0.11978
| 10>    C        1.57014        -1.50023        -1.22878
| 11>    S        2.57121        -0.68049        -2.22173
| 12>    C        1.53095        -2.93301        -0.97043
| 13>    C        0.51424        -3.20599        -0.05239
| 14>    O        0.43766        -4.50288         0.21552
| 15>    C        1.41474        -5.10910        -0.53064
| 16>    C        2.11288        -4.17292        -1.27712
| 17>    C        1.54067        -6.53560        -0.41921
| 18>    C        2.43799        -7.27688        -1.06499
| 19>    H       -1.67951         1.00887         1.17094
| 20>    H        0.28555         1.23221        -0.55592
| 21>    H        2.92497        -4.36904        -1.94548
| 22>    H        0.82812        -6.99291         0.25402
| 23>    H        3.15691        -6.84409        -1.73814
| 24>    H        2.47727        -8.34345        -0.93572
| 25> *
| 26>
| 27>                          ****END OF INPUT****
 Total Charge           Charge          ....    0
 Multiplicity           Mult            ....    1
 Number of Electrons    NEL             ....  112
Dispersion correction           -0.047795553
FINAL SINGLE POINT ENERGY     -1293.771764141719
Dispersion correction            ... done
Dispersion correction           -0.047768283
FINAL SINGLE POINT ENERGY     -1293.775581490241
Dispersion correction            ... done
Dispersion correction           -0.047739887
FINAL SINGLE POINT ENERGY     -1293.775939793424
Dispersion correction            ... done
FINAL SINGLE POINT ENERGY     -1293.776029233939
FINAL SINGLE POINT ENERGY     -1293.776049457392
Dispersion correction            ... done
Dispersion correction           -0.047718255
FINAL SINGLE POINT ENERGY     -1293.776061876350
Dispersion correction            ... done
Dispersion correction           -0.047720458
FINAL SINGLE POINT ENERGY     -1293.776061997368
Dispersion correction            ... done
                    ***********************HURRAY********************

CARTESIAN COORDINATES (ANGSTROEM)
---------------------------------
  C     -1.103596    0.241821    0.811398
  S     -1.398524   -1.406632    1.315321
  C     -0.133926   -1.972475    0.308609
  C      0.486461   -0.929337   -0.387443
  C     -0.071671    0.339341   -0.097226
  C      1.577787   -1.470773   -1.248657
  S      2.574790   -0.620653   -2.223088
  C      1.540874   -2.922742   -1.003722
  C      0.537561   -3.195151   -0.087956
  O      0.456484   -4.495013    0.186196
  C      1.442955   -5.121847   -0.577238
  C      2.129666   -4.176222   -1.322198
  C      1.540085   -6.554126   -0.426837
  C      2.444537   -7.340668   -1.034905
  H     -1.721053    1.038029    1.223029
  H      0.274247    1.272739   -0.541300
  H      2.951237   -4.377218   -2.004947
  H      0.797842   -6.991595    0.248519
  H      3.203989   -6.933592   -1.708563
  H      2.454987   -8.418746   -0.862373

 Multiplicity           Mult            ....    1
 Number of Electrons    NEL             ....  112
 Basis Dimension        Dim             ....  234

ORBITAL ENERGIES
----------------

  NO   OCC          E(Eh)            E(eV)
   0   2.0000     -88.901986     -2419.1460
   1   2.0000     -88.831072     -2417.2164
   2   2.0000     -19.226798      -523.1878
   3   2.0000     -10.269390      -279.4443
   4   2.0000     -10.262868      -279.2668
   5   2.0000     -10.257488      -279.1205
   6   2.0000     -10.239546      -278.6322
   7   2.0000     -10.228001      -278.3181
   8   2.0000     -10.213132      -277.9134
   9   2.0000     -10.210209      -277.8339
  10   2.0000     -10.210046      -277.8295
  11   2.0000     -10.207857      -277.7699
  12   2.0000     -10.200469      -277.5689
  13   2.0000     -10.197650      -277.4922
  14   2.0000      -7.995683      -217.5736
  15   2.0000      -7.926280      -215.6850
  16   2.0000      -5.963779      -162.2827
  17   2.0000      -5.959573      -162.1682
  18   2.0000      -5.957382      -162.1086
  19   2.0000      -5.894575      -160.3996
  20   2.0000      -5.893452      -160.3690
  21   2.0000      -5.884364      -160.1217
  22   2.0000      -1.127781       -30.6885
  23   2.0000      -0.915844       -24.9214
  24   2.0000      -0.854946       -23.2643
  25   2.0000      -0.815457       -22.1897
  26   2.0000      -0.782897       -21.3037
  27   2.0000      -0.765685       -20.8353
  28   2.0000      -0.744493       -20.2587
  29   2.0000      -0.707034       -19.2394
  30   2.0000      -0.656161       -17.8550
  31   2.0000      -0.623385       -16.9632
  32   2.0000      -0.579327       -15.7643
  33   2.0000      -0.575137       -15.6503
  34   2.0000      -0.559646       -15.2287
  35   2.0000      -0.541740       -14.7415
  36   2.0000      -0.506049       -13.7703
  37   2.0000      -0.487806       -13.2739
  38   2.0000      -0.479766       -13.0551
  39   2.0000      -0.454221       -12.3600
  40   2.0000      -0.439269       -11.9531
  41   2.0000      -0.428219       -11.6524
  42   2.0000      -0.421771       -11.4770
  43   2.0000      -0.415632       -11.3099
  44   2.0000      -0.413381       -11.2487
  45   2.0000      -0.391866       -10.6632
  46   2.0000      -0.374214       -10.1829
  47   2.0000      -0.371728       -10.1152
  48   2.0000      -0.362157        -9.8548
  49   2.0000      -0.355548        -9.6749
  50   2.0000      -0.327517        -8.9122
  51   2.0000      -0.290230        -7.8976
  52   2.0000      -0.270165        -7.3516
  53   2.0000      -0.263798        -7.1783
  54   2.0000      -0.227912        -6.2018
  55   2.0000      -0.202541        -5.5114
  56   0.0000      -0.118074        -3.2130
  57   0.0000      -0.053599        -1.4585
  58   0.0000      -0.009512        -0.2588
  59   0.0000       0.026996         0.7346
  60   0.0000       0.064022         1.7421

MULLIKEN ATOMIC CHARGES
-----------------------
   0 C :   -0.101100
   1 S :    0.178300
   2 C :   -0.081431
   3 C :    0.005769
   4 C :    0.057056
   5 C :   -0.003982
   6 S :   -0.101192
   7 C :    0.036574
   8 C :    0.089761
   9 O :   -0.203821
  10 C :    0.164673
  11 C :   -0.081731
  12 C :   -0.004686
  13 C :   -0.038076
  14 H :    0.035296
  15 H :   -0.005527
  16 H :   -0.005609
  17 H :    0.004965
  18 H :    0.021731
  19 H :    0.033029
Sum of atomic charges:   -0.0000000

LOEWDIN ATOMIC CHARGES
----------------------
   0 C :   -0.187955
   1 S :    0.468343
   2 C :   -0.197939
   3 C :   -0.083007
   4 C :   -0.029941
   5 C :   -0.127200
   6 S :    0.089928
   7 C :   -0.093384
   8 C :    0.034481
   9 O :    0.014166
  10 C :    0.033269
  11 C :   -0.030919
  12 C :   -0.039361
  13 C :   -0.046740
  14 H :    0.027426
  15 H :    0.038501
  16 H :    0.038016
  17 H :    0.038745
  18 H :    0.023943
  19 H :    0.029629

  Mayer bond orders larger than 0.100000
B(  0-C ,  1-S ) :   1.1410 B(  0-C ,  4-C ) :   1.5050 B(  0-C , 14-H ) :   0.9642
B(  1-S ,  2-C ) :   1.1143 B(  2-C ,  3-C ) :   1.4295 B(  2-C ,  8-C ) :   1.1482
B(  3-C ,  4-C ) :   1.3039 B(  3-C ,  5-C ) :   1.0185 B(  4-C , 15-H ) :   0.9915
B(  5-C ,  6-S ) :   1.7278 B(  5-C ,  7-C ) :   1.0270 B(  7-C ,  8-C ) :   1.4264
B(  7-C , 11-C ) :   1.2195 B(  8-C ,  9-O ) :   1.2126 B(  9-O , 10-C ) :   1.0375
B( 10-C , 11-C ) :   1.4591 B( 10-C , 12-C ) :   1.1310 B( 11-C , 16-H ) :   1.0128
B( 12-C , 13-C ) :   1.8961 B( 12-C , 17-H ) :   0.9487 B( 13-C , 18-H ) :   0.9518
B( 13-C , 19-H ) :   0.9463

Dispersion correction           -0.047721888
FINAL SINGLE POINT ENERGY     -1293.776060458928

DIPOLE MOMENT
-------------
                                X             Y             Z
Electronic contribution:     -3.36485       8.39521       1.51966
Nuclear contribution   :      2.89080      -8.60161      -1.07153
                        -----------------------------------------
Total Dipole Moment    :     -0.47405      -0.20639       0.44812
                        -----------------------------------------
Magnitude (a.u.)       :      0.68420
Magnitude (Debye)      :      1.73911

Rotational constants in cm-1:     0.029197     0.013281     0.009129
Rotational constants in MHz :   875.317984   398.139382   273.673088

                             ****ORCA TERMINATED NORMALLY****
TOTAL RUN TIME: 0 days 0 hours 12 minutes 19 seconds 249 msec
