                         Program Version 4.2.0 -  RELEASE  -
|  1> # ORCA input file
|  2> # SCF done        -28.748040815600          0.000521195167
|  3> ! B3LYP/G D3BJ Opt RIJCOSX def2-SVP def2/J
|  4> * xyz 0 1
|  5>    C       -1.20409         1.43154        -0.05817
|  6>    C        0.00036         0.82776         0.04846
|  7>    C       -0.06853        -0.59047        -0.01376
|  8>    O        1.17707        -1.14088         0.07127
|  9>    C        2.09105        -0.05898         0.16154
| 10>    N        1.32710         1.17979         0.26943
| 11>    C       -1.32016        -1.10448        -0.16484
| 12>    S       -2.45696         0.23794        -0.22840
| 13>    C       -1.72006        -2.47943        -0.26862
| 14>    C       -2.97238        -2.89598        -0.42626
| 15>    H       -1.45887         2.47030        -0.04654
| 16>    H        2.75060        -0.07471        -0.72318
| 17>    H        2.70722        -0.20028         1.06198
| 18>    H        1.69850         1.98181        -0.21583
| 19>    H       -0.89834        -3.18116        -0.20646
| 20>    H       -3.78897        -2.19598        -0.48773
| 21>    H       -3.21611        -3.94070        -0.49904
| 22> *
| 23>
| 24>                          ****END OF INPUT****
 Total Charge           Charge          ....    0
 Multiplicity           Mult            ....    1
 Number of Electrons    NEL             ....   80
Dispersion correction           -0.033042290
FINAL SINGLE POINT ENERGY      -798.690190969596
Dispersion correction            ... done
Dispersion correction           -0.032912510
FINAL SINGLE POINT ENERGY      -798.692739445605
Dispersion correction            ... done
Dispersion correction           -0.032883539
FINAL SINGLE POINT ENERGY      -798.692903910513
Dispersion correction            ... done
FINAL SINGLE POINT ENERGY      -798.692916780894
FINAL SINGLE POINT ENERGY      -798.692939019648
FINAL SINGLE POINT ENERGY      -798.692931344758
FINAL SINGLE POINT ENERGY      -798.692905424875
FINAL SINGLE POINT ENERGY      -798.692863727423
FINAL SINGLE POINT ENERGY      -798.692862128313
FINAL SINGLE POINT ENERGY      -798.692870300680
Dispersion correction            ... done
Dispersion correction           -0.032883188
FINAL SINGLE POINT ENERGY      -798.692865309050
Dispersion correction            ... done
Dispersion correction           -0.032882963
FINAL SINGLE POINT ENERGY      -798.692863250484
Dispersion correction            ... done
                    ***********************HURRAY********************

CARTESIAN COORDINATES (ANGSTROEM)
---------------------------------
  C     -1.193693    1.474221   -0.114540
  C      0.009372    0.854624    0.072782
  C     -0.079614   -0.564271    0.006856
  O      1.141859   -1.133146    0.208800
  C      2.100056   -0.071868    0.166548
  N      1.338133    1.170594    0.380695
  C     -1.332320   -1.077708   -0.213940
  S     -2.457168    0.280146   -0.370265
  C     -1.728719   -2.468258   -0.304163
  C     -2.982636   -2.941565   -0.396230
  H     -1.442009    2.533139   -0.114437
  H      2.613706   -0.085701   -0.818633
  H      2.843556   -0.247427    0.960362
  H      1.735216    2.002571   -0.043384
  H     -0.888138   -3.170762   -0.280859
  H     -3.849761   -2.274951   -0.405465
  H     -3.180409   -4.013545   -0.460276

 Multiplicity           Mult            ....    1
 Number of Electrons    NEL             ....   80
 Basis Dimension        Dim             ....  179

ORBITAL ENERGIES
----------------

  NO   OCC          E(Eh)            E(eV)
   0   2.0000     -88.860635     -2418.0208
   1   2.0000     -19.178008      -521.8601
   2   2.0000     -14.354718      -390.6117
   3   2.0000     -10.290975      -280.0317
   4   2.0000     -10.243102      -278.7290
   5   2.0000     -10.226598      -278.2799
   6   2.0000     -10.210269      -277.8356
   7   2.0000     -10.206965      -277.7456
   8   2.0000     -10.196868      -277.4709
   9   2.0000     -10.180233      -277.0182
  10   2.0000      -7.954963      -216.4655
  11   2.0000      -5.923660      -161.1910
  12   2.0000      -5.919663      -161.0822
  13   2.0000      -5.915130      -160.9589
  14   2.0000      -1.088537       -29.6206
  15   2.0000      -0.924241       -25.1499
  16   2.0000      -0.867544       -23.6071
  17   2.0000      -0.774437       -21.0735
  18   2.0000      -0.740576       -20.1521
  19   2.0000      -0.700030       -19.0488
  20   2.0000      -0.658546       -17.9200
  21   2.0000      -0.616290       -16.7701
  22   2.0000      -0.582679       -15.8555
  23   2.0000      -0.555262       -15.1094
  24   2.0000      -0.511771       -13.9260
  25   2.0000      -0.501195       -13.6382
  26   2.0000      -0.482617       -13.1327
  27   2.0000      -0.471273       -12.8240
  28   2.0000      -0.434284       -11.8175
  29   2.0000      -0.418876       -11.3982
  30   2.0000      -0.407218       -11.0810
  31   2.0000      -0.399646       -10.8749
  32   2.0000      -0.367615       -10.0033
  33   2.0000      -0.362527        -9.8649
  34   2.0000      -0.351106        -9.5541
  35   2.0000      -0.334708        -9.1079
  36   2.0000      -0.318395        -8.6640
  37   2.0000      -0.281458        -7.6589
  38   2.0000      -0.206396        -5.6163
  39   2.0000      -0.200734        -5.4622
  40   0.0000      -0.033714        -0.9174
  41   0.0000       0.029190         0.7943
  42   0.0000       0.042321         1.1516
  43   0.0000       0.052197         1.4204
  44   0.0000       0.078684         2.1411

MULLIKEN ATOMIC CHARGES
-----------------------
   0 C :   -0.238577
   1 C :    0.178506
   2 C :    0.170463
   3 O :   -0.318400
   4 C :    0.342481
   5 N :   -0.210298
   6 C :   -0.183801
   7 S :    0.068874
   8 C :    0.023243
   9 C :   -0.044527
  10 H :    0.010751
  11 H :    0.010832
  12 H :    0.030663
  13 H :    0.123390
  14 H :   -0.001838
  15 H :    0.016706
  16 H :    0.021533
Sum of atomic charges:   -0.0000000

LOEWDIN ATOMIC CHARGES
----------------------
   0 C :   -0.231092
   1 C :   -0.041998
   2 C :    0.005008
   3 O :   -0.107263
   4 C :    0.171424
   5 N :   -0.070416
   6 C :   -0.210236
   7 S :    0.387163
   8 C :   -0.034916
   9 C :   -0.066086
  10 H :    0.022169
  11 H :    0.002140
  12 H :    0.017313
  13 H :    0.076833
  14 H :    0.036774
  15 H :    0.018131
  16 H :    0.025052

  Mayer bond orders larger than 0.100000
B(  0-C ,  1-C ) :   1.5150 B(  0-C ,  7-S ) :   1.0808 B(  0-C , 10-H ) :   0.9903
B(  1-C ,  2-C ) :   1.2122 B(  1-C ,  5-N ) :   1.0893 B(  2-C ,  3-O ) :   1.1064
B(  2-C ,  6-C ) :   1.5233 B(  3-O ,  4-C ) :   0.9755 B(  4-C ,  5-N ) :   1.0115
B(  4-C , 11-H ) :   0.9451 B(  4-C , 12-H ) :   0.9578 B(  5-N , 13-H ) :   0.9290
B(  6-C ,  7-S ) :   1.0646 B(  6-C ,  8-C ) :   1.1481 B(  8-C ,  9-C ) :   1.8937
B(  8-C , 14-H ) :   0.9577 B(  9-C , 15-H ) :   0.9538 B(  9-C , 16-H ) :   0.9480

Dispersion correction           -0.032882849
FINAL SINGLE POINT ENERGY      -798.692856787495

DIPOLE MOMENT
-------------
                                X             Y             Z
Electronic contribution:     -1.59905       3.26178       0.23469
Nuclear contribution   :      2.62085      -2.56809      -0.48538
                        -----------------------------------------
Total Dipole Moment    :      1.02179       0.69369      -0.25068
                        -----------------------------------------
Magnitude (a.u.)       :      1.26020
Magnitude (Debye)      :      3.20318

Rotational constants in cm-1:     0.071751     0.032444     0.022499
Rotational constants in MHz :  2151.049410   972.639660   674.510327

                             ****ORCA TERMINATED NORMALLY****
TOTAL RUN TIME: 0 days 0 hours 10 minutes 44 seconds 574 msec
