                         Program Version 4.2.0 -  RELEASE  -
|  1> # ORCA input file
|  2> # SCF done        -29.638351479960          0.000571089507
|  3> ! B3LYP/G D3BJ Opt RIJCOSX def2-SVP def2/J
|  4> * xyz 0 1
|  5>    C        1.48421         1.07438         0.00164
|  6>    N        2.15733        -0.11291        -0.00272
|  7>    C        1.28201        -1.15580        -0.00459
|  8>    C        0.01494        -0.62731        -0.00029
|  9>    C        0.15327         0.78587         0.00350
| 10>    S       -1.48211         1.49002         0.01016
| 11>    O       -1.75777         2.18946        -1.21504
| 12>    O       -1.75068         2.18029         1.24217
| 13>    C       -2.26013        -0.14038         0.00649
| 14>    C       -1.34812        -1.10698         0.00134
| 15>    H        1.99717         2.01422         0.00325
| 16>    H        3.16072        -0.20420        -0.00471
| 17>    H        1.62044        -2.17243        -0.00835
| 18>    H       -3.32710        -0.23513         0.00848
| 19>    H       -1.56854        -2.16377        -0.00160
| 20> *
| 21>
| 22>                          ****END OF INPUT****
 Total Charge           Charge          ....    0
 Multiplicity           Mult            ....    1
 Number of Electrons    NEL             ....   80
Dispersion correction           -0.032316240
FINAL SINGLE POINT ENERGY      -834.507788037694
Dispersion correction            ... done
Dispersion correction           -0.032338088
FINAL SINGLE POINT ENERGY      -834.512067059058
Dispersion correction            ... done
Dispersion correction           -0.032346838
FINAL SINGLE POINT ENERGY      -834.512771805524
Dispersion correction            ... done
FINAL SINGLE POINT ENERGY      -834.512840699446
Dispersion correction            ... done
Dispersion correction           -0.032353472
FINAL SINGLE POINT ENERGY      -834.512846496392
Dispersion correction            ... done
Dispersion correction           -0.032356062
FINAL SINGLE POINT ENERGY      -834.512846592923
Dispersion correction            ... done
                    ***********************HURRAY********************

CARTESIAN COORDINATES (ANGSTROEM)
---------------------------------
  C      1.472400    1.089596    0.001090
  N      2.168463   -0.099801   -0.003172
  C      1.308135   -1.177321   -0.004027
  C      0.022979   -0.668059    0.000516
  C      0.141048    0.753483    0.003858
  S     -1.475795    1.502428    0.010462
  O     -1.742764    2.195546   -1.253583
  O     -1.739206    2.182267    1.282504
  C     -2.261646   -0.131614    0.005159
  C     -1.364719   -1.133400    0.001674
  H      1.977640    2.051377    0.001861
  H      3.178121   -0.174481   -0.005894
  H      1.684962   -2.197281   -0.007619
  H     -3.350038   -0.187987    0.007210
  H     -1.643942   -2.189423   -0.000307

 Multiplicity           Mult            ....    1
 Number of Electrons    NEL             ....   80
 Basis Dimension        Dim             ....  169

ORBITAL ENERGIES
----------------

  NO   OCC          E(Eh)            E(eV)
   0   2.0000     -89.053866     -2423.2789
   1   2.0000     -19.109352      -519.9919
   2   2.0000     -19.109265      -519.9895
   3   2.0000     -14.409458      -392.1013
   4   2.0000     -10.249155      -278.8937
   5   2.0000     -10.245429      -278.7923
   6   2.0000     -10.231039      -278.4007
   7   2.0000     -10.217933      -278.0441
   8   2.0000     -10.211031      -277.8563
   9   2.0000     -10.204934      -277.6904
  10   2.0000      -8.117881      -220.8988
  11   2.0000      -6.086003      -165.6086
  12   2.0000      -6.085368      -165.5913
  13   2.0000      -6.085106      -165.5842
  14   2.0000      -1.084689       -29.5159
  15   2.0000      -1.002535       -27.2804
  16   2.0000      -0.973022       -26.4773
  17   2.0000      -0.860415       -23.4131
  18   2.0000      -0.772858       -21.0305
  19   2.0000      -0.754200       -20.5228
  20   2.0000      -0.689421       -18.7601
  21   2.0000      -0.641236       -17.4489
  22   2.0000      -0.583221       -15.8702
  23   2.0000      -0.571727       -15.5575
  24   2.0000      -0.539115       -14.6701
  25   2.0000      -0.506002       -13.7690
  26   2.0000      -0.478594       -13.0232
  27   2.0000      -0.458111       -12.4658
  28   2.0000      -0.453606       -12.3432
  29   2.0000      -0.453254       -12.3337
  30   2.0000      -0.429260       -11.6808
  31   2.0000      -0.427832       -11.6419
  32   2.0000      -0.403118       -10.9694
  33   2.0000      -0.351922        -9.5763
  34   2.0000      -0.318140        -8.6570
  35   2.0000      -0.316959        -8.6249
  36   2.0000      -0.290311        -7.8998
  37   2.0000      -0.284044        -7.7292
  38   2.0000      -0.256083        -6.9684
  39   2.0000      -0.240245        -6.5374
  40   0.0000      -0.054958        -1.4955
  41   0.0000      -0.005764        -0.1569
  42   0.0000       0.024703         0.6722
  43   0.0000       0.058482         1.5914
  44   0.0000       0.067314         1.8317

MULLIKEN ATOMIC CHARGES
-----------------------
   0 C :   -0.009440
   1 N :   -0.075016
   2 C :    0.010198
   3 C :    0.024664
   4 C :   -0.022841
   5 S :    0.782880
   6 O :   -0.470434
   7 O :   -0.470495
   8 C :   -0.058038
   9 C :    0.085473
  10 H :    0.016743
  11 H :    0.133539
  12 H :    0.002147
  13 H :    0.049320
  14 H :    0.001300
Sum of atomic charges:   -0.0000000

LOEWDIN ATOMIC CHARGES
----------------------
   0 C :    0.006642
   1 N :    0.091627
   2 C :   -0.004102
   3 C :   -0.087474
   4 C :   -0.220562
   5 S :    1.175518
   6 O :   -0.509070
   7 O :   -0.509114
   8 C :   -0.165096
   9 C :   -0.004025
  10 H :    0.032864
  11 H :    0.093796
  12 H :    0.026189
  13 H :    0.035223
  14 H :    0.037583

  Mayer bond orders larger than 0.100000
B(  0-C ,  1-N ) :   1.2255 B(  0-C ,  4-C ) :   1.5312 B(  0-C , 10-H ) :   0.9971
B(  1-N ,  2-C ) :   1.2157 B(  1-N , 11-H ) :   0.9372 B(  2-C ,  3-C ) :   1.4532
B(  2-C , 12-H ) :   0.9869 B(  3-C ,  4-C ) :   1.3165 B(  3-C ,  9-C ) :   1.0606
B(  4-C ,  5-S ) :   0.7842 B(  5-S ,  6-O ) :   1.6665 B(  5-S ,  7-O ) :   1.6663
B(  5-S ,  8-C ) :   0.8594 B(  8-C ,  9-C ) :   1.7502 B(  8-C , 13-H ) :   0.9623
B(  9-C , 14-H ) :   0.9885

Dispersion correction           -0.032357496
FINAL SINGLE POINT ENERGY      -834.512846616907

DIPOLE MOMENT
-------------
                                X             Y             Z
Electronic contribution:     -2.20369       3.62355       0.01748
Nuclear contribution   :      4.12634      -5.50308      -0.03002
                        -----------------------------------------
Total Dipole Moment    :      1.92265      -1.87953      -0.01255
                        -----------------------------------------
Magnitude (a.u.)       :      2.68874
Magnitude (Debye)      :      6.83424

Rotational constants in cm-1:     0.078572     0.035262     0.028586
Rotational constants in MHz :  2355.533817  1057.135211   856.995172

                             ****ORCA TERMINATED NORMALLY****
TOTAL RUN TIME: 0 days 0 hours 5 minutes 24 seconds 896 msec
