                         Program Version 4.2.0 -  RELEASE  -
|  1> # ORCA input file
|  2> # SCF done        -39.850183962986          0.000583913841
|  3> ! B3LYP/G D3BJ Opt RIJCOSX def2-SVP def2/J
|  4> * xyz 0 1
|  5>    C        0.79006        -1.24644        -0.05769
|  6>    C        1.95385        -0.60934         0.04194
|  7>    C        3.29447        -1.26813         0.18749
|  8>    C        3.24226        -2.79014         0.17381
|  9>    C        1.86103         0.86727         0.03096
| 10>    C        3.09775         1.71214        -0.07763
| 11>    C        3.49621         1.86228        -1.54873
| 12>    C        0.61229         1.34941         0.00462
| 13>    S       -0.53046        -0.04572        -0.13846
| 14>    O       -1.15517        -0.02294        -1.43441
| 15>    O       -1.39091        -0.16039         1.00740
| 16>    C        0.02204         2.65922        -0.02238
| 17>    C        0.37630         3.70538         0.71684
| 18>    H        0.59085        -2.29663        -0.05083
| 19>    H        3.73599        -0.93352         1.13084
| 20>    H        3.94802        -0.92377        -0.61727
| 21>    H        2.63480        -3.16176         0.99474
| 22>    H        4.24638        -3.19384         0.28089
| 23>    H        2.82478        -3.15191        -0.76218
| 24>    H        3.91790         1.26589         0.48449
| 25>    H        2.90269         2.70189         0.33045
| 26>    H        3.66505         0.89382        -2.01259
| 27>    H        4.40650         2.45077        -1.63228
| 28>    H        2.70396         2.36624        -2.09651
| 29>    H       -0.84504         2.71758        -0.66986
| 30>    H        1.19006         3.66236         1.42092
| 31>    H       -0.16219         4.63522         0.66158
| 32> *
| 33>
| 34>                          ****END OF INPUT****
 Total Charge           Charge          ....    0
 Multiplicity           Mult            ....    1
 Number of Electrons    NEL             ....  106
Dispersion correction           -0.055797573
FINAL SINGLE POINT ENERGY      -937.543346322072
Dispersion correction            ... done
Dispersion correction           -0.055276827
FINAL SINGLE POINT ENERGY      -937.548964410266
Dispersion correction            ... done
Dispersion correction           -0.055108129
FINAL SINGLE POINT ENERGY      -937.549576295268
Dispersion correction            ... done
FINAL SINGLE POINT ENERGY      -937.549675649621
FINAL SINGLE POINT ENERGY      -937.549694349888
FINAL SINGLE POINT ENERGY      -937.549619377092
FINAL SINGLE POINT ENERGY      -937.549556272656
FINAL SINGLE POINT ENERGY      -937.549504234630
Dispersion correction            ... done
Dispersion correction           -0.055123966
FINAL SINGLE POINT ENERGY      -937.549511549965
Dispersion correction            ... done
Dispersion correction           -0.055126473
FINAL SINGLE POINT ENERGY      -937.549542402875
Dispersion correction            ... done
                    ***********************HURRAY********************

CARTESIAN COORDINATES (ANGSTROEM)
---------------------------------
  C      0.775669   -1.246438   -0.138002
  C      1.959440   -0.618263   -0.021579
  C      3.290521   -1.299138    0.133497
  C      3.240901   -2.821256    0.201380
  C      1.860229    0.881140    0.019711
  C      3.090711    1.742405   -0.089207
  C      3.577079    1.878530   -1.542484
  C      0.586252    1.336555    0.035989
  S     -0.558908   -0.062779   -0.112194
  O     -1.251289    0.063526   -1.403019
  O     -1.350954   -0.256213    1.107701
  C     -0.041874    2.647565    0.028717
  C      0.357161    3.734154    0.706516
  H      0.548926   -2.310820   -0.137575
  H      3.762803   -0.899659    1.049141
  H      3.954683   -0.977010   -0.688316
  H      2.601319   -3.163888    1.029373
  H      4.246981   -3.235025    0.365600
  H      2.845787   -3.256579   -0.729803
  H      3.895308    1.324981    0.536341
  H      2.877146    2.740467    0.311726
  H      3.829004    0.903371   -1.986456
  H      4.474409    2.514144   -1.596218
  H      2.794887    2.336732   -2.166028
  H     -0.959281    2.696053   -0.570852
  H      1.229050    3.725012    1.364757
  H     -0.206488    4.667373    0.637436

 Multiplicity           Mult            ....    1
 Number of Electrons    NEL             ....  106
 Basis Dimension        Dim             ....  256

ORBITAL ENERGIES
----------------

  NO   OCC          E(Eh)            E(eV)
   0   2.0000     -89.049194     -2423.1518
   1   2.0000     -19.115997      -520.1727
   2   2.0000     -19.113818      -520.1134
   3   2.0000     -10.235501      -278.5221
   4   2.0000     -10.230735      -278.3925
   5   2.0000     -10.223732      -278.2019
   6   2.0000     -10.219057      -278.0747
   7   2.0000     -10.217175      -278.0235
   8   2.0000     -10.215672      -277.9826
   9   2.0000     -10.213670      -277.9281
  10   2.0000     -10.206549      -277.7343
  11   2.0000     -10.201038      -277.5844
  12   2.0000     -10.200606      -277.5726
  13   2.0000      -8.115086      -220.8227
  14   2.0000      -6.082845      -165.5226
  15   2.0000      -6.082674      -165.5180
  16   2.0000      -6.082014      -165.5000
  17   2.0000      -1.088078       -29.6081
  18   2.0000      -0.976412       -26.5695
  19   2.0000      -0.883666       -24.0458
  20   2.0000      -0.814577       -22.1658
  21   2.0000      -0.789294       -21.4778
  22   2.0000      -0.777480       -21.1563
  23   2.0000      -0.721338       -19.6286
  24   2.0000      -0.697924       -18.9915
  25   2.0000      -0.651164       -17.7191
  26   2.0000      -0.623046       -16.9539
  27   2.0000      -0.611521       -16.6403
  28   2.0000      -0.564042       -15.3484
  29   2.0000      -0.539421       -14.6784
  30   2.0000      -0.501104       -13.6357
  31   2.0000      -0.485011       -13.1978
  32   2.0000      -0.479356       -13.0439
  33   2.0000      -0.477876       -13.0037
  34   2.0000      -0.458204       -12.4684
  35   2.0000      -0.449117       -12.2211
  36   2.0000      -0.442306       -12.0358
  37   2.0000      -0.438155       -11.9228
  38   2.0000      -0.431973       -11.7546
  39   2.0000      -0.409483       -11.1426
  40   2.0000      -0.395502       -10.7622
  41   2.0000      -0.388894       -10.5823
  42   2.0000      -0.383617       -10.4388
  43   2.0000      -0.375179       -10.2091
  44   2.0000      -0.371523       -10.1097
  45   2.0000      -0.357668        -9.7326
  46   2.0000      -0.347413        -9.4536
  47   2.0000      -0.329373        -8.9627
  48   2.0000      -0.316948        -8.6246
  49   2.0000      -0.300983        -8.1902
  50   2.0000      -0.285082        -7.7575
  51   2.0000      -0.280498        -7.6327
  52   2.0000      -0.239449        -6.5157
  53   0.0000      -0.085162        -2.3174
  54   0.0000      -0.012423        -0.3381
  55   0.0000       0.033520         0.9121
  56   0.0000       0.044070         1.1992
  57   0.0000       0.057154         1.5552

MULLIKEN ATOMIC CHARGES
-----------------------
   0 C :   -0.090468
   1 C :   -0.038055
   2 C :    0.048810
   3 C :    0.021837
   4 C :   -0.043929
   5 C :    0.093977
   6 C :    0.002517
   7 C :   -0.122452
   8 S :    0.757899
   9 O :   -0.473535
  10 O :   -0.469548
  11 C :    0.017021
  12 C :   -0.018271
  13 H :    0.036860
  14 H :    0.026929
  15 H :    0.021560
  16 H :    0.025278
  17 H :    0.014876
  18 H :    0.022273
  19 H :    0.003554
  20 H :   -0.003795
  21 H :    0.016005
  22 H :    0.023800
  23 H :    0.029959
  24 H :    0.027350
  25 H :    0.034593
  26 H :    0.034956
Sum of atomic charges:   -0.0000000

LOEWDIN ATOMIC CHARGES
----------------------
   0 C :   -0.182339
   1 C :   -0.013066
   2 C :   -0.031503
   3 C :   -0.048729
   4 C :   -0.023559
   5 C :   -0.028455
   6 C :   -0.044901
   7 C :   -0.157509
   8 S :    1.178913
   9 O :   -0.509339
  10 O :   -0.506317
  11 C :   -0.038599
  12 C :   -0.025104
  13 H :    0.033699
  14 H :    0.038493
  15 H :    0.037825
  16 H :    0.028000
  17 H :    0.029210
  18 H :    0.027137
  19 H :    0.029495
  20 H :    0.031413
  21 H :    0.021400
  22 H :    0.028316
  23 H :    0.031208
  24 H :    0.039024
  25 H :    0.024098
  26 H :    0.031191

  Mayer bond orders larger than 0.100000
B(  0-C ,  1-C ) :   1.7632 B(  0-C ,  8-S ) :   0.8199 B(  0-C , 13-H ) :   0.9575
B(  1-C ,  2-C ) :   1.0526 B(  1-C ,  4-C ) :   1.0462 B(  2-C ,  3-C ) :   1.1311
B(  2-C , 14-H ) :   0.9157 B(  2-C , 15-H ) :   0.9032 B(  3-C , 16-H ) :   0.9641
B(  3-C , 17-H ) :   0.9596 B(  3-C , 18-H ) :   0.9623 B(  4-C ,  5-C ) :   1.1009
B(  4-C ,  7-C ) :   1.7320 B(  5-C ,  6-C ) :   1.1050 B(  5-C , 19-H ) :   0.9007
B(  5-C , 20-H ) :   0.9117 B(  6-C , 21-H ) :   0.9649 B(  6-C , 22-H ) :   0.9641
B(  6-C , 23-H ) :   0.9665 B(  7-C ,  8-S ) :   0.8098 B(  7-C , 11-C ) :   1.0625
B(  8-S ,  9-O ) :   1.6297 B(  8-S , 10-O ) :   1.6552 B( 11-C , 12-C ) :   1.9423
B( 11-C , 24-H ) :   0.9339 B( 12-C , 25-H ) :   0.9528 B( 12-C , 26-H ) :   0.9456

Dispersion correction           -0.055131905
FINAL SINGLE POINT ENERGY      -937.549570827649

DIPOLE MOMENT
-------------
                                X             Y             Z
Electronic contribution:    -18.00350      -1.29748       1.25457
Nuclear contribution   :     20.32532       1.53189      -1.16933
                        -----------------------------------------
Total Dipole Moment    :      2.32182       0.23441       0.08524
                        -----------------------------------------
Magnitude (a.u.)       :      2.33518
Magnitude (Debye)      :      5.93555

Rotational constants in cm-1:     0.027173     0.021756     0.014076
Rotational constants in MHz :   814.613534   652.217385   421.996370

                             ****ORCA TERMINATED NORMALLY****
TOTAL RUN TIME: 0 days 0 hours 25 minutes 8 seconds 868 msec
