                         Program Version 4.2.0 -  RELEASE  -
|  1> # ORCA input file
|  2> # SCF done        -33.248457254419          0.000417665784
|  3> ! B3LYP/G D3BJ Opt RIJCOSX def2-SVP def2/J
|  4> * xyz 0 1
|  5>    C        0.47578         1.37750         0.04503
|  6>    S        2.06302         0.71701         0.02020
|  7>    C        1.49262        -0.92972        -0.01644
|  8>    C        2.43371        -2.08299         0.00359
|  9>    C        2.70954        -2.54337         1.43709
| 10>    C        0.13576        -0.92735         0.00283
| 11>    C       -0.46132         0.38670         0.03243
| 12>    N       -1.81834         0.39436         0.03878
| 13>    C       -2.30924        -0.78786         0.01796
| 14>    S       -1.11368        -2.13044        -0.01297
| 15>    C       -3.70681        -1.12480         0.01630
| 16>    C       -4.67252        -0.21007         0.02138
| 17>    H        0.33198         2.43756         0.06615
| 18>    H        3.37194        -1.79508        -0.47398
| 19>    H        1.99217        -2.90684        -0.56305
| 20>    H        3.15437        -1.73583         2.01420
| 21>    H        3.39319        -3.38829         1.43454
| 22>    H        1.78342        -2.84631         1.92019
| 23>    H       -3.92896        -2.18314         0.00955
| 24>    H       -4.43392         0.83930         0.02808
| 25>    H       -5.71234        -0.48649         0.02104
| 26> *
| 27>
| 28>                          ****END OF INPUT****
 Total Charge           Charge          ....    0
 Multiplicity           Mult            ....    1
 Number of Electrons    NEL             ....  102
Dispersion correction           -0.047270281
FINAL SINGLE POINT ENERGY     -1199.015891360898
Dispersion correction            ... done
Dispersion correction           -0.046917028
FINAL SINGLE POINT ENERGY     -1199.019199063634
Dispersion correction            ... done
Dispersion correction           -0.046845228
FINAL SINGLE POINT ENERGY     -1199.019358533629
Dispersion correction            ... done
FINAL SINGLE POINT ENERGY     -1199.019372179422
Dispersion correction            ... done
Dispersion correction           -0.046814386
FINAL SINGLE POINT ENERGY     -1199.019418656880
Dispersion correction            ... done
Dispersion correction           -0.046820291
FINAL SINGLE POINT ENERGY     -1199.019420157689
Dispersion correction            ... done
                    ***********************HURRAY********************

CARTESIAN COORDINATES (ANGSTROEM)
---------------------------------
  C      0.486680    1.407642    0.029219
  S      2.078659    0.734861    0.013995
  C      1.513039   -0.921455   -0.020886
  C      2.457756   -2.085469    0.025917
  C      2.747836   -2.575450    1.453819
  C      0.141507   -0.914736   -0.011576
  C     -0.457617    0.402344    0.013369
  N     -1.832977    0.425504    0.015482
  C     -2.324015   -0.771122   -0.001319
  S     -1.124797   -2.119352   -0.023837
  C     -3.741822   -1.120565    0.003325
  C     -4.724167   -0.209263    0.034483
  H      0.322730    2.483012    0.038466
  H      3.400657   -1.815287   -0.477048
  H      2.016214   -2.904150   -0.567390
  H      3.203818   -1.774044    2.055514
  H      3.436523   -3.435105    1.447113
  H      1.819018   -2.886695    1.956540
  H     -3.977731   -2.188847   -0.018674
  H     -4.487962    0.858179    0.057600
  H     -5.772978   -0.516150    0.038787

 Multiplicity           Mult            ....    1
 Number of Electrons    NEL             ....  102
 Basis Dimension        Dim             ....  221

ORBITAL ENERGIES
----------------

  NO   OCC          E(Eh)            E(eV)
   0   2.0000     -88.880103     -2418.5505
   1   2.0000     -88.872809     -2418.3521
   2   2.0000     -14.328605      -389.9012
   3   2.0000     -10.259410      -279.1727
   4   2.0000     -10.224373      -278.2193
   5   2.0000     -10.221918      -278.1525
   6   2.0000     -10.216140      -277.9953
   7   2.0000     -10.212419      -277.8940
   8   2.0000     -10.210365      -277.8381
   9   2.0000     -10.208090      -277.7763
  10   2.0000     -10.203487      -277.6510
  11   2.0000     -10.189406      -277.2678
  12   2.0000      -7.974690      -217.0023
  13   2.0000      -7.967718      -216.8126
  14   2.0000      -5.942810      -161.7121
  15   2.0000      -5.938748      -161.6015
  16   2.0000      -5.936070      -161.5287
  17   2.0000      -5.936018      -161.5273
  18   2.0000      -5.932500      -161.4315
  19   2.0000      -5.928052      -161.3105
  20   2.0000      -0.962578       -26.1931
  21   2.0000      -0.877307       -23.8727
  22   2.0000      -0.802155       -21.8277
  23   2.0000      -0.786957       -21.4142
  24   2.0000      -0.777605       -21.1597
  25   2.0000      -0.715987       -19.4830
  26   2.0000      -0.698573       -19.0091
  27   2.0000      -0.632391       -17.2082
  28   2.0000      -0.628497       -17.1023
  29   2.0000      -0.575060       -15.6482
  30   2.0000      -0.544038       -14.8040
  31   2.0000      -0.523383       -14.2420
  32   2.0000      -0.482970       -13.1423
  33   2.0000      -0.470920       -12.8144
  34   2.0000      -0.465344       -12.6626
  35   2.0000      -0.449521       -12.2321
  36   2.0000      -0.433539       -11.7972
  37   2.0000      -0.423534       -11.5250
  38   2.0000      -0.411376       -11.1941
  39   2.0000      -0.396336       -10.7848
  40   2.0000      -0.384286       -10.4570
  41   2.0000      -0.372310       -10.1311
  42   2.0000      -0.360384        -9.8066
  43   2.0000      -0.357846        -9.7375
  44   2.0000      -0.349986        -9.5236
  45   2.0000      -0.340381        -9.2622
  46   2.0000      -0.302926        -8.2430
  47   2.0000      -0.295158        -8.0317
  48   2.0000      -0.279250        -7.5988
  49   2.0000      -0.234212        -6.3732
  50   2.0000      -0.214729        -5.8431
  51   0.0000      -0.068445        -1.8625
  52   0.0000      -0.008741        -0.2379
  53   0.0000       0.012321         0.3353
  54   0.0000       0.023235         0.6323
  55   0.0000       0.046000         1.2517

MULLIKEN ATOMIC CHARGES
-----------------------
   0 C :   -0.167871
   1 S :    0.109337
   2 C :   -0.312671
   3 C :    0.081004
   4 C :    0.011641
   5 C :    0.028069
   6 C :    0.126967
   7 N :   -0.062557
   8 C :   -0.097238
   9 S :    0.069372
  10 C :    0.032651
  11 C :    0.010071
  12 H :    0.021519
  13 H :    0.005519
  14 H :    0.016078
  15 H :    0.014173
  16 H :    0.020552
  17 H :    0.019213
  18 H :   -0.003444
  19 H :    0.047602
  20 H :    0.030015
Sum of atomic charges:    0.0000000

LOEWDIN ATOMIC CHARGES
----------------------
   0 C :   -0.209960
   1 S :    0.441861
   2 C :   -0.203798
   3 C :   -0.042580
   4 C :   -0.051616
   5 C :   -0.213078
   6 C :   -0.058318
   7 N :   -0.100592
   8 C :   -0.101745
   9 S :    0.337008
  10 C :   -0.059393
  11 C :    0.000457
  12 H :    0.030357
  13 H :    0.028920
  14 H :    0.033680
  15 H :    0.023834
  16 H :    0.024771
  17 H :    0.025261
  18 H :    0.029722
  19 H :    0.035346
  20 H :    0.029860

  Mayer bond orders larger than 0.100000
B(  0-C ,  1-S ) :   1.1506 B(  0-C ,  2-C ) :   0.1100 B(  0-C ,  6-C ) :   1.4625
B(  0-C , 12-H ) :   0.9745 B(  1-S ,  2-C ) :   1.1507 B(  2-C ,  3-C ) :   1.0788
B(  2-C ,  5-C ) :   1.5637 B(  3-C ,  4-C ) :   1.1032 B(  3-C , 13-H ) :   0.9187
B(  3-C , 14-H ) :   0.9258 B(  4-C , 15-H ) :   0.9665 B(  4-C , 16-H ) :   0.9654
B(  4-C , 17-H ) :   0.9705 B(  5-C ,  6-C ) :   1.1890 B(  5-C ,  9-S ) :   1.0335
B(  6-C ,  7-N ) :   1.2569 B(  7-N ,  8-C ) :   1.7609 B(  7-N ,  9-S ) :   0.1251
B(  8-C ,  9-S ) :   1.0097 B(  8-C , 10-C ) :   1.0721 B( 10-C , 11-C ) :   1.9336
B( 10-C , 18-H ) :   0.9486 B( 11-C , 19-H ) :   0.9465 B( 11-C , 20-H ) :   0.9423

Dispersion correction           -0.046820427
FINAL SINGLE POINT ENERGY     -1199.019417731756

DIPOLE MOMENT
-------------
                                X             Y             Z
Electronic contribution:     -1.62920       5.26958      -3.22912
Nuclear contribution   :      1.72902      -5.70209       3.27147
                        -----------------------------------------
Total Dipole Moment    :      0.09982      -0.43251       0.04235
                        -----------------------------------------
Magnitude (a.u.)       :      0.44590
Magnitude (Debye)      :      1.13338

Rotational constants in cm-1:     0.047995     0.015978     0.012421
Rotational constants in MHz :  1438.861809   479.010867   372.367634

                             ****ORCA TERMINATED NORMALLY****
TOTAL RUN TIME: 0 days 0 hours 11 minutes 20 seconds 324 msec
