                         Program Version 4.2.0 -  RELEASE  -
|  1> # ORCA input file
|  2> # SCF done        -44.833511766143          0.000642950975
|  3> ! B3LYP/G D3BJ Opt RIJCOSX def2-SVP def2/J
|  4> * xyz 0 1
|  5>    C        2.60474        -0.92106        -0.28143
|  6>    C        1.23687        -0.70298        -0.17861
|  7>    N        0.19218        -1.59126        -0.30329
|  8>    C        0.38028        -3.01907        -0.33739
|  9>    C        0.53850        -3.59314         1.07017
| 10>    C       -0.98892        -0.90953        -0.08999
| 11>    C       -0.69527         0.45607         0.15177
| 12>    C        0.73020         0.59064         0.07953
| 13>    C        1.59578         1.66661         0.22607
| 14>    C        2.95293         1.44186         0.11723
| 15>    C        3.44725         0.16327        -0.13190
| 16>    C       -1.70355         1.37023         0.42519
| 17>    C       -3.00429         0.91571         0.47619
| 18>    C       -3.29421        -0.42201         0.23437
| 19>    C       -2.31405        -1.35893        -0.07334
| 20>    C       -2.73701        -2.73350        -0.38338
| 21>    C       -3.46966        -3.47371         0.43238
| 22>    H        3.01129        -1.90344        -0.47017
| 23>    H        1.27280        -3.23078        -0.93256
| 24>    H       -0.47244        -3.48566        -0.82832
| 25>    H        1.38283        -3.12885         1.57525
| 26>    H        0.70379        -4.66632         1.02231
| 27>    H       -0.36135        -3.40344         1.65121
| 28>    H        1.21039         2.65604         0.42169
| 29>    H        3.64519         2.26329         0.22804
| 30>    H        4.51487         0.01604        -0.20750
| 31>    H       -1.46568         2.40826         0.60098
| 32>    H       -3.81003         1.59935         0.69760
| 33>    H       -4.32246        -0.75282         0.25802
| 34>    H       -2.46785        -3.10934        -1.36361
| 35>    H       -3.75390        -3.11755         1.40885
| 36>    H       -3.80160        -4.46277         0.16556
| 37> *
| 38>
| 39>                          ****END OF INPUT****
 Total Charge           Charge          ....    0
 Multiplicity           Mult            ....    1
 Number of Electrons    NEL             ....  118
Dispersion correction           -0.071665847
FINAL SINGLE POINT ENERGY      -673.077719670554
Dispersion correction            ... done
Dispersion correction           -0.071020766
FINAL SINGLE POINT ENERGY      -673.082624610223
Dispersion correction            ... done
Dispersion correction           -0.070905087
FINAL SINGLE POINT ENERGY      -673.082864246301
Dispersion correction            ... done
FINAL SINGLE POINT ENERGY      -673.082805061222
FINAL SINGLE POINT ENERGY      -673.082710507220
FINAL SINGLE POINT ENERGY      -673.082641963262
FINAL SINGLE POINT ENERGY      -673.082620134368
FINAL SINGLE POINT ENERGY      -673.082610187515
Dispersion correction            ... done
Dispersion correction           -0.070850125
FINAL SINGLE POINT ENERGY      -673.082601728091
Dispersion correction            ... done
Dispersion correction           -0.070850268
FINAL SINGLE POINT ENERGY      -673.082597736721
Dispersion correction            ... done
                    ***********************HURRAY********************

CARTESIAN COORDINATES (ANGSTROEM)
---------------------------------
  C      2.610132   -0.944468   -0.360225
  C      1.237456   -0.719689   -0.202487
  N      0.180638   -1.624523   -0.284651
  C      0.415343   -3.059835   -0.192905
  C      0.777751   -3.507756    1.224395
  C     -1.012983   -0.936621   -0.036399
  C     -0.701786    0.432388    0.220368
  C      0.732658    0.573901    0.090992
  C      1.610831    1.659762    0.194761
  C      2.976617    1.442913    0.019238
  C      3.466847    0.151315   -0.249464
  C     -1.707648    1.348087    0.543352
  C     -3.025043    0.900808    0.605991
  C     -3.331409   -0.434136    0.311804
  C     -2.354542   -1.386732   -0.030527
  C     -2.777802   -2.740032   -0.440438
  C     -3.788934   -3.432122    0.102752
  H      3.007308   -1.937366   -0.575252
  H      1.220524   -3.313396   -0.899787
  H     -0.475025   -3.589689   -0.543883
  H      1.647353   -2.950632    1.602551
  H      1.025038   -4.581190    1.241981
  H     -0.064821   -3.333266    1.910975
  H      1.228121    2.658698    0.417114
  H      3.674090    2.279565    0.096261
  H      4.541156   -0.000003   -0.381491
  H     -1.456764    2.390818    0.751068
  H     -3.830193    1.593535    0.858512
  H     -4.376301   -0.750597    0.298055
  H     -2.252177   -3.176655   -1.296080
  H     -4.339863   -3.054459    0.969140
  H     -4.098951   -4.397414   -0.304801

 Multiplicity           Mult            ....    1
 Number of Electrons    NEL             ....  118
 Basis Dimension        Dim             ....  313

ORBITAL ENERGIES
----------------

  NO   OCC          E(Eh)            E(eV)
   0   2.0000     -14.369214      -391.0062
   1   2.0000     -10.234015      -278.4817
   2   2.0000     -10.226269      -278.2709
   3   2.0000     -10.220747      -278.1207
   4   2.0000     -10.200094      -277.5587
   5   2.0000     -10.198551      -277.5167
   6   2.0000     -10.190476      -277.2969
   7   2.0000     -10.189932      -277.2822
   8   2.0000     -10.189750      -277.2772
   9   2.0000     -10.189544      -277.2716
  10   2.0000     -10.189373      -277.2669
  11   2.0000     -10.189308      -277.2652
  12   2.0000     -10.187563      -277.2177
  13   2.0000     -10.186755      -277.1957
  14   2.0000     -10.185345      -277.1573
  15   2.0000     -10.182929      -277.0916
  16   2.0000     -10.182482      -277.0794
  17   2.0000      -0.978475       -26.6257
  18   2.0000      -0.847287       -23.0559
  19   2.0000      -0.841544       -22.8996
  20   2.0000      -0.797228       -21.6937
  21   2.0000      -0.775407       -21.0999
  22   2.0000      -0.748355       -20.3638
  23   2.0000      -0.734037       -19.9742
  24   2.0000      -0.709825       -19.3153
  25   2.0000      -0.704409       -19.1679
  26   2.0000      -0.653216       -17.7749
  27   2.0000      -0.620529       -16.8855
  28   2.0000      -0.605292       -16.4708
  29   2.0000      -0.594987       -16.1904
  30   2.0000      -0.574265       -15.6265
  31   2.0000      -0.549359       -14.9488
  32   2.0000      -0.519005       -14.1228
  33   2.0000      -0.512548       -13.9471
  34   2.0000      -0.492783       -13.4093
  35   2.0000      -0.476976       -12.9792
  36   2.0000      -0.466326       -12.6894
  37   2.0000      -0.452929       -12.3248
  38   2.0000      -0.449399       -12.2288
  39   2.0000      -0.441489       -12.0135
  40   2.0000      -0.433376       -11.7928
  41   2.0000      -0.424883       -11.5617
  42   2.0000      -0.419480       -11.4146
  43   2.0000      -0.416311       -11.3284
  44   2.0000      -0.398113       -10.8332
  45   2.0000      -0.389516       -10.5993
  46   2.0000      -0.377590       -10.2747
  47   2.0000      -0.369112       -10.0440
  48   2.0000      -0.363501        -9.8914
  49   2.0000      -0.359128        -9.7724
  50   2.0000      -0.354753        -9.6533
  51   2.0000      -0.339556        -9.2398
  52   2.0000      -0.337856        -9.1935
  53   2.0000      -0.318638        -8.6706
  54   2.0000      -0.300153        -8.1676
  55   2.0000      -0.272120        -7.4048
  56   2.0000      -0.246992        -6.7210
  57   2.0000      -0.217739        -5.9250
  58   2.0000      -0.203077        -5.5260
  59   0.0000      -0.042575        -1.1585
  60   0.0000      -0.018116        -0.4930
  61   0.0000       0.010184         0.2771
  62   0.0000       0.021820         0.5937
  63   0.0000       0.046403         1.2627

MULLIKEN ATOMIC CHARGES
-----------------------
   0 C :   -0.063002
   1 C :    0.126323
   2 N :   -0.223623
   3 C :    0.115164
   4 C :   -0.005915
   5 C :    0.093905
   6 C :    0.061287
   7 C :    0.075850
   8 C :   -0.050746
   9 C :    0.028231
  10 C :    0.011457
  11 C :   -0.053062
  12 C :    0.029377
  13 C :   -0.043383
  14 C :    0.037762
  15 C :   -0.064112
  16 C :   -0.024821
  17 H :   -0.046210
  18 H :    0.017396
  19 H :    0.009085
  20 H :    0.027274
  21 H :    0.017422
  22 H :    0.031649
  23 H :   -0.037356
  24 H :   -0.022589
  25 H :   -0.017337
  26 H :   -0.034270
  27 H :   -0.023883
  28 H :   -0.029281
  29 H :    0.015785
  30 H :    0.021534
  31 H :    0.020088
Sum of atomic charges:    0.0000000

LOEWDIN ATOMIC CHARGES
----------------------
   0 C :   -0.059376
   1 C :    0.028866
   2 N :    0.007239
   3 C :    0.043349
   4 C :   -0.062755
   5 C :    0.035683
   6 C :   -0.040979
   7 C :   -0.041706
   8 C :   -0.015577
   9 C :   -0.046491
  10 C :   -0.024823
  11 C :   -0.016022
  12 C :   -0.046651
  13 C :   -0.015910
  14 C :   -0.057152
  15 C :   -0.024914
  16 C :   -0.049213
  17 H :    0.023058
  18 H :    0.024324
  19 H :    0.025231
  20 H :    0.027521
  21 H :    0.028398
  22 H :    0.030486
  23 H :    0.025159
  24 H :    0.024906
  25 H :    0.026295
  26 H :    0.026096
  27 H :    0.025713
  28 H :    0.025220
  29 H :    0.026810
  30 H :    0.022964
  31 H :    0.024249

  Mayer bond orders larger than 0.100000
B(  0-C ,  1-C ) :   1.3105 B(  0-C , 10-C ) :   1.3837 B(  0-C , 17-H ) :   0.9948
B(  1-C ,  2-N ) :   1.1046 B(  1-C ,  7-C ) :   1.2893 B(  2-N ,  3-C ) :   0.9753
B(  2-N ,  5-C ) :   1.1191 B(  3-C ,  4-C ) :   1.1143 B(  3-C , 18-H ) :   0.9385
B(  3-C , 19-H ) :   0.9360 B(  4-C , 20-H ) :   0.9625 B(  4-C , 21-H ) :   0.9619
B(  4-C , 22-H ) :   0.9647 B(  5-C ,  6-C ) :   1.2682 B(  5-C , 14-C ) :   1.2995
B(  6-C ,  7-C ) :   1.0904 B(  6-C , 11-C ) :   1.3396 B(  7-C ,  8-C ) :   1.3328
B(  8-C ,  9-C ) :   1.3935 B(  8-C , 23-H ) :   0.9872 B(  9-C , 10-C ) :   1.3420
B(  9-C , 24-H ) :   0.9816 B( 10-C , 25-H ) :   0.9792 B( 11-C , 12-C ) :   1.3716
B( 11-C , 26-H ) :   0.9888 B( 12-C , 13-C ) :   1.3354 B( 12-C , 27-H ) :   0.9781
B( 13-C , 14-C ) :   1.3941 B( 13-C , 28-H ) :   0.9821 B( 14-C , 15-C ) :   1.0178
B( 15-C , 16-C ) :   1.9521 B( 15-C , 29-H ) :   0.9484 B( 16-C , 30-H ) :   0.9549
B( 16-C , 31-H ) :   0.9461

Dispersion correction           -0.070850295
FINAL SINGLE POINT ENERGY      -673.082595327595

DIPOLE MOMENT
-------------
                                X             Y             Z
Electronic contribution:      0.52687       9.14064      -2.47948
Nuclear contribution   :     -0.41437      -9.79309       2.49820
                        -----------------------------------------
Total Dipole Moment    :      0.11250      -0.65245       0.01872
                        -----------------------------------------
Magnitude (a.u.)       :      0.66234
Magnitude (Debye)      :      1.68354

Rotational constants in cm-1:     0.027161     0.013172     0.009302
Rotational constants in MHz :   814.258217   394.886288   278.861158

                             ****ORCA TERMINATED NORMALLY****
TOTAL RUN TIME: 0 days 0 hours 34 minutes 11 seconds 374 msec
