                         Program Version 4.2.0 -  RELEASE  -
|  1> # ORCA input file
|  2> # SCF done        -26.545365925525          0.000504044027
|  3> ! B3LYP/G D3BJ Opt RIJCOSX def2-SVP def2/J
|  4> * xyz 0 1
|  5>    C        1.49210         1.24998        -0.17683
|  6>    S        2.75185         0.10648         0.03818
|  7>    C        1.62190        -1.16999         0.20246
|  8>    C        0.33647        -0.73184         0.10595
|  9>    C        0.25596         0.67808        -0.10910
| 10>    O       -0.86990         1.43401        -0.28384
| 11>    C       -2.09168         0.86480         0.03970
| 12>    S       -2.38109        -0.71427        -0.85661
| 13>    S       -1.05899        -1.80324         0.27484
| 14>    H        1.71115         2.28386        -0.34375
| 15>    H        1.95070        -2.17402         0.37394
| 16>    H       -2.85902         1.56571        -0.28703
| 17>    H       -2.18781         0.65225         1.11033
| 18> *
| 19>
| 20>                          ****END OF INPUT****
 Total Charge           Charge          ....    0
 Multiplicity           Mult            ....    1
 Number of Electrons    NEL             ....   90
Dispersion correction           -0.034520849
FINAL SINGLE POINT ENERGY     -1462.207353982416
Dispersion correction            ... done
Dispersion correction           -0.034382563
FINAL SINGLE POINT ENERGY     -1462.209726385134
Dispersion correction            ... done
Dispersion correction           -0.034343133
FINAL SINGLE POINT ENERGY     -1462.210081097795
Dispersion correction            ... done
FINAL SINGLE POINT ENERGY     -1462.210107587477
FINAL SINGLE POINT ENERGY     -1462.210208702095
Dispersion correction            ... done
Dispersion correction           -0.034343474
FINAL SINGLE POINT ENERGY     -1462.210223199599
Dispersion correction            ... done
Dispersion correction           -0.034345869
FINAL SINGLE POINT ENERGY     -1462.210229383144
Dispersion correction            ... done
                    ***********************HURRAY********************

CARTESIAN COORDINATES (ANGSTROEM)
---------------------------------
  C      1.509392    1.266663   -0.145817
  S      2.777589    0.104838    0.019075
  C      1.649057   -1.192838    0.163741
  C      0.347248   -0.749998    0.113039
  C      0.267441    0.680986   -0.079918
  O     -0.860602    1.422483   -0.251717
  C     -2.122182    0.865004    0.018419
  S     -2.421988   -0.734781   -0.826987
  S     -1.052016   -1.806210    0.366436
  H      1.722167    2.320050   -0.312213
  H      1.991779   -2.217412    0.296063
  H     -2.864478    1.575283   -0.371068
  H     -2.271767    0.707742    1.099188

 Multiplicity           Mult            ....    1
 Number of Electrons    NEL             ....   90
 Basis Dimension        Dim             ....  158

ORBITAL ENERGIES
----------------

  NO   OCC          E(Eh)            E(eV)
   0   2.0000     -88.883231     -2418.6357
   1   2.0000     -88.876978     -2418.4655
   2   2.0000     -88.868833     -2418.2439
   3   2.0000     -19.181899      -521.9660
   4   2.0000     -10.284772      -279.8629
   5   2.0000     -10.263296      -279.2785
   6   2.0000     -10.229743      -278.3655
   7   2.0000     -10.223391      -278.1926
   8   2.0000     -10.212210      -277.8884
   9   2.0000      -7.978047      -217.0937
  10   2.0000      -7.971075      -216.9040
  11   2.0000      -7.964077      -216.7135
  12   2.0000      -5.946168      -161.8035
  13   2.0000      -5.942250      -161.6968
  14   2.0000      -5.940945      -161.6613
  15   2.0000      -5.939254      -161.6153
  16   2.0000      -5.936774      -161.5478
  17   2.0000      -5.933788      -161.4666
  18   2.0000      -5.929800      -161.3581
  19   2.0000      -5.928686      -161.3277
  20   2.0000      -5.921585      -161.1345
  21   2.0000      -1.078605       -29.3503
  22   2.0000      -0.890946       -24.2439
  23   2.0000      -0.831641       -22.6301
  24   2.0000      -0.773883       -21.0584
  25   2.0000      -0.732399       -19.9296
  26   2.0000      -0.685432       -18.6516
  27   2.0000      -0.644207       -17.5298
  28   2.0000      -0.587762       -15.9938
  29   2.0000      -0.550246       -14.9730
  30   2.0000      -0.517020       -14.0688
  31   2.0000      -0.497074       -13.5261
  32   2.0000      -0.478815       -13.0292
  33   2.0000      -0.433042       -11.7837
  34   2.0000      -0.423972       -11.5369
  35   2.0000      -0.411923       -11.2090
  36   2.0000      -0.400730       -10.9044
  37   2.0000      -0.369935       -10.0665
  38   2.0000      -0.360014        -9.7965
  39   2.0000      -0.349529        -9.5112
  40   2.0000      -0.332845        -9.0572
  41   2.0000      -0.298606        -8.1255
  42   2.0000      -0.258466        -7.0332
  43   2.0000      -0.229780        -6.2526
  44   2.0000      -0.223542        -6.0829
  45   0.0000      -0.047189        -1.2841
  46   0.0000      -0.025668        -0.6985
  47   0.0000       0.029632         0.8063
  48   0.0000       0.038541         1.0487
  49   0.0000       0.052256         1.4220

MULLIKEN ATOMIC CHARGES
-----------------------
   0 C :   -0.154796
   1 S :    0.114452
   2 C :   -0.122168
   3 C :   -0.062478
   4 C :    0.241023
   5 O :   -0.289871
   6 C :    0.138162
   7 S :   -0.058563
   8 S :    0.016728
   9 H :    0.023775
  10 H :    0.028845
  11 H :    0.061412
  12 H :    0.063480
Sum of atomic charges:   -0.0000000

LOEWDIN ATOMIC CHARGES
----------------------
   0 C :   -0.224690
   1 S :    0.443079
   2 C :   -0.209918
   3 C :   -0.246530
   4 C :   -0.005510
   5 O :   -0.105079
   6 C :   -0.036975
   7 S :    0.108639
   8 S :    0.178801
   9 H :    0.029690
  10 H :    0.027575
  11 H :    0.028237
  12 H :    0.012681

  Mayer bond orders larger than 0.100000
B(  0-C ,  1-S ) :   1.1433 B(  0-C ,  4-C ) :   1.5523 B(  0-C ,  9-H ) :   0.9620
B(  1-S ,  2-C ) :   1.1874 B(  2-C ,  3-C ) :   1.5416 B(  2-C , 10-H ) :   0.9672
B(  3-C ,  4-C ) :   1.2138 B(  3-C ,  8-S ) :   0.9695 B(  4-C ,  5-O ) :   1.1096
B(  5-O ,  6-C ) :   0.9723 B(  6-C ,  7-S ) :   1.0008 B(  6-C , 11-H ) :   0.9521
B(  6-C , 12-H ) :   0.9386 B(  7-S ,  8-S ) :   1.0325

Dispersion correction           -0.034345757
FINAL SINGLE POINT ENERGY     -1462.210229908323

DIPOLE MOMENT
-------------
                                X             Y             Z
Electronic contribution:      0.93261      -2.96430      -0.77334
Nuclear contribution   :     -0.95734       3.21703       1.02424
                        -----------------------------------------
Total Dipole Moment    :     -0.02473       0.25273       0.25091
                        -----------------------------------------
Magnitude (a.u.)       :      0.35699
Magnitude (Debye)      :      0.90739

Rotational constants in cm-1:     0.074456     0.025752     0.020029
Rotational constants in MHz :  2232.130116   772.025809   600.460587

                             ****ORCA TERMINATED NORMALLY****
TOTAL RUN TIME: 0 days 0 hours 5 minutes 2 seconds 797 msec
