                         Program Version 4.2.0 -  RELEASE  -
|  1> # ORCA input file
|  2> # SCF done        -29.144818606187          0.000508495112
|  3> ! B3LYP/G D3BJ Opt RIJCOSX def2-SVP def2/J
|  4> * xyz 0 1
|  5>    C       -1.57633         1.16662        -0.19103
|  6>    C       -2.37465         0.00455        -0.10979
|  7>    C       -1.60198        -1.13068         0.09901
|  8>    C       -0.24390        -0.69595         0.14174
|  9>    C       -0.27894         0.76489        -0.03782
| 10>    N        0.90853         1.43256        -0.04010
| 11>    C        2.05656         0.74660         0.10969
| 12>    N        2.12926        -0.54187         0.24476
| 13>    C        0.99448        -1.26908         0.25419
| 14>    C       -2.15274        -2.45491         0.24196
| 15>    C       -1.52344        -3.56126         0.62852
| 16>    H       -1.93168         2.16872        -0.34219
| 17>    H       -3.44729         0.00527        -0.19445
| 18>    H        0.91146         2.43780        -0.16260
| 19>    H        2.97739         1.31220         0.11105
| 20>    H        1.15282        -2.33308         0.34955
| 21>    H       -3.21258        -2.51026         0.01951
| 22>    H       -0.48082        -3.57675         0.89071
| 23>    H       -2.04464        -4.50020         0.70457
| 24> *
| 25>
| 26>                          ****END OF INPUT****
 Total Charge           Charge          ....    0
 Multiplicity           Mult            ....    1
 Number of Electrons    NEL             ....   76
Dispersion correction           -0.037390368
FINAL SINGLE POINT ENERGY      -456.937643355913
Dispersion correction            ... done
Dispersion correction           -0.037241817
FINAL SINGLE POINT ENERGY      -456.940882785365
Dispersion correction            ... done
Dispersion correction           -0.037206586
FINAL SINGLE POINT ENERGY      -456.941074835802
Dispersion correction            ... done
FINAL SINGLE POINT ENERGY      -456.941131094725
FINAL SINGLE POINT ENERGY      -456.941151940718
FINAL SINGLE POINT ENERGY      -456.941173453841
FINAL SINGLE POINT ENERGY      -456.941202637867
FINAL SINGLE POINT ENERGY      -456.941211480949
FINAL SINGLE POINT ENERGY      -456.941249365128
Dispersion correction            ... done
Dispersion correction           -0.037188041
FINAL SINGLE POINT ENERGY      -456.941270270802
Dispersion correction            ... done
Dispersion correction           -0.037188888
FINAL SINGLE POINT ENERGY      -456.941271614061
Dispersion correction            ... done
                    ***********************HURRAY********************

CARTESIAN COORDINATES (ANGSTROEM)
---------------------------------
  C     -1.585779    1.191515   -0.235379
  C     -2.384975    0.014498   -0.100712
  C     -1.607803   -1.125591    0.149733
  C     -0.239928   -0.672624    0.181154
  C     -0.278025    0.777427   -0.065112
  N      0.923923    1.433142   -0.079192
  C      2.087745    0.762976    0.114391
  N      2.158090   -0.523241    0.337071
  C      1.003141   -1.241995    0.375096
  C     -2.160435   -2.457900    0.321372
  C     -1.524869   -3.629598    0.502064
  H     -1.942084    2.199123   -0.441268
  H     -3.473018   -0.001775   -0.191617
  H      0.949233    2.434176   -0.252437
  H      2.999928    1.367656    0.074102
  H      1.122666   -2.308885    0.578036
  H     -3.257164   -2.480244    0.287768
  H     -0.437252   -3.717600    0.543533
  H     -2.091883   -4.555888    0.618677

 Multiplicity           Mult            ....    1
 Number of Electrons    NEL             ....   76
 Basis Dimension        Dim             ....  194

ORBITAL ENERGIES
----------------

  NO   OCC          E(Eh)            E(eV)
   0   2.0000     -14.421059      -392.4170
   1   2.0000     -14.329856      -389.9352
   2   2.0000     -10.283098      -279.8173
   3   2.0000     -10.238604      -278.6066
   4   2.0000     -10.237105      -278.5658
   5   2.0000     -10.196291      -277.4552
   6   2.0000     -10.187012      -277.2027
   7   2.0000     -10.181917      -277.0641
   8   2.0000     -10.176838      -276.9259
   9   2.0000     -10.174783      -276.8699
  10   2.0000     -10.166759      -276.6516
  11   2.0000      -1.016171       -27.6514
  12   2.0000      -0.913444       -24.8561
  13   2.0000      -0.860964       -23.4280
  14   2.0000      -0.762908       -20.7598
  15   2.0000      -0.747399       -20.3378
  16   2.0000      -0.700724       -19.0677
  17   2.0000      -0.666784       -18.1441
  18   2.0000      -0.634829       -17.2746
  19   2.0000      -0.600705       -16.3460
  20   2.0000      -0.562486       -15.3060
  21   2.0000      -0.545395       -14.8409
  22   2.0000      -0.512998       -13.9594
  23   2.0000      -0.505594       -13.7579
  24   2.0000      -0.460653       -12.5350
  25   2.0000      -0.447230       -12.1698
  26   2.0000      -0.440325       -11.9819
  27   2.0000      -0.432187       -11.7604
  28   2.0000      -0.393129       -10.6976
  29   2.0000      -0.384845       -10.4722
  30   2.0000      -0.367415        -9.9979
  31   2.0000      -0.364421        -9.9164
  32   2.0000      -0.350470        -9.5368
  33   2.0000      -0.333749        -9.0818
  34   2.0000      -0.278713        -7.5842
  35   2.0000      -0.277638        -7.5549
  36   2.0000      -0.237989        -6.4760
  37   2.0000      -0.186289        -5.0692
  38   0.0000      -0.064411        -1.7527
  39   0.0000      -0.019018        -0.5175
  40   0.0000       0.025968         0.7066
  41   0.0000       0.030804         0.8382
  42   0.0000       0.081172         2.2088

MULLIKEN ATOMIC CHARGES
-----------------------
   0 C :   -0.093270
   1 C :   -0.029791
   2 C :    0.052793
   3 C :    0.003567
   4 C :    0.077725
   5 N :    0.005868
   6 C :    0.103795
   7 N :   -0.147192
   8 C :    0.015104
   9 C :    0.008488
  10 C :   -0.064488
  11 H :   -0.050530
  12 H :   -0.025757
  13 H :    0.137288
  14 H :    0.026220
  15 H :   -0.000680
  16 H :   -0.026436
  17 H :   -0.001861
  18 H :    0.009157
Sum of atomic charges:   -0.0000000

LOEWDIN ATOMIC CHARGES
----------------------
   0 C :   -0.122870
   1 C :    0.002364
   2 C :   -0.083711
   3 C :   -0.044146
   4 C :    0.014265
   5 N :    0.103168
   6 C :    0.059075
   7 N :   -0.120986
   8 C :    0.052611
   9 C :   -0.022352
  10 C :   -0.088560
  11 H :    0.016897
  12 H :    0.021206
  13 H :    0.102883
  14 H :    0.025165
  15 H :    0.025144
  16 H :    0.026942
  17 H :    0.012639
  18 H :    0.020265

  Mayer bond orders larger than 0.100000
B(  0-C ,  1-C ) :   1.1900 B(  0-C ,  4-C ) :   1.4408 B(  0-C , 11-H ) :   1.0229
B(  1-C ,  2-C ) :   1.4291 B(  1-C , 12-H ) :   0.9916 B(  2-C ,  3-C ) :   1.1677
B(  2-C ,  9-C ) :   1.1426 B(  3-C ,  4-C ) :   1.0857 B(  3-C ,  8-C ) :   1.4396
B(  4-C ,  5-N ) :   1.1698 B(  5-N ,  6-C ) :   1.2487 B(  5-N , 13-H ) :   0.9125
B(  6-C ,  7-N ) :   1.6361 B(  6-C , 14-H ) :   0.9642 B(  7-N ,  8-C ) :   1.3891
B(  8-C , 15-H ) :   0.9755 B(  9-C , 10-C ) :   1.8889 B(  9-C , 16-H ) :   0.9498
B( 10-C , 17-H ) :   0.9531 B( 10-C , 18-H ) :   0.9414

Dispersion correction           -0.037188400
FINAL SINGLE POINT ENERGY      -456.941270266575

DIPOLE MOMENT
-------------
                                X             Y             Z
Electronic contribution:      3.87287       4.44653      -0.33959
Nuclear contribution   :     -3.47244      -2.91920       0.11265
                        -----------------------------------------
Total Dipole Moment    :      0.40043       1.52733      -0.22694
                        -----------------------------------------
Magnitude (a.u.)       :      1.59517
Magnitude (Debye)      :      4.05461

Rotational constants in cm-1:     0.068663     0.033259     0.022409
Rotational constants in MHz :  2058.465242   997.080805   671.796720

                             ****ORCA TERMINATED NORMALLY****
TOTAL RUN TIME: 0 days 0 hours 12 minutes 51 seconds 181 msec
