                         Program Version 4.2.0 -  RELEASE  -
|  1> # ORCA input file
|  2> # SCF done        -47.239706981124          0.000477863249
|  3> ! B3LYP/G D3BJ Opt RIJCOSX def2-SVP def2/J
|  4> * xyz 0 1
|  5>    C        1.57363         0.09752        -0.30360
|  6>    C        0.92744         1.32441        -0.25897
|  7>    O        1.54564         2.53937        -0.19736
|  8>    C        2.95681         2.58286        -0.17195
|  9>    C        3.37328         4.04395        -0.10199
| 10>    C       -0.46376         1.35212        -0.27334
| 11>    C       -1.22301         0.19115        -0.33656
| 12>    C       -0.55079        -1.05384        -0.38118
| 13>    C        0.83352        -1.07507        -0.36435
| 14>    O       -1.34699        -2.16442        -0.42460
| 15>    C       -0.77719        -3.43452        -0.65305
| 16>    C       -0.34436        -3.63397        -2.10318
| 17>    C       -2.67234         0.20619        -0.34546
| 18>    C       -3.46242         1.27280        -0.54381
| 19>    C       -4.89946         1.19313        -0.53804
| 20>    C       -5.70130         2.23494        -0.74979
| 21>    H        2.64968         0.02676        -0.29027
| 22>    H        3.36690         2.11571        -1.07909
| 23>    H        3.33714         2.03857         0.70460
| 24>    H        2.99238         4.57884        -0.96779
| 25>    H        4.45697         4.12017        -0.08180
| 26>    H        2.96497         4.50227         0.79473
| 27>    H       -0.94424         2.31498        -0.22026
| 28>    H        1.37381        -2.00841        -0.39111
| 29>    H       -1.58055        -4.13584        -0.40784
| 30>    H        0.05825        -3.61997         0.03404
| 31>    H       -1.19324        -3.47626        -2.76420
| 32>    H        0.02852        -4.64559        -2.23974
| 33>    H        0.43667        -2.92792        -2.37540
| 34>    H       -3.13296        -0.76052        -0.19424
| 35>    H       -3.04150         2.25108        -0.72990
| 36>    H       -5.32328         0.21491        -0.34789
| 37>    H       -5.30689         3.21924        -0.94322
| 38>    H       -6.77365         2.14257        -0.73930
| 39> *
| 40>
| 41>                          ****END OF INPUT****
 Total Charge           Charge          ....    0
 Multiplicity           Mult            ....    1
 Number of Electrons    NEL             ....  118
Dispersion correction           -0.059327036
FINAL SINGLE POINT ENERGY      -694.288122477960
Dispersion correction            ... done
Dispersion correction           -0.058972938
FINAL SINGLE POINT ENERGY      -694.291527264231
Dispersion correction            ... done
Dispersion correction           -0.058980711
FINAL SINGLE POINT ENERGY      -694.291702365883
Dispersion correction            ... done
FINAL SINGLE POINT ENERGY      -694.291716012338
Dispersion correction            ... done
Dispersion correction           -0.058994878
FINAL SINGLE POINT ENERGY      -694.291721448741
Dispersion correction            ... done
Dispersion correction           -0.059010575
FINAL SINGLE POINT ENERGY      -694.291721206283
Dispersion correction            ... done
                    ***********************HURRAY********************

CARTESIAN COORDINATES (ANGSTROEM)
---------------------------------
  C      1.587636    0.072905   -0.240408
  C      0.925385    1.305372   -0.262532
  O      1.537977    2.518120   -0.222087
  C      2.948296    2.589875   -0.176205
  C      3.332861    4.056563   -0.157000
  C     -0.470163    1.326905   -0.332266
  C     -1.235579    0.155633   -0.383296
  C     -0.550489   -1.091226   -0.357411
  C      0.844392   -1.112844   -0.284371
  O     -1.329176   -2.210572   -0.389815
  C     -0.746790   -3.479537   -0.642689
  C     -0.304315   -3.640410   -2.091262
  C     -2.695748    0.176678   -0.465169
  C     -3.479842    1.277517   -0.512387
  C     -4.925765    1.241723   -0.593414
  C     -5.705613    2.336611   -0.639563
  H      2.674424    0.013211   -0.186858
  H      3.385764    2.077791   -1.055563
  H      3.327805    2.068819    0.724563
  H      2.956953    4.562944   -1.058940
  H      4.426653    4.174316   -0.117801
  H      2.894168    4.557783    0.718661
  H     -0.949653    2.305464   -0.350763
  H      1.381828   -2.059726   -0.261477
  H     -1.537634   -4.204060   -0.397875
  H      0.085628   -3.671200    0.058162
  H     -1.157060   -3.476152   -2.767244
  H      0.093012   -4.653664   -2.263462
  H      0.480455   -2.918088   -2.357403
  H     -3.175242   -0.804316   -0.492673
  H     -3.029042    2.275502   -0.489503
  H     -5.390469    0.248484   -0.617209
  H     -5.268725    3.340202   -0.619827
  H     -6.794250    2.266585   -0.700823

 Multiplicity           Mult            ....    1
 Number of Electrons    NEL             ....  118
 Basis Dimension        Dim             ....  314

ORBITAL ENERGIES
----------------

  NO   OCC          E(Eh)            E(eV)
   0   2.0000     -19.158710      -521.3350
   1   2.0000     -19.155889      -521.2582
   2   2.0000     -10.247232      -278.8414
   3   2.0000     -10.244894      -278.7777
   4   2.0000     -10.242230      -278.7052
   5   2.0000     -10.239781      -278.6386
   6   2.0000     -10.192973      -277.3649
   7   2.0000     -10.189125      -277.2602
   8   2.0000     -10.188871      -277.2533
   9   2.0000     -10.188654      -277.2474
  10   2.0000     -10.187592      -277.2185
  11   2.0000     -10.187525      -277.2167
  12   2.0000     -10.184314      -277.1293
  13   2.0000     -10.183522      -277.1077
  14   2.0000     -10.181230      -277.0454
  15   2.0000     -10.180593      -277.0280
  16   2.0000      -1.053753       -28.6741
  17   2.0000      -1.052863       -28.6499
  18   2.0000      -0.848182       -23.0802
  19   2.0000      -0.798545       -21.7295
  20   2.0000      -0.777747       -21.1636
  21   2.0000      -0.762105       -20.7379
  22   2.0000      -0.752628       -20.4800
  23   2.0000      -0.714004       -19.4290
  24   2.0000      -0.701941       -19.1008
  25   2.0000      -0.645959       -17.5775
  26   2.0000      -0.641153       -17.4467
  27   2.0000      -0.613048       -16.6819
  28   2.0000      -0.583017       -15.8647
  29   2.0000      -0.563432       -15.3318
  30   2.0000      -0.541816       -14.7436
  31   2.0000      -0.531498       -14.4628
  32   2.0000      -0.519933       -14.1481
  33   2.0000      -0.503315       -13.6959
  34   2.0000      -0.484734       -13.1903
  35   2.0000      -0.466009       -12.6808
  36   2.0000      -0.456618       -12.4252
  37   2.0000      -0.451784       -12.2937
  38   2.0000      -0.444591       -12.0979
  39   2.0000      -0.432133       -11.7589
  40   2.0000      -0.416255       -11.3269
  41   2.0000      -0.410837       -11.1795
  42   2.0000      -0.402164       -10.9434
  43   2.0000      -0.399117       -10.8605
  44   2.0000      -0.393589       -10.7101
  45   2.0000      -0.388352       -10.5676
  46   2.0000      -0.381815       -10.3897
  47   2.0000      -0.374264       -10.1842
  48   2.0000      -0.367912       -10.0114
  49   2.0000      -0.357521        -9.7286
  50   2.0000      -0.344707        -9.3800
  51   2.0000      -0.339767        -9.2455
  52   2.0000      -0.330251        -8.9866
  53   2.0000      -0.327407        -8.9092
  54   2.0000      -0.314688        -8.5631
  55   2.0000      -0.291479        -7.9315
  56   2.0000      -0.272845        -7.4245
  57   2.0000      -0.216349        -5.8871
  58   2.0000      -0.195684        -5.3248
  59   0.0000      -0.051519        -1.4019
  60   0.0000       0.007724         0.2102
  61   0.0000       0.031838         0.8664
  62   0.0000       0.056991         1.5508
  63   0.0000       0.060749         1.6531

MULLIKEN ATOMIC CHARGES
-----------------------
   0 C :   -0.108730
   1 C :    0.250271
   2 O :   -0.316990
   3 C :    0.153946
   4 C :    0.018530
   5 C :   -0.080266
   6 C :    0.048062
   7 C :    0.205778
   8 C :   -0.062633
   9 O :   -0.322855
  10 C :    0.177162
  11 C :   -0.021251
  12 C :    0.000452
  13 C :    0.023757
  14 C :    0.011163
  15 C :   -0.035453
  16 H :   -0.025124
  17 H :    0.006698
  18 H :    0.006220
  19 H :    0.021653
  20 H :    0.015683
  21 H :    0.021985
  22 H :   -0.034209
  23 H :   -0.032877
  24 H :    0.016414
  25 H :    0.007703
  26 H :    0.028697
  27 H :    0.014879
  28 H :    0.025280
  29 H :   -0.013984
  30 H :   -0.018129
  31 H :   -0.015346
  32 H :    0.011217
  33 H :    0.022296
Sum of atomic charges:    0.0000000

LOEWDIN ATOMIC CHARGES
----------------------
   0 C :   -0.070840
   1 C :    0.037964
   2 O :   -0.106615
   3 C :    0.081651
   4 C :   -0.059508
   5 C :   -0.029437
   6 C :   -0.041846
   7 C :    0.046120
   8 C :   -0.066337
   9 O :   -0.103771
  10 C :    0.082655
  11 C :   -0.070954
  12 C :   -0.015298
  13 C :   -0.024843
  14 C :   -0.024325
  15 C :   -0.057593
  16 H :    0.026309
  17 H :    0.008411
  18 H :    0.008263
  19 H :    0.028698
  20 H :    0.029409
  21 H :    0.028799
  22 H :    0.028927
  23 H :    0.025226
  24 H :    0.024034
  25 H :    0.008498
  26 H :    0.030704
  27 H :    0.029769
  28 H :    0.026425
  29 H :    0.026886
  30 H :    0.022453
  31 H :    0.026339
  32 H :    0.020239
  33 H :    0.023586

  Mayer bond orders larger than 0.100000
B(  0-C ,  1-C ) :   1.3052 B(  0-C ,  8-C ) :   1.2996 B(  0-C , 16-H ) :   0.9936
B(  1-C ,  2-O ) :   1.1303 B(  1-C ,  5-C ) :   1.3353 B(  2-O ,  3-C ) :   0.9553
B(  3-C ,  4-C ) :   1.1027 B(  3-C , 17-H ) :   0.9435 B(  3-C , 18-H ) :   0.9435
B(  4-C , 19-H ) :   0.9666 B(  4-C , 20-H ) :   0.9603 B(  4-C , 21-H ) :   0.9666
B(  5-C ,  6-C ) :   1.3472 B(  5-C , 22-H ) :   0.9932 B(  6-C ,  7-C ) :   1.2990
B(  6-C , 12-C ) :   1.0912 B(  7-C ,  8-C ) :   1.3332 B(  7-C ,  9-O ) :   1.1274
B(  8-C , 23-H ) :   0.9813 B(  9-O , 10-C ) :   0.9600 B( 10-C , 11-C ) :   1.1122
B( 10-C , 24-H ) :   0.9531 B( 10-C , 25-H ) :   0.9424 B( 11-C , 26-H ) :   0.9617
B( 11-C , 27-H ) :   0.9590 B( 11-C , 28-H ) :   0.9642 B( 12-C , 13-C ) :   1.6702
B( 12-C , 15-C ) :   0.1176 B( 12-C , 29-H ) :   0.9775 B( 13-C , 14-C ) :   1.1331
B( 13-C , 30-H ) :   0.9612 B( 14-C , 15-C ) :   1.8628 B( 14-C , 31-H ) :   0.9708
B( 15-C , 32-H ) :   0.9532 B( 15-C , 33-H ) :   0.9496

Dispersion correction           -0.059014892
FINAL SINGLE POINT ENERGY      -694.291709865446

DIPOLE MOMENT
-------------
                                X             Y             Z
Electronic contribution:     -3.71904      -0.59425       2.98198
Nuclear contribution   :      4.68251       0.01820      -3.13021
                        -----------------------------------------
Total Dipole Moment    :      0.96347      -0.57605      -0.14823
                        -----------------------------------------
Magnitude (a.u.)       :      1.13229
Magnitude (Debye)      :      2.87806

Rotational constants in cm-1:     0.016049     0.010880     0.006671
Rotational constants in MHz :   481.150902   326.179939   199.990839

                             ****ORCA TERMINATED NORMALLY****
TOTAL RUN TIME: 0 days 0 hours 19 minutes 7 seconds 92 msec
