                         Program Version 4.2.0 -  RELEASE  -
|  1> # ORCA input file
|  2> # SCF done        -37.095065351031          0.000396400310
|  3> ! B3LYP/G D3BJ Opt RIJCOSX def2-SVP def2/J
|  4> * xyz 0 1
|  5>    C       -1.74687        -1.29365         0.54115
|  6>    S       -2.84297        -0.01417         0.85298
|  7>    C       -1.79302         1.14561         0.09093
|  8>    C       -0.65662         0.53147        -0.37574
|  9>    C       -0.63521        -0.86899        -0.12020
| 10>    S        0.57812        -2.03260        -0.65444
| 11>    C        2.18088        -1.17910        -0.32100
| 12>    C        1.98415        -0.14743         0.75442
| 13>    O        1.87595        -0.41602         1.92144
| 14>    C        1.87901         1.26909         0.24434
| 15>    S        0.69404         1.37229        -1.14545
| 16>    C       -2.22248         2.52230         0.05101
| 17>    C       -1.79167         3.45805        -0.78922
| 18>    H       -1.98225        -2.29529         0.83811
| 19>    H        2.53985        -0.74876        -1.25428
| 20>    H        2.84050        -1.97384         0.02527
| 21>    H        2.83518         1.59483        -0.16628
| 22>    H        1.56470         1.94458         1.04094
| 23>    H       -2.99185         2.76062         0.77452
| 24>    H       -1.05914         3.25816        -1.55127
| 25>    H       -2.17339         4.46273        -0.73515
| 26> *
| 27>
| 28>                          ****END OF INPUT****
 Total Charge           Charge          ....    0
 Multiplicity           Mult            ....    1
 Number of Electrons    NEL             ....  118
Dispersion correction           -0.059634110
FINAL SINGLE POINT ENERGY     -1616.938594455973
Dispersion correction            ... done
Dispersion correction           -0.058780797
FINAL SINGLE POINT ENERGY     -1616.942655486327
Dispersion correction            ... done
Dispersion correction           -0.058492331
FINAL SINGLE POINT ENERGY     -1616.943152360737
Dispersion correction            ... done
FINAL SINGLE POINT ENERGY     -1616.943464151886
FINAL SINGLE POINT ENERGY     -1616.943655057196
FINAL SINGLE POINT ENERGY     -1616.943762569647
FINAL SINGLE POINT ENERGY     -1616.943778452449
Dispersion correction            ... done
Dispersion correction           -0.058674076
FINAL SINGLE POINT ENERGY     -1616.943808740173
Dispersion correction            ... done
Dispersion correction           -0.058655327
FINAL SINGLE POINT ENERGY     -1616.943819820995
Dispersion correction            ... done
                    ***********************HURRAY********************

CARTESIAN COORDINATES (ANGSTROEM)
---------------------------------
  C     -1.766182   -1.328028    0.545885
  S     -2.875958   -0.036505    0.805830
  C     -1.836073    1.127168    0.017733
  C     -0.690887    0.498413   -0.454060
  C     -0.653480   -0.910571   -0.146838
  S      0.574311   -2.058063   -0.698331
  C      2.192132   -1.266794   -0.234944
  C      2.043906   -0.090266    0.715855
  O      2.069129   -0.226547    1.915274
  C      1.851981    1.285049    0.086702
  S      0.651959    1.284338   -1.302894
  C     -2.307068    2.507511   -0.011319
  C     -1.739342    3.572853   -0.600742
  H     -1.978703   -2.331329    0.909035
  H      2.686787   -0.958380   -1.166473
  H      2.773330   -2.046541    0.275103
  H      2.808414    1.621688   -0.349504
  H      1.546752    1.990538    0.871085
  H     -3.249590    2.661424    0.525628
  H     -0.804344    3.502631   -1.156343
  H     -2.220162    4.551290   -0.524601

 Multiplicity           Mult            ....    1
 Number of Electrons    NEL             ....  118
 Basis Dimension        Dim             ....  234

ORBITAL ENERGIES
----------------

  NO   OCC          E(Eh)            E(eV)
   0   2.0000     -88.887934     -2418.7637
   1   2.0000     -88.862284     -2418.0657
   2   2.0000     -88.857440     -2417.9339
   3   2.0000     -19.142431      -520.8920
   4   2.0000     -10.294814      -280.1361
   5   2.0000     -10.237472      -278.5758
   6   2.0000     -10.233733      -278.4740
   7   2.0000     -10.230729      -278.3923
   8   2.0000     -10.229567      -278.3607
   9   2.0000     -10.228635      -278.3353
  10   2.0000     -10.225616      -278.2532
  11   2.0000     -10.212228      -277.8889
  12   2.0000     -10.195679      -277.4385
  13   2.0000      -7.983171      -217.2331
  14   2.0000      -7.956111      -216.4968
  15   2.0000      -7.951649      -216.3754
  16   2.0000      -5.951149      -161.9390
  17   2.0000      -5.947249      -161.8329
  18   2.0000      -5.944500      -161.7581
  19   2.0000      -5.925579      -161.2432
  20   2.0000      -5.921897      -161.1430
  21   2.0000      -5.921348      -161.1281
  22   2.0000      -5.917386      -161.0203
  23   2.0000      -5.914325      -160.9370
  24   2.0000      -5.909592      -160.8082
  25   2.0000      -1.051065       -28.6009
  26   2.0000      -0.904131       -24.6027
  27   2.0000      -0.832011       -22.6402
  28   2.0000      -0.808558       -22.0020
  29   2.0000      -0.780700       -21.2439
  30   2.0000      -0.758461       -20.6388
  31   2.0000      -0.720301       -19.6004
  32   2.0000      -0.670923       -18.2567
  33   2.0000      -0.664769       -18.0893
  34   2.0000      -0.606278       -16.4977
  35   2.0000      -0.570946       -15.5362
  36   2.0000      -0.547061       -14.8863
  37   2.0000      -0.521260       -14.1842
  38   2.0000      -0.483499       -13.1567
  39   2.0000      -0.479136       -13.0380
  40   2.0000      -0.476593       -12.9687
  41   2.0000      -0.467327       -12.7166
  42   2.0000      -0.462311       -12.5801
  43   2.0000      -0.435854       -11.8602
  44   2.0000      -0.420615       -11.4455
  45   2.0000      -0.411748       -11.2042
  46   2.0000      -0.407003       -11.0751
  47   2.0000      -0.392892       -10.6911
  48   2.0000      -0.386281       -10.5112
  49   2.0000      -0.375328       -10.2132
  50   2.0000      -0.364293        -9.9129
  51   2.0000      -0.352554        -9.5935
  52   2.0000      -0.337379        -9.1806
  53   2.0000      -0.315838        -8.5944
  54   2.0000      -0.283783        -7.7221
  55   2.0000      -0.270772        -7.3681
  56   2.0000      -0.248622        -6.7653
  57   2.0000      -0.238736        -6.4963
  58   2.0000      -0.221521        -6.0279
  59   0.0000      -0.061331        -1.6689
  60   0.0000      -0.050804        -1.3825
  61   0.0000      -0.008690        -0.2365
  62   0.0000       0.014398         0.3918
  63   0.0000       0.033334         0.9071

MULLIKEN ATOMIC CHARGES
-----------------------
   0 C :   -0.078695
   1 S :    0.124012
   2 C :   -0.114214
   3 C :   -0.063310
   4 C :   -0.039588
   5 S :    0.019989
   6 C :   -0.001717
   7 C :   -0.003189
   8 O :   -0.169304
   9 C :    0.002678
  10 S :   -0.005526
  11 C :    0.031978
  12 C :   -0.022570
  13 H :    0.028212
  14 H :    0.056198
  15 H :    0.065284
  16 H :    0.066924
  17 H :    0.059162
  18 H :   -0.012138
  19 H :    0.029725
  20 H :    0.026086
Sum of atomic charges:    0.0000000

LOEWDIN ATOMIC CHARGES
----------------------
   0 C :   -0.198669
   1 S :    0.452106
   2 C :   -0.173711
   3 C :   -0.224969
   4 C :   -0.220704
   5 S :    0.294970
   6 C :   -0.156226
   7 C :    0.049160
   8 O :   -0.120413
   9 C :   -0.149390
  10 S :    0.297158
  11 C :   -0.051177
  12 C :   -0.036652
  13 H :    0.029494
  14 H :    0.025734
  15 H :    0.037424
  16 H :    0.042494
  17 H :    0.034992
  18 H :    0.027702
  19 H :    0.012931
  20 H :    0.027746

  Mayer bond orders larger than 0.100000
B(  0-C ,  1-S ) :   1.1533 B(  0-C ,  4-C ) :   1.5639 B(  0-C , 13-H ) :   0.9637
B(  1-S ,  2-C ) :   1.1540 B(  2-C ,  3-C ) :   1.5206 B(  2-C , 11-C ) :   1.1148
B(  3-C ,  4-C ) :   1.2175 B(  3-C , 10-S ) :   1.0496 B(  4-C ,  5-S ) :   1.0335
B(  5-S ,  6-C ) :   0.9547 B(  6-C ,  7-C ) :   0.9647 B(  6-C , 14-H ) :   0.9312
B(  6-C , 15-H ) :   0.9293 B(  7-C ,  8-O ) :   2.1869 B(  7-C ,  9-C ) :   0.9633
B(  9-C , 10-S ) :   0.9998 B(  9-C , 16-H ) :   0.9222 B(  9-C , 17-H ) :   0.9288
B( 11-C , 12-C ) :   1.9254 B( 11-C , 18-H ) :   0.9411 B( 12-C , 19-H ) :   0.9383
B( 12-C , 20-H ) :   0.9400

Dispersion correction           -0.058649755
FINAL SINGLE POINT ENERGY     -1616.943823661623

DIPOLE MOMENT
-------------
                                X             Y             Z
Electronic contribution:     -3.18021      -6.63380      -0.06961
Nuclear contribution   :      3.27291       7.01453      -0.21281
                        -----------------------------------------
Total Dipole Moment    :      0.09270       0.38072      -0.28242
                        -----------------------------------------
Magnitude (a.u.)       :      0.48302
Magnitude (Debye)      :      1.22773

Rotational constants in cm-1:     0.026930     0.017034     0.012980
Rotational constants in MHz :   807.344525   510.665646   389.132948

                             ****ORCA TERMINATED NORMALLY****
TOTAL RUN TIME: 0 days 0 hours 16 minutes 16 seconds 106 msec
