                         Program Version 4.2.0 -  RELEASE  -
|  1> # ORCA input file
|  2> # SCF done        -49.100145950897          0.000247035021
|  3> ! B3LYP/G D3BJ Opt RIJCOSX def2-SVP def2/J
|  4> * xyz 0 1
|  5>    C        0.97516         0.14988         1.73090
|  6>    C       -0.14153        -0.49665         2.23492
|  7>    C       -1.37167        -0.34841         1.62437
|  8>    C       -1.50012         0.45075         0.48884
|  9>    C       -0.37194         1.09561        -0.01739
| 10>    C        0.85253         0.94600         0.60389
| 11>    N       -2.74463         0.60614        -0.13387
| 12>    C       -3.11262         1.85406        -0.64785
| 13>    C       -3.84897         1.94726        -1.82882
| 14>    C       -4.21194         3.18325        -2.32716
| 15>    C       -3.84202         4.34359        -1.66702
| 16>    C       -3.10572         4.25702        -0.49683
| 17>    C       -2.74563         3.02563         0.01449
| 18>    C       -3.61308        -0.48502        -0.24018
| 19>    C       -4.99199        -0.30870        -0.12466
| 20>    C       -5.84430        -1.38944        -0.23931
| 21>    C       -5.34108        -2.66097        -0.46032
| 22>    C       -3.97210        -2.84295        -0.56843
| 23>    C       -3.11195        -1.76740        -0.46407
| 24>    H        1.93408         0.03411         2.21277
| 25>    H       -0.05650        -1.11451         3.11681
| 26>    H       -2.24306        -0.84631         2.02418
| 27>    H       -0.46422         1.71054        -0.90077
| 28>    H        1.71910         1.44824         0.19940
| 29>    H       -4.13002         1.04508        -2.35232
| 30>    H       -4.78087         3.24046        -3.24362
| 31>    H       -4.12502         5.30767        -2.06147
| 32>    H       -2.81648         5.15567         0.02821
| 33>    H       -2.18023         2.96146         0.93276
| 34>    H       -5.38757         0.67974         0.05788
| 35>    H       -6.90986        -1.23811        -0.14698
| 36>    H       -6.01043        -3.50326        -0.54750
| 37>    H       -3.56996        -3.82980        -0.74560
| 38>    H       -2.04559        -1.91160        -0.55962
| 39> *
| 40>
| 41>                          ****END OF INPUT****
 Total Charge           Charge          ....    0
 Multiplicity           Mult            ....    1
 Number of Electrons    NEL             ....  130
Dispersion correction           -0.081038049
FINAL SINGLE POINT ENERGY      -749.241615700670
Dispersion correction            ... done
Dispersion correction           -0.079749520
FINAL SINGLE POINT ENERGY      -749.247113555124
Dispersion correction            ... done
Dispersion correction           -0.079858762
FINAL SINGLE POINT ENERGY      -749.247023722329
Dispersion correction            ... done
FINAL SINGLE POINT ENERGY      -749.247005464170
Dispersion correction            ... done
Dispersion correction           -0.079853266
FINAL SINGLE POINT ENERGY      -749.246906716157
Dispersion correction            ... done
Dispersion correction           -0.079857322
FINAL SINGLE POINT ENERGY      -749.246857730666
Dispersion correction            ... done
                    ***********************HURRAY********************

CARTESIAN COORDINATES (ANGSTROEM)
---------------------------------
  C      0.972270    0.063279    1.766184
  C     -0.193579   -0.485445    2.308821
  C     -1.427700   -0.271853    1.695433
  C     -1.510349    0.476528    0.509044
  C     -0.338838    1.030622   -0.031759
  C      0.889181    0.831069    0.600446
  N     -2.759768    0.645942   -0.140975
  C     -3.128533    1.905956   -0.663381
  C     -3.896592    2.003256   -1.837807
  C     -4.271874    3.251041   -2.334468
  C     -3.870440    4.425898   -1.691751
  C     -3.091761    4.333442   -0.534191
  C     -2.731284    3.089993   -0.015782
  C     -3.615222   -0.475474   -0.266816
  C     -5.003739   -0.351051   -0.091781
  C     -5.827836   -1.471627   -0.195806
  C     -5.286605   -2.736090   -0.448676
  C     -3.904967   -2.862763   -0.620986
  C     -3.076745   -1.743933   -0.546756
  H      1.935642   -0.108953    2.251126
  H     -0.145642   -1.074608    3.227720
  H     -2.336354   -0.697288    2.123909
  H     -0.398501    1.613645   -0.951862
  H      1.790508    1.268794    0.164496
  H     -4.205177    1.095252   -2.356626
  H     -4.870090    3.304798   -3.247351
  H     -4.164616    5.398753   -2.091533
  H     -2.766868    5.238544   -0.015030
  H     -2.139505    3.027339    0.898148
  H     -5.432063    0.627105    0.131395
  H     -6.905363   -1.354664   -0.053814
  H     -5.934377   -3.612556   -0.514144
  H     -3.462685   -3.839309   -0.833642
  H     -2.000758   -1.846610   -0.696155

 Multiplicity           Mult            ....    1
 Number of Electrons    NEL             ....  130
 Basis Dimension        Dim             ....  341

ORBITAL ENERGIES
----------------

  NO   OCC          E(Eh)            E(eV)
   0   2.0000     -14.359174      -390.7330
   1   2.0000     -10.230596      -278.3887
   2   2.0000     -10.230548      -278.3874
   3   2.0000     -10.230498      -278.3860
   4   2.0000     -10.193586      -277.3816
   5   2.0000     -10.193154      -277.3698
   6   2.0000     -10.192653      -277.3562
   7   2.0000     -10.192143      -277.3423
   8   2.0000     -10.190609      -277.3006
   9   2.0000     -10.190458      -277.2965
  10   2.0000     -10.190348      -277.2935
  11   2.0000     -10.189990      -277.2837
  12   2.0000     -10.189278      -277.2644
  13   2.0000     -10.189005      -277.2569
  14   2.0000     -10.188593      -277.2457
  15   2.0000     -10.187828      -277.2249
  16   2.0000     -10.186727      -277.1949
  17   2.0000     -10.186697      -277.1941
  18   2.0000     -10.185108      -277.1509
  19   2.0000      -0.963139       -26.2084
  20   2.0000      -0.850795       -23.1513
  21   2.0000      -0.849600       -23.1188
  22   2.0000      -0.829908       -22.5829
  23   2.0000      -0.753938       -20.5157
  24   2.0000      -0.753639       -20.5076
  25   2.0000      -0.738821       -20.1043
  26   2.0000      -0.737302       -20.0630
  27   2.0000      -0.735599       -20.0167
  28   2.0000      -0.701251       -19.0820
  29   2.0000      -0.626251       -17.0412
  30   2.0000      -0.625716       -17.0266
  31   2.0000      -0.601592       -16.3702
  32   2.0000      -0.596525       -16.2323
  33   2.0000      -0.595101       -16.1935
  34   2.0000      -0.568003       -15.4561
  35   2.0000      -0.535274       -14.5655
  36   2.0000      -0.535200       -14.5635
  37   2.0000      -0.502546       -13.6750
  38   2.0000      -0.481422       -13.1002
  39   2.0000      -0.479600       -13.0506
  40   2.0000      -0.468795       -12.7566
  41   2.0000      -0.452101       -12.3023
  42   2.0000      -0.451227       -12.2785
  43   2.0000      -0.440436       -11.9849
  44   2.0000      -0.432478       -11.7683
  45   2.0000      -0.431626       -11.7451
  46   2.0000      -0.425110       -11.5678
  47   2.0000      -0.422971       -11.5096
  48   2.0000      -0.421558       -11.4712
  49   2.0000      -0.381874       -10.3913
  50   2.0000      -0.373451       -10.1621
  51   2.0000      -0.372160       -10.1270
  52   2.0000      -0.371300       -10.1036
  53   2.0000      -0.361746        -9.8436
  54   2.0000      -0.360359        -9.8059
  55   2.0000      -0.354262        -9.6400
  56   2.0000      -0.345967        -9.4142
  57   2.0000      -0.343882        -9.3575
  58   2.0000      -0.314283        -8.5521
  59   2.0000      -0.266018        -7.2387
  60   2.0000      -0.264016        -7.1843
  61   2.0000      -0.262969        -7.1557
  62   2.0000      -0.252783        -6.8786
  63   2.0000      -0.252554        -6.8724
  64   2.0000      -0.190196        -5.1755
  65   0.0000      -0.024068        -0.6549
  66   0.0000      -0.021608        -0.5880
  67   0.0000      -0.019210        -0.5227
  68   0.0000      -0.002400        -0.0653
  69   0.0000      -0.001743        -0.0474

MULLIKEN ATOMIC CHARGES
-----------------------
   0 C :    0.028361
   1 C :    0.009902
   2 C :    0.002880
   3 C :    0.107263
   4 C :   -0.007938
   5 C :    0.016417
   6 N :   -0.203693
   7 C :    0.140041
   8 C :   -0.020121
   9 C :    0.003091
  10 C :    0.032657
  11 C :    0.013724
  12 C :   -0.022124
  13 C :    0.124236
  14 C :   -0.010562
  15 C :    0.001807
  16 C :    0.033140
  17 C :    0.009529
  18 C :   -0.011883
  19 H :   -0.021083
  20 H :   -0.015942
  21 H :   -0.013836
  22 H :   -0.013567
  23 H :   -0.019072
  24 H :   -0.012656
  25 H :   -0.016585
  26 H :   -0.024794
  27 H :   -0.019884
  28 H :   -0.011617
  29 H :   -0.014817
  30 H :   -0.013941
  31 H :   -0.019581
  32 H :   -0.020815
  33 H :   -0.008540
Sum of atomic charges:   -0.0000000

LOEWDIN ATOMIC CHARGES
----------------------
   0 C :   -0.038346
   1 C :   -0.021263
   2 C :   -0.034892
   3 C :    0.022681
   4 C :   -0.036878
   5 C :   -0.020662
   6 N :   -0.013286
   7 C :    0.025917
   8 C :   -0.042931
   9 C :   -0.021244
  10 C :   -0.043264
  11 C :   -0.020180
  12 C :   -0.043266
  13 C :    0.024448
  14 C :   -0.038915
  15 C :   -0.022535
  16 C :   -0.040712
  17 C :   -0.020666
  18 C :   -0.039235
  19 H :    0.025344
  20 H :    0.027872
  21 H :    0.031564
  22 H :    0.031274
  23 H :    0.027325
  24 H :    0.030100
  25 H :    0.027289
  26 H :    0.024175
  27 H :    0.026838
  28 H :    0.030323
  29 H :    0.030631
  30 H :    0.028057
  31 H :    0.025548
  32 H :    0.026913
  33 H :    0.031977

  Mayer bond orders larger than 0.100000
B(  0-C ,  1-C ) :   1.3687 B(  0-C ,  5-C ) :   1.3721 B(  0-C , 19-H ) :   0.9888
B(  1-C ,  2-C ) :   1.3741 B(  1-C , 20-H ) :   0.9789 B(  2-C ,  3-C ) :   1.3820
B(  2-C , 21-H ) :   0.9825 B(  3-C ,  4-C ) :   1.3775 B(  3-C ,  6-N ) :   0.9748
B(  4-C ,  5-C ) :   1.3736 B(  4-C , 22-H ) :   0.9840 B(  5-C , 23-H ) :   0.9788
B(  6-N ,  7-C ) :   0.9972 B(  6-N , 13-C ) :   0.9852 B(  7-C ,  8-C ) :   1.3669
B(  7-C , 12-C ) :   1.3700 B(  8-C ,  9-C ) :   1.3770 B(  8-C , 24-H ) :   0.9826
B(  9-C , 10-C ) :   1.3711 B(  9-C , 25-H ) :   0.9792 B( 10-C , 11-C ) :   1.3692
B( 10-C , 26-H ) :   0.9890 B( 11-C , 12-C ) :   1.3756 B( 11-C , 27-H ) :   0.9798
B( 12-C , 28-H ) :   0.9816 B( 13-C , 14-C ) :   1.3728 B( 13-C , 18-C ) :   1.3804
B( 14-C , 15-C ) :   1.3741 B( 14-C , 29-H ) :   0.9846 B( 15-C , 16-C ) :   1.3708
B( 15-C , 30-H ) :   0.9799 B( 16-C , 17-C ) :   1.3697 B( 16-C , 31-H ) :   0.9887
B( 17-C , 18-C ) :   1.3728 B( 17-C , 32-H ) :   0.9792 B( 18-C , 33-H ) :   0.9823

Dispersion correction           -0.079856415
FINAL SINGLE POINT ENERGY      -749.246854926789

DIPOLE MOMENT
-------------
                                X             Y             Z
Electronic contribution:     -0.00878       0.07590       0.00739
Nuclear contribution   :      0.06854      -0.14796       0.03837
                        -----------------------------------------
Total Dipole Moment    :      0.05976      -0.07206       0.04577
                        -----------------------------------------
Magnitude (a.u.)       :      0.10420
Magnitude (Debye)      :      0.26486

Rotational constants in cm-1:     0.013683     0.013171     0.007322
Rotational constants in MHz :   410.200745   394.859086   219.505681

                             ****ORCA TERMINATED NORMALLY****
TOTAL RUN TIME: 0 days 0 hours 26 minutes 4 seconds 390 msec
