                         Program Version 4.2.0 -  RELEASE  -
|  1> # ORCA input file
|  2> # SCF done        -27.559423030067          0.000474154911
|  3> ! B3LYP/G D3BJ Opt RIJCOSX def2-SVP def2/J
|  4> * xyz 0 1
|  5>    C       -1.29842        -1.35288         0.15604
|  6>    C       -2.14656        -0.31648         0.19209
|  7>    C       -1.44982         0.93920        -0.07470
|  8>    C       -0.15310         0.61570        -0.31162
|  9>    C        0.05093        -0.86904        -0.27149
| 10>    C        1.31115        -1.06315         0.56458
| 11>    C        2.29799        -0.04175         0.00447
| 12>    S        1.33824         1.49300        -0.35001
| 13>    C       -2.00622         2.26804        -0.04960
| 14>    C       -3.28258         2.56886         0.17227
| 15>    H       -1.52823        -2.39030         0.31361
| 16>    H       -3.19450        -0.36913         0.42518
| 17>    H        0.24552        -1.23747        -1.28858
| 18>    H        1.71677        -2.07216         0.49006
| 19>    H        1.09193        -0.84474         1.61135
| 20>    H        2.73106        -0.38181        -0.93748
| 21>    H        3.09705         0.21500         0.69677
| 22>    H       -1.28636         3.05717        -0.23354
| 23>    H       -4.02747         1.81343         0.35467
| 24>    H       -3.62683         3.58846         0.17981
| 25> *
| 26>
| 27>                          ****END OF INPUT****
 Total Charge           Charge          ....    0
 Multiplicity           Mult            ....    1
 Number of Electrons    NEL             ....   80
Dispersion correction           -0.041190040
FINAL SINGLE POINT ENERGY      -746.793220556692
Dispersion correction            ... done
Dispersion correction           -0.040926645
FINAL SINGLE POINT ENERGY      -746.796137381557
Dispersion correction            ... done
Dispersion correction           -0.040864229
FINAL SINGLE POINT ENERGY      -746.796272029792
Dispersion correction            ... done
FINAL SINGLE POINT ENERGY      -746.796289456559
Dispersion correction            ... done
Dispersion correction           -0.040830856
FINAL SINGLE POINT ENERGY      -746.796277378458
Dispersion correction            ... done
Dispersion correction           -0.040831080
FINAL SINGLE POINT ENERGY      -746.796268843911
Dispersion correction            ... done
                    ***********************HURRAY********************

CARTESIAN COORDINATES (ANGSTROEM)
---------------------------------
  C     -1.306532   -1.371511    0.177388
  C     -2.160819   -0.324105    0.205315
  C     -1.453672    0.946641   -0.071424
  C     -0.146316    0.619926   -0.299275
  C      0.050631   -0.872095   -0.248085
  C      1.337773   -1.069209    0.560368
  C      2.330607   -0.047855   -0.018277
  S      1.360382    1.506912   -0.345683
  C     -2.019458    2.282512   -0.018661
  C     -3.318559    2.588466    0.136260
  H     -1.564855   -2.418772    0.337950
  H     -3.226024   -0.384471    0.436355
  H      0.238140   -1.234220   -1.281004
  H      1.743065   -2.090770    0.483154
  H      1.142910   -0.848961    1.622470
  H      2.755015   -0.402220   -0.970357
  H      3.158572    0.196752    0.661402
  H     -1.295375    3.098854   -0.123696
  H     -4.088186    1.817429    0.229287
  H     -3.656748    3.626647    0.170392

 Multiplicity           Mult            ....    1
 Number of Electrons    NEL             ....   80
 Basis Dimension        Dim             ....  194

ORBITAL ENERGIES
----------------

  NO   OCC          E(Eh)            E(eV)
   0   2.0000     -88.850584     -2417.7473
   1   2.0000     -10.226671      -278.2819
   2   2.0000     -10.208059      -277.7754
   3   2.0000     -10.207682      -277.7651
   4   2.0000     -10.204589      -277.6810
   5   2.0000     -10.189633      -277.2740
   6   2.0000     -10.188811      -277.2516
   7   2.0000     -10.187940      -277.2279
   8   2.0000     -10.184014      -277.1211
   9   2.0000     -10.179947      -277.0104
  10   2.0000      -7.945464      -216.2071
  11   2.0000      -5.914401      -160.9390
  12   2.0000      -5.910830      -160.8418
  13   2.0000      -5.904567      -160.6714
  14   2.0000      -0.881476       -23.9862
  15   2.0000      -0.813183       -22.1278
  16   2.0000      -0.770177       -20.9576
  17   2.0000      -0.735455       -20.0127
  18   2.0000      -0.692058       -18.8318
  19   2.0000      -0.667963       -18.1762
  20   2.0000      -0.594512       -16.1775
  21   2.0000      -0.580934       -15.8080
  22   2.0000      -0.546301       -14.8656
  23   2.0000      -0.503653       -13.7051
  24   2.0000      -0.495381       -13.4800
  25   2.0000      -0.473665       -12.8891
  26   2.0000      -0.445548       -12.1240
  27   2.0000      -0.435613       -11.8536
  28   2.0000      -0.418242       -11.3810
  29   2.0000      -0.408712       -11.1216
  30   2.0000      -0.382782       -10.4160
  31   2.0000      -0.378523       -10.3001
  32   2.0000      -0.361157        -9.8276
  33   2.0000      -0.355440        -9.6720
  34   2.0000      -0.337932        -9.1956
  35   2.0000      -0.332325        -9.0430
  36   2.0000      -0.322876        -8.7859
  37   2.0000      -0.274263        -7.4631
  38   2.0000      -0.261894        -7.1265
  39   2.0000      -0.189610        -5.1595
  40   0.0000      -0.037622        -1.0237
  41   0.0000       0.005389         0.1466
  42   0.0000       0.025681         0.6988
  43   0.0000       0.055876         1.5205
  44   0.0000       0.080221         2.1829

MULLIKEN ATOMIC CHARGES
-----------------------
   0 C :   -0.017538
   1 C :    0.005431
   2 C :    0.009517
   3 C :   -0.139512
   4 C :    0.024467
   5 C :    0.061128
   6 C :   -0.057922
   7 S :    0.007714
   8 C :    0.000592
   9 C :   -0.038434
  10 H :   -0.017295
  11 H :   -0.022190
  12 H :    0.035731
  13 H :    0.014756
  14 H :    0.022830
  15 H :    0.047672
  16 H :    0.052199
  17 H :   -0.016903
  18 H :    0.010796
  19 H :    0.016961
Sum of atomic charges:   -0.0000000

LOEWDIN ATOMIC CHARGES
----------------------
   0 C :   -0.045826
   1 C :   -0.008336
   2 C :   -0.076416
   3 C :   -0.158175
   4 C :   -0.034141
   5 C :   -0.025914
   6 C :   -0.109450
   7 S :    0.278529
   8 C :   -0.025861
   9 C :   -0.061049
  10 H :    0.019996
  11 H :    0.021625
  12 H :    0.051518
  13 H :    0.027479
  14 H :    0.030460
  15 H :    0.021091
  16 H :    0.025561
  17 H :    0.026981
  18 H :    0.018511
  19 H :    0.023418

  Mayer bond orders larger than 0.100000
B(  0-C ,  1-C ) :   1.7510 B(  0-C ,  4-C ) :   1.0163 B(  0-C , 10-H ) :   0.9940
B(  1-C ,  2-C ) :   1.0729 B(  1-C , 11-H ) :   0.9926 B(  2-C ,  3-C ) :   1.6630
B(  2-C ,  8-C ) :   1.1215 B(  3-C ,  4-C ) :   1.0128 B(  3-C ,  7-S ) :   1.0581
B(  3-C ,  9-C ) :   0.1003 B(  4-C ,  5-C ) :   1.0383 B(  4-C , 12-H ) :   0.8657
B(  5-C ,  6-C ) :   1.0603 B(  5-C , 13-H ) :   0.9347 B(  5-C , 14-H ) :   0.9375
B(  6-C ,  7-S ) :   0.9794 B(  6-C , 15-H ) :   0.9465 B(  6-C , 16-H ) :   0.9506
B(  8-C ,  9-C ) :   1.9017 B(  8-C , 17-H ) :   0.9585 B(  9-C , 18-H ) :   0.9503
B(  9-C , 19-H ) :   0.9467

Dispersion correction           -0.040831032
FINAL SINGLE POINT ENERGY      -746.796265698157

DIPOLE MOMENT
-------------
                                X             Y             Z
Electronic contribution:      2.44608       3.22010      -1.66525
Nuclear contribution   :     -1.95130      -3.91865       1.75406
                        -----------------------------------------
Total Dipole Moment    :      0.49478      -0.69854       0.08881
                        -----------------------------------------
Magnitude (a.u.)       :      0.86061
Magnitude (Debye)      :      2.18750

Rotational constants in cm-1:     0.068164     0.031270     0.022158
Rotational constants in MHz :  2043.513330   937.437302   664.266424

                             ****ORCA TERMINATED NORMALLY****
TOTAL RUN TIME: 0 days 0 hours 7 minutes 32 seconds 39 msec
