                         Program Version 4.2.0 -  RELEASE  -
|  1> # ORCA input file
|  2> # SCF done        -26.654672294999          0.000645026164
|  3> ! B3LYP/G D3BJ Opt RIJCOSX def2-SVP def2/J
|  4> * xyz 0 1
|  5>    C       -1.55590        -1.24154         0.15831
|  6>    S       -2.71992         0.00371         0.25017
|  7>    C       -1.52610         1.21793         0.17039
|  8>    C       -0.25803         0.69324         0.07776
|  9>    C       -0.27386        -0.75059         0.07077
| 10>    C        0.97068        -1.43554        -0.02082
| 11>    S        1.08591        -3.20070        -0.03882
| 12>    C        2.13090        -0.71772        -0.09991
| 13>    C        2.12905         0.69379        -0.09226
| 14>    C        0.96804         1.39669        -0.00538
| 15>    H       -1.89431        -2.25922         0.17588
| 16>    H       -1.80983         2.25082         0.19630
| 17>    H       -0.21474        -3.45294         0.05988
| 18>    H        3.07060        -1.24403        -0.17103
| 19>    H        3.07598         1.20755        -0.15848
| 20>    H        0.95545         2.47570         0.00115
| 21> *
| 22>
| 23>                          ****END OF INPUT****
 Total Charge           Charge          ....    0
 Multiplicity           Mult            ....    1
 Number of Electrons    NEL             ....   86
Dispersion correction           -0.039551780
FINAL SINGLE POINT ENERGY     -1104.426422177947
Dispersion correction            ... done
Dispersion correction           -0.039391963
FINAL SINGLE POINT ENERGY     -1104.429035475327
Dispersion correction            ... done
Dispersion correction           -0.039363606
FINAL SINGLE POINT ENERGY     -1104.429156546763
Dispersion correction            ... done
FINAL SINGLE POINT ENERGY     -1104.429513800200
FINAL SINGLE POINT ENERGY     -1104.429659005435
FINAL SINGLE POINT ENERGY     -1104.428430550137
FINAL SINGLE POINT ENERGY     -1104.429798656791
FINAL SINGLE POINT ENERGY     -1104.429907752878
FINAL SINGLE POINT ENERGY     -1104.430006257346
FINAL SINGLE POINT ENERGY     -1104.430529657420
FINAL SINGLE POINT ENERGY     -1104.430830881734
FINAL SINGLE POINT ENERGY     -1104.431068713838
FINAL SINGLE POINT ENERGY     -1104.431132102492
Dispersion correction            ... done
Dispersion correction           -0.039354792
FINAL SINGLE POINT ENERGY     -1104.431134791121
Dispersion correction            ... done
Dispersion correction           -0.039353669
FINAL SINGLE POINT ENERGY     -1104.431136393859
Dispersion correction            ... done
                    ***********************HURRAY********************

CARTESIAN COORDINATES (ANGSTROEM)
---------------------------------
  C     -1.578824   -1.239354    0.291233
  S     -2.738965    0.022678    0.329991
  C     -1.557019    1.249729    0.150802
  C     -0.275940    0.714801    0.066033
  C     -0.290194   -0.738979    0.142494
  C      0.955322   -1.454230    0.066236
  S      1.014797   -3.229496    0.188515
  C      2.128676   -0.742981   -0.038686
  C      2.134310    0.686852   -0.085702
  C      0.969100    1.407588   -0.052048
  H     -1.884626   -2.274965    0.419270
  H     -1.846369    2.298255    0.111456
  H     -0.040809   -3.480668   -0.621980
  H      3.075026   -1.283261   -0.107844
  H      3.093001    1.202940   -0.174150
  H      0.976433    2.498240   -0.111711

 Multiplicity           Mult            ....    1
 Number of Electrons    NEL             ....   86
 Basis Dimension        Dim             ....  178

ORBITAL ENERGIES
----------------

  NO   OCC          E(Eh)            E(eV)
   0   2.0000     -88.890269     -2418.8272
   1   2.0000     -88.850606     -2417.7479
   2   2.0000     -10.224325      -278.2180
   3   2.0000     -10.216962      -278.0177
   4   2.0000     -10.216891      -278.0157
   5   2.0000     -10.206646      -277.7369
   6   2.0000     -10.204963      -277.6911
   7   2.0000     -10.197355      -277.4841
   8   2.0000     -10.197002      -277.4745
   9   2.0000     -10.196184      -277.4523
  10   2.0000      -7.984922      -217.2808
  11   2.0000      -7.944788      -216.1887
  12   2.0000      -5.952625      -161.9792
  13   2.0000      -5.948461      -161.8659
  14   2.0000      -5.947334      -161.8352
  15   2.0000      -5.913883      -160.9249
  16   2.0000      -5.910308      -160.8277
  17   2.0000      -5.903832      -160.6514
  18   2.0000      -0.896755       -24.4019
  19   2.0000      -0.838438       -22.8151
  20   2.0000      -0.789620       -21.4867
  21   2.0000      -0.737064       -20.0565
  22   2.0000      -0.724609       -19.7176
  23   2.0000      -0.690653       -18.7936
  24   2.0000      -0.610233       -16.6053
  25   2.0000      -0.584173       -15.8961
  26   2.0000      -0.568908       -15.4808
  27   2.0000      -0.516530       -14.0555
  28   2.0000      -0.475196       -12.9307
  29   2.0000      -0.470190       -12.7945
  30   2.0000      -0.439218       -11.9517
  31   2.0000      -0.422582       -11.4990
  32   2.0000      -0.417838       -11.3699
  33   2.0000      -0.411464       -11.1965
  34   2.0000      -0.379870       -10.3368
  35   2.0000      -0.370112       -10.0713
  36   2.0000      -0.358485        -9.7549
  37   2.0000      -0.345987        -9.4148
  38   2.0000      -0.333924        -9.0865
  39   2.0000      -0.300747        -8.1837
  40   2.0000      -0.256411        -6.9773
  41   2.0000      -0.249099        -6.7783
  42   2.0000      -0.205633        -5.5956
  43   0.0000      -0.065488        -1.7820
  44   0.0000       0.014758         0.4016
  45   0.0000       0.016500         0.4490
  46   0.0000       0.032314         0.8793
  47   0.0000       0.045242         1.2311

MULLIKEN ATOMIC CHARGES
-----------------------
   0 C :   -0.173644
   1 S :    0.141939
   2 C :   -0.142849
   3 C :    0.092561
   4 C :    0.105702
   5 C :   -0.080201
   6 S :    0.007577
   7 C :   -0.000601
   8 C :    0.021892
   9 C :    0.000503
  10 H :    0.015268
  11 H :    0.019802
  12 H :    0.056242
  13 H :   -0.021795
  14 H :   -0.016467
  15 H :   -0.025931
Sum of atomic charges:   -0.0000000

LOEWDIN ATOMIC CHARGES
----------------------
   0 C :   -0.217989
   1 S :    0.486663
   2 C :   -0.208436
   3 C :   -0.048744
   4 C :   -0.066186
   5 C :   -0.154943
   6 S :    0.206965
   7 C :   -0.048000
   8 C :   -0.029475
   9 C :   -0.023687
  10 H :    0.019605
  11 H :    0.025518
  12 H :   -0.025257
  13 H :    0.026892
  14 H :    0.028558
  15 H :    0.028515

  Mayer bond orders larger than 0.100000
B(  0-C ,  1-S ) :   1.2025 B(  0-C ,  2-C ) :   0.1158 B(  0-C ,  4-C ) :   1.4224
B(  0-C , 10-H ) :   0.9558 B(  1-S ,  2-C ) :   1.2097 B(  2-C ,  3-C ) :   1.4043
B(  2-C , 11-H ) :   0.9637 B(  3-C ,  4-C ) :   1.2091 B(  3-C ,  9-C ) :   1.1810
B(  4-C ,  5-C ) :   1.1978 B(  5-C ,  6-S ) :   1.0365 B(  5-C ,  7-C ) :   1.5535
B(  6-S , 12-H ) :   0.9388 B(  7-C ,  8-C ) :   1.2014 B(  7-C , 13-H ) :   0.9796
B(  8-C ,  9-C ) :   1.5394 B(  8-C , 14-H ) :   0.9805 B(  9-C , 15-H ) :   0.9936

Dispersion correction           -0.039355326
FINAL SINGLE POINT ENERGY     -1104.431135094464

DIPOLE MOMENT
-------------
                                X             Y             Z
Electronic contribution:     -4.26590      -2.30303       1.03139
Nuclear contribution   :      3.95210       2.64480      -1.22813
                        -----------------------------------------
Total Dipole Moment    :     -0.31380       0.34178      -0.19675
                        -----------------------------------------
Magnitude (a.u.)       :      0.50398
Magnitude (Debye)      :      1.28100

Rotational constants in cm-1:     0.051462     0.029132     0.018636
Rotational constants in MHz :  1542.784477   873.360970   558.692554

                             ****ORCA TERMINATED NORMALLY****
TOTAL RUN TIME: 0 days 0 hours 15 minutes 18 seconds 450 msec
