                         Program Version 4.2.0 -  RELEASE  -
|  1> # ORCA input file
|  2> # SCF done        -26.057158141738          0.000876934512
|  3> ! B3LYP/G D3BJ Opt RIJCOSX def2-SVP def2/J
|  4> * xyz 0 2
|  5>    C       -2.85528        -0.18387         0.01531
|  6>    S       -2.05666         1.31888         0.31347
|  7>    C       -0.52179         0.53083         0.19051
|  8>    C        0.81777         0.82015         0.27070
|  9>    C        1.57997        -0.38182         0.05903
| 10>    C        2.82424         0.13416         0.18577
| 11>    S        2.24464         1.83407         0.49446
| 12>    C        0.67175        -1.54910        -0.18277
| 13>    C       -0.66534        -0.85942        -0.07594
| 14>    C       -1.99684        -1.24053        -0.17035
| 15>    H       -3.92664        -0.20222        -0.00576
| 16>    H        3.83450        -0.21290         0.14429
| 17>    H        0.78657        -2.33464         0.56768
| 18>    H        0.81956        -1.99974        -1.16707
| 19>    H       -2.33662        -2.24213        -0.36511
| 20> *
| 21>
| 22>                          ****END OF INPUT****
 Total Charge           Charge          ....    0
 Multiplicity           Mult            ....    2
 Number of Electrons    NEL             ....   85
Dispersion correction           -0.035394450
FINAL SINGLE POINT ENERGY     -1103.714608702956
Dispersion correction            ... done
Dispersion correction           -0.035375877
FINAL SINGLE POINT ENERGY     -1103.717563303743
Dispersion correction            ... done
Dispersion correction           -0.035358705
FINAL SINGLE POINT ENERGY     -1103.717806733351
Dispersion correction            ... done
FINAL SINGLE POINT ENERGY     -1103.717853354142
Dispersion correction            ... done
Dispersion correction           -0.035333916
FINAL SINGLE POINT ENERGY     -1103.717864288311
Dispersion correction            ... done
Dispersion correction           -0.035334969
FINAL SINGLE POINT ENERGY     -1103.717865535518
Dispersion correction            ... done
                    ***********************HURRAY********************

CARTESIAN COORDINATES (ANGSTROEM)
---------------------------------
  C     -2.894187   -0.184915    0.017870
  S     -2.067202    1.327798    0.303984
  C     -0.527175    0.532635    0.181921
  C      0.839511    0.821992    0.268253
  C      1.598113   -0.372257    0.061307
  C      2.861361    0.143241    0.194776
  S      2.274025    1.867373    0.506069
  C      0.679507   -1.548687   -0.187150
  C     -0.676544   -0.860036   -0.079876
  C     -2.026143   -1.248802   -0.165349
  H     -3.982885   -0.202962   -0.001739
  H      3.887677   -0.217925    0.152316
  H      0.797707   -2.352387    0.559401
  H      0.830692   -2.009234   -1.178899
  H     -2.374626   -2.264115   -0.358663

 Multiplicity           Mult            ....    2
 Number of Electrons    NEL             ....   85
 Basis Dimension        Dim             ....  173

ORBITAL ENERGIES
----------------
                 SPIN UP ORBITALS
  NO   OCC          E(Eh)            E(eV)
   0   1.0000     -88.881551     -2418.5900
   1   1.0000     -88.856923     -2417.9198
   2   1.0000     -10.227746      -278.3111
   3   1.0000     -10.223902      -278.2065
   4   1.0000     -10.223102      -278.1847
   5   1.0000     -10.222925      -278.1799
   6   1.0000     -10.215989      -277.9912
   7   1.0000     -10.209191      -277.8062
   8   1.0000     -10.203725      -277.6575
   9   1.0000     -10.194977      -277.4194
  10   1.0000      -7.976002      -217.0381
  11   1.0000      -7.950206      -216.3361
  12   1.0000      -5.944353      -161.7541
  13   1.0000      -5.940249      -161.6424
  14   1.0000      -5.937044      -161.5552
  15   1.0000      -5.919496      -161.0777
  16   1.0000      -5.916092      -160.9850
  17   1.0000      -5.908527      -160.7792
  18   1.0000      -0.910746       -24.7827
  19   1.0000      -0.868597       -23.6357
  20   1.0000      -0.793144       -21.5825
  21   1.0000      -0.748255       -20.3611
  22   1.0000      -0.706023       -19.2119
  23   1.0000      -0.655039       -17.8245
  24   1.0000      -0.644253       -17.5310
  25   1.0000      -0.564674       -15.3656
  26   1.0000      -0.553172       -15.0526
  27   1.0000      -0.508912       -13.8482
  28   1.0000      -0.475247       -12.9321
  29   1.0000      -0.460378       -12.5275
  30   1.0000      -0.457200       -12.4410
  31   1.0000      -0.424989       -11.5645
  32   1.0000      -0.397333       -10.8120
  33   1.0000      -0.388404       -10.5690
  34   1.0000      -0.380408       -10.3514
  35   1.0000      -0.377681       -10.2772
  36   1.0000      -0.369633       -10.0582
  37   1.0000      -0.352633        -9.5956
  38   1.0000      -0.311722        -8.4824
  39   1.0000      -0.276129        -7.5139
  40   1.0000      -0.265086        -7.2134
  41   1.0000      -0.216278        -5.8852
  42   1.0000      -0.175588        -4.7780
  43   0.0000      -0.022275        -0.6061
  44   0.0000       0.000023         0.0006
  45   0.0000       0.018016         0.4902
  46   0.0000       0.035676         0.9708
  47   0.0000       0.059298         1.6136

                 SPIN DOWN ORBITALS
  NO   OCC          E(Eh)            E(eV)
   0   1.0000     -88.881431     -2418.5867
   1   1.0000     -88.857081     -2417.9241
   2   1.0000     -10.230101      -278.3752
   3   1.0000     -10.219279      -278.0807
   4   1.0000     -10.217002      -278.0187
   5   1.0000     -10.216114      -277.9946
   6   1.0000     -10.215507      -277.9781
   7   1.0000     -10.205572      -277.7077
   8   1.0000     -10.204528      -277.6793
   9   1.0000     -10.197352      -277.4841
  10   1.0000      -7.975886      -217.0349
  11   1.0000      -7.950359      -216.3403
  12   1.0000      -5.944311      -161.7529
  13   1.0000      -5.940240      -161.6422
  14   1.0000      -5.936563      -161.5421
  15   1.0000      -5.919938      -161.0897
  16   1.0000      -5.916458      -160.9950
  17   1.0000      -5.908407      -160.7759
  18   1.0000      -0.905727       -24.6461
  19   1.0000      -0.863668       -23.5016
  20   1.0000      -0.788936       -21.4680
  21   1.0000      -0.746209       -20.3054
  22   1.0000      -0.703807       -19.1516
  23   1.0000      -0.651097       -17.7172
  24   1.0000      -0.634016       -17.2525
  25   1.0000      -0.559254       -15.2181
  26   1.0000      -0.549996       -14.9662
  27   1.0000      -0.506738       -13.7891
  28   1.0000      -0.473417       -12.8823
  29   1.0000      -0.454871       -12.3777
  30   1.0000      -0.453696       -12.3457
  31   1.0000      -0.423226       -11.5166
  32   1.0000      -0.394922       -10.7464
  33   1.0000      -0.381318       -10.3762
  34   1.0000      -0.377622       -10.2756
  35   1.0000      -0.375627       -10.2213
  36   1.0000      -0.351201        -9.5567
  37   1.0000      -0.349600        -9.5131
  38   1.0000      -0.309163        -8.4128
  39   1.0000      -0.262847        -7.1524
  40   1.0000      -0.252507        -6.8711
  41   1.0000      -0.212687        -5.7875
  42   0.0000      -0.091940        -2.5018
  43   0.0000      -0.008157        -0.2220
  44   0.0000       0.006655         0.1811
  45   0.0000       0.031133         0.8472
  46   0.0000       0.037321         1.0156

MULLIKEN ATOMIC CHARGES AND SPIN POPULATIONS
--------------------------------------------
   0 C :   -0.096954    0.312083
   1 S :    0.131223    0.017340
   2 C :   -0.111414   -0.178076
   3 C :   -0.036081    0.498603
   4 C :   -0.055376   -0.193564
   5 C :   -0.147225    0.443173
   6 S :    0.031420   -0.036120
   7 C :    0.325144   -0.011558
   8 C :   -0.164704    0.317919
   9 C :    0.039329   -0.143392
  10 H :    0.033479   -0.014892
  11 H :    0.011559   -0.019072
  12 H :    0.030814    0.001205
  13 H :    0.026232    0.001291
  14 H :   -0.017448    0.005061
Sum of atomic charges         :   -0.0000000

LOEWDIN ATOMIC CHARGES AND SPIN POPULATIONS
-------------------------------------------
   0 C :   -0.178498    0.259154
   1 S :    0.414486    0.023806
   2 C :   -0.190939   -0.097200
   3 C :   -0.145226    0.399209
   4 C :   -0.088475   -0.103855
   5 C :   -0.122553    0.362803
   6 S :    0.260326   -0.008626
   7 C :   -0.012133   -0.002496
   8 C :   -0.038768    0.248942
   9 C :   -0.064310   -0.083697
  10 H :    0.025262    0.000116
  11 H :    0.015937   -0.000239
  12 H :    0.046491    0.000963
  13 H :    0.046239    0.001049
  14 H :    0.032161    0.000071

  Mayer bond orders larger than 0.100000
B(  0-C ,  1-S ) :   1.1416 B(  0-C ,  9-C ) :   1.4570 B(  0-C , 10-H ) :   0.9641
B(  1-S ,  2-C ) :   1.0652 B(  2-C ,  3-C ) :   1.4403 B(  2-C ,  8-C ) :   1.3599
B(  3-C ,  4-C ) :   1.2373 B(  3-C ,  6-S ) :   0.9732 B(  4-C ,  5-C ) :   1.5074
B(  4-C ,  7-C ) :   1.0172 B(  5-C ,  6-S ) :   0.9653 B(  5-C , 11-H ) :   0.9987
B(  7-C ,  8-C ) :   1.0035 B(  7-C , 12-H ) :   0.8873 B(  7-C , 13-H ) :   0.8836
B(  8-C ,  9-C ) :   1.3490 B(  9-C , 14-H ) :   0.9930

Dispersion correction           -0.035335320
FINAL SINGLE POINT ENERGY     -1103.717865565109

DIPOLE MOMENT
-------------
                                X             Y             Z
Electronic contribution:      0.58611       7.61824       1.43423
Nuclear contribution   :     -0.90851      -8.46143      -1.60285
                        -----------------------------------------
Total Dipole Moment    :     -0.32240      -0.84319      -0.16862
                        -----------------------------------------
Magnitude (a.u.)       :      0.91834
Magnitude (Debye)      :      2.33423

Rotational constants in cm-1:     0.075771     0.025457     0.019124
Rotational constants in MHz :  2271.558642   763.187307   573.321928

                             ****ORCA TERMINATED NORMALLY****
TOTAL RUN TIME: 0 days 0 hours 7 minutes 20 seconds 542 msec
