                         Program Version 4.2.0 -  RELEASE  -
|  1> # ORCA input file
|  2> # SCF done        -29.076194637291          0.000390040717
|  3> ! B3LYP/G D3BJ Opt RIJCOSX def2-SVP def2/J
|  4> * xyz 0 1
|  5>    C       -0.88522         0.64977        -0.23273
|  6>    S       -1.53300        -0.81090        -0.95571
|  7>    C       -0.13954        -1.62276        -0.36998
|  8>    C        0.68477        -0.73502         0.31141
|  9>    N        0.24299         0.53118         0.37289
| 10>    C        1.90529        -1.42786         0.83000
| 11>    C        1.66123        -2.82977         0.35324
| 12>    C        0.46355        -2.90988        -0.34273
| 13>    S        0.13961        -4.49806        -0.90899
| 14>    C        1.61888        -5.04894        -0.20536
| 15>    C        2.32078        -4.06679         0.42769
| 16>    H       -1.42650         1.57041        -0.31140
| 17>    H        1.97567        -1.36565         1.91727
| 18>    H        2.81981        -1.00232         0.41302
| 19>    H        1.87930        -6.08363        -0.30720
| 20>    H        3.26205        -4.23232         0.91978
| 21> *
| 22>
| 23>                          ****END OF INPUT****
 Total Charge           Charge          ....    0
 Multiplicity           Mult            ....    1
 Number of Electrons    NEL             ....   92
Dispersion correction           -0.039621473
FINAL SINGLE POINT ENERGY     -1158.519333389127
Dispersion correction            ... done
Dispersion correction           -0.039615062
FINAL SINGLE POINT ENERGY     -1158.522418578980
Dispersion correction            ... done
Dispersion correction           -0.039611481
FINAL SINGLE POINT ENERGY     -1158.522529359835
Dispersion correction            ... done
FINAL SINGLE POINT ENERGY     -1158.522514522154
Dispersion correction            ... done
Dispersion correction           -0.039606173
FINAL SINGLE POINT ENERGY     -1158.522541017628
Dispersion correction            ... done
Dispersion correction           -0.039604834
FINAL SINGLE POINT ENERGY     -1158.522540611708
Dispersion correction            ... done
                    ***********************HURRAY********************

CARTESIAN COORDINATES (ANGSTROEM)
---------------------------------
  C     -0.904350    0.686206   -0.231909
  S     -1.539810   -0.792752   -0.961049
  C     -0.146971   -1.613393   -0.371070
  C      0.669906   -0.722453    0.314115
  N      0.236654    0.561063    0.385487
  C      1.905630   -1.421289    0.832050
  C      1.666002   -2.842268    0.361191
  C      0.466315   -2.918892   -0.343416
  S      0.141036   -4.512398   -0.916184
  C      1.625710   -5.089639   -0.208028
  C      2.329167   -4.096328    0.436746
  H     -1.465312    1.617779   -0.326686
  H      1.997800   -1.341330    1.928748
  H      2.823555   -0.986809    0.400575
  H      1.902984   -6.135764   -0.326911
  H      3.281352   -4.274273    0.937540

 Multiplicity           Mult            ....    1
 Number of Electrons    NEL             ....   92
 Basis Dimension        Dim             ....  187

ORBITAL ENERGIES
----------------

  NO   OCC          E(Eh)            E(eV)
   0   2.0000     -88.887237     -2418.7447
   1   2.0000     -88.882787     -2418.6236
   2   2.0000     -14.333500      -390.0344
   3   2.0000     -10.247477      -278.8480
   4   2.0000     -10.224829      -278.2318
   5   2.0000     -10.223669      -278.2002
   6   2.0000     -10.220800      -278.1221
   7   2.0000     -10.217158      -278.0230
   8   2.0000     -10.211550      -277.8704
   9   2.0000     -10.201574      -277.5989
  10   2.0000     -10.200440      -277.5681
  11   2.0000      -7.981992      -217.2010
  12   2.0000      -7.977115      -217.0683
  13   2.0000      -5.950007      -161.9079
  14   2.0000      -5.946074      -161.8009
  15   2.0000      -5.945339      -161.7809
  16   2.0000      -5.943362      -161.7271
  17   2.0000      -5.941301      -161.6710
  18   2.0000      -5.938351      -161.5908
  19   2.0000      -0.966083       -26.2885
  20   2.0000      -0.895105       -24.3570
  21   2.0000      -0.822972       -22.3942
  22   2.0000      -0.800012       -21.7694
  23   2.0000      -0.743059       -20.2197
  24   2.0000      -0.697130       -18.9699
  25   2.0000      -0.685019       -18.6403
  26   2.0000      -0.615674       -16.7533
  27   2.0000      -0.560278       -15.2459
  28   2.0000      -0.541877       -14.7452
  29   2.0000      -0.534996       -14.5580
  30   2.0000      -0.489067       -13.3082
  31   2.0000      -0.463970       -12.6253
  32   2.0000      -0.463433       -12.6106
  33   2.0000      -0.447965       -12.1897
  34   2.0000      -0.413041       -11.2394
  35   2.0000      -0.401295       -10.9198
  36   2.0000      -0.392378       -10.6771
  37   2.0000      -0.383470       -10.4347
  38   2.0000      -0.381058       -10.3691
  39   2.0000      -0.358271        -9.7491
  40   2.0000      -0.351307        -9.5596
  41   2.0000      -0.305014        -8.2998
  42   2.0000      -0.279594        -7.6081
  43   2.0000      -0.274036        -7.4569
  44   2.0000      -0.257947        -7.0191
  45   2.0000      -0.208792        -5.6815
  46   0.0000      -0.053541        -1.4569
  47   0.0000       0.003437         0.0935
  48   0.0000       0.023370         0.6359
  49   0.0000       0.025242         0.6869
  50   0.0000       0.046976         1.2783

MULLIKEN ATOMIC CHARGES
-----------------------
   0 C :   -0.009076
   1 S :    0.106310
   2 C :   -0.066628
   3 C :   -0.199224
   4 N :   -0.077751
   5 C :    0.339451
   6 C :   -0.163399
   7 C :   -0.117353
   8 S :    0.132340
   9 C :   -0.097364
  10 C :    0.041570
  11 H :    0.040771
  12 H :    0.034017
  13 H :    0.029808
  14 H :    0.026940
  15 H :   -0.020411
Sum of atomic charges:   -0.0000000

LOEWDIN ATOMIC CHARGES
----------------------
   0 C :   -0.133783
   1 S :    0.401774
   2 C :   -0.213618
   3 C :   -0.046500
   4 N :   -0.094075
   5 C :   -0.009368
   6 C :   -0.056505
   7 C :   -0.204166
   8 S :    0.426582
   9 C :   -0.189279
  10 C :   -0.060934
  11 H :    0.019365
  12 H :    0.052222
  13 H :    0.052481
  14 H :    0.024680
  15 H :    0.031123

  Mayer bond orders larger than 0.100000
B(  0-C ,  1-S ) :   1.1207 B(  0-C ,  4-N ) :   1.6604 B(  0-C , 11-H ) :   0.9608
B(  1-S ,  2-C ) :   1.0992 B(  1-S ,  4-N ) :   0.1098 B(  2-C ,  3-C ) :   1.5116
B(  2-C ,  7-C ) :   1.1826 B(  3-C ,  4-N ) :   1.3873 B(  3-C ,  5-C ) :   1.0531
B(  5-C ,  6-C ) :   1.0013 B(  5-C , 12-H ) :   0.8734 B(  5-C , 13-H ) :   0.8707
B(  6-C ,  7-C ) :   1.5341 B(  6-C , 10-C ) :   1.2877 B(  7-C ,  8-S ) :   1.0980
B(  8-S ,  9-C ) :   1.1502 B(  9-C , 10-C ) :   1.5301 B(  9-C , 14-H ) :   0.9636
B( 10-C , 15-H ) :   0.9925

Dispersion correction           -0.039603704
FINAL SINGLE POINT ENERGY     -1158.522535687789

DIPOLE MOMENT
-------------
                                X             Y             Z
Electronic contribution:     -6.39350      -0.20650      -3.64795
Nuclear contribution   :      6.54042      -0.18831       3.61221
                        -----------------------------------------
Total Dipole Moment    :      0.14692      -0.39481      -0.03575
                        -----------------------------------------
Magnitude (a.u.)       :      0.42277
Magnitude (Debye)      :      1.07460

Rotational constants in cm-1:     0.066310     0.021943     0.016539
Rotational constants in MHz :  1987.934951   657.846482   495.818993

                             ****ORCA TERMINATED NORMALLY****
TOTAL RUN TIME: 0 days 0 hours 6 minutes 17 seconds 995 msec
