                         Program Version 4.2.0 -  RELEASE  -
|  1> # ORCA input file
|  2> # SCF done        -51.773626374237          0.000275338425
|  3> ! B3LYP/G D3BJ Opt RIJCOSX def2-SVP def2/J
|  4> * xyz 0 1
|  5>    C       -2.38716         1.41528         0.16820
|  6>    S       -3.22006        -0.06012         0.31531
|  7>    C       -1.76859        -0.99759         0.17021
|  8>    C       -0.66662        -0.16068         0.01175
|  9>    C       -1.03104         1.22893         0.01071
| 10>    C       -0.03015         2.21390        -0.14338
| 11>    C        1.26742         1.82621        -0.28613
| 12>    C        2.36195         2.83999        -0.45567
| 13>    F        1.89706         4.10191        -0.44519
| 14>    F        3.28430         2.78122         0.51919
| 15>    F        3.02366         2.70303        -1.61685
| 16>    C        1.64599         0.44251        -0.28278
| 17>    O        2.97339         0.22521        -0.43073
| 18>    C        3.44658        -1.09989        -0.43343
| 19>    C        0.69002        -0.52615        -0.13717
| 20>    C       -1.79078        -2.42950         0.21646
| 21>    C       -2.88352        -3.17523         0.37412
| 22>    H       -2.92373         2.34197         0.20337
| 23>    H       -0.30209         3.25776        -0.14682
| 24>    H        4.52498        -1.02289        -0.55659
| 25>    H        3.02445        -1.67214        -1.26538
| 26>    H        3.22263        -1.60481         0.51142
| 27>    H        0.95468        -1.57001        -0.13377
| 28>    H       -0.82590        -2.90722         0.11167
| 29>    H       -3.85870        -2.73012         0.48114
| 30>    H       -2.83425        -4.24878         0.39986
| 31> *
| 32>
| 33>                          ****END OF INPUT****
 Total Charge           Charge          ....    0
 Multiplicity           Mult            ....    1
 Number of Electrons    NEL             ....  132
Dispersion correction           -0.056834416
FINAL SINGLE POINT ENERGY     -1234.936145195465
Dispersion correction            ... done
Dispersion correction           -0.056556822
FINAL SINGLE POINT ENERGY     -1234.939609117899
Dispersion correction            ... done
Dispersion correction           -0.056493752
FINAL SINGLE POINT ENERGY     -1234.939744784615
Dispersion correction            ... done
FINAL SINGLE POINT ENERGY     -1234.939534085948
FINAL SINGLE POINT ENERGY     -1234.938424787309
FINAL SINGLE POINT ENERGY     -1234.939348520690
FINAL SINGLE POINT ENERGY     -1234.939259045987
FINAL SINGLE POINT ENERGY     -1234.939037567204
Dispersion correction            ... done
Dispersion correction           -0.056458387
FINAL SINGLE POINT ENERGY     -1234.939167482880
Dispersion correction            ... done
Dispersion correction           -0.056465068
FINAL SINGLE POINT ENERGY     -1234.939245584409
Dispersion correction            ... done
                    ***********************HURRAY********************

CARTESIAN COORDINATES (ANGSTROEM)
---------------------------------
  C     -2.404477    1.451642    0.055213
  S     -3.241269   -0.031624    0.231701
  C     -1.786662   -0.984019    0.161887
  C     -0.673389   -0.148577   -0.008111
  C     -1.034458    1.252133   -0.059385
  C     -0.007429    2.232340   -0.190203
  C      1.304042    1.849108   -0.285271
  C      2.387083    2.897009   -0.342942
  F      1.860045    4.133776   -0.444838
  F      3.140563    2.880088    0.772733
  F      3.214261    2.742944   -1.386609
  C      1.664061    0.445622   -0.272562
  O      2.982022    0.190198   -0.416603
  C      3.402539   -1.148863   -0.551783
  C      0.697005   -0.523609   -0.133165
  C     -1.790753   -2.424818    0.295248
  C     -2.855925   -3.229139    0.455827
  H     -2.944388    2.396854    0.049074
  H     -0.266009    3.291369   -0.206098
  H      4.480492   -1.121063   -0.755871
  H      2.886112   -1.647338   -1.390963
  H      3.219901   -1.727485    0.371248
  H      0.966603   -1.577017   -0.119089
  H     -0.796166   -2.881902    0.269118
  H     -3.876235   -2.836210    0.498007
  H     -2.733049   -4.308631    0.562956

 Multiplicity           Mult            ....    1
 Number of Electrons    NEL             ....  132
 Basis Dimension        Dim             ....  287

ORBITAL ENERGIES
----------------

  NO   OCC          E(Eh)            E(eV)
   0   2.0000     -88.890855     -2418.8431
   1   2.0000     -24.712834      -672.4704
   2   2.0000     -24.706375      -672.2947
   3   2.0000     -24.705542      -672.2720
   4   2.0000     -19.179840      -521.9100
   5   2.0000     -10.428619      -283.7771
   6   2.0000     -10.269102      -279.4365
   7   2.0000     -10.256307      -279.0883
   8   2.0000     -10.226880      -278.2875
   9   2.0000     -10.223133      -278.1856
  10   2.0000     -10.218062      -278.0476
  11   2.0000     -10.217533      -278.0332
  12   2.0000     -10.212395      -277.8934
  13   2.0000     -10.210769      -277.8491
  14   2.0000     -10.209209      -277.8067
  15   2.0000     -10.200291      -277.5640
  16   2.0000     -10.193106      -277.3685
  17   2.0000      -7.985593      -217.2990
  18   2.0000      -5.953372      -161.9995
  19   2.0000      -5.949290      -161.8884
  20   2.0000      -5.947635      -161.8434
  21   2.0000      -1.288579       -35.0640
  22   2.0000      -1.197093       -32.5746
  23   2.0000      -1.193513       -32.4772
  24   2.0000      -1.077818       -29.3289
  25   2.0000      -0.903760       -24.5926
  26   2.0000      -0.850264       -23.1369
  27   2.0000      -0.795853       -21.6563
  28   2.0000      -0.778174       -21.1752
  29   2.0000      -0.759558       -20.6686
  30   2.0000      -0.723906       -19.6985
  31   2.0000      -0.701207       -19.0808
  32   2.0000      -0.682439       -18.5701
  33   2.0000      -0.629439       -17.1279
  34   2.0000      -0.617542       -16.8042
  35   2.0000      -0.604478       -16.4487
  36   2.0000      -0.582304       -15.8453
  37   2.0000      -0.581265       -15.8170
  38   2.0000      -0.567100       -15.4316
  39   2.0000      -0.540530       -14.7086
  40   2.0000      -0.526272       -14.3206
  41   2.0000      -0.518794       -14.1171
  42   2.0000      -0.486478       -13.2377
  43   2.0000      -0.480308       -13.0698
  44   2.0000      -0.470847       -12.8124
  45   2.0000      -0.466032       -12.6814
  46   2.0000      -0.459489       -12.5033
  47   2.0000      -0.451420       -12.2838
  48   2.0000      -0.434076       -11.8118
  49   2.0000      -0.428458       -11.6589
  50   2.0000      -0.426528       -11.6064
  51   2.0000      -0.418960       -11.4005
  52   2.0000      -0.415938       -11.3183
  53   2.0000      -0.408559       -11.1175
  54   2.0000      -0.398904       -10.8547
  55   2.0000      -0.392551       -10.6818
  56   2.0000      -0.377438       -10.2706
  57   2.0000      -0.376168       -10.2360
  58   2.0000      -0.374159       -10.1814
  59   2.0000      -0.348646        -9.4871
  60   2.0000      -0.342564        -9.3216
  61   2.0000      -0.333301        -9.0696
  62   2.0000      -0.309671        -8.4266
  63   2.0000      -0.279867        -7.6156
  64   2.0000      -0.248031        -6.7493
  65   2.0000      -0.202706        -5.5159
  66   0.0000      -0.077951        -2.1212
  67   0.0000      -0.025461        -0.6928
  68   0.0000       0.012879         0.3504
  69   0.0000       0.031657         0.8614
  70   0.0000       0.047758         1.2996

MULLIKEN ATOMIC CHARGES
-----------------------
   0 C :   -0.122589
   1 S :    0.141388
   2 C :   -0.150627
   3 C :    0.144891
   4 C :    0.108124
   5 C :   -0.037369
   6 C :   -0.161304
   7 C :    0.568381
   8 F :   -0.175039
   9 F :   -0.173179
  10 F :   -0.166351
  11 C :    0.242239
  12 O :   -0.301349
  13 C :    0.186205
  14 C :   -0.150100
  15 C :    0.004101
  16 C :   -0.045595
  17 H :    0.023997
  18 H :   -0.012988
  19 H :    0.042238
  20 H :    0.022028
  21 H :    0.025009
  22 H :   -0.044494
  23 H :   -0.012803
  24 H :    0.018440
  25 H :    0.026744
Sum of atomic charges:   -0.0000000

LOEWDIN ATOMIC CHARGES
----------------------
   0 C :   -0.187319
   1 S :    0.480710
   2 C :   -0.198650
   3 C :   -0.031809
   4 C :   -0.060800
   5 C :    0.014951
   6 C :   -0.099072
   7 C :    0.176500
   8 F :   -0.066397
   9 F :   -0.066788
  10 F :   -0.059148
  11 C :    0.059631
  12 O :   -0.087812
  13 C :    0.082856
  14 C :   -0.083222
  15 C :   -0.040169
  16 C :   -0.063727
  17 H :    0.028498
  18 H :    0.035040
  19 H :    0.031160
  20 H :    0.015928
  21 H :    0.015544
  22 H :    0.025956
  23 H :    0.032379
  24 H :    0.018201
  25 H :    0.027556

  Mayer bond orders larger than 0.100000
B(  0-C ,  1-S ) :   1.2061 B(  0-C ,  2-C ) :   0.1044 B(  0-C ,  4-C ) :   1.3977
B(  0-C , 17-H ) :   0.9680 B(  1-S ,  2-C ) :   1.1318 B(  2-C ,  3-C ) :   1.3570
B(  2-C , 15-C ) :   1.1579 B(  3-C ,  4-C ) :   1.1911 B(  3-C , 14-C ) :   1.1627
B(  4-C ,  5-C ) :   1.1338 B(  5-C ,  6-C ) :   1.5919 B(  5-C , 18-H ) :   0.9994
B(  6-C ,  7-C ) :   0.9342 B(  6-C , 11-C ) :   1.1895 B(  7-C ,  8-F ) :   1.1287
B(  7-C ,  9-F ) :   1.1547 B(  7-C , 10-F ) :   1.1541 B( 11-C , 12-O ) :   1.1865
B( 11-C , 14-C ) :   1.4484 B( 12-O , 13-C ) :   0.9590 B( 13-C , 19-H ) :   0.9744
B( 13-C , 20-H ) :   0.9627 B( 13-C , 21-H ) :   0.9650 B( 14-C , 22-H ) :   0.9884
B( 15-C , 16-C ) :   1.8910 B( 15-C , 23-H ) :   0.9499 B( 16-C , 24-H ) :   0.9537
B( 16-C , 25-H ) :   0.9439

Dispersion correction           -0.056467149
FINAL SINGLE POINT ENERGY     -1234.939274422700

DIPOLE MOMENT
-------------
                                X             Y             Z
Electronic contribution:      8.04124      22.10740      -0.98312
Nuclear contribution   :     -8.51079     -23.11242       0.96028
                        -----------------------------------------
Total Dipole Moment    :     -0.46954      -1.00502      -0.02284
                        -----------------------------------------
Magnitude (a.u.)       :      1.10953
Magnitude (Debye)      :      2.82019

Rotational constants in cm-1:     0.026735     0.008441     0.006657
Rotational constants in MHz :   801.503656   253.055539   199.561290

                             ****ORCA TERMINATED NORMALLY****
TOTAL RUN TIME: 0 days 0 hours 28 minutes 16 seconds 650 msec
