                         Program Version 4.2.0 -  RELEASE  -
|  1> # ORCA input file
|  2> # SCF done        -33.925088260934          0.000724627418
|  3> ! B3LYP/G D3BJ Opt RIJCOSX def2-SVP def2/J
|  4> * xyz 0 1
|  5>    C        1.34776        -1.25673         0.37127
|  6>    S        2.60134        -0.10150         0.55489
|  7>    C        1.48263         1.21333         0.29272
|  8>    C        0.20738         0.73835         0.09618
|  9>    C        0.13761        -0.67970         0.13824
| 10>    C       -1.14087        -1.44246        -0.02373
| 11>    C       -2.25602        -0.54403        -0.55330
| 12>    C       -2.29513         0.79842         0.18067
| 13>    C       -2.48364         0.62999         1.68684
| 14>    C       -1.01135         1.57809        -0.12285
| 15>    C        2.02475         2.54768         0.32441
| 16>    C        1.47264         3.65832        -0.15730
| 17>    H        1.57653        -2.30161         0.44688
| 18>    H       -1.43109        -1.86093         0.94447
| 19>    H       -0.98451        -2.28537        -0.70166
| 20>    H       -3.21517        -1.05537        -0.44931
| 21>    H       -2.09302        -0.35405        -1.61699
| 22>    H       -3.14397         1.37389        -0.20706
| 23>    H       -1.59343         0.20620         2.14430
| 24>    H       -3.32953        -0.02147         1.89644
| 25>    H       -2.67321         1.59571         2.15101
| 26>    H       -0.96130         2.46900         0.50773
| 27>    H       -1.03215         1.90934        -1.16676
| 28>    H        3.00530         2.60871         0.78079
| 29>    H        0.52614         3.67247        -0.66389
| 30>    H        1.97957         4.60409        -0.06986
| 31> *
| 32>
| 33>                          ****END OF INPUT****
 Total Charge           Charge          ....    0
 Multiplicity           Mult            ....    1
 Number of Electrons    NEL             ....   96
Dispersion correction           -0.055490733
FINAL SINGLE POINT ENERGY      -825.412010646168
Dispersion correction            ... done
Dispersion correction           -0.054922582
FINAL SINGLE POINT ENERGY      -825.415387301045
Dispersion correction            ... done
Dispersion correction           -0.054818586
FINAL SINGLE POINT ENERGY      -825.415528153595
Dispersion correction            ... done
FINAL SINGLE POINT ENERGY      -825.415571443665
Dispersion correction            ... done
Dispersion correction           -0.054776867
FINAL SINGLE POINT ENERGY      -825.415566861503
Dispersion correction            ... done
Dispersion correction           -0.054784337
FINAL SINGLE POINT ENERGY      -825.415576156073
Dispersion correction            ... done
                    ***********************HURRAY********************

CARTESIAN COORDINATES (ANGSTROEM)
---------------------------------
  C      1.393107   -1.283932    0.346090
  S      2.640329   -0.111015    0.522595
  C      1.517292    1.209814    0.287119
  C      0.226417    0.729133    0.099528
  C      0.162263   -0.705548    0.130541
  C     -1.135755   -1.460770   -0.019296
  C     -2.265402   -0.564145   -0.542041
  C     -2.305120    0.794312    0.177032
  C     -2.545686    0.651369    1.684095
  C     -1.005578    1.570831   -0.113984
  C      2.056170    2.561112    0.305859
  C      1.485308    3.696164   -0.136820
  H      1.625843   -2.346154    0.411541
  H     -1.425067   -1.880737    0.959966
  H     -0.994528   -2.327354   -0.685178
  H     -3.230913   -1.084001   -0.427466
  H     -2.128128   -0.386228   -1.622939
  H     -3.140401    1.375053   -0.249199
  H     -1.672333    0.214342    2.193776
  H     -3.411980    0.003211    1.892842
  H     -2.737310    1.631424    2.148161
  H     -0.956494    2.475806    0.512566
  H     -1.024301    1.930923   -1.159338
  H      3.066527    2.636827    0.724502
  H      0.501350    3.725484   -0.603930
  H      2.021650    4.644448   -0.051893

 Multiplicity           Mult            ....    1
 Number of Electrons    NEL             ....   96
 Basis Dimension        Dim             ....  242

ORBITAL ENERGIES
----------------

  NO   OCC          E(Eh)            E(eV)
   0   2.0000     -88.865278     -2418.1471
   1   2.0000     -10.208624      -277.7908
   2   2.0000     -10.203211      -277.6435
   3   2.0000     -10.199790      -277.5504
   4   2.0000     -10.190983      -277.3107
   5   2.0000     -10.190727      -277.3038
   6   2.0000     -10.190698      -277.3030
   7   2.0000     -10.190325      -277.2929
   8   2.0000     -10.188846      -277.2526
   9   2.0000     -10.185103      -277.1507
  10   2.0000     -10.184404      -277.1317
  11   2.0000     -10.177788      -276.9517
  12   2.0000      -7.960502      -216.6163
  13   2.0000      -5.928496      -161.3226
  14   2.0000      -5.924589      -161.2163
  15   2.0000      -5.921899      -161.1431
  16   2.0000      -0.879657       -23.9367
  17   2.0000      -0.820742       -22.3335
  18   2.0000      -0.781675       -21.2705
  19   2.0000      -0.745974       -20.2990
  20   2.0000      -0.735224       -20.0065
  21   2.0000      -0.691883       -18.8271
  22   2.0000      -0.668159       -18.1815
  23   2.0000      -0.622552       -16.9405
  24   2.0000      -0.596236       -16.2244
  25   2.0000      -0.565101       -15.3772
  26   2.0000      -0.537781       -14.6338
  27   2.0000      -0.500635       -13.6230
  28   2.0000      -0.482253       -13.1228
  29   2.0000      -0.461632       -12.5616
  30   2.0000      -0.452792       -12.3211
  31   2.0000      -0.446283       -12.1440
  32   2.0000      -0.431044       -11.7293
  33   2.0000      -0.411037       -11.1849
  34   2.0000      -0.406450       -11.0601
  35   2.0000      -0.397519       -10.8170
  36   2.0000      -0.390072       -10.6144
  37   2.0000      -0.377540       -10.2734
  38   2.0000      -0.369702       -10.0601
  39   2.0000      -0.360001        -9.7961
  40   2.0000      -0.351034        -9.5521
  41   2.0000      -0.333878        -9.0853
  42   2.0000      -0.330074        -8.9818
  43   2.0000      -0.318076        -8.6553
  44   2.0000      -0.311179        -8.4676
  45   2.0000      -0.293535        -7.9875
  46   2.0000      -0.238035        -6.4773
  47   2.0000      -0.210832        -5.7370
  48   0.0000      -0.038958        -1.0601
  49   0.0000       0.024961         0.6792
  50   0.0000       0.039203         1.0668
  51   0.0000       0.046196         1.2571
  52   0.0000       0.072818         1.9815

MULLIKEN ATOMIC CHARGES
-----------------------
   0 C :   -0.133689
   1 S :    0.097993
   2 C :   -0.165408
   3 C :   -0.051473
   4 C :   -0.050100
   5 C :    0.117832
   6 C :    0.044499
   7 C :   -0.100735
   8 C :    0.051346
   9 C :    0.141198
  10 C :    0.032997
  11 C :   -0.039697
  12 H :    0.008543
  13 H :    0.007856
  14 H :    0.003719
  15 H :   -0.008620
  16 H :   -0.001038
  17 H :   -0.016610
  18 H :    0.021190
  19 H :    0.002879
  20 H :    0.002698
  21 H :    0.004573
  22 H :    0.012926
  23 H :   -0.014711
  24 H :    0.012304
  25 H :    0.019528
Sum of atomic charges:    0.0000000

LOEWDIN ATOMIC CHARGES
----------------------
   0 C :   -0.202268
   1 S :    0.425652
   2 C :   -0.186558
   3 C :   -0.055362
   4 C :   -0.065408
   5 C :   -0.025344
   6 C :   -0.024443
   7 C :   -0.032581
   8 C :   -0.049689
   9 C :   -0.019661
  10 C :   -0.040188
  11 C :   -0.061776
  12 H :    0.021086
  13 H :    0.028608
  14 H :    0.030257
  15 H :    0.019910
  16 H :    0.020495
  17 H :    0.020814
  18 H :    0.024463
  19 H :    0.020491
  20 H :    0.022573
  21 H :    0.028649
  22 H :    0.029089
  23 H :    0.026738
  24 H :    0.019618
  25 H :    0.024833

  Mayer bond orders larger than 0.100000
B(  0-C ,  1-S ) :   1.1539 B(  0-C ,  4-C ) :   1.5332 B(  0-C , 12-H ) :   0.9673
B(  1-S ,  2-C ) :   1.1245 B(  2-C ,  3-C ) :   1.5005 B(  2-C , 10-C ) :   1.1143
B(  3-C ,  4-C ) :   1.2942 B(  3-C ,  9-C ) :   1.0661 B(  4-C ,  5-C ) :   1.0360
B(  5-C ,  6-C ) :   1.0901 B(  5-C , 13-H ) :   0.9128 B(  5-C , 14-H ) :   0.9186
B(  6-C ,  7-C ) :   1.0541 B(  6-C , 15-H ) :   0.9301 B(  6-C , 16-H ) :   0.9392
B(  7-C ,  8-C ) :   1.0694 B(  7-C ,  9-C ) :   1.0512 B(  7-C , 17-H ) :   0.9107
B(  8-C , 18-H ) :   0.9626 B(  8-C , 19-H ) :   0.9652 B(  8-C , 20-H ) :   0.9591
B(  9-C , 21-H ) :   0.9055 B(  9-C , 22-H ) :   0.9002 B( 10-C , 11-C ) :   1.9148
B( 10-C , 23-H ) :   0.9396 B( 11-C , 24-H ) :   0.9482 B( 11-C , 25-H ) :   0.9415

Dispersion correction           -0.054784094
FINAL SINGLE POINT ENERGY      -825.415575475697

DIPOLE MOMENT
-------------
                                X             Y             Z
Electronic contribution:     15.38892      -3.22216      -0.32694
Nuclear contribution   :    -15.83509       3.08015       0.28885
                        -----------------------------------------
Total Dipole Moment    :     -0.44617      -0.14201      -0.03810
                        -----------------------------------------
Magnitude (a.u.)       :      0.46977
Magnitude (Debye)      :      1.19406

Rotational constants in cm-1:     0.039985     0.023206     0.016345
Rotational constants in MHz :  1198.722396   695.696760   489.999697

                             ****ORCA TERMINATED NORMALLY****
TOTAL RUN TIME: 0 days 0 hours 11 minutes 21 seconds 706 msec
