                         Program Version 4.2.0 -  RELEASE  -
|  1> # ORCA input file
|  2> # SCF done        -29.100947584231          0.000549495740
|  3> ! B3LYP/G D3BJ Opt RIJCOSX def2-SVP def2/J
|  4> * xyz 0 1
|  5>    C       -0.29366         1.04809        -0.20598
|  6>    O       -1.20707         0.12187        -0.55894
|  7>    C       -0.57927        -1.06883        -0.58147
|  8>    C        0.73855        -0.93164        -0.24848
|  9>    C        0.92616         0.46822        -0.00076
| 10>    O        2.10576         1.04921         0.36149
| 11>    C        2.05658         2.43986         0.56702
| 12>    O        1.61343        -1.96795        -0.19791
| 13>    C        2.92008        -1.68104         0.25321
| 14>    H       -0.63118         2.06190        -0.13873
| 15>    H       -1.14909        -1.93437        -0.84572
| 16>    H        1.35613         2.69749         1.36759
| 17>    H        1.76301         2.96531        -0.34721
| 18>    H        3.06430         2.73604         0.85232
| 19>    H        3.45285        -2.63013         0.22532
| 20>    H        2.91269        -1.29314         1.27537
| 21>    H        3.41905        -0.95839        -0.39672
| 22> *
| 23>
| 24>                          ****END OF INPUT****
 Total Charge           Charge          ....    0
 Multiplicity           Mult            ....    1
 Number of Electrons    NEL             ....   68
Dispersion correction           -0.024401077
FINAL SINGLE POINT ENERGY      -458.738003610119
Dispersion correction            ... done
Dispersion correction           -0.024322636
FINAL SINGLE POINT ENERGY      -458.739538235253
Dispersion correction            ... done
Dispersion correction           -0.024343704
FINAL SINGLE POINT ENERGY      -458.739603695349
Dispersion correction            ... done
FINAL SINGLE POINT ENERGY      -458.739585402165
FINAL SINGLE POINT ENERGY      -458.739562461228
FINAL SINGLE POINT ENERGY      -458.739534243776
FINAL SINGLE POINT ENERGY      -458.739521375867
FINAL SINGLE POINT ENERGY      -458.739519501376
Dispersion correction            ... done
Dispersion correction           -0.024328780
FINAL SINGLE POINT ENERGY      -458.739523276301
Dispersion correction            ... done
Dispersion correction           -0.024328335
FINAL SINGLE POINT ENERGY      -458.739527141577
Dispersion correction            ... done
                    ***********************HURRAY********************

CARTESIAN COORDINATES (ANGSTROEM)
---------------------------------
  C     -0.312919    1.068473   -0.237575
  O     -1.229169    0.110635   -0.540713
  C     -0.591737   -1.088817   -0.548798
  C      0.738944   -0.927445   -0.261449
  C      0.922083    0.493353   -0.054614
  O      2.104358    1.069575    0.265322
  C      2.066383    2.446062    0.570272
  O      1.626484   -1.944324   -0.226666
  C      2.934661   -1.700291    0.258118
  H     -0.670414    2.091760   -0.186970
  H     -1.182084   -1.969680   -0.778058
  H      1.339351    2.658138    1.375076
  H      1.795341    3.047934   -0.316207
  H      3.071891    2.731391    0.907716
  H      3.461947   -2.662682    0.206349
  H      2.925092   -1.344243    1.302980
  H      3.468107   -0.957337   -0.354383

 Multiplicity           Mult            ....    1
 Number of Electrons    NEL             ....   68
 Basis Dimension        Dim             ....  166

ORBITAL ENERGIES
----------------

  NO   OCC          E(Eh)            E(eV)
   0   2.0000     -19.191163      -522.2181
   1   2.0000     -19.171426      -521.6810
   2   2.0000     -19.156145      -521.2652
   3   2.0000     -10.251520      -278.9580
   4   2.0000     -10.242953      -278.7249
   5   2.0000     -10.237222      -278.5690
   6   2.0000     -10.235778      -278.5297
   7   2.0000     -10.228343      -278.3274
   8   2.0000     -10.221667      -278.1457
   9   2.0000      -1.096382       -29.8341
  10   2.0000      -1.065603       -28.9965
  11   2.0000      -1.046921       -28.4882
  12   2.0000      -0.791253       -21.5311
  13   2.0000      -0.743213       -20.2239
  14   2.0000      -0.709855       -19.3161
  15   2.0000      -0.685624       -18.6568
  16   2.0000      -0.584081       -15.8937
  17   2.0000      -0.575686       -15.6652
  18   2.0000      -0.549519       -14.9532
  19   2.0000      -0.498063       -13.5530
  20   2.0000      -0.484519       -13.1844
  21   2.0000      -0.481972       -13.1151
  22   2.0000      -0.459599       -12.5063
  23   2.0000      -0.443443       -12.0667
  24   2.0000      -0.438237       -11.9250
  25   2.0000      -0.434748       -11.8301
  26   2.0000      -0.427899       -11.6437
  27   2.0000      -0.374712       -10.1964
  28   2.0000      -0.357401        -9.7254
  29   2.0000      -0.352233        -9.5847
  30   2.0000      -0.336351        -9.1526
  31   2.0000      -0.313117        -8.5204
  32   2.0000      -0.223451        -6.0804
  33   2.0000      -0.209093        -5.6897
  34   0.0000       0.019673         0.5353
  35   0.0000       0.057626         1.5681
  36   0.0000       0.067800         1.8449
  37   0.0000       0.090961         2.4752
  38   0.0000       0.095139         2.5889

MULLIKEN ATOMIC CHARGES
-----------------------
   0 C :    0.004273
   1 O :   -0.215534
   2 C :    0.036766
   3 C :    0.175083
   4 C :    0.129682
   5 O :   -0.323309
   6 C :    0.189549
   7 O :   -0.314829
   8 C :    0.199663
   9 H :   -0.005604
  10 H :   -0.002853
  11 H :    0.016060
  12 H :    0.019237
  13 H :    0.030957
  14 H :    0.025602
  15 H :    0.011924
  16 H :    0.023332
Sum of atomic charges:   -0.0000000

LOEWDIN ATOMIC CHARGES
----------------------
   0 C :   -0.034758
   1 O :   -0.003830
   2 C :   -0.005385
   3 C :   -0.016877
   4 C :   -0.028793
   5 O :   -0.104778
   6 C :    0.083467
   7 O :   -0.109938
   8 C :    0.083709
   9 H :    0.017755
  10 H :    0.021677
  11 H :    0.012442
  12 H :    0.013056
  13 H :    0.025452
  14 H :    0.021855
  15 H :    0.012000
  16 H :    0.012945

  Mayer bond orders larger than 0.100000
B(  0-C ,  1-O ) :   1.1090 B(  0-C ,  2-C ) :   0.1049 B(  0-C ,  4-C ) :   1.4358
B(  0-C ,  9-H ) :   1.0168 B(  1-O ,  2-C ) :   1.1162 B(  2-C ,  3-C ) :   1.5134
B(  2-C , 10-H ) :   1.0121 B(  3-C ,  4-C ) :   1.2077 B(  3-C ,  7-O ) :   1.1443
B(  4-C ,  5-O ) :   1.1102 B(  5-O ,  6-C ) :   0.9649 B(  6-C , 11-H ) :   0.9615
B(  6-C , 12-H ) :   0.9656 B(  6-C , 13-H ) :   0.9797 B(  7-O ,  8-C ) :   0.9510
B(  8-C , 14-H ) :   0.9790 B(  8-C , 15-H ) :   0.9689 B(  8-C , 16-H ) :   0.9686

Dispersion correction           -0.024326883
FINAL SINGLE POINT ENERGY      -458.739531274431

DIPOLE MOMENT
-------------
                                X             Y             Z
Electronic contribution:     -5.49835      -2.93789      -2.20828
Nuclear contribution   :      6.09066       3.66233       2.55492
                        -----------------------------------------
Total Dipole Moment    :      0.59230       0.72443       0.34665
                        -----------------------------------------
Magnitude (a.u.)       :      0.99789
Magnitude (Debye)      :      2.53644

Rotational constants in cm-1:     0.064513     0.060923     0.031755
Rotational constants in MHz :  1934.049175  1826.434433   952.005428

                             ****ORCA TERMINATED NORMALLY****
TOTAL RUN TIME: 0 days 0 hours 7 minutes 12 seconds 205 msec
