                         Program Version 4.2.0 -  RELEASE  -
|  1> # ORCA input file
|  2> # SCF done        -44.643518191925          0.000563582356
|  3> ! B3LYP/G D3BJ Opt RIJCOSX def2-SVP def2/J
|  4> * xyz 0 1
|  5>    C        1.55776         1.16279         0.04085
|  6>    S        2.78791        -0.03613         0.03833
|  7>    C        1.62052        -1.28267        -0.09249
|  8>    C        0.35021        -0.79111        -0.13015
|  9>    C        0.31195         0.62885        -0.06181
| 10>    C       -0.97162         1.40571        -0.04776
| 11>    C       -2.09436         0.55610        -0.66984
| 12>    C       -2.16233        -0.83771        -0.04840
| 13>    C       -0.88219        -1.63667        -0.26787
| 14>    N       -0.82809        -2.22941        -1.64204
| 15>    O       -1.55265        -1.77908        -2.49160
| 16>    O       -0.02789        -3.11823        -1.80319
| 17>    N       -1.24992         1.82255         1.31088
| 18>    C       -2.16444         2.81977         1.56368
| 19>    C       -2.83202         2.97250         2.70103
| 20>    H        1.82186         2.19796         0.11896
| 21>    H        1.92966        -2.30730        -0.15172
| 22>    H       -0.85101         2.32177        -0.63895
| 23>    H       -1.92710         0.46710        -1.74347
| 24>    H       -3.04731         1.06490        -0.51457
| 25>    H       -3.00275        -1.38366        -0.48113
| 26>    H       -2.33625        -0.75443         1.02643
| 27>    H       -0.82171        -2.49485         0.41082
| 28>    H       -1.24026         1.07862         1.99460
| 29>    H       -2.26192         3.53605         0.75872
| 30>    H       -2.73947         2.27007         3.51204
| 31>    H       -3.46830         3.82105         2.86341
| 32> *
| 33>
| 34>                          ****END OF INPUT****
 Total Charge           Charge          ....    0
 Multiplicity           Mult            ....    1
 Number of Electrons    NEL             ....  118
Dispersion correction           -0.059238422
FINAL SINGLE POINT ENERGY     -1045.778390576478
Dispersion correction            ... done
Dispersion correction           -0.058475638
FINAL SINGLE POINT ENERGY     -1045.783092660757
Dispersion correction            ... done
Dispersion correction           -0.058496849
FINAL SINGLE POINT ENERGY     -1045.782184561394
Dispersion correction            ... done
FINAL SINGLE POINT ENERGY     -1045.783679753173
FINAL SINGLE POINT ENERGY     -1045.783766911648
FINAL SINGLE POINT ENERGY     -1045.783793306989
FINAL SINGLE POINT ENERGY     -1045.783811891220
FINAL SINGLE POINT ENERGY     -1045.783797284791
FINAL SINGLE POINT ENERGY     -1045.783722922703
FINAL SINGLE POINT ENERGY     -1045.783675113505
FINAL SINGLE POINT ENERGY     -1045.783616603811
FINAL SINGLE POINT ENERGY     -1045.783626951628
FINAL SINGLE POINT ENERGY     -1045.783625170795
FINAL SINGLE POINT ENERGY     -1045.783654489041
Dispersion correction            ... done
Dispersion correction           -0.058506314
FINAL SINGLE POINT ENERGY     -1045.783652526354
Dispersion correction            ... done
Dispersion correction           -0.058504132
FINAL SINGLE POINT ENERGY     -1045.783655429910
Dispersion correction            ... done
                    ***********************HURRAY********************

CARTESIAN COORDINATES (ANGSTROEM)
---------------------------------
  C      1.580404    1.154635    0.126086
  S      2.802586   -0.063486    0.185905
  C      1.641797   -1.319171   -0.021923
  C      0.365217   -0.816744   -0.137643
  C      0.327792    0.618267   -0.056461
  C     -0.961894    1.407865   -0.064335
  C     -2.112294    0.560697   -0.646230
  C     -2.155734   -0.851096   -0.060883
  C     -0.878725   -1.642549   -0.328561
  N     -0.864852   -2.238325   -1.755101
  O     -1.690991   -1.853588   -2.560196
  O     -0.008827   -3.074982   -1.965981
  N     -1.209666    1.904279    1.285764
  C     -2.224451    2.804089    1.544404
  C     -2.833316    3.019225    2.724048
  H      1.840125    2.205158    0.245979
  H      1.952806   -2.360313   -0.081510
  H     -0.834003    2.293261   -0.711102
  H     -1.999942    0.491990   -1.738560
  H     -3.063754    1.076923   -0.446843
  H     -3.017032   -1.409388   -0.452454
  H     -2.277855   -0.798443    1.034353
  H     -0.831421   -2.549510    0.288094
  H     -0.967463    1.265233    2.035440
  H     -2.500369    3.407830    0.671089
  H     -2.588214    2.428324    3.611634
  H     -3.571644    3.814358    2.829747

 Multiplicity           Mult            ....    1
 Number of Electrons    NEL             ....  118
 Basis Dimension        Dim             ....  274

ORBITAL ENERGIES
----------------

  NO   OCC          E(Eh)            E(eV)
   0   2.0000     -88.890435     -2418.8317
   1   2.0000     -19.173723      -521.7435
   2   2.0000     -19.170703      -521.6613
   3   2.0000     -14.558284      -396.1510
   4   2.0000     -14.340253      -390.2181
   5   2.0000     -10.261741      -279.2362
   6   2.0000     -10.241797      -278.6935
   7   2.0000     -10.226313      -278.2721
   8   2.0000     -10.224129      -278.2127
   9   2.0000     -10.220162      -278.1047
  10   2.0000     -10.217343      -278.0280
  11   2.0000     -10.211766      -277.8763
  12   2.0000     -10.210682      -277.8468
  13   2.0000     -10.195678      -277.4385
  14   2.0000     -10.163701      -276.5684
  15   2.0000      -7.985501      -217.2965
  16   2.0000      -5.953458      -162.0018
  17   2.0000      -5.949268      -161.8878
  18   2.0000      -5.947280      -161.8337
  19   2.0000      -1.229384       -33.4532
  20   2.0000      -1.058129       -28.7932
  21   2.0000      -0.934130       -25.4190
  22   2.0000      -0.898542       -24.4506
  23   2.0000      -0.847169       -23.0526
  24   2.0000      -0.791388       -21.5348
  25   2.0000      -0.750425       -20.4201
  26   2.0000      -0.725248       -19.7350
  27   2.0000      -0.722899       -19.6711
  28   2.0000      -0.677957       -18.4482
  29   2.0000      -0.620905       -16.8957
  30   2.0000      -0.602403       -16.3922
  31   2.0000      -0.595048       -16.1921
  32   2.0000      -0.582537       -15.8516
  33   2.0000      -0.558276       -15.1915
  34   2.0000      -0.551161       -14.9979
  35   2.0000      -0.528829       -14.3902
  36   2.0000      -0.515128       -14.0173
  37   2.0000      -0.497142       -13.5279
  38   2.0000      -0.488705       -13.2984
  39   2.0000      -0.469316       -12.7707
  40   2.0000      -0.466456       -12.6929
  41   2.0000      -0.449062       -12.2196
  42   2.0000      -0.423150       -11.5145
  43   2.0000      -0.420859       -11.4522
  44   2.0000      -0.418374       -11.3845
  45   2.0000      -0.412264       -11.2183
  46   2.0000      -0.396172       -10.7804
  47   2.0000      -0.375090       -10.2067
  48   2.0000      -0.370117       -10.0714
  49   2.0000      -0.364584        -9.9208
  50   2.0000      -0.358784        -9.7630
  51   2.0000      -0.348022        -9.4701
  52   2.0000      -0.325594        -8.8599
  53   2.0000      -0.319130        -8.6840
  54   2.0000      -0.312706        -8.5092
  55   2.0000      -0.301909        -8.2154
  56   2.0000      -0.266074        -7.2403
  57   2.0000      -0.253346        -6.8939
  58   2.0000      -0.203780        -5.5451
  59   0.0000      -0.072760        -1.9799
  60   0.0000      -0.038046        -1.0353
  61   0.0000       0.017877         0.4865
  62   0.0000       0.031807         0.8655
  63   0.0000       0.036638         0.9970

MULLIKEN ATOMIC CHARGES
-----------------------
   0 C :   -0.126127
   1 S :    0.125205
   2 C :   -0.112911
   3 C :   -0.022405
   4 C :   -0.025914
   5 C :    0.113455
   6 C :    0.075501
   7 C :    0.064337
   8 C :    0.138597
   9 N :    0.198368
  10 O :   -0.226467
  11 O :   -0.234104
  12 N :   -0.165913
  13 C :    0.042723
  14 C :   -0.086312
  15 H :    0.024167
  16 H :    0.032270
  17 H :   -0.001377
  18 H :    0.022207
  19 H :    0.002322
  20 H :    0.017301
  21 H :    0.008268
  22 H :    0.022418
  23 H :    0.105436
  24 H :    0.001252
  25 H :   -0.006121
  26 H :    0.013823
Sum of atomic charges:    0.0000000

LOEWDIN ATOMIC CHARGES
----------------------
   0 C :   -0.185698
   1 S :    0.457755
   2 C :   -0.181104
   3 C :   -0.087679
   4 C :   -0.068079
   5 C :    0.036861
   6 C :   -0.036202
   7 C :   -0.031775
   8 C :    0.027817
   9 N :    0.265406
  10 O :   -0.193131
  11 O :   -0.200773
  12 N :   -0.037356
  13 C :    0.013396
  14 C :   -0.156731
  15 H :    0.028983
  16 H :    0.030018
  17 H :    0.029046
  18 H :    0.026520
  19 H :    0.028214
  20 H :    0.033804
  21 H :    0.030378
  22 H :    0.041546
  23 H :    0.068228
  24 H :    0.022800
  25 H :    0.013889
  26 H :    0.023866

  Mayer bond orders larger than 0.100000
B(  0-C ,  1-S ) :   1.1729 B(  0-C ,  4-C ) :   1.5501 B(  0-C , 15-H ) :   0.9629
B(  1-S ,  2-C ) :   1.1844 B(  2-C ,  3-C ) :   1.5277 B(  2-C , 16-H ) :   0.9613
B(  3-C ,  4-C ) :   1.3111 B(  3-C ,  8-C ) :   1.0077 B(  4-C ,  5-C ) :   0.9854
B(  5-C ,  6-C ) :   1.0455 B(  5-C , 12-N ) :   1.0354 B(  5-C , 17-H ) :   0.8942
B(  6-C ,  7-C ) :   1.0471 B(  6-C , 18-H ) :   0.9319 B(  6-C , 19-H ) :   0.9169
B(  7-C ,  8-C ) :   1.0669 B(  7-C , 20-H ) :   0.9170 B(  7-C , 21-H ) :   0.9199
B(  8-C ,  9-N ) :   0.7876 B(  8-C , 22-H ) :   0.9011 B(  9-N , 10-O ) :   1.5719
B(  9-N , 11-O ) :   1.5563 B( 10-O , 11-O ) :   0.2823 B( 12-N , 13-C ) :   1.1635
B( 12-N , 23-H ) :   0.9327 B( 13-C , 14-C ) :   1.8831 B( 13-C , 24-H ) :   0.9509
B( 14-C , 25-H ) :   0.9533 B( 14-C , 26-H ) :   0.9480

Dispersion correction           -0.058505121
FINAL SINGLE POINT ENERGY     -1045.783656791568

DIPOLE MOMENT
-------------
                                X             Y             Z
Electronic contribution:     13.43821      -9.74124      -7.36594
Nuclear contribution   :    -13.27966      10.00395       8.20308
                        -----------------------------------------
Total Dipole Moment    :      0.15855       0.26271       0.83715
                        -----------------------------------------
Magnitude (a.u.)       :      0.89161
Magnitude (Debye)      :      2.26629

Rotational constants in cm-1:     0.023244     0.014443     0.009704
Rotational constants in MHz :   696.844426   432.982207   290.906795

                             ****ORCA TERMINATED NORMALLY****
TOTAL RUN TIME: 0 days 0 hours 36 minutes 22 seconds 832 msec
