                         Program Version 4.2.0 -  RELEASE  -
|  1> # ORCA input file
|  2> # SCF done        -36.840111060931          0.000676696560
|  3> ! B3LYP/G D3BJ Opt RIJCOSX def2-SVP def2/J
|  4> * xyz 0 1
|  5>    C       -1.78454         0.95348         0.45361
|  6>    S       -2.75204        -0.46139         0.34831
|  7>    C       -1.41719        -1.38338        -0.19480
|  8>    C       -0.28676        -0.63322        -0.31185
|  9>    C       -0.49605         0.73216         0.06946
| 10>    O        0.41735         1.74119         0.07613
| 11>    C        1.76329         1.38931        -0.17683
| 12>    C        2.23374         0.21961         0.69103
| 13>    C        2.00954        -1.11663        -0.01644
| 14>    S        1.95575        -2.45108         1.26244
| 15>    C        1.94719        -3.87563         0.14112
| 16>    O        0.87682        -1.15994        -0.82795
| 17>    H       -2.21010         1.88078         0.77540
| 18>    H       -1.53010        -2.42295        -0.42544
| 19>    H        2.32564         2.29524         0.05893
| 20>    H        1.90085         1.15423        -1.24143
| 21>    H        1.67379         0.23519         1.62975
| 22>    H        3.29190         0.31514         0.93006
| 23>    H        2.84026        -1.35807        -0.68765
| 24>    H        1.71564        -4.74887         0.74014
| 25>    H        2.92631        -3.98323        -0.31806
| 26>    H        1.18170        -3.71785        -0.61225
| 27> *
| 28>
| 29>                          ****END OF INPUT****
 Total Charge           Charge          ....    0
 Multiplicity           Mult            ....    1
 Number of Electrons    NEL             ....  106
Dispersion correction           -0.047882199
FINAL SINGLE POINT ENERGY     -1257.142931287372
Dispersion correction            ... done
Dispersion correction           -0.047626674
FINAL SINGLE POINT ENERGY     -1257.145717200180
Dispersion correction            ... done
Dispersion correction           -0.047349688
FINAL SINGLE POINT ENERGY     -1257.146141700013
Dispersion correction            ... done
FINAL SINGLE POINT ENERGY     -1257.146272786103
FINAL SINGLE POINT ENERGY     -1257.146403649844
FINAL SINGLE POINT ENERGY     -1257.146428131232
FINAL SINGLE POINT ENERGY     -1257.146466908827
FINAL SINGLE POINT ENERGY     -1257.146478611567
Dispersion correction            ... done
Dispersion correction           -0.047685477
FINAL SINGLE POINT ENERGY     -1257.146485245867
Dispersion correction            ... done
Dispersion correction           -0.047704343
FINAL SINGLE POINT ENERGY     -1257.146486431184
Dispersion correction            ... done
                    ***********************HURRAY********************

CARTESIAN COORDINATES (ANGSTROEM)
---------------------------------
  C     -1.802107    0.945224    0.463265
  S     -2.757673   -0.499652    0.376202
  C     -1.418784   -1.415601   -0.211386
  C     -0.297431   -0.640828   -0.354695
  C     -0.511177    0.731016    0.043510
  O      0.405756    1.729931    0.018593
  C      1.784074    1.418415   -0.160911
  C      2.246631    0.226720    0.672717
  C      2.010864   -1.119121   -0.026497
  S      1.933525   -2.423656    1.251404
  C      1.919212   -3.886440    0.169924
  O      0.874992   -1.109364   -0.883474
  H     -2.224751    1.883662    0.812742
  H     -1.510574   -2.471715   -0.453314
  H      2.314760    2.326457    0.157904
  H      2.003214    1.256855   -1.231759
  H      1.719993    0.259398    1.640328
  H      3.320104    0.316208    0.897914
  H      2.841018   -1.347957   -0.710739
  H      1.750177   -4.760642    0.813853
  H      2.877276   -4.007117   -0.359304
  H      1.103892   -3.807703   -0.562597

 Multiplicity           Mult            ....    1
 Number of Electrons    NEL             ....  106
 Basis Dimension        Dim             ....  226

ORBITAL ENERGIES
----------------

  NO   OCC          E(Eh)            E(eV)
   0   2.0000     -88.869312     -2418.2569
   1   2.0000     -88.835798     -2417.3449
   2   2.0000     -19.165884      -521.5302
   3   2.0000     -19.161708      -521.4166
   4   2.0000     -10.275285      -279.6047
   5   2.0000     -10.253190      -279.0035
   6   2.0000     -10.245802      -278.8024
   7   2.0000     -10.242610      -278.7156
   8   2.0000     -10.214109      -277.9400
   9   2.0000     -10.207515      -277.7606
  10   2.0000     -10.205323      -277.7010
  11   2.0000     -10.198573      -277.5173
  12   2.0000      -7.964166      -216.7160
  13   2.0000      -7.931330      -215.8225
  14   2.0000      -5.932343      -161.4273
  15   2.0000      -5.928507      -161.3229
  16   2.0000      -5.925162      -161.2319
  17   2.0000      -5.900449      -160.5594
  18   2.0000      -5.896901      -160.4628
  19   2.0000      -5.889835      -160.2706
  20   2.0000      -1.069974       -29.1155
  21   2.0000      -1.048213       -28.5233
  22   2.0000      -0.873108       -23.7585
  23   2.0000      -0.813484       -22.1360
  24   2.0000      -0.774062       -21.0633
  25   2.0000      -0.734776       -19.9943
  26   2.0000      -0.720670       -19.6104
  27   2.0000      -0.680597       -18.5200
  28   2.0000      -0.629441       -17.1280
  29   2.0000      -0.613647       -16.6982
  30   2.0000      -0.581539       -15.8245
  31   2.0000      -0.544614       -14.8197
  32   2.0000      -0.524920       -14.2838
  33   2.0000      -0.504648       -13.7322
  34   2.0000      -0.471260       -12.8236
  35   2.0000      -0.468995       -12.7620
  36   2.0000      -0.459001       -12.4900
  37   2.0000      -0.441075       -12.0023
  38   2.0000      -0.432817       -11.7776
  39   2.0000      -0.426104       -11.5949
  40   2.0000      -0.406541       -11.0625
  41   2.0000      -0.405210       -11.0263
  42   2.0000      -0.392849       -10.6900
  43   2.0000      -0.376769       -10.2524
  44   2.0000      -0.369474       -10.0539
  45   2.0000      -0.353875        -9.6294
  46   2.0000      -0.333086        -9.0637
  47   2.0000      -0.322227        -8.7682
  48   2.0000      -0.320483        -8.7208
  49   2.0000      -0.291217        -7.9244
  50   2.0000      -0.233288        -6.3481
  51   2.0000      -0.230356        -6.2683
  52   2.0000      -0.214019        -5.8237
  53   0.0000      -0.009498        -0.2585
  54   0.0000       0.031364         0.8535
  55   0.0000       0.044169         1.2019
  56   0.0000       0.051301         1.3960
  57   0.0000       0.065497         1.7823

MULLIKEN ATOMIC CHARGES
-----------------------
   0 C :   -0.170179
   1 S :    0.096748
   2 C :   -0.130960
   3 C :    0.159116
   4 C :    0.212327
   5 O :   -0.318990
   6 C :    0.257069
   7 C :   -0.032603
   8 C :    0.083833
   9 S :   -0.078850
  10 C :   -0.075368
  11 O :   -0.322897
  12 H :    0.014521
  13 H :    0.014663
  14 H :    0.013956
  15 H :    0.015615
  16 H :    0.041785
  17 H :    0.029059
  18 H :    0.027472
  19 H :    0.054564
  20 H :    0.048678
  21 H :    0.060440
Sum of atomic charges:    0.0000000

LOEWDIN ATOMIC CHARGES
----------------------
   0 C :   -0.231583
   1 S :    0.425375
   2 C :   -0.211497
   3 C :   -0.033017
   4 C :   -0.008931
   5 O :   -0.108261
   6 C :    0.093676
   7 C :   -0.075461
   8 C :   -0.034171
   9 S :    0.212741
  10 C :   -0.159203
  11 O :   -0.126031
  12 H :    0.025691
  13 H :    0.026453
  14 H :    0.026290
  15 H :    0.015716
  16 H :    0.032965
  17 H :    0.040647
  18 H :    0.014966
  19 H :    0.030129
  20 H :    0.020797
  21 H :    0.022708

  Mayer bond orders larger than 0.100000
B(  0-C ,  1-S ) :   1.1368 B(  0-C ,  4-C ) :   1.5347 B(  0-C , 12-H ) :   0.9607
B(  1-S ,  2-C ) :   1.1579 B(  2-C ,  3-C ) :   1.5479 B(  2-C , 13-H ) :   0.9625
B(  3-C ,  4-C ) :   1.1845 B(  3-C , 11-O ) :   1.0620 B(  4-C ,  5-O ) :   1.1196
B(  5-O ,  6-C ) :   0.9596 B(  6-C ,  7-C ) :   1.0736 B(  6-C , 14-H ) :   0.9479
B(  6-C , 15-H ) :   0.9475 B(  7-C ,  8-C ) :   1.0221 B(  7-C , 16-H ) :   0.9252
B(  7-C , 17-H ) :   0.9269 B(  8-C ,  9-S ) :   1.0416 B(  8-C , 11-O ) :   0.9589
B(  8-C , 18-H ) :   0.9263 B(  9-S , 10-C ) :   1.0090 B( 10-C , 19-H ) :   0.9722
B( 10-C , 20-H ) :   0.9701 B( 10-C , 21-H ) :   0.9661

Dispersion correction           -0.047706169
FINAL SINGLE POINT ENERGY     -1257.146487012867

DIPOLE MOMENT
-------------
                                X             Y             Z
Electronic contribution:     -9.98006       2.92605       1.13517
Nuclear contribution   :     10.78964      -3.18429      -1.26779
                        -----------------------------------------
Total Dipole Moment    :      0.80958      -0.25825      -0.13262
                        -----------------------------------------
Magnitude (a.u.)       :      0.86005
Magnitude (Debye)      :      2.18609

Rotational constants in cm-1:     0.035654     0.019760     0.014194
Rotational constants in MHz :  1068.893630   592.383296   425.521313

                             ****ORCA TERMINATED NORMALLY****
TOTAL RUN TIME: 0 days 0 hours 14 minutes 1 seconds 568 msec
