                         Program Version 4.2.0 -  RELEASE  -
|  1> # ORCA input file
|  2> # SCF done        -44.208988010494          0.000520568939
|  3> ! B3LYP/G D3BJ Opt RIJCOSX def2-SVP def2/J
|  4> * xyz 0 1
|  5>    C        1.39133        -1.31897        -0.07054
|  6>    S        2.66627        -0.18488         0.06930
|  7>    C        1.53548         1.12415         0.30284
|  8>    C        0.24009         0.66783         0.24858
|  9>    C        0.16636        -0.73482         0.04231
| 10>    C       -1.12630        -1.48992        -0.07702
| 11>    C       -1.31073        -1.90799        -1.52776
| 12>    O       -1.33251        -1.17294        -2.47875
| 13>    O       -1.45892        -3.23548        -1.61959
| 14>    C       -1.65615        -3.75704        -2.92764
| 15>    C       -2.31027        -0.62151         0.37188
| 16>    C       -2.19935         0.77749        -0.22246
| 17>    C       -0.99322         1.50560         0.36577
| 18>    C        2.08559         2.44148         0.50088
| 19>    C        1.47384         3.49855         1.02812
| 20>    H        1.61599        -2.35615        -0.22435
| 21>    H       -1.08384        -2.40851         0.51645
| 22>    H       -1.83096        -4.82316        -2.80772
| 23>    H       -0.77174        -3.57917        -3.54269
| 24>    H       -2.51481        -3.27582        -3.40033
| 25>    H       -2.30541        -0.55973         1.46281
| 26>    H       -3.24459        -1.09554         0.06409
| 27>    H       -3.10756         1.34546        -0.01318
| 28>    H       -2.08623         0.69721        -1.30415
| 29>    H       -1.18138         1.72194         1.42338
| 30>    H       -0.84097         2.45655        -0.14899
| 31>    H        3.12173         2.53302         0.19788
| 32>    H        0.46445         3.47046         1.39450
| 33>    H        1.99012         4.43795         1.12597
| 34> *
| 35>
| 36>                          ****END OF INPUT****
 Total Charge           Charge          ....    0
 Multiplicity           Mult            ....    1
 Number of Electrons    NEL             ....  118
Dispersion correction           -0.061863535
FINAL SINGLE POINT ENERGY     -1013.836205309563
Dispersion correction            ... done
Dispersion correction           -0.061192390
FINAL SINGLE POINT ENERGY     -1013.839656809445
Dispersion correction            ... done
Dispersion correction           -0.061075800
FINAL SINGLE POINT ENERGY     -1013.839862734396
Dispersion correction            ... done
FINAL SINGLE POINT ENERGY     -1013.839718377491
FINAL SINGLE POINT ENERGY     -1013.839757976931
FINAL SINGLE POINT ENERGY     -1013.839690074652
FINAL SINGLE POINT ENERGY     -1013.839665103036
FINAL SINGLE POINT ENERGY     -1013.839700370514
FINAL SINGLE POINT ENERGY     -1013.840067338104
FINAL SINGLE POINT ENERGY     -1013.840713487684
FINAL SINGLE POINT ENERGY     -1013.841448192822
FINAL SINGLE POINT ENERGY     -1013.841348739228
FINAL SINGLE POINT ENERGY     -1013.841395575868
FINAL SINGLE POINT ENERGY     -1013.841206506137
FINAL SINGLE POINT ENERGY     -1013.841390697251
FINAL SINGLE POINT ENERGY     -1013.841389099698
FINAL SINGLE POINT ENERGY     -1013.841376342933
Dispersion correction            ... done
Dispersion correction           -0.061409475
FINAL SINGLE POINT ENERGY     -1013.841368796909
Dispersion correction            ... done
Dispersion correction           -0.061405674
FINAL SINGLE POINT ENERGY     -1013.841370082526
Dispersion correction            ... done
                    ***********************HURRAY********************

CARTESIAN COORDINATES (ANGSTROEM)
---------------------------------
  C      1.156599   -1.586407    0.155936
  S      2.516161   -0.540440    0.237865
  C      1.501406    0.885507    0.295695
  C      0.156174    0.529885    0.248913
  C     -0.030799   -0.890028    0.165859
  C     -1.406658   -1.521552    0.071872
  C     -1.710493   -1.954088   -1.362563
  O     -2.624753   -1.549807   -2.038371
  O     -0.826729   -2.871878   -1.793785
  C     -0.959437   -3.287549   -3.152997
  C     -2.490286   -0.575803    0.608988
  C     -2.360102    0.830362    0.018921
  C     -1.005574    1.485052    0.331366
  C      2.173822    2.172438    0.373580
  C      1.644240    3.403742    0.501290
  H      1.287784   -2.663829    0.077318
  H     -1.399410   -2.455628    0.657664
  H     -0.197546   -4.059067   -3.315449
  H     -0.789169   -2.439240   -3.833391
  H     -1.963931   -3.693616   -3.344089
  H     -2.400735   -0.534335    1.707842
  H     -3.480950   -0.991717    0.373633
  H     -3.167735    1.472884    0.403264
  H     -2.504004    0.761834   -1.070129
  H     -1.024016    1.918794    1.348861
  H     -0.840863    2.336278   -0.348520
  H      3.267058    2.105238    0.313145
  H      0.574837    3.593278    0.586144
  H      2.301418    4.275752    0.530730

 Multiplicity           Mult            ....    1
 Number of Electrons    NEL             ....  118
 Basis Dimension        Dim             ....  284

ORBITAL ENERGIES
----------------

  NO   OCC          E(Eh)            E(eV)
   0   2.0000     -88.869791     -2418.2699
   1   2.0000     -19.181858      -521.9649
   2   2.0000     -19.126532      -520.4594
   3   2.0000     -10.314879      -280.6821
   4   2.0000     -10.248829      -278.8848
   5   2.0000     -10.212239      -277.8892
   6   2.0000     -10.211192      -277.8607
   7   2.0000     -10.207880      -277.7705
   8   2.0000     -10.202742      -277.6307
   9   2.0000     -10.198141      -277.5055
  10   2.0000     -10.195582      -277.4359
  11   2.0000     -10.191639      -277.3286
  12   2.0000     -10.188401      -277.2405
  13   2.0000     -10.186379      -277.1855
  14   2.0000     -10.181707      -277.0583
  15   2.0000      -7.965007      -216.7389
  16   2.0000      -5.932930      -161.4432
  17   2.0000      -5.929090      -161.3387
  18   2.0000      -5.926470      -161.2675
  19   2.0000      -1.100867       -29.9561
  20   2.0000      -1.010530       -27.4979
  21   2.0000      -0.884944       -24.0805
  22   2.0000      -0.821989       -22.3675
  23   2.0000      -0.785746       -21.3812
  24   2.0000      -0.762638       -20.7524
  25   2.0000      -0.731606       -19.9080
  26   2.0000      -0.720482       -19.6053
  27   2.0000      -0.689396       -18.7594
  28   2.0000      -0.639842       -17.4110
  29   2.0000      -0.606375       -16.5003
  30   2.0000      -0.582840       -15.8599
  31   2.0000      -0.570016       -15.5109
  32   2.0000      -0.549335       -14.9482
  33   2.0000      -0.520147       -14.1539
  34   2.0000      -0.501478       -13.6459
  35   2.0000      -0.492442       -13.4000
  36   2.0000      -0.477525       -12.9941
  37   2.0000      -0.471063       -12.8183
  38   2.0000      -0.457957       -12.4616
  39   2.0000      -0.454555       -12.3691
  40   2.0000      -0.430767       -11.7218
  41   2.0000      -0.424511       -11.5515
  42   2.0000      -0.423521       -11.5246
  43   2.0000      -0.406512       -11.0618
  44   2.0000      -0.399810       -10.8794
  45   2.0000      -0.392507       -10.6807
  46   2.0000      -0.382064       -10.3965
  47   2.0000      -0.370652       -10.0859
  48   2.0000      -0.367117        -9.9898
  49   2.0000      -0.358680        -9.7602
  50   2.0000      -0.341199        -9.2845
  51   2.0000      -0.333448        -9.0736
  52   2.0000      -0.328272        -8.9327
  53   2.0000      -0.322205        -8.7676
  54   2.0000      -0.309705        -8.4275
  55   2.0000      -0.303276        -8.2526
  56   2.0000      -0.281350        -7.6559
  57   2.0000      -0.242041        -6.5863
  58   2.0000      -0.212772        -5.7898
  59   0.0000      -0.043363        -1.1800
  60   0.0000      -0.001577        -0.0429
  61   0.0000       0.033455         0.9104
  62   0.0000       0.034397         0.9360
  63   0.0000       0.054767         1.4903

MULLIKEN ATOMIC CHARGES
-----------------------
   0 C :   -0.112380
   1 S :    0.101178
   2 C :   -0.163079
   3 C :   -0.040304
   4 C :   -0.027251
   5 C :    0.004963
   6 C :    0.189670
   7 O :   -0.223657
   8 O :   -0.306139
   9 C :    0.191331
  10 C :    0.088971
  11 C :    0.022059
  12 C :    0.089805
  13 C :    0.034854
  14 C :   -0.043751
  15 H :    0.014695
  16 H :    0.015314
  17 H :    0.030601
  18 H :    0.031729
  19 H :    0.030525
  20 H :   -0.000193
  21 H :   -0.000230
  22 H :   -0.005383
  23 H :    0.020469
  24 H :    0.014923
  25 H :    0.022208
  26 H :   -0.011973
  27 H :    0.011293
  28 H :    0.019753
Sum of atomic charges:   -0.0000000

LOEWDIN ATOMIC CHARGES
----------------------
   0 C :   -0.193473
   1 S :    0.433111
   2 C :   -0.184681
   3 C :   -0.051272
   4 C :   -0.063601
   5 C :   -0.047075
   6 C :    0.096732
   7 O :   -0.173152
   8 O :   -0.095454
   9 C :    0.085747
  10 C :   -0.017509
  11 C :   -0.029458
  12 C :   -0.027021
  13 C :   -0.042517
  14 C :   -0.061745
  15 H :    0.022948
  16 H :    0.045030
  17 H :    0.024153
  18 H :    0.023142
  19 H :    0.021226
  20 H :    0.022961
  21 H :    0.027021
  22 H :    0.024176
  23 H :    0.024973
  24 H :    0.031064
  25 H :    0.032494
  26 H :    0.027330
  27 H :    0.019250
  28 H :    0.025600

  Mayer bond orders larger than 0.100000
B(  0-C ,  1-S ) :   1.1607 B(  0-C ,  4-C ) :   1.5270 B(  0-C , 15-H ) :   0.9612
B(  1-S ,  2-C ) :   1.1261 B(  2-C ,  3-C ) :   1.4985 B(  2-C , 13-C ) :   1.1239
B(  3-C ,  4-C ) :   1.3103 B(  3-C , 12-C ) :   1.0738 B(  4-C ,  5-C ) :   0.9850
B(  5-C ,  6-C ) :   0.9194 B(  5-C , 10-C ) :   1.0751 B(  5-C , 16-H ) :   0.8749
B(  6-C ,  7-O ) :   2.0576 B(  6-C ,  8-O ) :   1.2013 B(  8-O ,  9-C ) :   0.9217
B(  9-C , 17-H ) :   0.9795 B(  9-C , 18-H ) :   0.9748 B(  9-C , 19-H ) :   0.9734
B( 10-C , 11-C ) :   1.0719 B( 10-C , 20-H ) :   0.9331 B( 10-C , 21-H ) :   0.9217
B( 11-C , 12-C ) :   1.0783 B( 11-C , 22-H ) :   0.9274 B( 11-C , 23-H ) :   0.9409
B( 12-C , 24-H ) :   0.9082 B( 12-C , 25-H ) :   0.9063 B( 13-C , 14-C ) :   1.9060
B( 13-C , 26-H ) :   0.9418 B( 14-C , 27-H ) :   0.9525 B( 14-C , 28-H ) :   0.9398

Dispersion correction           -0.061399799
FINAL SINGLE POINT ENERGY     -1013.841374748016

DIPOLE MOMENT
-------------
                                X             Y             Z
Electronic contribution:      8.50342      -5.61789       0.85094
Nuclear contribution   :     -8.34596       5.18675      -0.84966
                        -----------------------------------------
Total Dipole Moment    :      0.15746      -0.43114       0.00128
                        -----------------------------------------
Magnitude (a.u.)       :      0.45900
Magnitude (Debye)      :      1.16669

Rotational constants in cm-1:     0.028166     0.013221     0.010274
Rotational constants in MHz :   844.382011   396.364591   308.011613

                             ****ORCA TERMINATED NORMALLY****
TOTAL RUN TIME: 0 days 0 hours 56 minutes 17 seconds 890 msec
