                         Program Version 4.2.0 -  RELEASE  -
|  1> # ORCA input file
|  2> # SCF done        -40.106652192672          0.000943161635
|  3> ! B3LYP/G D3BJ Opt RIJCOSX def2-SVP def2/J
|  4> * xyz 0 1
|  5>    C       -2.78180        -1.22682         0.00228
|  6>    S       -3.97702         0.00056         0.00377
|  7>    C       -2.78064         1.22671         0.00094
|  8>    C       -1.51467         0.71307         0.00105
|  9>    C       -1.51532        -0.71445         0.00191
| 10>    C       -0.28258        -1.50753         0.00224
| 11>    O       -0.27621        -2.72336         0.00184
| 12>    C        0.96476        -0.70333         0.00089
| 13>    C        2.17938        -1.38442         0.00071
| 14>    C        3.37840        -0.69597         0.00052
| 15>    C        3.37894         0.69081         0.00027
| 16>    C        2.18043         1.38014         0.00013
| 17>    C        0.96533         0.69994         0.00046
| 18>    C       -0.28132         1.50512         0.00066
| 19>    O       -0.27400         2.72097        -0.00047
| 20>    H       -3.06109        -2.26195         0.00326
| 21>    H       -3.05864         2.26219         0.00062
| 22>    H        2.15642        -2.46424         0.00115
| 23>    H        4.31169        -1.23892         0.00058
| 24>    H        4.31263         1.23307         0.00010
| 25>    H        2.15821         2.45997        -0.00008
| 26> *
| 27>
| 28>                          ****END OF INPUT****
 Total Charge           Charge          ....    0
 Multiplicity           Mult            ....    1
 Number of Electrons    NEL             ....  110
Dispersion correction           -0.053233958
FINAL SINGLE POINT ENERGY     -1009.034232650883
Dispersion correction            ... done
Dispersion correction           -0.052985872
FINAL SINGLE POINT ENERGY     -1009.036962716332
Dispersion correction            ... done
Dispersion correction           -0.052949569
FINAL SINGLE POINT ENERGY     -1009.037068629716
Dispersion correction            ... done
FINAL SINGLE POINT ENERGY     -1009.037062245337
Dispersion correction            ... done
Dispersion correction           -0.052951206
FINAL SINGLE POINT ENERGY     -1009.037096503519
Dispersion correction            ... done
Dispersion correction           -0.052955421
FINAL SINGLE POINT ENERGY     -1009.037096275523
Dispersion correction            ... done
                    ***********************HURRAY********************

CARTESIAN COORDINATES (ANGSTROEM)
---------------------------------
  C     -2.808671   -1.245205    0.002465
  S     -4.002624    0.000436    0.002758
  C     -2.807632    1.245077    0.001575
  C     -1.537521    0.717555    0.001299
  C     -1.538119   -0.718751    0.001837
  C     -0.289151   -1.510268    0.001720
  O     -0.284683   -2.729685    0.001781
  C      0.977990   -0.708885    0.001108
  C      2.196141   -1.399609    0.001172
  C      3.403243   -0.703030    0.000659
  C      3.403822    0.697733    0.000002
  C      2.197299    1.395315   -0.000082
  C      0.978577    0.705607    0.000507
  C     -0.287901    1.508041    0.000541
  O     -0.282413    2.727454   -0.000036
  H     -3.081189   -2.299234    0.002939
  H     -3.079228    2.299347    0.001171
  H      2.162877   -2.490959    0.001691
  H      4.348046   -1.251421    0.000781
  H      4.349078    1.245349   -0.000448
  H      2.164958    2.486691   -0.000610

 Multiplicity           Mult            ....    1
 Number of Electrons    NEL             ....  110
 Basis Dimension        Dim             ....  244

ORBITAL ENERGIES
----------------

  NO   OCC          E(Eh)            E(eV)
   0   2.0000     -88.905769     -2419.2490
   1   2.0000     -19.132485      -520.6214
   2   2.0000     -19.132479      -520.6212
   3   2.0000     -10.287535      -279.9381
   4   2.0000     -10.287401      -279.9344
   5   2.0000     -10.240330      -278.6536
   6   2.0000     -10.240245      -278.6512
   7   2.0000     -10.216461      -278.0040
   8   2.0000     -10.216148      -277.9955
   9   2.0000     -10.215912      -277.9891
  10   2.0000     -10.215704      -277.9834
  11   2.0000     -10.214638      -277.9544
  12   2.0000     -10.214291      -277.9450
  13   2.0000     -10.210650      -277.8459
  14   2.0000     -10.210535      -277.8428
  15   2.0000      -8.000664      -217.7091
  16   2.0000      -5.968497      -162.4111
  17   2.0000      -5.964277      -162.2962
  18   2.0000      -5.962727      -162.2541
  19   2.0000      -1.039867       -28.2962
  20   2.0000      -1.037867       -28.2418
  21   2.0000      -0.908832       -24.7306
  22   2.0000      -0.874239       -23.7893
  23   2.0000      -0.803595       -21.8669
  24   2.0000      -0.765979       -20.8434
  25   2.0000      -0.756177       -20.5766
  26   2.0000      -0.753148       -20.4942
  27   2.0000      -0.670981       -18.2583
  28   2.0000      -0.653112       -17.7721
  29   2.0000      -0.612090       -16.6558
  30   2.0000      -0.593079       -16.1385
  31   2.0000      -0.575548       -15.6615
  32   2.0000      -0.546631       -14.8746
  33   2.0000      -0.524957       -14.2848
  34   2.0000      -0.490764       -13.3544
  35   2.0000      -0.463629       -12.6160
  36   2.0000      -0.459449       -12.5022
  37   2.0000      -0.459275       -12.4975
  38   2.0000      -0.451666       -12.2905
  39   2.0000      -0.445205       -12.1146
  40   2.0000      -0.441401       -12.0111
  41   2.0000      -0.426660       -11.6100
  42   2.0000      -0.410848       -11.1797
  43   2.0000      -0.409642       -11.1469
  44   2.0000      -0.400135       -10.8882
  45   2.0000      -0.381460       -10.3801
  46   2.0000      -0.377120       -10.2620
  47   2.0000      -0.368140       -10.0176
  48   2.0000      -0.365629        -9.9493
  49   2.0000      -0.285598        -7.7715
  50   2.0000      -0.275829        -7.5057
  51   2.0000      -0.275386        -7.4936
  52   2.0000      -0.273409        -7.4398
  53   2.0000      -0.266386        -7.2487
  54   2.0000      -0.265988        -7.2379
  55   0.0000      -0.102163        -2.7800
  56   0.0000      -0.076148        -2.0721
  57   0.0000      -0.026117        -0.7107
  58   0.0000      -0.008883        -0.2417
  59   0.0000       0.026150         0.7116

MULLIKEN ATOMIC CHARGES
-----------------------
   0 C :   -0.118236
   1 S :    0.148586
   2 C :   -0.118260
   3 C :    0.023024
   4 C :    0.022972
   5 C :    0.144912
   6 O :   -0.170659
   7 C :   -0.013938
   8 C :   -0.030772
   9 C :    0.052579
  10 C :    0.052583
  11 C :   -0.030792
  12 C :   -0.013894
  13 C :    0.144879
  14 O :   -0.170666
  15 H :    0.041020
  16 H :    0.041044
  17 H :    0.003415
  18 H :   -0.005596
  19 H :   -0.005609
  20 H :    0.003408
Sum of atomic charges:    0.0000000

LOEWDIN ATOMIC CHARGES
----------------------
   0 C :   -0.143284
   1 S :    0.481878
   2 C :   -0.143295
   3 C :   -0.094127
   4 C :   -0.094131
   5 C :    0.080299
   6 O :   -0.149813
   7 C :   -0.048828
   8 C :    0.012527
   9 C :   -0.005138
  10 C :   -0.005139
  11 C :    0.012530
  12 C :   -0.048827
  13 C :    0.080299
  14 O :   -0.149814
  15 H :    0.037826
  16 H :    0.037832
  17 H :    0.037137
  18 H :    0.032467
  19 H :    0.032465
  20 H :    0.037135

  Mayer bond orders larger than 0.100000
B(  0-C ,  1-S ) :   1.1878 B(  0-C ,  4-C ) :   1.5092 B(  0-C , 15-H ) :   0.9619
B(  1-S ,  2-C ) :   1.1878 B(  2-C ,  3-C ) :   1.5092 B(  2-C , 16-H ) :   0.9619
B(  3-C ,  4-C ) :   1.2255 B(  3-C , 13-C ) :   0.9637 B(  4-C ,  5-C ) :   0.9637
B(  5-C ,  6-O ) :   2.2013 B(  5-C ,  7-C ) :   0.9271 B(  7-C ,  8-C ) :   1.3936
B(  7-C , 12-C ) :   1.3187 B(  8-C ,  9-C ) :   1.3450 B(  8-C , 17-H ) :   0.9888
B(  9-C , 10-C ) :   1.3460 B(  9-C , 18-H ) :   0.9885 B( 10-C , 11-C ) :   1.3450
B( 10-C , 19-H ) :   0.9885 B( 11-C , 12-C ) :   1.3936 B( 11-C , 20-H ) :   0.9888
B( 12-C , 13-C ) :   0.9271 B( 13-C , 14-O ) :   2.2013

Dispersion correction           -0.052957028
FINAL SINGLE POINT ENERGY     -1009.037097894010

DIPOLE MOMENT
-------------
                                X             Y             Z
Electronic contribution:     -8.74185       0.00361       0.00258
Nuclear contribution   :      8.74913      -0.00362      -0.00212
                        -----------------------------------------
Total Dipole Moment    :      0.00728      -0.00001       0.00046
                        -----------------------------------------
Magnitude (a.u.)       :      0.00729
Magnitude (Debye)      :      0.01854

Rotational constants in cm-1:     0.038350     0.013868     0.010185
Rotational constants in MHz :  1149.710140   415.759995   305.341813

                             ****ORCA TERMINATED NORMALLY****
TOTAL RUN TIME: 0 days 0 hours 11 minutes 46 seconds 967 msec
