                         Program Version 4.2.0 -  RELEASE  -
|  1> # ORCA input file
|  2> # SCF done        -30.250230051128          0.000588920510
|  3> ! B3LYP/G D3BJ Opt RIJCOSX def2-SVP def2/J
|  4> * xyz 0 1
|  5>    C       -0.85303        -1.47474         0.05179
|  6>    C       -2.02755        -0.76873        -0.09657
|  7>    N       -2.07902         0.59256        -0.20284
|  8>    C       -1.01112         1.31574        -0.17292
|  9>    C        0.26411         0.71538        -0.02877
| 10>    C        0.33140        -0.72279         0.08673
| 11>    N        1.61018        -1.04188         0.20812
| 12>    O        2.27846         0.10855         0.17158
| 13>    N        1.49948         1.17359         0.03072
| 14>    C       -3.30723        -1.46139        -0.15177
| 15>    C       -4.46922        -0.83706        -0.30764
| 16>    H       -0.83058        -2.54830         0.13596
| 17>    H       -1.12141         2.38728        -0.25984
| 18>    H       -3.25680        -2.53805        -0.05975
| 19>    H       -4.50519         0.23441        -0.40146
| 20>    H       -5.40132        -1.37340        -0.34742
| 21> *
| 22>
| 23>                          ****END OF INPUT****
 Total Charge           Charge          ....    0
 Multiplicity           Mult            ....    1
 Number of Electrons    NEL             ....   76
Dispersion correction           -0.031295886
FINAL SINGLE POINT ENERGY      -508.759877842210
Dispersion correction            ... done
Dispersion correction           -0.031137586
FINAL SINGLE POINT ENERGY      -508.762981122163
Dispersion correction            ... done
Dispersion correction           -0.031115735
FINAL SINGLE POINT ENERGY      -508.763338888133
Dispersion correction            ... done
FINAL SINGLE POINT ENERGY      -508.763409705947
Dispersion correction            ... done
Dispersion correction           -0.031131863
FINAL SINGLE POINT ENERGY      -508.763419208719
Dispersion correction            ... done
Dispersion correction           -0.031134601
FINAL SINGLE POINT ENERGY      -508.763422003142
Dispersion correction            ... done
                    ***********************HURRAY********************

CARTESIAN COORDINATES (ANGSTROEM)
---------------------------------
  C     -0.853387   -1.472768    0.028938
  C     -2.028325   -0.761724   -0.124518
  N     -2.073405    0.623639   -0.238912
  C     -0.991668    1.338313   -0.197470
  C      0.286759    0.707911   -0.026981
  C      0.349919   -0.719379    0.085359
  N      1.617219   -1.066563    0.237192
  O      2.300513    0.112955    0.217661
  N      1.508730    1.195414    0.059389
  C     -3.316164   -1.462784   -0.168562
  C     -4.504740   -0.853848   -0.282028
  H     -0.849562   -2.559735    0.115585
  H     -1.069236    2.427292   -0.298199
  H     -3.259390   -2.553288   -0.090850
  H     -4.563020    0.234318   -0.358189
  H     -5.433083   -1.428584   -0.302495

 Multiplicity           Mult            ....    1
 Number of Electrons    NEL             ....   76
 Basis Dimension        Dim             ....  179

ORBITAL ENERGIES
----------------

  NO   OCC          E(Eh)            E(eV)
   0   2.0000     -19.279697      -524.6272
   1   2.0000     -14.416211      -392.2851
   2   2.0000     -14.407219      -392.0404
   3   2.0000     -14.356314      -390.6552
   4   2.0000     -10.269235      -279.4401
   5   2.0000     -10.258493      -279.1478
   6   2.0000     -10.257936      -279.1326
   7   2.0000     -10.255607      -279.0692
   8   2.0000     -10.229748      -278.3656
   9   2.0000     -10.210289      -277.8361
  10   2.0000     -10.204826      -277.6874
  11   2.0000      -1.210275       -32.9333
  12   2.0000      -0.971332       -26.4313
  13   2.0000      -0.929035       -25.2803
  14   2.0000      -0.885540       -24.0968
  15   2.0000      -0.819809       -22.3081
  16   2.0000      -0.766930       -20.8692
  17   2.0000      -0.709779       -19.3141
  18   2.0000      -0.677990       -18.4490
  19   2.0000      -0.635408       -17.2903
  20   2.0000      -0.599282       -16.3073
  21   2.0000      -0.563909       -15.3447
  22   2.0000      -0.529171       -14.3995
  23   2.0000      -0.526042       -14.3143
  24   2.0000      -0.506548       -13.7839
  25   2.0000      -0.480312       -13.0699
  26   2.0000      -0.460989       -12.5441
  27   2.0000      -0.444652       -12.0996
  28   2.0000      -0.432569       -11.7708
  29   2.0000      -0.414213       -11.2713
  30   2.0000      -0.377007       -10.2589
  31   2.0000      -0.361224        -9.8294
  32   2.0000      -0.351683        -9.5698
  33   2.0000      -0.343125        -9.3369
  34   2.0000      -0.335210        -9.1215
  35   2.0000      -0.305120        -8.3027
  36   2.0000      -0.288746        -7.8572
  37   2.0000      -0.254407        -6.9228
  38   0.0000      -0.112263        -3.0548
  39   0.0000      -0.054592        -1.4855
  40   0.0000      -0.013394        -0.3645
  41   0.0000       0.039294         1.0692
  42   0.0000       0.059509         1.6193

MULLIKEN ATOMIC CHARGES
-----------------------
   0 C :   -0.057791
   1 C :    0.052798
   2 N :   -0.083371
   3 C :    0.042543
   4 C :   -0.067392
   5 C :    0.049064
   6 N :    0.043215
   7 O :   -0.122968
   8 N :    0.061930
   9 C :   -0.016773
  10 C :    0.022149
  11 H :   -0.001788
  12 H :    0.020483
  13 H :   -0.009445
  14 H :    0.040989
  15 H :    0.026356
Sum of atomic charges:   -0.0000000

LOEWDIN ATOMIC CHARGES
----------------------
   0 C :   -0.033988
   1 C :    0.020799
   2 N :   -0.058299
   3 C :    0.050832
   4 C :   -0.083913
   5 C :   -0.051376
   6 N :   -0.022874
   7 O :    0.060599
   8 N :   -0.002810
   9 C :   -0.039878
  10 C :   -0.005638
  11 H :    0.041632
  12 H :    0.034206
  13 H :    0.030461
  14 H :    0.031329
  15 H :    0.028917

  Mayer bond orders larger than 0.100000
B(  0-C ,  1-C ) :   1.4810 B(  0-C ,  5-C ) :   1.1526 B(  0-C , 11-H ) :   0.9985
B(  1-C ,  2-N ) :   1.2768 B(  1-C ,  9-C ) :   1.1002 B(  2-N ,  3-C ) :   1.7789
B(  3-C ,  4-C ) :   1.1040 B(  3-C , 12-H ) :   0.9818 B(  4-C ,  5-C ) :   1.1610
B(  4-C ,  8-N ) :   1.5768 B(  5-C ,  6-N ) :   1.5615 B(  6-N ,  7-O ) :   1.0345
B(  6-N ,  8-N ) :   0.1979 B(  7-O ,  8-N ) :   1.0701 B(  9-C , 10-C ) :   1.9100
B(  9-C , 13-H ) :   0.9621 B( 10-C , 14-H ) :   0.9384 B( 10-C , 15-H ) :   0.9416

Dispersion correction           -0.031133578
FINAL SINGLE POINT ENERGY      -508.763423640906

DIPOLE MOMENT
-------------
                                X             Y             Z
Electronic contribution:     10.07914       2.38915       0.64492
Nuclear contribution   :    -11.09737      -2.66217      -0.71617
                        -----------------------------------------
Total Dipole Moment    :     -1.01824      -0.27301      -0.07125
                        -----------------------------------------
Magnitude (a.u.)       :      1.05661
Magnitude (Debye)      :      2.68568

Rotational constants in cm-1:     0.121623     0.024592     0.020458
Rotational constants in MHz :  3646.168021   737.239320   613.310578

                             ****ORCA TERMINATED NORMALLY****
TOTAL RUN TIME: 0 days 0 hours 5 minutes 47 seconds 712 msec
