                         Program Version 4.2.0 -  RELEASE  -
|  1> # ORCA input file
|  2> # SCF done        -28.378535371581          0.000867623706
|  3> ! B3LYP/G D3BJ Opt RIJCOSX def2-SVP def2/J
|  4> * xyz 0 1
|  5>    C        1.19731         0.66330         0.12899
|  6>    O        1.41463        -0.65719         0.20193
|  7>    C        0.20838        -1.25762         0.15578
|  8>    C       -0.79188        -0.34308         0.05251
|  9>    C       -2.25430        -0.60409        -0.02568
| 10>    C       -0.14419         0.93869         0.03387
| 11>    C       -0.80163         2.21557        -0.06540
| 12>    C       -0.18509         3.40726        -0.06610
| 13>    C       -0.88316         4.66153        -0.16664
| 14>    C       -0.27675         5.84684        -0.16572
| 15>    H        2.05840         1.30042         0.15165
| 16>    H        0.19218        -2.32832         0.20386
| 17>    H       -2.44791        -1.67216         0.02930
| 18>    H       -2.66100        -0.22284        -0.96192
| 19>    H       -2.77481        -0.11121         0.79471
| 20>    H       -1.88069         2.17975        -0.14301
| 21>    H        0.89181         3.45933         0.01342
| 22>    H       -1.96151         4.60607        -0.24721
| 23>    H        0.79488         5.93001        -0.08862
| 24>    H       -0.82465         6.76941        -0.24606
| 25> *
| 26>
| 27>                          ****END OF INPUT****
 Total Charge           Charge          ....    0
 Multiplicity           Mult            ....    1
 Number of Electrons    NEL             ....   72
Dispersion correction           -0.032177252
FINAL SINGLE POINT ENERGY      -423.871343869822
Dispersion correction            ... done
Dispersion correction           -0.032005541
FINAL SINGLE POINT ENERGY      -423.874242578499
Dispersion correction            ... done
Dispersion correction           -0.031971436
FINAL SINGLE POINT ENERGY      -423.874339482328
Dispersion correction            ... done
FINAL SINGLE POINT ENERGY      -423.874345548843
FINAL SINGLE POINT ENERGY      -423.874331827878
FINAL SINGLE POINT ENERGY      -423.874320365200
FINAL SINGLE POINT ENERGY      -423.874309844644
FINAL SINGLE POINT ENERGY      -423.874289649402
Dispersion correction            ... done
Dispersion correction           -0.031964169
FINAL SINGLE POINT ENERGY      -423.874273459399
Dispersion correction            ... done
Dispersion correction           -0.031961972
FINAL SINGLE POINT ENERGY      -423.874257370841
Dispersion correction            ... done
                    ***********************HURRAY********************

CARTESIAN COORDINATES (ANGSTROEM)
---------------------------------
  C      1.242517    0.609533    0.095045
  O      1.422429   -0.727014    0.180592
  C      0.192502   -1.307871    0.156826
  C     -0.786564   -0.362603    0.056917
  C     -2.264492   -0.581267    0.000121
  C     -0.097879    0.915584    0.015094
  C     -0.745001    2.211952   -0.095763
  C     -0.153373    3.427690   -0.049630
  C     -0.881153    4.674658   -0.182678
  C     -0.330210    5.901064   -0.141185
  H      2.143322    1.217735    0.095557
  H      0.171929   -2.392815    0.224625
  H     -2.512485   -1.647302    0.107722
  H     -2.688198   -0.232784   -0.957285
  H     -2.786882   -0.032603    0.800393
  H     -1.831365    2.182122   -0.236683
  H      0.930603    3.501090    0.100421
  H     -1.964387    4.582558   -0.333013
  H      0.745646    6.039522    0.005000
  H     -0.936937    6.802422   -0.252418

 Multiplicity           Mult            ....    1
 Number of Electrons    NEL             ....   72
 Basis Dimension        Dim             ....  190

ORBITAL ENERGIES
----------------

  NO   OCC          E(Eh)            E(eV)
   0   2.0000     -19.201273      -522.4932
   1   2.0000     -10.238267      -278.5974
   2   2.0000     -10.232908      -278.4516
   3   2.0000     -10.198331      -277.5107
   4   2.0000     -10.196117      -277.4505
   5   2.0000     -10.194237      -277.3993
   6   2.0000     -10.192416      -277.3497
   7   2.0000     -10.192388      -277.3490
   8   2.0000     -10.192079      -277.3406
   9   2.0000     -10.185869      -277.1716
  10   2.0000      -1.104392       -30.0520
  11   2.0000      -0.825287       -22.4572
  12   2.0000      -0.794003       -21.6059
  13   2.0000      -0.756919       -20.5968
  14   2.0000      -0.718308       -19.5462
  15   2.0000      -0.697877       -18.9902
  16   2.0000      -0.626604       -17.0508
  17   2.0000      -0.573877       -15.6160
  18   2.0000      -0.559300       -15.2193
  19   2.0000      -0.545886       -14.8543
  20   2.0000      -0.512339       -13.9415
  21   2.0000      -0.464822       -12.6484
  22   2.0000      -0.459845       -12.5130
  23   2.0000      -0.454828       -12.3765
  24   2.0000      -0.436342       -11.8735
  25   2.0000      -0.420372       -11.4389
  26   2.0000      -0.415038       -11.2937
  27   2.0000      -0.400778       -10.9057
  28   2.0000      -0.384531       -10.4636
  29   2.0000      -0.380821       -10.3627
  30   2.0000      -0.352938        -9.6039
  31   2.0000      -0.349152        -9.5009
  32   2.0000      -0.341041        -9.2802
  33   2.0000      -0.289243        -7.8707
  34   2.0000      -0.241891        -6.5822
  35   2.0000      -0.208156        -5.6642
  36   0.0000      -0.048936        -1.3316
  37   0.0000       0.016301         0.4436
  38   0.0000       0.053161         1.4466
  39   0.0000       0.059451         1.6177
  40   0.0000       0.074130         2.0172

MULLIKEN ATOMIC CHARGES
-----------------------
   0 C :    0.064650
   1 O :   -0.201674
   2 C :    0.061612
   3 C :   -0.103504
   4 C :    0.106964
   5 C :    0.061207
   6 C :   -0.012552
   7 C :    0.015513
   8 C :   -0.000891
   9 C :   -0.030797
  10 H :    0.004676
  11 H :   -0.000219
  12 H :    0.007560
  13 H :    0.023846
  14 H :    0.025850
  15 H :   -0.023389
  16 H :   -0.021496
  17 H :   -0.010625
  18 H :    0.013547
  19 H :    0.019719
Sum of atomic charges:   -0.0000000

LOEWDIN ATOMIC CHARGES
----------------------
   0 C :    0.039255
   1 O :    0.008120
   2 C :    0.015283
   3 C :   -0.068510
   4 C :   -0.045327
   5 C :   -0.078263
   6 C :   -0.022016
   7 C :   -0.027533
   8 C :   -0.028296
   9 C :   -0.056860
  10 H :    0.020705
  11 H :    0.020617
  12 H :    0.032861
  13 H :    0.033908
  14 H :    0.034086
  15 H :    0.025861
  16 H :    0.023816
  17 H :    0.027071
  18 H :    0.021148
  19 H :    0.024072

  Mayer bond orders larger than 0.100000
B(  0-C ,  1-O ) :   1.1584 B(  0-C ,  5-C ) :   1.4694 B(  0-C , 10-H ) :   0.9989
B(  1-O ,  2-C ) :   1.1181 B(  2-C ,  3-C ) :   1.5559 B(  2-C , 11-H ) :   1.0047
B(  3-C ,  4-C ) :   1.1101 B(  3-C ,  5-C ) :   1.2281 B(  4-C , 12-H ) :   0.9503
B(  4-C , 13-H ) :   0.9433 B(  4-C , 14-H ) :   0.9440 B(  5-C ,  6-C ) :   1.0809
B(  6-C ,  7-C ) :   1.7130 B(  6-C ,  9-C ) :   0.1179 B(  6-C , 15-H ) :   0.9629
B(  7-C ,  8-C ) :   1.1297 B(  7-C , 16-H ) :   0.9687 B(  8-C ,  9-C ) :   1.8720
B(  8-C , 17-H ) :   0.9674 B(  9-C , 18-H ) :   0.9537 B(  9-C , 19-H ) :   0.9480

Dispersion correction           -0.031961275
FINAL SINGLE POINT ENERGY      -423.874250802138

DIPOLE MOMENT
-------------
                                X             Y             Z
Electronic contribution:      5.62164      -5.28571       0.45073
Nuclear contribution   :     -5.92941       5.14468      -0.46416
                        -----------------------------------------
Total Dipole Moment    :     -0.30776      -0.14102      -0.01343
                        -----------------------------------------
Magnitude (a.u.)       :      0.33880
Magnitude (Debye)      :      0.86117

Rotational constants in cm-1:     0.102584     0.021431     0.017792
Rotational constants in MHz :  3075.390134   642.491163   533.392319

                             ****ORCA TERMINATED NORMALLY****
TOTAL RUN TIME: 0 days 0 hours 10 minutes 1 seconds 431 msec
