                         Program Version 4.2.0 -  RELEASE  -
|  1> # ORCA input file
|  2> # SCF done        -31.193415378760          0.000598249544
|  3> ! B3LYP/G D3BJ Opt RIJCOSX def2-SVP def2/J
|  4> * xyz 0 1
|  5>    C        1.42880        -1.60730         0.00028
|  6>    C        0.48822        -0.63498        -0.00058
|  7>    C        0.79640         0.81908        -0.00024
|  8>    C        2.12629         1.28408         0.00100
|  9>    C        3.18945         0.44938         0.00189
| 10>    S        3.10914        -1.27598         0.00175
| 11>    N       -0.28676         1.56305        -0.00127
| 12>    C       -1.34361         0.69506        -0.00211
| 13>    C       -0.92600        -0.64504        -0.00172
| 14>    S       -2.25300        -1.73665        -0.00293
| 15>    C       -3.35200        -0.39456        -0.00411
| 16>    C       -2.74943         0.82331        -0.00337
| 17>    H        1.18828        -2.65902         0.00017
| 18>    H        2.28544         2.35226         0.00099
| 19>    H        4.20508         0.80864         0.00251
| 20>    H       -4.40356        -0.60637        -0.00521
| 21>    H       -3.27749         1.75836        -0.00383
| 22> *
| 23>
| 24>                          ****END OF INPUT****
 Total Charge           Charge          ....    0
 Multiplicity           Mult            ....    1
 Number of Electrons    NEL             ....   98
Dispersion correction           -0.043815771
FINAL SINGLE POINT ENERGY     -1196.595508904649
Dispersion correction            ... done
Dispersion correction           -0.043759027
FINAL SINGLE POINT ENERGY     -1196.598145242418
Dispersion correction            ... done
Dispersion correction           -0.043730590
FINAL SINGLE POINT ENERGY     -1196.598285800225
Dispersion correction            ... done
Dispersion correction           -0.043715749
FINAL SINGLE POINT ENERGY     -1196.598313667214
Dispersion correction            ... done
Dispersion correction           -0.043710092
FINAL SINGLE POINT ENERGY     -1196.598319056773
Dispersion correction            ... done
                    ***********************HURRAY********************

CARTESIAN COORDINATES (ANGSTROEM)
---------------------------------
  C      1.450396   -1.612914    0.000390
  C      0.489434   -0.643251   -0.000780
  C      0.797319    0.824767   -0.000590
  C      2.141814    1.289613    0.000913
  C      3.217346    0.449398    0.002212
  S      3.137991   -1.280187    0.002269
  N     -0.290215    1.573345   -0.001883
  C     -1.348100    0.682400   -0.002864
  C     -0.937435   -0.663500   -0.002496
  S     -2.281703   -1.751262   -0.004434
  C     -3.388941   -0.396432   -0.003308
  C     -2.768152    0.827973   -0.003711
  H      1.210078   -2.679555    0.000122
  H      2.307104    2.369924    0.001054
  H      4.243182    0.823765    0.003393
  H     -4.458945   -0.601894   -0.003290
  H     -3.295924    1.781131   -0.003778

 Multiplicity           Mult            ....    1
 Number of Electrons    NEL             ....   98
 Basis Dimension        Dim             ....  201

ORBITAL ENERGIES
----------------

  NO   OCC          E(Eh)            E(eV)
   0   2.0000     -88.903826     -2419.1961
   1   2.0000     -88.876643     -2418.4564
   2   2.0000     -14.305658      -389.2767
   3   2.0000     -10.249565      -278.9048
   4   2.0000     -10.239362      -278.6272
   5   2.0000     -10.228684      -278.3366
   6   2.0000     -10.220432      -278.1121
   7   2.0000     -10.218045      -278.0471
   8   2.0000     -10.216326      -278.0004
   9   2.0000     -10.210704      -277.8474
  10   2.0000     -10.202830      -277.6331
  11   2.0000     -10.193667      -277.3838
  12   2.0000      -7.998625      -217.6537
  13   2.0000      -7.970621      -216.8916
  14   2.0000      -5.966786      -162.3645
  15   2.0000      -5.962411      -162.2454
  16   2.0000      -5.960106      -162.1827
  17   2.0000      -5.939028      -161.6092
  18   2.0000      -5.935013      -161.4999
  19   2.0000      -5.931560      -161.4060
  20   2.0000      -0.951425       -25.8896
  21   2.0000      -0.876071       -23.8391
  22   2.0000      -0.859164       -23.3790
  23   2.0000      -0.790177       -21.5018
  24   2.0000      -0.765636       -20.8340
  25   2.0000      -0.719591       -19.5811
  26   2.0000      -0.709940       -19.3184
  27   2.0000      -0.634615       -17.2687
  28   2.0000      -0.618336       -16.8258
  29   2.0000      -0.565524       -15.3887
  30   2.0000      -0.550833       -14.9889
  31   2.0000      -0.515847       -14.0369
  32   2.0000      -0.489715       -13.3258
  33   2.0000      -0.476087       -12.9550
  34   2.0000      -0.469666       -12.7803
  35   2.0000      -0.432796       -11.7770
  36   2.0000      -0.432278       -11.7629
  37   2.0000      -0.414471       -11.2783
  38   2.0000      -0.395901       -10.7730
  39   2.0000      -0.383135       -10.4256
  40   2.0000      -0.371703       -10.1146
  41   2.0000      -0.364116        -9.9081
  42   2.0000      -0.348595        -9.4857
  43   2.0000      -0.342716        -9.3258
  44   2.0000      -0.314264        -8.5516
  45   2.0000      -0.274118        -7.4591
  46   2.0000      -0.262632        -7.1466
  47   2.0000      -0.227430        -6.1887
  48   2.0000      -0.211696        -5.7605
  49   0.0000      -0.077660        -2.1132
  50   0.0000      -0.041403        -1.1266
  51   0.0000       0.014340         0.3902
  52   0.0000       0.036991         1.0066
  53   0.0000       0.041266         1.1229

MULLIKEN ATOMIC CHARGES
-----------------------
   0 C :   -0.152729
   1 C :    0.073296
   2 C :   -0.011933
   3 C :    0.064167
   4 C :   -0.106620
   5 S :    0.136342
   6 N :   -0.101744
   7 C :    0.056421
   8 C :   -0.105110
   9 S :    0.116067
  10 C :   -0.095391
  11 C :    0.021025
  12 H :    0.040957
  13 H :   -0.001269
  14 H :    0.048737
  15 H :    0.032500
  16 H :   -0.014717
Sum of atomic charges:    0.0000000

LOEWDIN ATOMIC CHARGES
----------------------
   0 C :   -0.157630
   1 C :   -0.062400
   2 C :    0.000989
   3 C :   -0.031033
   4 C :   -0.187476
   5 S :    0.468627
   6 N :   -0.123986
   7 C :   -0.024829
   8 C :   -0.233323
   9 S :    0.406320
  10 C :   -0.168733
  11 C :   -0.063555
  12 H :    0.036122
  13 H :    0.046211
  14 H :    0.033946
  15 H :    0.025238
  16 H :    0.035512

  Mayer bond orders larger than 0.100000
B(  0-C ,  1-C ) :   1.5346 B(  0-C ,  5-S ) :   1.1581 B(  0-C , 12-H ) :   0.9412
B(  1-C ,  2-C ) :   1.0117 B(  1-C ,  8-C ) :   1.2395 B(  2-C ,  3-C ) :   1.2128
B(  2-C ,  6-N ) :   1.6340 B(  3-C ,  4-C ) :   1.5836 B(  3-C , 13-H ) :   0.9714
B(  4-C ,  5-S ) :   1.1212 B(  4-C , 14-H ) :   0.9409 B(  6-N ,  7-C ) :   1.2791
B(  7-C ,  8-C ) :   1.3588 B(  7-C , 11-C ) :   1.2232 B(  8-C ,  9-S ) :   1.0573
B(  9-S , 10-C ) :   1.1451 B( 10-C , 11-C ) :   1.5374 B( 10-C , 15-H ) :   0.9619
B( 11-C , 16-H ) :   1.0060

Dispersion correction           -0.043709454
FINAL SINGLE POINT ENERGY     -1196.598318756498

DIPOLE MOMENT
-------------
                                X             Y             Z
Electronic contribution:      1.14919      -3.92237      -0.00203
Nuclear contribution   :     -0.48767       3.24541       0.00307
                        -----------------------------------------
Total Dipole Moment    :      0.66152      -0.67696       0.00105
                        -----------------------------------------
Magnitude (a.u.)       :      0.94651
Magnitude (Debye)      :      2.40585

Rotational constants in cm-1:     0.062764     0.016598     0.013127
Rotational constants in MHz :  1881.604495   497.591741   393.524053

                             ****ORCA TERMINATED NORMALLY****
TOTAL RUN TIME: 0 days 0 hours 6 minutes 47 seconds 41 msec
