                         Program Version 4.2.0 -  RELEASE  -
|  1> # ORCA input file
|  2> # SCF done        -23.940846800876          0.000783372434
|  3> ! B3LYP/G D3BJ Opt RIJCOSX def2-SVP def2/J
|  4> * xyz 0 1
|  5>    C        2.42512         0.70922         0.00019
|  6>    N        1.33929         1.42386        -0.00104
|  7>    C        0.17806         0.72549        -0.00166
|  8>    C       -1.09408         1.24555        -0.00259
|  9>    S       -2.26629         0.00628        -0.00540
| 10>    C       -1.09924        -1.23781        -0.00196
| 11>    C        0.17505        -0.72304        -0.00130
| 12>    N        1.33337        -1.42622        -0.00033
| 13>    C        2.42215        -0.71610         0.00055
| 14>    H        3.36045         1.25263         0.00255
| 15>    H       -1.38622         2.27571        -0.00279
| 16>    H       -1.39562        -2.26675        -0.00164
| 17>    H        3.35522        -1.26339         0.00317
| 18> *
| 19>
| 20>                          ****END OF INPUT****
 Total Charge           Charge          ....    0
 Multiplicity           Mult            ....    1
 Number of Electrons    NEL             ....   70
Dispersion correction           -0.028239117
FINAL SINGLE POINT ENERGY      -738.377945159517
Dispersion correction            ... done
Dispersion correction           -0.028214362
FINAL SINGLE POINT ENERGY      -738.379926372825
Dispersion correction            ... done
Dispersion correction           -0.028209842
FINAL SINGLE POINT ENERGY      -738.380020562930
Dispersion correction            ... done
Dispersion correction           -0.028204974
FINAL SINGLE POINT ENERGY      -738.380039213909
Dispersion correction            ... done
Dispersion correction           -0.028205689
FINAL SINGLE POINT ENERGY      -738.380069437352
Dispersion correction            ... done
                    ***********************HURRAY********************

CARTESIAN COORDINATES (ANGSTROEM)
---------------------------------
  C      2.432781    0.717715    0.000837
  N      1.341201    1.436535   -0.000379
  C      0.173202    0.729038   -0.001496
  C     -1.110977    1.259892   -0.002981
  S     -2.279770    0.006363   -0.004626
  C     -1.116237   -1.252085   -0.002396
  C      0.170187   -0.726659   -0.001140
  N      1.335326   -1.438967    0.000367
  C      2.429833   -0.724622    0.001218
  H      3.393160    1.247770    0.001683
  H     -1.399912    2.308503   -0.003422
  H     -1.409570   -2.299467   -0.002288
  H      3.388037   -1.258585    0.002371

 Multiplicity           Mult            ....    1
 Number of Electrons    NEL             ....   70
 Basis Dimension        Dim             ....  150

ORBITAL ENERGIES
----------------

  NO   OCC          E(Eh)            E(eV)
   0   2.0000     -88.902306     -2419.1547
   1   2.0000     -14.343477      -390.3058
   2   2.0000     -14.343343      -390.3022
   3   2.0000     -10.238567      -278.6056
   4   2.0000     -10.238393      -278.6008
   5   2.0000     -10.234014      -278.4817
   6   2.0000     -10.233826      -278.4766
   7   2.0000     -10.224012      -278.2095
   8   2.0000     -10.223954      -278.2079
   9   2.0000      -7.996683      -217.6008
  10   2.0000      -5.964205      -162.2943
  11   2.0000      -5.960195      -162.1852
  12   2.0000      -5.959339      -162.1619
  13   2.0000      -0.979350       -26.6495
  14   2.0000      -0.909542       -24.7499
  15   2.0000      -0.887122       -24.1398
  16   2.0000      -0.758045       -20.6275
  17   2.0000      -0.733236       -19.9524
  18   2.0000      -0.665855       -18.1188
  19   2.0000      -0.623457       -16.9651
  20   2.0000      -0.584378       -15.9017
  21   2.0000      -0.542684       -14.7672
  22   2.0000      -0.498006       -13.5514
  23   2.0000      -0.494013       -13.4428
  24   2.0000      -0.444527       -12.0962
  25   2.0000      -0.437808       -11.9134
  26   2.0000      -0.429581       -11.6895
  27   2.0000      -0.409265       -11.1367
  28   2.0000      -0.372529       -10.1370
  29   2.0000      -0.368630       -10.0309
  30   2.0000      -0.350296        -9.5321
  31   2.0000      -0.315580        -8.5874
  32   2.0000      -0.269670        -7.3381
  33   2.0000      -0.249716        -6.7951
  34   2.0000      -0.236282        -6.4296
  35   0.0000      -0.088944        -2.4203
  36   0.0000      -0.001503        -0.0409
  37   0.0000      -0.000259        -0.0070
  38   0.0000       0.041535         1.1302
  39   0.0000       0.076558         2.0833

MULLIKEN ATOMIC CHARGES
-----------------------
   0 C :    0.024481
   1 N :   -0.048615
   2 C :    0.056496
   3 C :   -0.138726
   4 S :    0.155159
   5 C :   -0.138643
   6 C :    0.056467
   7 N :   -0.048583
   8 C :    0.024493
   9 H :    0.005869
  10 H :    0.022878
  11 H :    0.022810
  12 H :    0.005915
Sum of atomic charges:   -0.0000000

LOEWDIN ATOMIC CHARGES
----------------------
   0 C :   -0.001064
   1 N :   -0.050900
   2 C :   -0.052530
   3 C :   -0.203927
   4 S :    0.507631
   5 C :   -0.203882
   6 C :   -0.052521
   7 N :   -0.050918
   8 C :   -0.001059
   9 H :    0.022998
  10 H :    0.031594
  11 H :    0.031571
  12 H :    0.023006

  Mayer bond orders larger than 0.100000
B(  0-C ,  1-N ) :   1.7091 B(  0-C ,  8-C ) :   1.1659 B(  0-C ,  9-H ) :   0.9637
B(  1-N ,  2-C ) :   1.3525 B(  2-C ,  3-C ) :   1.3796 B(  2-C ,  6-C ) :   1.1823
B(  3-C ,  4-S ) :   1.2148 B(  3-C ,  5-C ) :   0.1277 B(  3-C , 10-H ) :   0.9708
B(  4-S ,  5-C ) :   1.2148 B(  5-C ,  6-C ) :   1.3796 B(  5-C , 11-H ) :   0.9709
B(  6-C ,  7-N ) :   1.3525 B(  7-N ,  8-C ) :   1.7091 B(  8-C , 12-H ) :   0.9637

Dispersion correction           -0.028205520
FINAL SINGLE POINT ENERGY      -738.380072169677

DIPOLE MOMENT
-------------
                                X             Y             Z
Electronic contribution:     -3.89338       0.00805      -0.00505
Nuclear contribution   :      3.69220      -0.00756       0.00466
                        -----------------------------------------
Total Dipole Moment    :     -0.20119       0.00049      -0.00039
                        -----------------------------------------
Magnitude (a.u.)       :      0.20119
Magnitude (Debye)      :      0.51137

Rotational constants in cm-1:     0.124972     0.040491     0.030583
Rotational constants in MHz :  3746.574844  1213.904258   916.843548

                             ****ORCA TERMINATED NORMALLY****
TOTAL RUN TIME: 0 days 0 hours 3 minutes 50 seconds 438 msec
