                         Program Version 4.2.0 -  RELEASE  -
|  1> # ORCA input file
|  2> # SCF done        -26.515963050754          0.000661937850
|  3> ! B3LYP/G D3BJ Opt RIJCOSX def2-SVP def2/J
|  4> * xyz 0 1
|  5>    C        1.51780         1.29893         0.19186
|  6>    S        2.78457         0.14520         0.15451
|  7>    C        1.66685        -1.13520        -0.08090
|  8>    C        0.37794        -0.69670        -0.11212
|  9>    C        0.29193         0.72082         0.04755
| 10>    O       -0.85127         1.45317         0.13182
| 11>    S       -2.16109         0.94014        -0.76412
| 12>    C       -2.35905        -0.66690         0.04070
| 13>    S       -0.97841        -1.78987        -0.37417
| 14>    H        1.72294         2.33843         0.34346
| 15>    H        2.01044        -2.14370        -0.18372
| 16>    H       -3.26493        -1.12750        -0.34120
| 17>    H       -2.40996        -0.52548         1.11870
| 18> *
| 19>
| 20>                          ****END OF INPUT****
 Total Charge           Charge          ....    0
 Multiplicity           Mult            ....    1
 Number of Electrons    NEL             ....   90
Dispersion correction           -0.034450328
FINAL SINGLE POINT ENERGY     -1462.182383967846
Dispersion correction            ... done
Dispersion correction           -0.034314493
FINAL SINGLE POINT ENERGY     -1462.184646078559
Dispersion correction            ... done
Dispersion correction           -0.034269815
FINAL SINGLE POINT ENERGY     -1462.184858560995
Dispersion correction            ... done
FINAL SINGLE POINT ENERGY     -1462.185013363814
FINAL SINGLE POINT ENERGY     -1462.185072412726
Dispersion correction            ... done
Dispersion correction           -0.034282719
FINAL SINGLE POINT ENERGY     -1462.185090402533
Dispersion correction            ... done
Dispersion correction           -0.034282574
FINAL SINGLE POINT ENERGY     -1462.185091690766
Dispersion correction            ... done
                    ***********************HURRAY********************

CARTESIAN COORDINATES (ANGSTROEM)
---------------------------------
  C      1.546916    1.322757    0.154196
  S      2.817346    0.156948    0.078772
  C      1.690839   -1.146020   -0.076351
  C      0.386378   -0.708827   -0.064906
  C      0.312123    0.725261    0.086590
  O     -0.843789    1.439386    0.244670
  S     -2.171798    0.965344   -0.723491
  C     -2.380358   -0.668256    0.019623
  S     -0.982594   -1.807791   -0.294840
  H      1.750635    2.383681    0.279675
  H      2.044549   -2.170202   -0.180866
  H     -3.263478   -1.127106   -0.449605
  H     -2.559008   -0.553835    1.098904

 Multiplicity           Mult            ....    1
 Number of Electrons    NEL             ....   90
 Basis Dimension        Dim             ....  158

ORBITAL ENERGIES
----------------

  NO   OCC          E(Eh)            E(eV)
   0   2.0000     -88.897372     -2419.0205
   1   2.0000     -88.880617     -2418.5645
   2   2.0000     -88.862145     -2418.0619
   3   2.0000     -19.187697      -522.1238
   4   2.0000     -10.259128      -279.1651
   5   2.0000     -10.256581      -279.0958
   6   2.0000     -10.227098      -278.2935
   7   2.0000     -10.217795      -278.0403
   8   2.0000     -10.213365      -277.9198
   9   2.0000      -7.988680      -217.3830
  10   2.0000      -7.975421      -217.0222
  11   2.0000      -7.957049      -216.5223
  12   2.0000      -5.961017      -162.2075
  13   2.0000      -5.954160      -162.0209
  14   2.0000      -5.944404      -161.7555
  15   2.0000      -5.943594      -161.7334
  16   2.0000      -5.939630      -161.6255
  17   2.0000      -5.936586      -161.5427
  18   2.0000      -5.926405      -161.2657
  19   2.0000      -5.922666      -161.1639
  20   2.0000      -5.915325      -160.9642
  21   2.0000      -1.063869       -28.9493
  22   2.0000      -0.887051       -24.1379
  23   2.0000      -0.832083       -22.6421
  24   2.0000      -0.771919       -21.0050
  25   2.0000      -0.727239       -19.7892
  26   2.0000      -0.687491       -18.7076
  27   2.0000      -0.638693       -17.3797
  28   2.0000      -0.584340       -15.9007
  29   2.0000      -0.539305       -14.6752
  30   2.0000      -0.515126       -14.0173
  31   2.0000      -0.482743       -13.1361
  32   2.0000      -0.461758       -12.5651
  33   2.0000      -0.440088       -11.9754
  34   2.0000      -0.428748       -11.6668
  35   2.0000      -0.412729       -11.2309
  36   2.0000      -0.401617       -10.9286
  37   2.0000      -0.377173       -10.2634
  38   2.0000      -0.369900       -10.0655
  39   2.0000      -0.354318        -9.6415
  40   2.0000      -0.320347        -8.7171
  41   2.0000      -0.297550        -8.0968
  42   2.0000      -0.250372        -6.8130
  43   2.0000      -0.230899        -6.2831
  44   2.0000      -0.216865        -5.9012
  45   0.0000      -0.038073        -1.0360
  46   0.0000      -0.021443        -0.5835
  47   0.0000       0.009505         0.2586
  48   0.0000       0.037467         1.0195
  49   0.0000       0.054535         1.4840

MULLIKEN ATOMIC CHARGES
-----------------------
   0 C :   -0.141446
   1 S :    0.110765
   2 C :   -0.132720
   3 C :   -0.038087
   4 C :    0.244242
   5 O :   -0.408898
   6 S :    0.230465
   7 C :   -0.139833
   8 S :    0.034984
   9 H :    0.025150
  10 H :    0.026617
  11 H :    0.082332
  12 H :    0.106430
Sum of atomic charges:   -0.0000000

LOEWDIN ATOMIC CHARGES
----------------------
   0 C :   -0.218625
   1 S :    0.439797
   2 C :   -0.217962
   3 C :   -0.225086
   4 C :   -0.034906
   5 O :   -0.250789
   6 S :    0.371793
   7 C :   -0.263210
   8 S :    0.281466
   9 H :    0.031015
  10 H :    0.025512
  11 H :    0.034617
  12 H :    0.026379

  Mayer bond orders larger than 0.100000
B(  0-C ,  1-S ) :   1.1526 B(  0-C ,  4-C ) :   1.5690 B(  0-C ,  9-H ) :   0.9627
B(  1-S ,  2-C ) :   1.1718 B(  2-C ,  3-C ) :   1.5423 B(  2-C , 10-H ) :   0.9663
B(  3-C ,  4-C ) :   1.2192 B(  3-C ,  8-S ) :   0.9992 B(  4-C ,  5-O ) :   1.0386
B(  5-O ,  6-S ) :   0.8793 B(  6-S ,  7-C ) :   1.0031 B(  7-C ,  8-S ) :   0.9807
B(  7-C , 11-H ) :   0.9431 B(  7-C , 12-H ) :   0.9336

Dispersion correction           -0.034281508
FINAL SINGLE POINT ENERGY     -1462.185092653393

DIPOLE MOMENT
-------------
                                X             Y             Z
Electronic contribution:      1.42932       0.91525      -1.22271
Nuclear contribution   :     -1.74472      -1.20752       1.23430
                        -----------------------------------------
Total Dipole Moment    :     -0.31539      -0.29228       0.01158
                        -----------------------------------------
Magnitude (a.u.)       :      0.43016
Magnitude (Debye)      :      1.09337

Rotational constants in cm-1:     0.068050     0.026926     0.019880
Rotational constants in MHz :  2040.093347   807.225892   595.998761

                             ****ORCA TERMINATED NORMALLY****
TOTAL RUN TIME: 0 days 0 hours 5 minutes 22 seconds 683 msec
