                         Program Version 4.2.0 -  RELEASE  -
|  1> # ORCA input file
|  2> # SCF done        -42.495714657329          0.000946477723
|  3> ! B3LYP/G D3BJ Opt RIJCOSX def2-SVP def2/J
|  4> * xyz 0 1
|  5>    C        1.66922        -1.14713        -0.17566
|  6>    S        2.86047        -0.04909        -0.73221
|  7>    C        1.66241         1.19052        -0.98919
|  8>    C        0.41299         0.74038        -0.63372
|  9>    C        0.42312        -0.59965        -0.16781
| 10>    C       -0.80164        -1.30159         0.32786
| 11>    C       -2.07797        -0.57369        -0.11928
| 12>    C       -2.31526        -0.78021        -1.52648
| 13>    N       -2.49832        -0.95404        -2.64138
| 14>    C       -1.94755         0.93161         0.18891
| 15>    O       -1.69601         1.02529         1.57537
| 16>    C       -1.79418         2.31761         2.11542
| 17>    C       -0.84830         1.54281        -0.69147
| 18>    C        2.11815         2.45924        -1.49983
| 19>    C        1.38779         3.39020        -2.10736
| 20>    H        1.95588        -2.13708         0.11909
| 21>    H       -0.78852        -1.30644         1.42080
| 22>    H       -0.81460        -2.33728        -0.01953
| 23>    H       -2.93429        -0.97745         0.43300
| 24>    H       -2.90172         1.43939        -0.04262
| 25>    H       -1.75287         2.19580         3.19633
| 26>    H       -2.74322         2.79318         1.83800
| 27>    H       -0.96685         2.96191         1.79839
| 28>    H       -0.65018         2.57160        -0.38264
| 29>    H       -1.22235         1.56969        -1.72027
| 30>    H        3.18319         2.62257        -1.37999
| 31>    H        0.33930         3.27309        -2.31253
| 32>    H        1.84038         4.30501        -2.44925
| 33> *
| 34>
| 35>                          ****END OF INPUT****
 Total Charge           Charge          ....    0
 Multiplicity           Mult            ....    1
 Number of Electrons    NEL             ....  116
Dispersion correction           -0.062748761
FINAL SINGLE POINT ENERGY      -992.732418707906
Dispersion correction            ... done
Dispersion correction           -0.062237548
FINAL SINGLE POINT ENERGY      -992.736253732477
Dispersion correction            ... done
Dispersion correction           -0.062190744
FINAL SINGLE POINT ENERGY      -992.736457475405
Dispersion correction            ... done
FINAL SINGLE POINT ENERGY      -992.736291048783
FINAL SINGLE POINT ENERGY      -992.736308060933
FINAL SINGLE POINT ENERGY      -992.736234170621
FINAL SINGLE POINT ENERGY      -992.736131609752
FINAL SINGLE POINT ENERGY      -992.736120113470
FINAL SINGLE POINT ENERGY      -992.736105156460
FINAL SINGLE POINT ENERGY      -992.736138507142
FINAL SINGLE POINT ENERGY      -992.736221888758
Dispersion correction            ... done
Dispersion correction           -0.062251095
FINAL SINGLE POINT ENERGY      -992.736254043946
Dispersion correction            ... done
Dispersion correction           -0.062247350
FINAL SINGLE POINT ENERGY      -992.736280312971
Dispersion correction            ... done
                    ***********************HURRAY********************

CARTESIAN COORDINATES (ANGSTROEM)
---------------------------------
  C      1.694414   -1.144298   -0.152074
  S      2.883134    0.000907   -0.645214
  C      1.673893    1.233481   -0.917575
  C      0.408953    0.752745   -0.609170
  C      0.426890   -0.612200   -0.167860
  C     -0.811485   -1.330617    0.299707
  C     -2.107623   -0.600958   -0.119913
  C     -2.438212   -0.837641   -1.527404
  N     -2.688149   -1.027295   -2.642446
  C     -1.984568    0.913898    0.159864
  O     -1.758164    1.004407    1.549585
  C     -1.670397    2.306909    2.069828
  C     -0.873172    1.531534   -0.699400
  C      2.106359    2.532204   -1.415722
  C      1.371336    3.416845   -2.111566
  H      1.989517   -2.150146    0.142165
  H     -0.811724   -1.371094    1.399544
  H     -0.828949   -2.366255   -0.071321
  H     -2.941010   -0.987983    0.487557
  H     -2.941741    1.411755   -0.095211
  H     -1.752192    2.228913    3.163853
  H     -2.490792    2.953751    1.701134
  H     -0.707870    2.794117    1.826943
  H     -0.710100    2.582531   -0.416199
  H     -1.237492    1.557411   -1.741274
  H      3.150160    2.789247   -1.200484
  H      0.343021    3.216175   -2.415700
  H      1.805032    4.367908   -2.429693

 Multiplicity           Mult            ....    1
 Number of Electrons    NEL             ....  116
 Basis Dimension        Dim             ....  279

ORBITAL ENERGIES
----------------

  NO   OCC          E(Eh)            E(eV)
   0   2.0000     -88.873372     -2418.3674
   1   2.0000     -19.152143      -521.1563
   2   2.0000     -14.326116      -389.8334
   3   2.0000     -10.262677      -279.2616
   4   2.0000     -10.245608      -278.7972
   5   2.0000     -10.241766      -278.6926
   6   2.0000     -10.225737      -278.2564
   7   2.0000     -10.217512      -278.0326
   8   2.0000     -10.211480      -277.8685
   9   2.0000     -10.211367      -277.8654
  10   2.0000     -10.207872      -277.7703
  11   2.0000     -10.203411      -277.6489
  12   2.0000     -10.200914      -277.5810
  13   2.0000     -10.200599      -277.5724
  14   2.0000     -10.193376      -277.3759
  15   2.0000      -7.968678      -216.8388
  16   2.0000      -5.936670      -161.5450
  17   2.0000      -5.932772      -161.4389
  18   2.0000      -5.930009      -161.3637
  19   2.0000      -1.046779       -28.4843
  20   2.0000      -0.901055       -24.5190
  21   2.0000      -0.887715       -24.1559
  22   2.0000      -0.836611       -22.7653
  23   2.0000      -0.791552       -21.5392
  24   2.0000      -0.764987       -20.8164
  25   2.0000      -0.749354       -20.3910
  26   2.0000      -0.707039       -19.2395
  27   2.0000      -0.689113       -18.7517
  28   2.0000      -0.654308       -17.8046
  29   2.0000      -0.613290       -16.6885
  30   2.0000      -0.593588       -16.1523
  31   2.0000      -0.564052       -15.3486
  32   2.0000      -0.543001       -14.7758
  33   2.0000      -0.506883       -13.7930
  34   2.0000      -0.504993       -13.7416
  35   2.0000      -0.494752       -13.4629
  36   2.0000      -0.477695       -12.9987
  37   2.0000      -0.461733       -12.5644
  38   2.0000      -0.458000       -12.4628
  39   2.0000      -0.447613       -12.1802
  40   2.0000      -0.430339       -11.7101
  41   2.0000      -0.423220       -11.5164
  42   2.0000      -0.417902       -11.3717
  43   2.0000      -0.410912       -11.1815
  44   2.0000      -0.403108       -10.9691
  45   2.0000      -0.378715       -10.3054
  46   2.0000      -0.370586       -10.0842
  47   2.0000      -0.367762       -10.0073
  48   2.0000      -0.357056        -9.7160
  49   2.0000      -0.356720        -9.7069
  50   2.0000      -0.346014        -9.4155
  51   2.0000      -0.339935        -9.2501
  52   2.0000      -0.326150        -8.8750
  53   2.0000      -0.316467        -8.6115
  54   2.0000      -0.300728        -8.1832
  55   2.0000      -0.276886        -7.5345
  56   2.0000      -0.247713        -6.7406
  57   2.0000      -0.220987        -6.0134
  58   0.0000      -0.046150        -1.2558
  59   0.0000       0.010750         0.2925
  60   0.0000       0.026239         0.7140
  61   0.0000       0.032828         0.8933
  62   0.0000       0.036579         0.9954

MULLIKEN ATOMIC CHARGES
-----------------------
   0 C :   -0.127148
   1 S :    0.108647
   2 C :   -0.168355
   3 C :   -0.017410
   4 C :   -0.049927
   5 C :    0.188242
   6 C :   -0.085701
   7 C :   -0.212081
   8 N :    0.063762
   9 C :    0.162147
  10 O :   -0.378780
  11 C :    0.179613
  12 C :    0.104849
  13 C :    0.016584
  14 C :   -0.034681
  15 H :    0.012471
  16 H :    0.036200
  17 H :    0.018976
  18 H :    0.037119
  19 H :   -0.006211
  20 H :    0.031533
  21 H :    0.003473
  22 H :    0.021753
  23 H :    0.012791
  24 H :    0.043204
  25 H :   -0.005522
  26 H :    0.022146
  27 H :    0.022306
Sum of atomic charges:   -0.0000000

LOEWDIN ATOMIC CHARGES
----------------------
   0 C :   -0.194780
   1 S :    0.433069
   2 C :   -0.183535
   3 C :   -0.055438
   4 C :   -0.062338
   5 C :   -0.001478
   6 C :   -0.050696
   7 C :   -0.029529
   8 N :   -0.074985
   9 C :    0.083995
  10 O :   -0.165500
  11 C :    0.071070
  12 C :   -0.036875
  13 C :   -0.041111
  14 C :   -0.053524
  15 H :    0.023465
  16 H :    0.041557
  17 H :    0.036165
  18 H :    0.055444
  19 H :    0.011494
  20 H :    0.025185
  21 H :    0.006824
  22 H :    0.009930
  23 H :    0.032360
  24 H :    0.041149
  25 H :    0.028871
  26 H :    0.022574
  27 H :    0.026639

  Mayer bond orders larger than 0.100000
B(  0-C ,  1-S ) :   1.1557 B(  0-C ,  4-C ) :   1.5442 B(  0-C , 15-H ) :   0.9640
B(  1-S ,  2-C ) :   1.1290 B(  2-C ,  3-C ) :   1.5124 B(  2-C , 13-C ) :   1.0930
B(  3-C ,  4-C ) :   1.2926 B(  3-C , 12-C ) :   1.0420 B(  4-C ,  5-C ) :   1.0265
B(  5-C ,  6-C ) :   1.0634 B(  5-C , 16-H ) :   0.9003 B(  5-C , 17-H ) :   0.9219
B(  6-C ,  7-C ) :   1.0269 B(  6-C ,  9-C ) :   1.0144 B(  6-C , 18-H ) :   0.8714
B(  7-C ,  8-N ) :   3.0714 B(  9-C , 10-O ) :   1.0453 B(  9-C , 12-C ) :   1.0332
B(  9-C , 19-H ) :   0.9229 B( 10-O , 11-C ) :   0.9854 B( 11-C , 20-H ) :   0.9773
B( 11-C , 21-H ) :   0.9595 B( 11-C , 22-H ) :   0.9645 B( 12-C , 23-H ) :   0.8979
B( 12-C , 24-H ) :   0.8921 B( 13-C , 14-C ) :   1.9240 B( 13-C , 25-H ) :   0.9462
B( 14-C , 26-H ) :   0.9516 B( 14-C , 27-H ) :   0.9408

Dispersion correction           -0.062249145
FINAL SINGLE POINT ENERGY      -992.736287751928

DIPOLE MOMENT
-------------
                                X             Y             Z
Electronic contribution:      6.57928      -8.80073      -4.33131
Nuclear contribution   :     -6.42793       9.48595       5.63095
                        -----------------------------------------
Total Dipole Moment    :      0.15135       0.68521       1.29964
                        -----------------------------------------
Magnitude (a.u.)       :      1.47699
Magnitude (Debye)      :      3.75420

Rotational constants in cm-1:     0.023191     0.014375     0.012765
Rotational constants in MHz :   695.238399   430.964641   382.684080

                             ****ORCA TERMINATED NORMALLY****
TOTAL RUN TIME: 0 days 0 hours 35 minutes 31 seconds 689 msec
