                         Program Version 4.2.0 -  RELEASE  -
|  1> # ORCA input file
|  2> # SCF done        -39.559799217926          0.000332406415
|  3> ! B3LYP/G D3BJ Opt RIJCOSX def2-SVP def2/J
|  4> * xyz 0 1
|  5>    C        2.47000        -1.14691         0.00008
|  6>    C        1.12481        -0.80422        -0.01747
|  7>    N        0.01229        -1.61142        -0.04444
|  8>    C        0.01751        -3.04875        -0.00960
|  9>    C        0.00940        -3.58275         1.42243
| 10>    C       -1.10708        -0.81358        -0.02227
| 11>    C       -0.71428         0.54654        -0.01644
| 12>    C        0.72050         0.55256        -0.01350
| 13>    C        1.67310         1.56280        -0.00182
| 14>    C        3.00835         1.21348         0.01112
| 15>    C        3.39839        -0.12404         0.01388
| 16>    C       -1.67549         1.54863        -0.00832
| 17>    C       -3.00776         1.18793        -0.00085
| 18>    C       -3.38645        -0.15285        -0.00024
| 19>    C       -2.44934        -1.16778        -0.01056
| 20>    H        2.79097        -2.17803         0.00685
| 21>    H        0.90728        -3.40438        -0.53675
| 22>    H       -0.86209        -3.41118        -0.54923
| 23>    H        0.88742        -3.23153         1.95954
| 24>    H        0.01166        -4.66965         1.41831
| 25>    H       -0.87700        -3.23520         1.94802
| 26>    H        1.37055         2.59928        -0.00159
| 27>    H        3.76534         1.98367         0.02133
| 28>    H        4.45105        -0.36660         0.02903
| 29>    H       -1.38181         2.58766        -0.00656
| 30>    H       -3.77131         1.95165         0.00667
| 31>    H       -4.43706        -0.40435         0.01049
| 32>    H       -2.76144        -2.20162        -0.00561
| 33> *
| 34>
| 35>                          ****END OF INPUT****
 Total Charge           Charge          ....    0
 Multiplicity           Mult            ....    1
 Number of Electrons    NEL             ....  104
Dispersion correction           -0.060262895
FINAL SINGLE POINT ENERGY      -595.732608527823
Dispersion correction            ... done
Dispersion correction           -0.060008837
FINAL SINGLE POINT ENERGY      -595.736573970817
Dispersion correction            ... done
Dispersion correction           -0.059995251
FINAL SINGLE POINT ENERGY      -595.736690510828
Dispersion correction            ... done
FINAL SINGLE POINT ENERGY      -595.736701210205
FINAL SINGLE POINT ENERGY      -595.736677092852
Dispersion correction            ... done
Dispersion correction           -0.060068322
FINAL SINGLE POINT ENERGY      -595.736656621135
Dispersion correction            ... done
Dispersion correction           -0.060077574
FINAL SINGLE POINT ENERGY      -595.736647485201
Dispersion correction            ... done
                    ***********************HURRAY********************

CARTESIAN COORDINATES (ANGSTROEM)
---------------------------------
  C      2.490175   -1.166125   -0.052544
  C      1.136440   -0.810539   -0.063773
  N      0.009669   -1.621685   -0.117502
  C      0.015409   -3.064769    0.004581
  C      0.019350   -3.535406    1.459053
  C     -1.123280   -0.818676   -0.069797
  C     -0.723010    0.547674   -0.020718
  C      0.726313    0.552846   -0.016772
  C      1.692892    1.564402    0.028625
  C      3.042793    1.213332    0.032627
  C      3.432476   -0.138248   -0.006882
  C     -1.696785    1.552526    0.019112
  C     -3.044238    1.192178    0.015441
  C     -3.424254   -0.162069   -0.026243
  C     -2.474653   -1.183477   -0.066446
  H      2.807708   -2.210184   -0.078693
  H      0.895224   -3.450037   -0.533190
  H     -0.862405   -3.456995   -0.531302
  H      0.906471   -3.154415    1.987306
  H      0.026907   -4.635270    1.519708
  H     -0.872062   -3.166351    1.988706
  H      1.390192    2.614081    0.066675
  H      3.806838    1.992604    0.072455
  H      4.495475   -0.392845    0.001702
  H     -1.401493    2.604288    0.058643
  H     -3.813928    1.966118    0.050544
  H     -4.485507   -0.423985   -0.024212
  H     -2.785207   -2.229612   -0.094602

 Multiplicity           Mult            ....    1
 Number of Electrons    NEL             ....  104
 Basis Dimension        Dim             ....  275

ORBITAL ENERGIES
----------------

  NO   OCC          E(Eh)            E(eV)
   0   2.0000     -14.368367      -390.9831
   1   2.0000     -10.237730      -278.5828
   2   2.0000     -10.222218      -278.1607
   3   2.0000     -10.222124      -278.1581
   4   2.0000     -10.192965      -277.3647
   5   2.0000     -10.190001      -277.2840
   6   2.0000     -10.189965      -277.2830
   7   2.0000     -10.189210      -277.2625
   8   2.0000     -10.189081      -277.2590
   9   2.0000     -10.188618      -277.2464
  10   2.0000     -10.188605      -277.2460
  11   2.0000     -10.185482      -277.1611
  12   2.0000     -10.185350      -277.1575
  13   2.0000     -10.181827      -277.0616
  14   2.0000     -10.181816      -277.0613
  15   2.0000      -0.981109       -26.6973
  16   2.0000      -0.844806       -22.9883
  17   2.0000      -0.837692       -22.7948
  18   2.0000      -0.788196       -21.4479
  19   2.0000      -0.753158       -20.4945
  20   2.0000      -0.743266       -20.2253
  21   2.0000      -0.709618       -19.3097
  22   2.0000      -0.709103       -19.2957
  23   2.0000      -0.652815       -17.7640
  24   2.0000      -0.618306       -16.8250
  25   2.0000      -0.604154       -16.4399
  26   2.0000      -0.571744       -15.5580
  27   2.0000      -0.571669       -15.5559
  28   2.0000      -0.520565       -14.1653
  29   2.0000      -0.518923       -14.1206
  30   2.0000      -0.494689       -13.4612
  31   2.0000      -0.464105       -12.6289
  32   2.0000      -0.463434       -12.6107
  33   2.0000      -0.449232       -12.2242
  34   2.0000      -0.448539       -12.2054
  35   2.0000      -0.433269       -11.7898
  36   2.0000      -0.424925       -11.5628
  37   2.0000      -0.423036       -11.5114
  38   2.0000      -0.416069       -11.3218
  39   2.0000      -0.398831       -10.8527
  40   2.0000      -0.387734       -10.5508
  41   2.0000      -0.370458       -10.0807
  42   2.0000      -0.364527        -9.9193
  43   2.0000      -0.360821        -9.8184
  44   2.0000      -0.354493        -9.6463
  45   2.0000      -0.341420        -9.2905
  46   2.0000      -0.337624        -9.1872
  47   2.0000      -0.319407        -8.6915
  48   2.0000      -0.282794        -7.6952
  49   2.0000      -0.256188        -6.9712
  50   2.0000      -0.217220        -5.9109
  51   2.0000      -0.204313        -5.5597
  52   0.0000      -0.034994        -0.9522
  53   0.0000      -0.000866        -0.0236
  54   0.0000       0.020712         0.5636
  55   0.0000       0.034622         0.9421
  56   0.0000       0.048877         1.3300

MULLIKEN ATOMIC CHARGES
-----------------------
   0 C :   -0.063786
   1 C :    0.127056
   2 N :   -0.210254
   3 C :    0.117915
   4 C :   -0.010814
   5 C :    0.127408
   6 C :    0.075081
   7 C :    0.075455
   8 C :   -0.054595
   9 C :    0.020751
  10 C :    0.013567
  11 C :   -0.054883
  12 C :    0.020587
  13 C :    0.013966
  14 C :   -0.063968
  15 H :   -0.047079
  16 H :    0.017818
  17 H :    0.017944
  18 H :    0.026620
  19 H :    0.022630
  20 H :    0.026653
  21 H :   -0.034347
  22 H :   -0.021530
  23 H :   -0.019689
  24 H :   -0.034078
  25 H :   -0.021495
  26 H :   -0.019949
  27 H :   -0.046985
Sum of atomic charges:    0.0000000

LOEWDIN ATOMIC CHARGES
----------------------
   0 C :   -0.062685
   1 C :    0.029902
   2 N :    0.012170
   3 C :    0.044673
   4 C :   -0.063186
   5 C :    0.029956
   6 C :   -0.042426
   7 C :   -0.042407
   8 C :   -0.016033
   9 C :   -0.049164
  10 C :   -0.023792
  11 C :   -0.016114
  12 C :   -0.049195
  13 C :   -0.023715
  14 C :   -0.062717
  15 H :    0.022372
  16 H :    0.025874
  17 H :    0.025926
  18 H :    0.028461
  19 H :    0.028557
  20 H :    0.028491
  21 H :    0.025714
  22 H :    0.024962
  23 H :    0.025651
  24 H :    0.025764
  25 H :    0.024970
  26 H :    0.025594
  27 H :    0.022398

  Mayer bond orders larger than 0.100000
B(  0-C ,  1-C ) :   1.3098 B(  0-C , 10-C ) :   1.3787 B(  0-C , 15-H ) :   0.9980
B(  1-C ,  2-N ) :   1.1095 B(  1-C ,  7-C ) :   1.2790 B(  2-N ,  3-C ) :   0.9842
B(  2-N ,  5-C ) :   1.1092 B(  3-C ,  4-C ) :   1.1090 B(  3-C , 16-H ) :   0.9420
B(  3-C , 17-H ) :   0.9421 B(  4-C , 18-H ) :   0.9658 B(  4-C , 19-H ) :   0.9646
B(  4-C , 20-H ) :   0.9657 B(  5-C ,  6-C ) :   1.2791 B(  5-C , 14-C ) :   1.3098
B(  6-C ,  7-C ) :   1.1011 B(  6-C , 11-C ) :   1.3299 B(  7-C ,  8-C ) :   1.3298
B(  8-C ,  9-C ) :   1.3954 B(  8-C , 21-H ) :   0.9919 B(  9-C , 10-C ) :   1.3461
B(  9-C , 22-H ) :   0.9805 B( 10-C , 23-H ) :   0.9804 B( 11-C , 12-C ) :   1.3954
B( 11-C , 24-H ) :   0.9918 B( 12-C , 13-C ) :   1.3463 B( 12-C , 25-H ) :   0.9805
B( 13-C , 14-C ) :   1.3787 B( 13-C , 26-H ) :   0.9805 B( 14-C , 27-H ) :   0.9979

Dispersion correction           -0.060079360
FINAL SINGLE POINT ENERGY      -595.736645596165

DIPOLE MOMENT
-------------
                                X             Y             Z
Electronic contribution:     -0.03119       6.84215      -3.00136
Nuclear contribution   :      0.03404      -7.59731       3.09844
                        -----------------------------------------
Total Dipole Moment    :      0.00284      -0.75516       0.09708
                        -----------------------------------------
Magnitude (a.u.)       :      0.76138
Magnitude (Debye)      :      1.93527

Rotational constants in cm-1:     0.031031     0.019044     0.012269
Rotational constants in MHz :   930.290051   570.916808   367.824094

                             ****ORCA TERMINATED NORMALLY****
TOTAL RUN TIME: 0 days 0 hours 17 minutes 47 seconds 643 msec
