                         Program Version 4.2.0 -  RELEASE  -
|  1> # ORCA input file
|  2> # SCF done        -30.750699646134          0.000521905711
|  3> ! B3LYP/G D3BJ Opt RIJCOSX def2-SVP def2/J
|  4> * xyz 0 1
|  5>    C        1.55710         1.20447        -0.01026
|  6>    S        2.66310        -0.04578         0.40744
|  7>    C        1.38229        -1.19460         0.44899
|  8>    C        0.17730        -0.64062         0.15532
|  9>    C        0.27964         0.75465        -0.11355
| 10>    C       -0.90332         1.58701        -0.49529
| 11>    C       -2.20913         0.92519        -0.03754
| 12>    C       -2.22436        -0.53509        -0.51579
| 13>    C       -1.13211        -1.36647         0.15519
| 14>    C       -2.34962         1.01651         1.45273
| 15>    C       -3.45331         1.38946         2.07138
| 16>    H        1.92217         2.20155        -0.15767
| 17>    H        1.60018        -2.21542         0.69313
| 18>    H       -0.92252         1.69824        -1.58458
| 19>    H       -0.81461         2.58766        -0.06585
| 20>    H       -3.05284         1.44666        -0.50276
| 21>    H       -2.07619        -0.54465        -1.59845
| 22>    H       -3.19891        -0.97953        -0.30471
| 23>    H       -1.02633        -2.32712        -0.35505
| 24>    H       -1.42004        -1.58113         1.18908
| 25>    H       -1.46531         0.75984         2.02086
| 26>    H       -4.34460         1.65925         1.52772
| 27>    H       -3.51858         1.44193         3.14495
| 28> *
| 29>
| 30>                          ****END OF INPUT****
 Total Charge           Charge          ....    0
 Multiplicity           Mult            ....    1
 Number of Electrons    NEL             ....   88
Dispersion correction           -0.048364125
FINAL SINGLE POINT ENERGY      -786.110878113218
Dispersion correction            ... done
Dispersion correction           -0.047743518
FINAL SINGLE POINT ENERGY      -786.114153990371
Dispersion correction            ... done
Dispersion correction           -0.047567769
FINAL SINGLE POINT ENERGY      -786.114173909046
Dispersion correction            ... done
FINAL SINGLE POINT ENERGY      -786.114033520584
FINAL SINGLE POINT ENERGY      -786.114040667926
FINAL SINGLE POINT ENERGY      -786.114074436298
FINAL SINGLE POINT ENERGY      -786.114093057807
Dispersion correction            ... done
Dispersion correction           -0.047482099
FINAL SINGLE POINT ENERGY      -786.114091952243
Dispersion correction            ... done
Dispersion correction           -0.047468780
FINAL SINGLE POINT ENERGY      -786.114086115770
Dispersion correction            ... done
                    ***********************HURRAY********************

CARTESIAN COORDINATES (ANGSTROEM)
---------------------------------
  C      1.599954    1.221684    0.003372
  S      2.740129   -0.045726    0.288351
  C      1.483452   -1.232651    0.308025
  C      0.241777   -0.675303    0.110755
  C      0.312042    0.749923   -0.083815
  C     -0.905237    1.573360   -0.419754
  C     -2.221966    0.883986    0.003745
  C     -2.215593   -0.588393   -0.464963
  C     -1.074909   -1.409624    0.151354
  C     -2.457376    1.011230    1.485716
  C     -3.552600    1.548508    2.030335
  H      1.941000    2.249645   -0.111600
  H      1.724076   -2.279400    0.489300
  H     -0.935808    1.733830   -1.512816
  H     -0.835659    2.572560    0.037453
  H     -3.050447    1.397067   -0.510876
  H     -2.125162   -0.600615   -1.565567
  H     -3.181540   -1.055123   -0.215102
  H     -0.988618   -2.380962   -0.360886
  H     -1.323169   -1.644103    1.201574
  H     -1.655734    0.647783    2.141057
  H     -4.366677    1.933474    1.406592
  H     -3.681933    1.630862    3.113039

 Multiplicity           Mult            ....    1
 Number of Electrons    NEL             ....   88
 Basis Dimension        Dim             ....  218

ORBITAL ENERGIES
----------------

  NO   OCC          E(Eh)            E(eV)
   0   2.0000     -88.865587     -2418.1556
   1   2.0000     -10.201064      -277.5851
   2   2.0000     -10.200667      -277.5743
   3   2.0000     -10.194927      -277.4181
   4   2.0000     -10.191560      -277.3265
   5   2.0000     -10.190954      -277.3099
   6   2.0000     -10.188720      -277.2492
   7   2.0000     -10.188590      -277.2456
   8   2.0000     -10.188487      -277.2428
   9   2.0000     -10.188301      -277.2378
  10   2.0000     -10.182745      -277.0866
  11   2.0000      -7.960663      -216.6207
  12   2.0000      -5.928754      -161.3296
  13   2.0000      -5.924610      -161.2168
  14   2.0000      -5.922182      -161.1508
  15   2.0000      -0.876014       -23.8376
  16   2.0000      -0.823925       -22.4201
  17   2.0000      -0.765172       -20.8214
  18   2.0000      -0.748340       -20.3634
  19   2.0000      -0.714963       -19.4551
  20   2.0000      -0.685754       -18.6603
  21   2.0000      -0.626541       -17.0491
  22   2.0000      -0.595869       -16.2144
  23   2.0000      -0.563313       -15.3285
  24   2.0000      -0.549387       -14.9496
  25   2.0000      -0.501331       -13.6419
  26   2.0000      -0.493373       -13.4254
  27   2.0000      -0.460964       -12.5435
  28   2.0000      -0.450682       -12.2637
  29   2.0000      -0.438350       -11.9281
  30   2.0000      -0.414516       -11.2795
  31   2.0000      -0.407624       -11.0920
  32   2.0000      -0.397284       -10.8107
  33   2.0000      -0.395277       -10.7560
  34   2.0000      -0.387644       -10.5483
  35   2.0000      -0.378238       -10.2924
  36   2.0000      -0.350550        -9.5390
  37   2.0000      -0.337679        -9.1887
  38   2.0000      -0.327680        -8.9166
  39   2.0000      -0.326459        -8.8834
  40   2.0000      -0.320996        -8.7348
  41   2.0000      -0.261489        -7.1155
  42   2.0000      -0.236187        -6.4270
  43   2.0000      -0.227896        -6.2014
  44   0.0000      -0.014629        -0.3981
  45   0.0000       0.009310         0.2533
  46   0.0000       0.048249         1.3129
  47   0.0000       0.055533         1.5111
  48   0.0000       0.063482         1.7274

MULLIKEN ATOMIC CHARGES
-----------------------
   0 C :   -0.141766
   1 S :    0.091041
   2 C :   -0.146827
   3 C :   -0.036175
   4 C :   -0.055941
   5 C :    0.173518
   6 C :   -0.045318
   7 C :    0.054403
   8 C :    0.125810
   9 C :   -0.038192
  10 C :   -0.031313
  11 H :    0.008108
  12 H :    0.007805
  13 H :    0.012125
  14 H :   -0.003380
  15 H :   -0.022529
  16 H :    0.004307
  17 H :   -0.005384
  18 H :   -0.002711
  19 H :    0.012180
  20 H :    0.010673
  21 H :    0.010064
  22 H :    0.019502
Sum of atomic charges:    0.0000000

LOEWDIN ATOMIC CHARGES
----------------------
   0 C :   -0.204820
   1 S :    0.421902
   2 C :   -0.205055
   3 C :   -0.069409
   4 C :   -0.069457
   5 C :   -0.013886
   6 C :   -0.029667
   7 C :   -0.019845
   8 C :   -0.024927
   9 C :   -0.019262
  10 C :   -0.062618
  11 H :    0.020487
  12 H :    0.020314
  13 H :    0.032065
  14 H :    0.028305
  15 H :    0.024576
  16 H :    0.021521
  17 H :    0.022733
  18 H :    0.029643
  19 H :    0.029661
  20 H :    0.025968
  21 H :    0.019038
  22 H :    0.022732

  Mayer bond orders larger than 0.100000
B(  0-C ,  1-S ) :   1.1598 B(  0-C ,  4-C ) :   1.5498 B(  0-C , 11-H ) :   0.9642
B(  1-S ,  2-C ) :   1.1624 B(  2-C ,  3-C ) :   1.5529 B(  2-C , 12-H ) :   0.9649
B(  3-C ,  4-C ) :   1.2893 B(  3-C ,  8-C ) :   1.0429 B(  4-C ,  5-C ) :   1.0320
B(  5-C ,  6-C ) :   1.0466 B(  5-C , 13-H ) :   0.9113 B(  5-C , 14-H ) :   0.9175
B(  6-C ,  7-C ) :   1.0399 B(  6-C ,  9-C ) :   1.0097 B(  6-C , 15-H ) :   0.9058
B(  7-C ,  8-C ) :   1.0914 B(  7-C , 16-H ) :   0.9394 B(  7-C , 17-H ) :   0.9293
B(  8-C , 18-H ) :   0.9150 B(  8-C , 19-H ) :   0.9135 B(  9-C , 10-C ) :   2.0179
B(  9-C , 20-H ) :   0.9587 B( 10-C , 21-H ) :   0.9479 B( 10-C , 22-H ) :   0.9511

Dispersion correction           -0.047461705
FINAL SINGLE POINT ENERGY      -786.114082554431

DIPOLE MOMENT
-------------
                                X             Y             Z
Electronic contribution:     14.61878      -1.25650      -0.49768
Nuclear contribution   :    -14.93088       1.22571       0.36863
                        -----------------------------------------
Total Dipole Moment    :     -0.31210      -0.03079      -0.12905
                        -----------------------------------------
Magnitude (a.u.)       :      0.33913
Magnitude (Debye)      :      0.86199

Rotational constants in cm-1:     0.069052     0.020081     0.018112
Rotational constants in MHz :  2070.120071   602.025292   542.978402

                             ****ORCA TERMINATED NORMALLY****
TOTAL RUN TIME: 0 days 0 hours 14 minutes 56 seconds 755 msec
