                         Program Version 4.2.0 -  RELEASE  -
|  1> # ORCA input file
|  2> # SCF done        -42.189901684481          0.000446602929
|  3> ! B3LYP/G D3BJ Opt RIJCOSX def2-SVP def2/J
|  4> * xyz 0 1
|  5>    C        0.89715         1.56237        -0.12231
|  6>    C       -0.07651         0.60056        -0.06901
|  7>    C        0.46951        -0.72346         0.00666
|  8>    S       -0.77200        -1.94368         0.07421
|  9>    C       -2.01013        -0.70263         0.00141
| 10>    C       -3.40428        -1.16193         0.01960
| 11>    O       -3.71068        -2.32749         0.08563
| 12>    O       -4.26602        -0.14507        -0.03517
| 13>    C       -5.65356        -0.48047        -0.04856
| 14>    C       -6.11899        -0.86351        -1.44606
| 15>    C       -1.49995         0.55974        -0.06933
| 16>    F       -2.23782         1.66915        -0.13514
| 17>    C        1.82884        -0.74393         0.00911
| 18>    S        2.45673         0.85717        -0.07866
| 19>    H        0.78355         2.62544        -0.18257
| 20>    H       -6.16104         0.41898         0.30492
| 21>    H       -5.82480        -1.30799         0.64802
| 22>    H       -5.89596        -0.06326        -2.14795
| 23>    H       -7.19066        -1.04067        -1.43634
| 24>    H       -5.61496        -1.77095        -1.77015
| 25>    H        2.49250        -1.58175         0.05692
| 26> *
| 27>
| 28>                          ****END OF INPUT****
 Total Charge           Charge          ....    0
 Multiplicity           Mult            ....    1
 Number of Electrons    NEL             ....  118
Dispersion correction           -0.046087684
FINAL SINGLE POINT ENERGY     -1393.212594757922
Dispersion correction            ... done
Dispersion correction           -0.045918868
FINAL SINGLE POINT ENERGY     -1393.214612376970
Dispersion correction            ... done
Dispersion correction           -0.045878962
FINAL SINGLE POINT ENERGY     -1393.214574044551
Dispersion correction            ... done
FINAL SINGLE POINT ENERGY     -1393.214560650261
Dispersion correction            ... done
Dispersion correction           -0.045915707
FINAL SINGLE POINT ENERGY     -1393.214601383825
Dispersion correction            ... done
Dispersion correction           -0.045916760
FINAL SINGLE POINT ENERGY     -1393.214632255049
Dispersion correction            ... done
                    ***********************HURRAY********************

CARTESIAN COORDINATES (ANGSTROEM)
---------------------------------
  C      0.891507    1.572489   -0.202442
  C     -0.073816    0.592031   -0.079607
  C      0.484910   -0.729599    0.058449
  S     -0.756852   -1.961396    0.212274
  C     -2.018455   -0.718691    0.080337
  C     -3.411889   -1.192233    0.086904
  O     -3.711434   -2.366449    0.117010
  O     -4.293220   -0.180722    0.054115
  C     -5.685579   -0.536392   -0.032585
  C     -6.099144   -0.783505   -1.473787
  C     -1.509806    0.545269   -0.067409
  F     -2.233671    1.646637   -0.211864
  C      1.859112   -0.740314    0.027354
  S      2.465014    0.874366   -0.156912
  H      0.755550    2.645709   -0.320717
  H     -6.221000    0.320301    0.399965
  H     -5.865425   -1.424785    0.589679
  H     -5.889762    0.100333   -2.096115
  H     -7.178718   -0.997894   -1.525824
  H     -5.560259   -1.646054   -1.891081
  H      2.543858   -1.582481    0.097487

 Multiplicity           Mult            ....    1
 Number of Electrons    NEL             ....  118
 Basis Dimension        Dim             ....  239

ORBITAL ENERGIES
----------------

  NO   OCC          E(Eh)            E(eV)
   0   2.0000     -88.898637     -2419.0549
   1   2.0000     -88.879730     -2418.5404
   2   2.0000     -24.720725      -672.6851
   3   2.0000     -19.178148      -521.8639
   4   2.0000     -19.123761      -520.3840
   5   2.0000     -10.324061      -280.9320
   6   2.0000     -10.298936      -280.2483
   7   2.0000     -10.247380      -278.8454
   8   2.0000     -10.234710      -278.5006
   9   2.0000     -10.234617      -278.4981
  10   2.0000     -10.232242      -278.4335
  11   2.0000     -10.230495      -278.3859
  12   2.0000     -10.219976      -278.0997
  13   2.0000     -10.188904      -277.2542
  14   2.0000      -7.993176      -217.5054
  15   2.0000      -7.973788      -216.9778
  16   2.0000      -5.961247      -162.2138
  17   2.0000      -5.956974      -162.0975
  18   2.0000      -5.954859      -162.0400
  19   2.0000      -5.942727      -161.7098
  20   2.0000      -5.938852      -161.6044
  21   2.0000      -5.933206      -161.4508
  22   2.0000      -1.232345       -33.5338
  23   2.0000      -1.098453       -29.8904
  24   2.0000      -1.009516       -27.4703
  25   2.0000      -0.917423       -24.9643
  26   2.0000      -0.859010       -23.3749
  27   2.0000      -0.778523       -21.1847
  28   2.0000      -0.767481       -20.8842
  29   2.0000      -0.740884       -20.1605
  30   2.0000      -0.705632       -19.2012
  31   2.0000      -0.672257       -18.2930
  32   2.0000      -0.621646       -16.9158
  33   2.0000      -0.596125       -16.2214
  34   2.0000      -0.571359       -15.5475
  35   2.0000      -0.558610       -15.2005
  36   2.0000      -0.548816       -14.9340
  37   2.0000      -0.509920       -13.8756
  38   2.0000      -0.496193       -13.5021
  39   2.0000      -0.487839       -13.2748
  40   2.0000      -0.471220       -12.8225
  41   2.0000      -0.460044       -12.5184
  42   2.0000      -0.445179       -12.1139
  43   2.0000      -0.432243       -11.7619
  44   2.0000      -0.425394       -11.5756
  45   2.0000      -0.419599       -11.4179
  46   2.0000      -0.410522       -11.1709
  47   2.0000      -0.404138       -10.9972
  48   2.0000      -0.391650       -10.6573
  49   2.0000      -0.380449       -10.3526
  50   2.0000      -0.368582       -10.0296
  51   2.0000      -0.349830        -9.5194
  52   2.0000      -0.343989        -9.3604
  53   2.0000      -0.340550        -9.2668
  54   2.0000      -0.306510        -8.3405
  55   2.0000      -0.291860        -7.9419
  56   2.0000      -0.286669        -7.8007
  57   2.0000      -0.258661        -7.0385
  58   2.0000      -0.220227        -5.9927
  59   0.0000      -0.073441        -1.9984
  60   0.0000      -0.014642        -0.3984
  61   0.0000       0.012318         0.3352
  62   0.0000       0.022977         0.6252
  63   0.0000       0.049887         1.3575

MULLIKEN ATOMIC CHARGES
-----------------------
   0 C :   -0.129806
   1 C :    0.031121
   2 C :    0.019266
   3 S :    0.165077
   4 C :   -0.254508
   5 C :    0.236724
   6 O :   -0.225865
   7 O :   -0.302626
   8 C :    0.189243
   9 C :   -0.032937
  10 C :    0.293141
  11 F :   -0.157204
  12 C :   -0.163180
  13 S :    0.130176
  14 H :    0.036849
  15 H :    0.020392
  16 H :    0.025833
  17 H :    0.028566
  18 H :    0.022325
  19 H :    0.034557
  20 H :    0.032856
Sum of atomic charges:   -0.0000000

LOEWDIN ATOMIC CHARGES
----------------------
   0 C :   -0.189375
   1 C :   -0.103298
   2 C :   -0.183988
   3 S :    0.409479
   4 C :   -0.236230
   5 C :    0.064455
   6 O :   -0.188736
   7 O :   -0.090329
   8 C :    0.091114
   9 C :   -0.067601
  10 C :    0.071983
  11 F :   -0.031860
  12 C :   -0.218203
  13 S :    0.472261
  14 H :    0.033574
  15 H :    0.022955
  16 H :    0.020335
  17 H :    0.028190
  18 H :    0.033119
  19 H :    0.031441
  20 H :    0.030715

  Mayer bond orders larger than 0.100000
B(  0-C ,  1-C ) :   1.4327 B(  0-C , 12-C ) :   0.1047 B(  0-C , 13-S ) :   1.1970
B(  0-C , 14-H ) :   0.9685 B(  1-C ,  2-C ) :   1.2362 B(  1-C , 10-C ) :   1.1121
B(  2-C ,  3-S ) :   1.0278 B(  2-C , 12-C ) :   1.5190 B(  3-S ,  4-C ) :   1.0534
B(  4-C ,  5-C ) :   0.9836 B(  4-C , 10-C ) :   1.5194 B(  5-C ,  6-O ) :   2.0681
B(  5-C ,  7-O ) :   1.2429 B(  7-O ,  8-C ) :   0.8996 B(  8-C ,  9-C ) :   1.1270
B(  8-C , 15-H ) :   0.9573 B(  8-C , 16-H ) :   0.9407 B(  9-C , 17-H ) :   0.9662
B(  9-C , 18-H ) :   0.9608 B(  9-C , 19-H ) :   0.9645 B( 10-C , 11-F ) :   1.2059
B( 12-C , 13-S ) :   1.1737 B( 12-C , 20-H ) :   0.9719

Dispersion correction           -0.045915734
FINAL SINGLE POINT ENERGY     -1393.214620398177

DIPOLE MOMENT
-------------
                                X             Y             Z
Electronic contribution:     16.11477       2.92668       3.53148
Nuclear contribution   :    -15.76864      -2.23039      -3.68200
                        -----------------------------------------
Total Dipole Moment    :      0.34613       0.69629      -0.15051
                        -----------------------------------------
Magnitude (a.u.)       :      0.79201
Magnitude (Debye)      :      2.01313

Rotational constants in cm-1:     0.048001     0.009697     0.008302
Rotational constants in MHz :  1439.023884   290.707843   248.893455

                             ****ORCA TERMINATED NORMALLY****
TOTAL RUN TIME: 0 days 0 hours 11 minutes 0 seconds 942 msec
