                         Program Version 4.2.0 -  RELEASE  -
|  1> # ORCA input file
|  2> # SCF done        -29.554060948822          0.000682263282
|  3> ! B3LYP/G D3BJ Opt RIJCOSX def2-SVP def2/J
|  4> * xyz 0 1
|  5>    C        0.10834         1.16965         0.02777
|  6>    S       -0.97443        -0.16380         0.05219
|  7>    C        0.31816        -1.32303         0.01734
|  8>    C        1.53377        -0.65100        -0.01547
|  9>    C        1.39629         0.76417        -0.01715
| 10>    N        2.84958        -1.19125        -0.03129
| 11>    O        3.03326        -2.33338         0.33844
| 12>    O        3.73726        -0.44788        -0.40234
| 13>    C       -0.11439        -2.69755        -0.04343
| 14>    C        0.61747        -3.80726        -0.11896
| 15>    H       -0.27549         2.16942         0.04756
| 16>    H        2.24818         1.41906        -0.04163
| 17>    H       -1.19492        -2.78497        -0.03831
| 18>    H        1.69223        -3.80529        -0.10588
| 19>    H        0.13166        -4.76616        -0.18378
| 20> *
| 21>
| 22>                          ****END OF INPUT****
 Total Charge           Charge          ....    0
 Multiplicity           Mult            ....    1
 Number of Electrons    NEL             ....   80
Dispersion correction           -0.030953789
FINAL SINGLE POINT ENERGY      -834.498450158928
Dispersion correction            ... done
Dispersion correction           -0.030717868
FINAL SINGLE POINT ENERGY      -834.501226947205
Dispersion correction            ... done
Dispersion correction           -0.030716379
FINAL SINGLE POINT ENERGY      -834.501383419443
Dispersion correction            ... done
FINAL SINGLE POINT ENERGY      -834.501453303011
FINAL SINGLE POINT ENERGY      -834.501274098626
FINAL SINGLE POINT ENERGY      -834.501516841812
Dispersion correction            ... done
Dispersion correction           -0.030665898
FINAL SINGLE POINT ENERGY      -834.501514461610
Dispersion correction            ... done
Dispersion correction           -0.030664197
FINAL SINGLE POINT ENERGY      -834.501526284599
Dispersion correction            ... done
                    ***********************HURRAY********************

CARTESIAN COORDINATES (ANGSTROEM)
---------------------------------
  C      0.089279    1.194412    0.037137
  S     -0.970835   -0.168882    0.039128
  C      0.340064   -1.323841    0.000756
  C      1.542091   -0.612930   -0.016488
  C      1.398894    0.807252   -0.003364
  N      2.879912   -1.176837   -0.058262
  O      3.035343   -2.353562    0.238317
  O      3.786654   -0.420413   -0.374415
  C     -0.096458   -2.715736   -0.055789
  C      0.603199   -3.863067   -0.083168
  H     -0.313112    2.205600    0.066494
  H      2.254977    1.478237   -0.022592
  H     -1.188821   -2.801290   -0.092331
  H      1.688909   -3.891235   -0.039240
  H      0.056874   -4.806980   -0.151121

 Multiplicity           Mult            ....    1
 Number of Electrons    NEL             ....   80
 Basis Dimension        Dim             ....  169

ORBITAL ENERGIES
----------------

  NO   OCC          E(Eh)            E(eV)
   0   2.0000     -88.903978     -2419.2002
   1   2.0000     -19.163175      -521.4565
   2   2.0000     -19.162166      -521.4291
   3   2.0000     -14.563958      -396.3054
   4   2.0000     -10.261007      -279.2162
   5   2.0000     -10.257012      -279.1075
   6   2.0000     -10.239541      -278.6321
   7   2.0000     -10.222708      -278.1740
   8   2.0000     -10.222395      -278.1655
   9   2.0000     -10.204401      -277.6759
  10   2.0000      -7.999107      -217.6668
  11   2.0000      -5.967096      -162.3729
  12   2.0000      -5.963028      -162.2622
  13   2.0000      -5.960598      -162.1961
  14   2.0000      -1.224658       -33.3246
  15   2.0000      -1.049034       -28.5457
  16   2.0000      -0.917731       -24.9727
  17   2.0000      -0.809244       -22.0206
  18   2.0000      -0.803242       -21.8573
  19   2.0000      -0.739294       -20.1172
  20   2.0000      -0.685569       -18.6553
  21   2.0000      -0.622516       -16.9395
  22   2.0000      -0.594892       -16.1878
  23   2.0000      -0.562406       -15.3038
  24   2.0000      -0.543144       -14.7797
  25   2.0000      -0.518057       -14.0971
  26   2.0000      -0.511305       -13.9133
  27   2.0000      -0.479051       -13.0356
  28   2.0000      -0.476039       -12.9537
  29   2.0000      -0.441297       -12.0083
  30   2.0000      -0.418338       -11.3836
  31   2.0000      -0.407259       -11.0821
  32   2.0000      -0.384892       -10.4734
  33   2.0000      -0.375773       -10.2253
  34   2.0000      -0.328162        -8.9298
  35   2.0000      -0.312743        -8.5102
  36   2.0000      -0.311977        -8.4893
  37   2.0000      -0.297650        -8.0995
  38   2.0000      -0.283490        -7.7141
  39   2.0000      -0.247749        -6.7416
  40   0.0000      -0.096812        -2.6344
  41   0.0000      -0.047934        -1.3044
  42   0.0000       0.001683         0.0458
  43   0.0000       0.005508         0.1499
  44   0.0000       0.066691         1.8147

MULLIKEN ATOMIC CHARGES
-----------------------
   0 C :   -0.052962
   1 S :    0.130591
   2 C :   -0.152014
   3 C :    0.148292
   4 C :    0.023263
   5 N :    0.244949
   6 O :   -0.251149
   7 O :   -0.247465
   8 C :    0.017989
   9 C :   -0.003972
  10 H :    0.043456
  11 H :    0.015091
  12 H :   -0.000717
  13 H :    0.059565
  14 H :    0.025083
Sum of atomic charges:   -0.0000000

LOEWDIN ATOMIC CHARGES
----------------------
   0 C :   -0.179592
   1 S :    0.470863
   2 C :   -0.143197
   3 C :   -0.067638
   4 C :   -0.045161
   5 N :    0.279958
   6 O :   -0.204615
   7 O :   -0.207772
   8 C :   -0.061882
   9 C :   -0.003755
  10 H :    0.032730
  11 H :    0.043681
  12 H :    0.029215
  13 H :    0.028143
  14 H :    0.029022

  Mayer bond orders larger than 0.100000
B(  0-C ,  1-S ) :   1.1435 B(  0-C ,  4-C ) :   1.5376 B(  0-C , 10-H ) :   0.9641
B(  1-S ,  2-C ) :   1.1774 B(  2-C ,  3-C ) :   1.4337 B(  2-C ,  8-C ) :   1.1156
B(  3-C ,  4-C ) :   1.2749 B(  3-C ,  5-N ) :   0.9130 B(  4-C , 11-H ) :   0.9861
B(  5-N ,  6-O ) :   1.4881 B(  5-N ,  7-O ) :   1.5275 B(  6-O ,  7-O ) :   0.2708
B(  8-C ,  9-C ) :   1.9249 B(  8-C , 12-H ) :   0.9339 B(  9-C , 13-H ) :   0.9372
B(  9-C , 14-H ) :   0.9347

Dispersion correction           -0.030666797
FINAL SINGLE POINT ENERGY      -834.501526069006

DIPOLE MOMENT
-------------
                                X             Y             Z
Electronic contribution:      1.12889       3.23110       0.14677
Nuclear contribution   :     -2.57937      -2.76208      -0.12360
                        -----------------------------------------
Total Dipole Moment    :     -1.45047       0.46902       0.02317
                        -----------------------------------------
Magnitude (a.u.)       :      1.52459
Magnitude (Debye)      :      3.87521

Rotational constants in cm-1:     0.053328     0.038815     0.022644
Rotational constants in MHz :  1598.736533  1163.651997   678.856929

                             ****ORCA TERMINATED NORMALLY****
TOTAL RUN TIME: 0 days 0 hours 7 minutes 0 seconds 966 msec
