                         Program Version 4.2.0 -  RELEASE  -
|  1> # ORCA input file
|  2> # SCF done        -32.271528382127          0.000347720826
|  3> ! B3LYP/G D3BJ Opt RIJCOSX def2-SVP def2/J
|  4> * xyz 0 1
|  5>    C        1.19470         0.28387        -0.03385
|  6>    C        0.78907        -1.01852        -0.03452
|  7>    C       -0.67055        -1.05072        -0.04087
|  8>    C       -1.12124         0.21561        -0.04102
|  9>    C        0.03123         1.11569        -0.03952
| 10>    C       -0.02875         2.48579        -0.04083
| 11>    C        1.12370         3.38588        -0.04418
| 12>    C        0.67298         4.65220        -0.04645
| 13>    C       -0.78662         4.61998        -0.03992
| 14>    C       -1.19222         3.31760        -0.03669
| 15>    N       -1.55462         5.75154        -0.10467
| 16>    N        1.55703        -2.15021        -0.09712
| 17>    H        2.20907         0.63306        -0.03166
| 18>    H       -1.24950        -1.95716        -0.04488
| 19>    H       -2.14359         0.54141        -0.04334
| 20>    H        2.14606         3.06007        -0.04594
| 21>    H        1.25193         5.55864        -0.05225
| 22>    H       -2.20657         2.96838        -0.03375
| 23>    H       -1.12613         6.61266         0.19243
| 24>    H       -2.53068         5.65263         0.12157
| 25>    H        2.53314        -2.05097         0.12872
| 26>    H        1.12853        -3.01081         0.20139
| 27> *
| 28>
| 29>                          ****END OF INPUT****
 Total Charge           Charge          ....    0
 Multiplicity           Mult            ....    1
 Number of Electrons    NEL             ....   84
Dispersion correction           -0.041279079
FINAL SINGLE POINT ENERGY      -496.207456333155
Dispersion correction            ... done
Dispersion correction           -0.041200776
FINAL SINGLE POINT ENERGY      -496.210580201234
Dispersion correction            ... done
Dispersion correction           -0.041202001
FINAL SINGLE POINT ENERGY      -496.210471472637
Dispersion correction            ... done
FINAL SINGLE POINT ENERGY      -496.210358406000
Dispersion correction            ... done
Dispersion correction           -0.041209547
FINAL SINGLE POINT ENERGY      -496.210355880199
Dispersion correction            ... done
Dispersion correction           -0.041208454
FINAL SINGLE POINT ENERGY      -496.210355669063
Dispersion correction            ... done
                    ***********************HURRAY********************

CARTESIAN COORDINATES (ANGSTROEM)
---------------------------------
  C      1.221577    0.278075    0.024369
  C      0.806153   -1.031405   -0.062409
  C     -0.670480   -1.067103   -0.013188
  C     -1.125154    0.208591    0.069367
  C      0.039048    1.112954    0.080715
  C     -0.036518    2.488738    0.079453
  C      1.127654    3.393120    0.066273
  C      0.672929    4.668642   -0.018656
  C     -0.803710    4.632794   -0.067700
  C     -1.219075    3.323473    0.021678
  N     -1.553805    5.768037   -0.252883
  N      1.556154   -2.167078   -0.245413
  H      2.249779    0.632561   -0.002094
  H     -1.265769   -1.980730   -0.046486
  H     -2.162006    0.534293    0.127289
  H      2.164528    3.067571    0.124695
  H      1.268190    5.582220   -0.053795
  H     -2.247271    2.968913   -0.003976
  H     -1.136311    6.646766    0.029633
  H     -2.545634    5.706055   -0.055306
  H      2.548013   -2.104717   -0.048095
  H      1.138678   -3.045149    0.039179

 Multiplicity           Mult            ....    1
 Number of Electrons    NEL             ....   84
 Basis Dimension        Dim             ....  218

ORBITAL ENERGIES
----------------

  NO   OCC          E(Eh)            E(eV)
   0   2.0000     -14.341006      -390.2386
   1   2.0000     -14.340989      -390.2381
   2   2.0000     -10.216213      -277.9973
   3   2.0000     -10.216200      -277.9969
   4   2.0000     -10.182941      -277.0919
   5   2.0000     -10.182552      -277.0813
   6   2.0000     -10.178335      -276.9666
   7   2.0000     -10.178321      -276.9662
   8   2.0000     -10.173581      -276.8372
   9   2.0000     -10.173570      -276.8369
  10   2.0000     -10.148228      -276.1473
  11   2.0000     -10.148223      -276.1472
  12   2.0000      -0.910011       -24.7627
  13   2.0000      -0.909098       -24.7378
  14   2.0000      -0.841002       -22.8848
  15   2.0000      -0.817225       -22.2378
  16   2.0000      -0.714579       -19.4447
  17   2.0000      -0.688760       -18.7421
  18   2.0000      -0.674709       -18.3598
  19   2.0000      -0.629693       -17.1348
  20   2.0000      -0.571826       -15.5602
  21   2.0000      -0.553820       -15.0702
  22   2.0000      -0.536125       -14.5887
  23   2.0000      -0.530623       -14.4390
  24   2.0000      -0.508677       -13.8418
  25   2.0000      -0.495508       -13.4835
  26   2.0000      -0.493344       -13.4246
  27   2.0000      -0.449912       -12.2427
  28   2.0000      -0.414794       -11.2871
  29   2.0000      -0.403900       -10.9907
  30   2.0000      -0.388004       -10.5581
  31   2.0000      -0.384826       -10.4717
  32   2.0000      -0.371418       -10.1068
  33   2.0000      -0.369662       -10.0590
  34   2.0000      -0.362616        -9.8673
  35   2.0000      -0.356139        -9.6910
  36   2.0000      -0.328448        -8.9375
  37   2.0000      -0.315858        -8.5949
  38   2.0000      -0.280940        -7.6448
  39   2.0000      -0.220635        -6.0038
  40   2.0000      -0.195894        -5.3306
  41   2.0000      -0.167784        -4.5656
  42   0.0000      -0.076435        -2.0799
  43   0.0000       0.041010         1.1160
  44   0.0000       0.050633         1.3778
  45   0.0000       0.052276         1.4225
  46   0.0000       0.084330         2.2947

MULLIKEN ATOMIC CHARGES
-----------------------
   0 C :   -0.110246
   1 C :    0.028156
   2 C :   -0.004449
   3 C :   -0.003709
   4 C :    0.046681
   5 C :    0.046691
   6 C :   -0.003704
   7 C :   -0.004451
   8 C :    0.028235
   9 C :   -0.110299
  10 N :   -0.047595
  11 N :   -0.047597
  12 H :   -0.061402
  13 H :   -0.042699
  14 H :   -0.028769
  15 H :   -0.028762
  16 H :   -0.042699
  17 H :   -0.061398
  18 H :    0.110674
  19 H :    0.113332
  20 H :    0.113324
  21 H :    0.110689
Sum of atomic charges:   -0.0000000

LOEWDIN ATOMIC CHARGES
----------------------
   0 C :   -0.141834
   1 C :    0.019967
   2 C :   -0.045787
   3 C :   -0.021300
   4 C :    0.004021
   5 C :    0.004033
   6 C :   -0.021296
   7 C :   -0.045780
   8 C :    0.019986
   9 C :   -0.141844
  10 N :   -0.011319
  11 N :   -0.011338
  12 H :    0.010790
  13 H :    0.016392
  14 H :    0.020913
  15 H :    0.020914
  16 H :    0.016392
  17 H :    0.010790
  18 H :    0.072705
  19 H :    0.075445
  20 H :    0.075443
  21 H :    0.072708

  Mayer bond orders larger than 0.100000
B(  0-C ,  1-C ) :   1.5057 B(  0-C ,  4-C ) :   1.1308 B(  0-C , 12-H ) :   1.0144
B(  1-C ,  2-C ) :   1.0710 B(  1-C , 11-N ) :   1.2307 B(  2-C ,  3-C ) :   1.6406
B(  2-C , 13-H ) :   0.9992 B(  3-C ,  4-C ) :   1.0786 B(  3-C , 14-H ) :   1.0006
B(  4-C ,  5-C ) :   1.4417 B(  5-C ,  6-C ) :   1.0786 B(  5-C ,  9-C ) :   1.1309
B(  6-C ,  7-C ) :   1.6406 B(  6-C , 15-H ) :   1.0006 B(  7-C ,  8-C ) :   1.0709
B(  7-C , 16-H ) :   0.9992 B(  8-C ,  9-C ) :   1.5057 B(  8-C , 10-N ) :   1.2308
B(  9-C , 17-H ) :   1.0144 B( 10-N , 18-H ) :   0.9475 B( 10-N , 19-H ) :   0.9501
B( 11-N , 20-H ) :   0.9501 B( 11-N , 21-H ) :   0.9475

Dispersion correction           -0.041207588
FINAL SINGLE POINT ENERGY      -496.210362524245

DIPOLE MOMENT
-------------
                                X             Y             Z
Electronic contribution:      0.00005       0.00035       0.06375
Nuclear contribution   :     -0.00009       0.00043       0.38089
                        -----------------------------------------
Total Dipole Moment    :     -0.00003       0.00078       0.44464
                        -----------------------------------------
Magnitude (a.u.)       :      0.44464
Magnitude (Debye)      :      1.13019

Rotational constants in cm-1:     0.108505     0.015055     0.013262
Rotational constants in MHz :  3252.883270   451.323401   397.599023

                             ****ORCA TERMINATED NORMALLY****
TOTAL RUN TIME: 0 days 0 hours 9 minutes 2 seconds 336 msec
