                         Program Version 4.2.0 -  RELEASE  -
|  1> # ORCA input file
|  2> # SCF done        -42.360564181305          0.000379598237
|  3> ! B3LYP/G D3BJ Opt RIJCOSX def2-SVP def2/J
|  4> * xyz 0 1
|  5>    C        1.59397         1.21779         0.02241
|  6>    S        2.78239        -0.01561        -0.00106
|  7>    C        1.57996        -1.23525        -0.02914
|  8>    C        0.32298        -0.71303        -0.01418
|  9>    C        0.33110         0.71006         0.00385
| 10>    C       -0.93077         1.50742         0.11280
| 11>    F       -1.12856         1.82684         1.44890
| 12>    C       -2.13419         0.68714        -0.36755
| 13>    F       -3.28360         1.38360        -0.10641
| 14>    C       -2.14071        -0.66172         0.35898
| 15>    F       -3.29882        -1.34503         0.10188
| 16>    C       -0.94810        -1.49509        -0.12557
| 17>    F       -1.15067        -1.80678        -1.46277
| 18>    H        1.88897         2.24744         0.05437
| 19>    H        1.86324        -2.26823        -0.06007
| 20>    H       -0.87433         2.46636        -0.41490
| 21>    H       -2.09508         0.53345        -1.45346
| 22>    H       -2.09594        -0.50855         1.44472
| 23>    H       -0.90294        -2.45666         0.39831
| 24> *
| 25>
| 26>                          ****END OF INPUT****
 Total Charge           Charge          ....    0
 Multiplicity           Mult            ....    1
 Number of Electrons    NEL             ....  106
Dispersion correction           -0.039404316
FINAL SINGLE POINT ENERGY     -1105.391632165867
Dispersion correction            ... done
Dispersion correction           -0.039393042
FINAL SINGLE POINT ENERGY     -1105.393670457851
Dispersion correction            ... done
Dispersion correction           -0.039420336
FINAL SINGLE POINT ENERGY     -1105.393819407635
Dispersion correction            ... done
Dispersion correction           -0.039429049
FINAL SINGLE POINT ENERGY     -1105.393838407586
Dispersion correction            ... done
Dispersion correction           -0.039434240
FINAL SINGLE POINT ENERGY     -1105.393842171551
Dispersion correction            ... done
                    ***********************HURRAY********************

CARTESIAN COORDINATES (ANGSTROEM)
---------------------------------
  C      1.603313    1.232717    0.012636
  S      2.795411   -0.015392   -0.004168
  C      1.588995   -1.249610   -0.021510
  C      0.322226   -0.719301   -0.015363
  C      0.330570    0.716947    0.005646
  C     -0.939112    1.508794    0.124011
  F     -1.160610    1.827484    1.464069
  C     -2.133227    0.689087   -0.359382
  F     -3.292320    1.379795   -0.100417
  C     -2.141323   -0.663060    0.349389
  F     -3.308576   -1.340181    0.090404
  C     -0.956567   -1.496670   -0.133471
  F     -1.182146   -1.813860   -1.473185
  H      1.900704    2.279313    0.055723
  H      1.874668   -2.299468   -0.064400
  H     -0.886013    2.462047   -0.423782
  H     -2.058305    0.523351   -1.446824
  H     -2.064756   -0.497788    1.436774
  H     -0.914031   -2.450053    0.414959

 Multiplicity           Mult            ....    1
 Number of Electrons    NEL             ....  106
 Basis Dimension        Dim             ....  216

ORBITAL ENERGIES
----------------

  NO   OCC          E(Eh)            E(eV)
   0   2.0000     -88.901695     -2419.1381
   1   2.0000     -24.681024      -671.6048
   2   2.0000     -24.681010      -671.6044
   3   2.0000     -24.679563      -671.5651
   4   2.0000     -24.679491      -671.5631
   5   2.0000     -10.287641      -279.9410
   6   2.0000     -10.287630      -279.9407
   7   2.0000     -10.279680      -279.7243
   8   2.0000     -10.279568      -279.7213
   9   2.0000     -10.238614      -278.6068
  10   2.0000     -10.238566      -278.6056
  11   2.0000     -10.221521      -278.1417
  12   2.0000     -10.221299      -278.1357
  13   2.0000      -7.996699      -217.6013
  14   2.0000      -5.964679      -162.3072
  15   2.0000      -5.960425      -162.1914
  16   2.0000      -5.958507      -162.1392
  17   2.0000      -1.198989       -32.6262
  18   2.0000      -1.188567       -32.3426
  19   2.0000      -1.178125       -32.0584
  20   2.0000      -1.173519       -31.9331
  21   2.0000      -0.911521       -24.8037
  22   2.0000      -0.837324       -22.7847
  23   2.0000      -0.780391       -21.2355
  24   2.0000      -0.753560       -20.5054
  25   2.0000      -0.718911       -19.5626
  26   2.0000      -0.658758       -17.9257
  27   2.0000      -0.619339       -16.8531
  28   2.0000      -0.601230       -16.3603
  29   2.0000      -0.570859       -15.5339
  30   2.0000      -0.552869       -15.0443
  31   2.0000      -0.533800       -14.5254
  32   2.0000      -0.528821       -14.3899
  33   2.0000      -0.520867       -14.1735
  34   2.0000      -0.505713       -13.7611
  35   2.0000      -0.493008       -13.4154
  36   2.0000      -0.487698       -13.2709
  37   2.0000      -0.469323       -12.7709
  38   2.0000      -0.461194       -12.5497
  39   2.0000      -0.432995       -11.7824
  40   2.0000      -0.428420       -11.6579
  41   2.0000      -0.413577       -11.2540
  42   2.0000      -0.405577       -11.0363
  43   2.0000      -0.400855       -10.9078
  44   2.0000      -0.393786       -10.7155
  45   2.0000      -0.388772       -10.5790
  46   2.0000      -0.363053        -9.8792
  47   2.0000      -0.359057        -9.7705
  48   2.0000      -0.341020        -9.2796
  49   2.0000      -0.338840        -9.2203
  50   2.0000      -0.322322        -8.7708
  51   2.0000      -0.281599        -7.6627
  52   2.0000      -0.268183        -7.2976
  53   0.0000      -0.051298        -1.3959
  54   0.0000       0.000080         0.0022
  55   0.0000       0.023847         0.6489
  56   0.0000       0.053472         1.4550
  57   0.0000       0.063317         1.7230

MULLIKEN ATOMIC CHARGES
-----------------------
   0 C :   -0.111664
   1 S :    0.133218
   2 C :   -0.111986
   3 C :   -0.056273
   4 C :   -0.056668
   5 C :    0.338674
   6 F :   -0.260962
   7 C :    0.210056
   8 F :   -0.237429
   9 C :    0.210510
  10 F :   -0.237470
  11 C :    0.338475
  12 F :   -0.260909
  13 H :    0.030101
  14 H :    0.030197
  15 H :    0.002280
  16 H :    0.018836
  17 H :    0.018788
  18 H :    0.002228
Sum of atomic charges:    0.0000000

LOEWDIN ATOMIC CHARGES
----------------------
   0 C :   -0.172057
   1 S :    0.466450
   2 C :   -0.172144
   3 C :   -0.087128
   4 C :   -0.087164
   5 C :    0.109991
   6 F :   -0.134730
   7 C :    0.078466
   8 F :   -0.109640
   9 C :    0.078531
  10 F :   -0.109711
  11 C :    0.109994
  12 F :   -0.134729
  13 H :    0.031616
  14 H :    0.031632
  15 H :    0.025959
  16 H :    0.024365
  17 H :    0.024354
  18 H :    0.025946

  Mayer bond orders larger than 0.100000
B(  0-C ,  1-S ) :   1.1856 B(  0-C ,  4-C ) :   1.5522 B(  0-C , 13-H ) :   0.9637
B(  1-S ,  2-C ) :   1.1858 B(  2-C ,  3-C ) :   1.5522 B(  2-C , 14-H ) :   0.9637
B(  3-C ,  4-C ) :   1.2975 B(  3-C , 11-C ) :   0.9717 B(  4-C ,  5-C ) :   0.9720
B(  5-C ,  6-F ) :   0.9955 B(  5-C ,  7-C ) :   1.0016 B(  5-C , 15-H ) :   0.9171
B(  7-C ,  8-F ) :   1.0351 B(  7-C ,  9-C ) :   0.9793 B(  7-C , 16-H ) :   0.9254
B(  9-C , 10-F ) :   1.0351 B(  9-C , 11-C ) :   1.0017 B(  9-C , 17-H ) :   0.9254
B( 11-C , 12-F ) :   0.9957 B( 11-C , 18-H ) :   0.9170

Dispersion correction           -0.039432510
FINAL SINGLE POINT ENERGY     -1105.393843349873

DIPOLE MOMENT
-------------
                                X             Y             Z
Electronic contribution:     -5.65692       0.03126      -0.00074
Nuclear contribution   :      7.18536      -0.03943       0.00084
                        -----------------------------------------
Total Dipole Moment    :      1.52844      -0.00817       0.00011
                        -----------------------------------------
Magnitude (a.u.)       :      1.52846
Magnitude (Debye)      :      3.88504

Rotational constants in cm-1:     0.039722     0.018128     0.013632
Rotational constants in MHz :  1190.845163   543.452326   408.690610

                             ****ORCA TERMINATED NORMALLY****
TOTAL RUN TIME: 0 days 0 hours 6 minutes 48 seconds 383 msec
