                         Program Version 4.2.0 -  RELEASE  -
|  1> # ORCA input file
|  2> # SCF done        -35.064558229611          0.000192189595
|  3> ! B3LYP/G D3BJ Opt RIJCOSX def2-SVP def2/J
|  4> * xyz 0 1
|  5>    C        0.00136         1.39375         0.00146
|  6>    C        1.21665         0.71473         0.00080
|  7>    C        1.21688        -0.71573        -0.00121
|  8>    C        2.46187        -1.39535        -0.00299
|  9>    C        3.63513        -0.70583        -0.00245
| 10>    C        3.63491         0.70561         0.00026
| 11>    C        2.46142         1.39475         0.00184
| 12>    C        0.00181        -1.39513        -0.00142
| 13>    C       -1.21348        -0.71612        -0.00041
| 14>    C       -1.21371         0.71435         0.00052
| 15>    C       -2.45870         1.39397         0.00038
| 16>    C       -3.63196         0.70445        -0.00015
| 17>    C       -3.63174        -0.70699        -0.00031
| 18>    C       -2.45826        -1.39614        -0.00050
| 19>    H        0.00119         2.47550         0.00262
| 20>    H        2.45589        -2.47632        -0.00493
| 21>    H        4.57933        -1.23086        -0.00411
| 22>    H        4.57894         1.23094         0.00092
| 23>    H        2.45510         2.47571         0.00384
| 24>    H        0.00198        -2.47689        -0.00252
| 25>    H       -2.45271         2.47494         0.00065
| 26>    H       -4.57617         1.22948        -0.00028
| 27>    H       -4.57578        -1.23231        -0.00023
| 28>    H       -2.45193        -2.47710        -0.00072
| 29> *
| 30>
| 31>                          ****END OF INPUT****
 Total Charge           Charge          ....    0
 Multiplicity           Mult            ....    1
 Number of Electrons    NEL             ....   94
Dispersion correction           -0.054560235
FINAL SINGLE POINT ENERGY      -539.199267273938
Dispersion correction            ... done
Dispersion correction           -0.054211851
FINAL SINGLE POINT ENERGY      -539.202501859715
Dispersion correction            ... done
Dispersion correction           -0.054166242
FINAL SINGLE POINT ENERGY      -539.202566123476
Dispersion correction            ... done
                    ***********************HURRAY********************

CARTESIAN COORDINATES (ANGSTROEM)
---------------------------------
  C      0.001362    1.404583    0.001057
  C      1.225831    0.722373    0.000204
  C      1.226058   -0.723364   -0.001264
  C      2.481756   -1.408438   -0.002099
  C      3.664625   -0.713715   -0.001547
  C      3.664402    0.713501   -0.000122
  C      2.481311    1.407847    0.000719
  C      0.001806   -1.405965   -0.001800
  C     -1.222663   -0.723756   -0.000954
  C     -1.222889    0.721982    0.000524
  C     -2.478588    1.407055    0.001371
  C     -3.661457    0.712333    0.000806
  C     -3.661234   -0.714883   -0.000634
  C     -2.478144   -1.409230   -0.001479
  H      0.001186    2.498637    0.002234
  H      2.477226   -2.501957   -0.003257
  H      4.616533   -1.249929   -0.002242
  H      4.616141    1.250013    0.000322
  H      2.476428    2.501364    0.001871
  H      0.001981   -2.500019   -0.002967
  H     -2.474053    2.500574    0.002537
  H     -4.613366    1.248544    0.001483
  H     -4.612973   -1.251393   -0.001071
  H     -2.473259   -2.502747   -0.002633

 Multiplicity           Mult            ....    1
 Number of Electrons    NEL             ....   94
 Basis Dimension        Dim             ....  246

ORBITAL ENERGIES
----------------

  NO   OCC          E(Eh)            E(eV)
   0   2.0000     -10.199601      -277.5453
   1   2.0000     -10.199578      -277.5446
   2   2.0000     -10.199425      -277.5405
   3   2.0000     -10.199345      -277.5383
   4   2.0000     -10.194476      -277.4058
   5   2.0000     -10.194474      -277.4057
   6   2.0000     -10.194422      -277.4043
   7   2.0000     -10.194384      -277.4033
   8   2.0000     -10.194212      -277.3986
   9   2.0000     -10.194062      -277.3945
  10   2.0000     -10.193954      -277.3916
  11   2.0000     -10.193947      -277.3914
  12   2.0000     -10.193888      -277.3898
  13   2.0000     -10.193881      -277.3896
  14   2.0000      -0.876486       -23.8504
  15   2.0000      -0.845155       -22.9978
  16   2.0000      -0.796379       -21.6706
  17   2.0000      -0.778506       -21.1842
  18   2.0000      -0.746264       -20.3069
  19   2.0000      -0.733591       -19.9620
  20   2.0000      -0.698116       -18.9967
  21   2.0000      -0.641857       -17.4658
  22   2.0000      -0.613931       -16.7059
  23   2.0000      -0.598904       -16.2970
  24   2.0000      -0.588150       -16.0044
  25   2.0000      -0.537426       -14.6241
  26   2.0000      -0.524008       -14.2590
  27   2.0000      -0.505819       -13.7640
  28   2.0000      -0.465793       -12.6749
  29   2.0000      -0.462995       -12.5987
  30   2.0000      -0.451851       -12.2955
  31   2.0000      -0.450401       -12.2560
  32   2.0000      -0.427533       -11.6338
  33   2.0000      -0.417367       -11.3571
  34   2.0000      -0.412341       -11.2204
  35   2.0000      -0.404851       -11.0165
  36   2.0000      -0.392817       -10.6891
  37   2.0000      -0.381700       -10.3866
  38   2.0000      -0.366822        -9.9817
  39   2.0000      -0.351366        -9.5612
  40   2.0000      -0.342059        -9.3079
  41   2.0000      -0.331612        -9.0236
  42   2.0000      -0.309270        -8.4157
  43   2.0000      -0.304726        -8.2920
  44   2.0000      -0.263272        -7.1640
  45   2.0000      -0.246888        -6.7182
  46   2.0000      -0.201481        -5.4826
  47   0.0000      -0.070746        -1.9251
  48   0.0000      -0.021899        -0.5959
  49   0.0000      -0.003640        -0.0990
  50   0.0000       0.029920         0.8142
  51   0.0000       0.055863         1.5201

MULLIKEN ATOMIC CHARGES
-----------------------
   0 C :   -0.104842
   1 C :    0.111432
   2 C :    0.111461
   3 C :   -0.022959
   4 C :    0.028373
   5 C :    0.028298
   6 C :   -0.022975
   7 C :   -0.104892
   8 C :    0.111459
   9 C :    0.111423
  10 C :   -0.022987
  11 C :    0.028367
  12 C :    0.028334
  13 C :   -0.022964
  14 H :   -0.039625
  15 H :   -0.025612
  16 H :   -0.018946
  17 H :   -0.018947
  18 H :   -0.025621
  19 H :   -0.039635
  20 H :   -0.025617
  21 H :   -0.018958
  22 H :   -0.018948
  23 H :   -0.025619
Sum of atomic charges:   -0.0000000

LOEWDIN ATOMIC CHARGES
----------------------
   0 C :   -0.012871
   1 C :   -0.016071
   2 C :   -0.016070
   3 C :   -0.016760
   4 C :   -0.027508
   5 C :   -0.027509
   6 C :   -0.016761
   7 C :   -0.012871
   8 C :   -0.016071
   9 C :   -0.016071
  10 C :   -0.016760
  11 C :   -0.027508
  12 C :   -0.027509
  13 C :   -0.016761
  14 H :    0.025348
  15 H :    0.027095
  16 H :    0.027006
  17 H :    0.027007
  18 H :    0.027095
  19 H :    0.025348
  20 H :    0.027095
  21 H :    0.027006
  22 H :    0.027007
  23 H :    0.027094

  Mayer bond orders larger than 0.100000
B(  0-C ,  1-C ) :   1.3023 B(  0-C ,  7-C ) :   0.1097 B(  0-C ,  9-C ) :   1.3023
B(  0-C , 14-H ) :   0.9987 B(  1-C ,  2-C ) :   1.1877 B(  1-C ,  6-C ) :   1.1943
B(  2-C ,  3-C ) :   1.1943 B(  2-C ,  7-C ) :   1.3023 B(  3-C ,  4-C ) :   1.5210
B(  3-C , 15-H ) :   0.9905 B(  4-C ,  5-C ) :   1.2065 B(  4-C , 16-H ) :   0.9828
B(  5-C ,  6-C ) :   1.5210 B(  5-C , 17-H ) :   0.9828 B(  6-C , 18-H ) :   0.9906
B(  7-C ,  8-C ) :   1.3023 B(  7-C , 19-H ) :   0.9987 B(  8-C ,  9-C ) :   1.1877
B(  8-C , 13-C ) :   1.1943 B(  9-C , 10-C ) :   1.1943 B( 10-C , 11-C ) :   1.5210
B( 10-C , 20-H ) :   0.9906 B( 11-C , 12-C ) :   1.2065 B( 11-C , 21-H ) :   0.9828
B( 12-C , 13-C ) :   1.5210 B( 12-C , 22-H ) :   0.9828 B( 13-C , 23-H ) :   0.9906

Dispersion correction           -0.054162336
FINAL SINGLE POINT ENERGY      -539.202569463751

DIPOLE MOMENT
-------------
                                X             Y             Z
Electronic contribution:     -0.00000       0.00000      -0.00000
Nuclear contribution   :      0.00000       0.00000       0.00000
                        -----------------------------------------
Total Dipole Moment    :     -0.00000       0.00000       0.00000
                        -----------------------------------------
Magnitude (a.u.)       :      0.00000
Magnitude (Debye)      :      0.00001

Rotational constants in cm-1:     0.071310     0.015016     0.012404
Rotational constants in MHz :  2137.809927   450.156092   371.855022

                             ****ORCA TERMINATED NORMALLY****
TOTAL RUN TIME: 0 days 0 hours 6 minutes 8 seconds 860 msec
