                         Program Version 4.2.0 -  RELEASE  -
|  1> # ORCA input file
|  2> # SCF done        -46.764638585848          0.000648718780
|  3> ! B3LYP/G D3BJ Opt RIJCOSX def2-SVP def2/J
|  4> * xyz 0 1
|  5>    C        0.23463         1.27746        -0.04711
|  6>    C        1.38951         0.50645        -0.01918
|  7>    N        2.65844         0.93959         0.02454
|  8>    S        3.63130        -0.32922         0.04529
|  9>    N        2.54036        -1.49765         0.00224
| 10>    C        1.31926        -0.94320        -0.03153
| 11>    C        0.09538        -1.59825        -0.07687
| 12>    C       -1.05516        -0.82112        -0.10862
| 13>    C       -0.98575         0.61588        -0.08743
| 14>    N       -2.13268         1.34305        -0.09626
| 15>    C       -3.27735         0.72773        -0.13893
| 16>    C       -4.49877         1.59452        -0.06968
| 17>    C       -4.95340         1.74437         1.38469
| 18>    C       -3.34572        -0.70966        -0.19476
| 19>    C       -4.63937        -1.45344        -0.34055
| 20>    C       -5.00856        -1.57462        -1.82163
| 21>    N       -2.26573        -1.43341        -0.17098
| 22>    H        0.27415         2.35370        -0.03382
| 23>    H        0.03073        -2.67327        -0.09107
| 24>    H       -5.30651         1.17864        -0.67164
| 25>    H       -4.23542         2.57797        -0.46082
| 26>    H       -5.19927         0.77807         1.82055
| 27>    H       -5.83200         2.38264         1.43825
| 28>    H       -4.15942         2.19406         1.97562
| 29>    H       -5.44037        -0.95308         0.20308
| 30>    H       -4.50137        -2.45336         0.07260
| 31>    H       -5.11317        -0.59363        -2.28052
| 32>    H       -5.94791        -2.11089        -1.93078
| 33>    H       -4.23216        -2.11960        -2.35262
| 34> *
| 35>
| 36>                          ****END OF INPUT****
 Total Charge           Charge          ....    0
 Multiplicity           Mult            ....    1
 Number of Electrons    NEL             ....  128
Dispersion correction           -0.064526257
FINAL SINGLE POINT ENERGY     -1081.138799455038
Dispersion correction            ... done
Dispersion correction           -0.064029518
FINAL SINGLE POINT ENERGY     -1081.143836456267
Dispersion correction            ... done
Dispersion correction           -0.063918833
FINAL SINGLE POINT ENERGY     -1081.144314722271
Dispersion correction            ... done
FINAL SINGLE POINT ENERGY     -1081.144402861373
FINAL SINGLE POINT ENERGY     -1081.144387511990
Dispersion correction            ... done
Dispersion correction           -0.063897733
FINAL SINGLE POINT ENERGY     -1081.144375148402
Dispersion correction            ... done
Dispersion correction           -0.063895519
FINAL SINGLE POINT ENERGY     -1081.144394649356
Dispersion correction            ... done
                    ***********************HURRAY********************

CARTESIAN COORDINATES (ANGSTROEM)
---------------------------------
  C      0.254530    1.286837   -0.024929
  C      1.438415    0.522202    0.024013
  N      2.695828    0.991727    0.135228
  S      3.679321   -0.311521    0.176395
  N      2.588423   -1.520800    0.055121
  C      1.376644   -0.940780   -0.025873
  C      0.135253   -1.600672   -0.135802
  C     -1.024463   -0.831988   -0.173169
  C     -0.964388    0.620129   -0.108637
  N     -2.128451    1.348689   -0.110310
  C     -3.270188    0.723593   -0.166896
  C     -4.517601    1.569649   -0.066428
  C     -4.925214    1.799590    1.397226
  C     -3.330709   -0.739148   -0.246892
  C     -4.645763   -1.471377   -0.370879
  C     -5.110091   -1.599997   -1.829218
  N     -2.243740   -1.458448   -0.256006
  H      0.274322    2.375639    0.021761
  H      0.068336   -2.687742   -0.181746
  H     -5.348303    1.115569   -0.626419
  H     -4.287348    2.536431   -0.537146
  H     -5.168374    0.852416    1.903925
  H     -5.806991    2.455062    1.466888
  H     -4.099947    2.275056    1.948927
  H     -5.421855   -0.973240    0.230379
  H     -4.493064   -2.474303    0.053188
  H     -5.292180   -0.615895   -2.288749
  H     -6.043453   -2.180365   -1.893217
  H     -4.345279   -2.116584   -2.428674

 Multiplicity           Mult            ....    1
 Number of Electrons    NEL             ....  128
 Basis Dimension        Dim             ....  302

ORBITAL ENERGIES
----------------

  NO   OCC          E(Eh)            E(eV)
   0   2.0000     -88.942719     -2420.2544
   1   2.0000     -14.359823      -390.7506
   2   2.0000     -14.359719      -390.7478
   3   2.0000     -14.339408      -390.1951
   4   2.0000     -14.339184      -390.1890
   5   2.0000     -10.246957      -278.8339
   6   2.0000     -10.246799      -278.8296
   7   2.0000     -10.245635      -278.7979
   8   2.0000     -10.245454      -278.7930
   9   2.0000     -10.239970      -278.6438
  10   2.0000     -10.239768      -278.6382
  11   2.0000     -10.208485      -277.7870
  12   2.0000     -10.208352      -277.7834
  13   2.0000     -10.201379      -277.5936
  14   2.0000     -10.201133      -277.5869
  15   2.0000     -10.194818      -277.4151
  16   2.0000     -10.194415      -277.4041
  17   2.0000      -8.033704      -218.6082
  18   2.0000      -6.003425      -163.3615
  19   2.0000      -5.996203      -163.1650
  20   2.0000      -5.995438      -163.1442
  21   2.0000      -1.019863       -27.7519
  22   2.0000      -0.980545       -26.6820
  23   2.0000      -0.912358       -24.8265
  24   2.0000      -0.886196       -24.1146
  25   2.0000      -0.855197       -23.2711
  26   2.0000      -0.801655       -21.8141
  27   2.0000      -0.778338       -21.1796
  28   2.0000      -0.748390       -20.3647
  29   2.0000      -0.745582       -20.2883
  30   2.0000      -0.687027       -18.6950
  31   2.0000      -0.660492       -17.9729
  32   2.0000      -0.630818       -17.1654
  33   2.0000      -0.613275       -16.6880
  34   2.0000      -0.612774       -16.6744
  35   2.0000      -0.594599       -16.1799
  36   2.0000      -0.550008       -14.9665
  37   2.0000      -0.540916       -14.7191
  38   2.0000      -0.516042       -14.0422
  39   2.0000      -0.474626       -12.9152
  40   2.0000      -0.461703       -12.5636
  41   2.0000      -0.459528       -12.5044
  42   2.0000      -0.454326       -12.3628
  43   2.0000      -0.452521       -12.3137
  44   2.0000      -0.447589       -12.1795
  45   2.0000      -0.440315       -11.9816
  46   2.0000      -0.426882       -11.6160
  47   2.0000      -0.418489       -11.3877
  48   2.0000      -0.404147       -10.9974
  49   2.0000      -0.391717       -10.6591
  50   2.0000      -0.389888       -10.6094
  51   2.0000      -0.375454       -10.2166
  52   2.0000      -0.364814        -9.9271
  53   2.0000      -0.359430        -9.7806
  54   2.0000      -0.358013        -9.7420
  55   2.0000      -0.352005        -9.5786
  56   2.0000      -0.333399        -9.0723
  57   2.0000      -0.329416        -8.9639
  58   2.0000      -0.326717        -8.8904
  59   2.0000      -0.306182        -8.3316
  60   2.0000      -0.302906        -8.2425
  61   2.0000      -0.265582        -7.2269
  62   2.0000      -0.250416        -6.8142
  63   2.0000      -0.231860        -6.3092
  64   0.0000      -0.113897        -3.0993
  65   0.0000      -0.048494        -1.3196
  66   0.0000      -0.023500        -0.6395
  67   0.0000       0.007763         0.2113
  68   0.0000       0.020095         0.5468

MULLIKEN ATOMIC CHARGES
-----------------------
   0 C :   -0.060612
   1 C :    0.083512
   2 N :   -0.289816
   3 S :    0.487638
   4 N :   -0.289489
   5 C :    0.083215
   6 C :   -0.060325
   7 C :    0.045001
   8 C :    0.042026
   9 N :   -0.041313
  10 C :   -0.135695
  11 C :    0.115239
  12 C :   -0.005350
  13 C :   -0.129327
  14 C :    0.103164
  15 C :    0.000923
  16 N :   -0.039505
  17 H :   -0.028184
  18 H :   -0.027896
  19 H :   -0.001373
  20 H :    0.011459
  21 H :    0.012206
  22 H :    0.024452
  23 H :    0.026259
  24 H :    0.002572
  25 H :    0.009993
  26 H :    0.013022
  27 H :    0.022590
  28 H :    0.025611
Sum of atomic charges:   -0.0000000

LOEWDIN ATOMIC CHARGES
----------------------
   0 C :   -0.015426
   1 C :   -0.051754
   2 N :   -0.289318
   3 S :    0.634649
   4 N :   -0.288820
   5 C :   -0.051890
   6 C :   -0.015046
   7 C :   -0.009123
   8 C :   -0.008918
   9 N :   -0.056817
  10 C :    0.008837
  11 C :   -0.035886
  12 C :   -0.046432
  13 C :    0.008576
  14 C :   -0.037003
  15 C :   -0.046001
  16 N :   -0.056920
  17 H :    0.040909
  18 H :    0.041078
  19 H :    0.023840
  20 H :    0.035943
  21 H :    0.020765
  22 H :    0.027670
  23 H :    0.029103
  24 H :    0.025199
  25 H :    0.035470
  26 H :    0.020411
  27 H :    0.027897
  28 H :    0.029008

  Mayer bond orders larger than 0.100000
B(  0-C ,  1-C ) :   1.1861 B(  0-C ,  6-C ) :   0.1687 B(  0-C ,  8-C ) :   1.3416
B(  0-C , 17-H ) :   1.0362 B(  1-C ,  2-N ) :   1.4443 B(  1-C ,  5-C ) :   1.1217
B(  2-N ,  3-S ) :   1.2684 B(  2-N ,  4-N ) :   0.1791 B(  3-S ,  4-N ) :   1.2689
B(  4-N ,  5-C ) :   1.4452 B(  5-C ,  6-C ) :   1.1868 B(  6-C ,  7-C ) :   1.3397
B(  6-C , 18-H ) :   1.0362 B(  7-C ,  8-C ) :   1.1363 B(  7-C , 16-N ) :   1.3143
B(  8-C ,  9-N ) :   1.3184 B(  9-N , 10-C ) :   1.7380 B( 10-C , 11-C ) :   1.0630
B( 10-C , 13-C ) :   1.0856 B( 11-C , 12-C ) :   1.1084 B( 11-C , 19-H ) :   0.9110
B( 11-C , 20-H ) :   0.9092 B( 12-C , 21-H ) :   0.9678 B( 12-C , 22-H ) :   0.9666
B( 12-C , 23-H ) :   0.9632 B( 13-C , 14-C ) :   1.0637 B( 13-C , 16-N ) :   1.7469
B( 14-C , 15-C ) :   1.1093 B( 14-C , 24-H ) :   0.9124 B( 14-C , 25-H ) :   0.9085
B( 15-C , 26-H ) :   0.9674 B( 15-C , 27-H ) :   0.9659 B( 15-C , 28-H ) :   0.9631

Dispersion correction           -0.063893411
FINAL SINGLE POINT ENERGY     -1081.144391991612

DIPOLE MOMENT
-------------
                                X             Y             Z
Electronic contribution:     36.03439      -1.70108       1.25680
Nuclear contribution   :    -37.08000       1.74487      -1.27606
                        -----------------------------------------
Total Dipole Moment    :     -1.04561       0.04379      -0.01926
                        -----------------------------------------
Magnitude (a.u.)       :      1.04670
Magnitude (Debye)      :      2.66051

Rotational constants in cm-1:     0.037354     0.007195     0.006289
Rotational constants in MHz :  1119.836840   215.695235   188.533198

                             ****ORCA TERMINATED NORMALLY****
TOTAL RUN TIME: 0 days 0 hours 21 minutes 28 seconds 665 msec
