                         Program Version 4.2.0 -  RELEASE  -
|  1> # ORCA input file
|  2> # SCF done        -26.265771299209          0.000539172049
|  3> ! B3LYP/G D3BJ Opt RIJCOSX def2-SVP def2/J
|  4> * xyz 0 1
|  5>    C       -0.97801         0.04213         0.10484
|  6>    O       -0.08440         1.03567         0.01483
|  7>    C        1.14499         0.46800        -0.09856
|  8>    C        1.02426        -0.90800        -0.07065
|  9>    C       -0.36739        -1.17868         0.05957
| 10>    C       -1.04993        -2.50264         0.12751
| 11>    C        2.12210        -1.91130        -0.14196
| 12>    C        2.25561         1.37777        -0.20768
| 13>    C        3.52637         1.07473        -0.45825
| 14>    H       -2.01099         0.31524         0.19646
| 15>    H       -0.32853        -3.31470         0.13267
| 16>    H       -1.70750        -2.63377        -0.73092
| 17>    H       -1.65635        -2.57146         1.02926
| 18>    H        2.91253        -1.65846         0.56324
| 19>    H        2.55131        -1.94151        -1.14385
| 20>    H        1.74994        -2.90406         0.09921
| 21>    H        1.96707         2.41292        -0.07386
| 22>    H        3.86533         0.06906        -0.62258
| 23>    H        4.27388         1.84663        -0.51660
| 24> *
| 25>
| 26>                          ****END OF INPUT****
 Total Charge           Charge          ....    0
 Multiplicity           Mult            ....    1
 Number of Electrons    NEL             ....   66
Dispersion correction           -0.030500114
FINAL SINGLE POINT ENERGY      -385.811545930685
Dispersion correction            ... done
Dispersion correction           -0.030372162
FINAL SINGLE POINT ENERGY      -385.813926974128
Dispersion correction            ... done
Dispersion correction           -0.030346753
FINAL SINGLE POINT ENERGY      -385.814054072476
Dispersion correction            ... done
FINAL SINGLE POINT ENERGY      -385.814078678340
FINAL SINGLE POINT ENERGY      -385.814091157420
FINAL SINGLE POINT ENERGY      -385.814099332475
FINAL SINGLE POINT ENERGY      -385.814137637538
FINAL SINGLE POINT ENERGY      -385.814213373632
FINAL SINGLE POINT ENERGY      -385.814513312126
FINAL SINGLE POINT ENERGY      -385.814817758837
FINAL SINGLE POINT ENERGY      -385.815142902443
FINAL SINGLE POINT ENERGY      -385.815430956216
FINAL SINGLE POINT ENERGY      -385.815685207623
FINAL SINGLE POINT ENERGY      -385.815795019090
FINAL SINGLE POINT ENERGY      -385.815870107754
FINAL SINGLE POINT ENERGY      -385.815891983291
Dispersion correction            ... done
Dispersion correction           -0.030431569
FINAL SINGLE POINT ENERGY      -385.815882675154
Dispersion correction            ... done
Dispersion correction           -0.030431399
FINAL SINGLE POINT ENERGY      -385.815887757608
Dispersion correction            ... done
                    ***********************HURRAY********************

CARTESIAN COORDINATES (ANGSTROEM)
---------------------------------
  C     -0.987811    0.061052    0.240590
  O     -0.077514    1.055376    0.132516
  C      1.146349    0.479566   -0.078853
  C      1.009608   -0.895974   -0.096311
  C     -0.389219   -1.165372    0.113180
  C     -1.039352   -2.512242    0.172789
  C      2.089425   -1.913258   -0.283397
  C      2.255413    1.391837   -0.234142
  C      3.546813    1.077862   -0.443222
  H     -2.016403    0.366723    0.415310
  H     -0.537917   -3.167443    0.903417
  H     -0.999409   -3.027142   -0.802292
  H     -2.096383   -2.434318    0.467034
  H      2.899318   -1.787884    0.454365
  H      2.553555   -1.839725   -1.282357
  H      1.691312   -2.932587   -0.175660
  H      1.966950    2.446707   -0.169451
  H      3.900305    0.049090   -0.520375
  H      4.295250    1.865301   -0.550460

 Multiplicity           Mult            ....    1
 Number of Electrons    NEL             ....   66
 Basis Dimension        Dim             ....  176

ORBITAL ENERGIES
----------------

  NO   OCC          E(Eh)            E(eV)
   0   2.0000     -19.191827      -522.2362
   1   2.0000     -10.230944      -278.3981
   2   2.0000     -10.230055      -278.3740
   3   2.0000     -10.197130      -277.4780
   4   2.0000     -10.193594      -277.3818
   5   2.0000     -10.192602      -277.3548
   6   2.0000     -10.187813      -277.2245
   7   2.0000     -10.187141      -277.2062
   8   2.0000     -10.184705      -277.1399
   9   2.0000      -1.096125       -29.8271
  10   2.0000      -0.814463       -22.1627
  11   2.0000      -0.790536       -21.5116
  12   2.0000      -0.734077       -19.9753
  13   2.0000      -0.697935       -18.9918
  14   2.0000      -0.688006       -18.7216
  15   2.0000      -0.598034       -16.2733
  16   2.0000      -0.564683       -15.3658
  17   2.0000      -0.533386       -14.5142
  18   2.0000      -0.494189       -13.4476
  19   2.0000      -0.463549       -12.6138
  20   2.0000      -0.459672       -12.5083
  21   2.0000      -0.432734       -11.7753
  22   2.0000      -0.419259       -11.4086
  23   2.0000      -0.413842       -11.2612
  24   2.0000      -0.409437       -11.1413
  25   2.0000      -0.401174       -10.9165
  26   2.0000      -0.391555       -10.6547
  27   2.0000      -0.377633       -10.2759
  28   2.0000      -0.366641        -9.9768
  29   2.0000      -0.337474        -9.1831
  30   2.0000      -0.302042        -8.2190
  31   2.0000      -0.259421        -7.0592
  32   2.0000      -0.205510        -5.5922
  33   0.0000      -0.029126        -0.7926
  34   0.0000       0.044633         1.2145
  35   0.0000       0.055351         1.5062
  36   0.0000       0.082846         2.2544
  37   0.0000       0.083470         2.2713

MULLIKEN ATOMIC CHARGES
-----------------------
   0 C :    0.073002
   1 O :   -0.216171
   2 C :    0.116476
   3 C :   -0.144686
   4 C :   -0.095023
   5 C :    0.099317
   6 C :    0.092300
   7 C :   -0.009143
   8 C :   -0.045881
   9 H :   -0.007702
  10 H :    0.023230
  11 H :    0.024101
  12 H :    0.004949
  13 H :    0.033180
  14 H :    0.027518
  15 H :   -0.002329
  16 H :   -0.002904
  17 H :    0.006465
  18 H :    0.023303
Sum of atomic charges:    0.0000000

LOEWDIN ATOMIC CHARGES
----------------------
   0 C :    0.021534
   1 O :   -0.000605
   2 C :    0.013408
   3 C :   -0.063639
   4 C :   -0.076472
   5 C :   -0.046413
   6 C :   -0.047413
   7 C :   -0.034584
   8 C :   -0.061979
   9 H :    0.018801
  10 H :    0.032216
  11 H :    0.033444
  12 H :    0.031929
  13 H :    0.034784
  14 H :    0.035150
  15 H :    0.028746
  16 H :    0.035889
  17 H :    0.019353
  18 H :    0.025851

  Mayer bond orders larger than 0.100000
B(  0-C ,  1-O ) :   1.1360 B(  0-C ,  4-C ) :   1.5072 B(  0-C ,  9-H ) :   1.0041
B(  1-O ,  2-C ) :   1.1077 B(  2-C ,  3-C ) :   1.4938 B(  2-C ,  7-C ) :   1.1406
B(  3-C ,  4-C ) :   1.2736 B(  3-C ,  6-C ) :   1.1277 B(  4-C ,  5-C ) :   1.1055
B(  5-C , 10-H ) :   0.9443 B(  5-C , 11-H ) :   0.9465 B(  5-C , 12-H ) :   0.9470
B(  6-C , 13-H ) :   0.9415 B(  6-C , 14-H ) :   0.9393 B(  6-C , 15-H ) :   0.9391
B(  7-C ,  8-C ) :   1.8911 B(  7-C , 16-H ) :   0.9446 B(  8-C , 17-H ) :   0.9523
B(  8-C , 18-H ) :   0.9416

Dispersion correction           -0.030431250
FINAL SINGLE POINT ENERGY      -385.815892877214

DIPOLE MOMENT
-------------
                                X             Y             Z
Electronic contribution:     -3.16231       6.57336       0.67771
Nuclear contribution   :      3.07644      -7.07483      -0.68298
                        -----------------------------------------
Total Dipole Moment    :     -0.08587      -0.50147      -0.00526
                        -----------------------------------------
Magnitude (a.u.)       :      0.50879
Magnitude (Debye)      :      1.29325

Rotational constants in cm-1:     0.099141     0.043690     0.030676
Rotational constants in MHz :  2972.183632  1309.801906   919.639082

                             ****ORCA TERMINATED NORMALLY****
TOTAL RUN TIME: 0 days 0 hours 15 minutes 24 seconds 247 msec
