                         Program Version 4.2.0 -  RELEASE  -
|  1> # ORCA input file
|  2> # SCF done        -32.001848044687          0.000414900816
|  3> ! B3LYP/G D3BJ Opt RIJCOSX def2-SVP def2/J
|  4> * xyz 0 1
|  5>    C       -1.21357        -1.26009         0.12182
|  6>    S       -2.42434        -0.03523         0.02092
|  7>    C       -1.28867         1.23865        -0.10141
|  8>    C       -0.00665         0.74955        -0.06820
|  9>    C        0.02148        -0.69007         0.06079
| 10>    N        1.32670        -1.08354         0.08527
| 11>    C        2.10553         0.04720        -0.02214
| 12>    N        3.50560        -0.07995        -0.02088
| 13>    O        3.95008        -1.21384         0.08193
| 14>    O        4.17517         0.92888        -0.12091
| 15>    C        1.34154         1.18612        -0.11837
| 16>    H       -1.49769        -2.28704         0.21630
| 17>    H       -1.62544         2.25074        -0.18933
| 18>    H        1.70859        -2.01139         0.16795
| 19>    H        1.71174         2.18622        -0.21112
| 20> *
| 21>
| 22>                          ****END OF INPUT****
 Total Charge           Charge          ....    0
 Multiplicity           Mult            ....    1
 Number of Electrons    NEL             ....   86
Dispersion correction           -0.031304475
FINAL SINGLE POINT ENERGY      -888.622491576161
Dispersion correction            ... done
Dispersion correction           -0.031274808
FINAL SINGLE POINT ENERGY      -888.624784112076
Dispersion correction            ... done
Dispersion correction           -0.031265973
FINAL SINGLE POINT ENERGY      -888.624880598318
Dispersion correction            ... done
FINAL SINGLE POINT ENERGY      -888.624681368911
FINAL SINGLE POINT ENERGY      -888.624935684411
Dispersion correction            ... done
Dispersion correction           -0.031252894
FINAL SINGLE POINT ENERGY      -888.624935183109
Dispersion correction            ... done
Dispersion correction           -0.031251559
FINAL SINGLE POINT ENERGY      -888.624938974406
Dispersion correction            ... done
                    ***********************HURRAY********************

CARTESIAN COORDINATES (ANGSTROEM)
---------------------------------
  C     -1.236727   -1.276842    0.112308
  S     -2.446619   -0.039636    0.021252
  C     -1.310553    1.247214   -0.092923
  C     -0.015236    0.754739   -0.065147
  C      0.008006   -0.691505    0.058480
  N      1.327765   -1.087474    0.084860
  C      2.104194    0.049959   -0.023309
  N      3.533045   -0.080033   -0.021906
  O      3.974449   -1.218843    0.114731
  O      4.201029    0.933488   -0.154590
  C      1.351826    1.196803   -0.117106
  H     -1.519839   -2.321870    0.208126
  H     -1.654462    2.275418   -0.182025
  H      1.719702   -2.015629    0.172907
  H      1.753491    2.200419   -0.213038

 Multiplicity           Mult            ....    1
 Number of Electrons    NEL             ....   86
 Basis Dimension        Dim             ....  178

ORBITAL ENERGIES
----------------

  NO   OCC          E(Eh)            E(eV)
   0   2.0000     -88.896315     -2418.9917
   1   2.0000     -19.166714      -521.5528
   2   2.0000     -19.166080      -521.5356
   3   2.0000     -14.568355      -396.4251
   4   2.0000     -14.395960      -391.7340
   5   2.0000     -10.282154      -279.7916
   6   2.0000     -10.249786      -278.9109
   7   2.0000     -10.230210      -278.3782
   8   2.0000     -10.225674      -278.2547
   9   2.0000     -10.219696      -278.0921
  10   2.0000     -10.216817      -278.0137
  11   2.0000      -7.990574      -217.4346
  12   2.0000      -5.958587      -162.1414
  13   2.0000      -5.954341      -162.0259
  14   2.0000      -5.952476      -161.9751
  15   2.0000      -1.227401       -33.3993
  16   2.0000      -1.054288       -28.6886
  17   2.0000      -1.004248       -27.3270
  18   2.0000      -0.889297       -24.1990
  19   2.0000      -0.817902       -22.2562
  20   2.0000      -0.788289       -21.4504
  21   2.0000      -0.729278       -19.8447
  22   2.0000      -0.692972       -18.8567
  23   2.0000      -0.622336       -16.9346
  24   2.0000      -0.592710       -16.1285
  25   2.0000      -0.567969       -15.4552
  26   2.0000      -0.557116       -15.1599
  27   2.0000      -0.550174       -14.9710
  28   2.0000      -0.522035       -14.2053
  29   2.0000      -0.510775       -13.8989
  30   2.0000      -0.471583       -12.8324
  31   2.0000      -0.459294       -12.4980
  32   2.0000      -0.451160       -12.2767
  33   2.0000      -0.423788       -11.5319
  34   2.0000      -0.398255       -10.8371
  35   2.0000      -0.372685       -10.1413
  36   2.0000      -0.366162        -9.9638
  37   2.0000      -0.318155        -8.6574
  38   2.0000      -0.317507        -8.6398
  39   2.0000      -0.307126        -8.3573
  40   2.0000      -0.302389        -8.2284
  41   2.0000      -0.257553        -7.0084
  42   2.0000      -0.222938        -6.0665
  43   0.0000      -0.100308        -2.7295
  44   0.0000      -0.028332        -0.7710
  45   0.0000       0.027641         0.7521
  46   0.0000       0.048851         1.3293
  47   0.0000       0.055897         1.5210

MULLIKEN ATOMIC CHARGES
-----------------------
   0 C :   -0.194112
   1 S :    0.125612
   2 C :   -0.133190
   3 C :    0.083667
   4 C :    0.163509
   5 N :   -0.068851
   6 C :    0.157755
   7 N :    0.266746
   8 O :   -0.276678
   9 O :   -0.244753
  10 C :   -0.056887
  11 H :    0.017048
  12 H :    0.028895
  13 H :    0.135411
  14 H :   -0.004172
Sum of atomic charges:    0.0000000

LOEWDIN ATOMIC CHARGES
----------------------
   0 C :   -0.244967
   1 S :    0.475440
   2 C :   -0.200458
   3 C :   -0.069780
   4 C :   -0.006421
   5 N :    0.049284
   6 C :    0.004727
   7 N :    0.270682
   8 O :   -0.229437
   9 O :   -0.204364
  10 C :   -0.035152
  11 H :    0.027228
  12 H :    0.029433
  13 H :    0.092014
  14 H :    0.041770

  Mayer bond orders larger than 0.100000
B(  0-C ,  1-S ) :   1.1424 B(  0-C ,  2-C ) :   0.1256 B(  0-C ,  4-C ) :   1.4399
B(  0-C , 11-H ) :   0.9853 B(  1-S ,  2-C ) :   1.2141 B(  2-C ,  3-C ) :   1.3970
B(  2-C , 12-H ) :   0.9703 B(  3-C ,  4-C ) :   1.2180 B(  3-C , 10-C ) :   1.1217
B(  4-C ,  5-N ) :   1.1293 B(  5-N ,  6-C ) :   1.1652 B(  5-N , 13-H ) :   0.9175
B(  6-C ,  7-N ) :   0.9118 B(  6-C , 10-C ) :   1.5090 B(  7-N ,  8-O ) :   1.4509
B(  7-N ,  9-O ) :   1.5243 B(  8-O ,  9-O ) :   0.2782 B( 10-C , 14-H ) :   1.0208

Dispersion correction           -0.031251296
FINAL SINGLE POINT ENERGY      -888.624938678319

DIPOLE MOMENT
-------------
                                X             Y             Z
Electronic contribution:      0.95748      -0.53231       0.03647
Nuclear contribution   :     -2.44629       0.26962      -0.00009
                        -----------------------------------------
Total Dipole Moment    :     -1.48881      -0.26269       0.03638
                        -----------------------------------------
Magnitude (a.u.)       :      1.51225
Magnitude (Debye)      :      3.84383

Rotational constants in cm-1:     0.117833     0.017762     0.015436
Rotational constants in MHz :  3532.540476   532.476480   462.763099

                             ****ORCA TERMINATED NORMALLY****
TOTAL RUN TIME: 0 days 0 hours 6 minutes 45 seconds 81 msec
