                         Program Version 4.2.0 -  RELEASE  -
|  1> # ORCA input file
|  2> # SCF done        -29.767583974718          0.000890151644
|  3> ! B3LYP/G D3BJ Opt RIJCOSX def2-SVP def2/J
|  4> * xyz 0 1
|  5>    C        1.61321         0.76634        -0.00706
|  6>    C        0.37025         1.30659         0.10838
|  7>    S       -0.86330         0.05988         0.16393
|  8>    C        0.35673        -1.17800         0.02896
|  9>    O       -0.09046        -2.45940         0.02187
| 10>    C        0.89649        -3.45191        -0.12875
| 11>    C        1.60334        -0.65425        -0.05276
| 12>    N       -0.03112         2.61638         0.18201
| 13>    C        0.78729         3.71761         0.13245
| 14>    C        0.34716         4.96933         0.21145
| 15>    H        2.52209         1.33597        -0.05782
| 16>    H        0.36625        -4.40234        -0.12898
| 17>    H        1.61049        -3.42952         0.70104
| 18>    H        1.43727        -3.33155        -1.07319
| 19>    H        2.50235        -1.23608        -0.14120
| 20>    H       -1.02131         2.78402         0.28008
| 21>    H        1.83635         3.49350         0.01893
| 22>    H       -0.69949         5.19649         0.31982
| 23>    H        1.02512         5.79936         0.16351
| 24> *
| 25>
| 26>                          ****END OF INPUT****
 Total Charge           Charge          ....    0
 Multiplicity           Mult            ....    1
 Number of Electrons    NEL             ....   82
Dispersion correction           -0.033884562
FINAL SINGLE POINT ENERGY      -799.900088134372
Dispersion correction            ... done
Dispersion correction           -0.033714496
FINAL SINGLE POINT ENERGY      -799.902472371661
Dispersion correction            ... done
Dispersion correction           -0.033697867
FINAL SINGLE POINT ENERGY      -799.902609947448
Dispersion correction            ... done
FINAL SINGLE POINT ENERGY      -799.902586698274
FINAL SINGLE POINT ENERGY      -799.902612059424
Dispersion correction            ... done
Dispersion correction           -0.033705742
FINAL SINGLE POINT ENERGY      -799.902618516683
Dispersion correction            ... done
Dispersion correction           -0.033705381
FINAL SINGLE POINT ENERGY      -799.902617076350
Dispersion correction            ... done
                    ***********************HURRAY********************

CARTESIAN COORDINATES (ANGSTROEM)
---------------------------------
  C      1.629321    0.771065    0.017524
  C      0.371298    1.303204    0.146527
  S     -0.858582    0.046741    0.203830
  C      0.369910   -1.198342    0.031767
  O     -0.084863   -2.464885   -0.005413
  C      0.885625   -3.479158   -0.145683
  C      1.627599   -0.667884   -0.048975
  N     -0.051045    2.621885    0.221742
  C      0.759353    3.735856    0.149352
  C      0.339103    5.012353    0.179540
  H      2.537710    1.369117   -0.041538
  H      0.343896   -4.433968   -0.142625
  H      1.608924   -3.462021    0.689620
  H      1.441790   -3.374595   -1.095467
  H      2.530387   -1.266064   -0.163777
  H     -1.047564    2.782001    0.306376
  H      1.824209    3.506531    0.058687
  H     -0.719263    5.274797    0.265814
  H      1.060901    5.825789    0.115368

 Multiplicity           Mult            ....    1
 Number of Electrons    NEL             ....   82
 Basis Dimension        Dim             ....  189

ORBITAL ENERGIES
----------------

  NO   OCC          E(Eh)            E(eV)
   0   2.0000     -88.867564     -2418.2094
   1   2.0000     -19.173081      -521.7261
   2   2.0000     -14.366255      -390.9257
   3   2.0000     -10.258884      -279.1584
   4   2.0000     -10.250627      -278.9337
   5   2.0000     -10.245786      -278.8020
   6   2.0000     -10.228257      -278.3250
   7   2.0000     -10.182737      -277.0863
   8   2.0000     -10.179909      -277.0094
   9   2.0000     -10.170985      -276.7666
  10   2.0000      -7.963516      -216.6983
  11   2.0000      -5.931970      -161.4171
  12   2.0000      -5.928272      -161.3165
  13   2.0000      -5.923612      -161.1897
  14   2.0000      -1.069810       -29.1110
  15   2.0000      -0.952369       -25.9153
  16   2.0000      -0.857773       -23.3412
  17   2.0000      -0.755185       -20.5496
  18   2.0000      -0.740873       -20.1602
  19   2.0000      -0.711401       -19.3582
  20   2.0000      -0.675886       -18.3918
  21   2.0000      -0.611227       -16.6323
  22   2.0000      -0.581895       -15.8342
  23   2.0000      -0.552320       -15.0294
  24   2.0000      -0.524703       -14.2779
  25   2.0000      -0.494867       -13.4660
  26   2.0000      -0.482285       -13.1236
  27   2.0000      -0.477020       -12.9804
  28   2.0000      -0.455452       -12.3935
  29   2.0000      -0.423846       -11.5334
  30   2.0000      -0.413180       -11.2432
  31   2.0000      -0.406782       -11.0691
  32   2.0000      -0.394847       -10.7443
  33   2.0000      -0.375251       -10.2111
  34   2.0000      -0.370518       -10.0823
  35   2.0000      -0.350337        -9.5332
  36   2.0000      -0.339710        -9.2440
  37   2.0000      -0.315059        -8.5732
  38   2.0000      -0.251829        -6.8526
  39   2.0000      -0.242499        -6.5987
  40   2.0000      -0.175051        -4.7634
  41   0.0000      -0.001008        -0.0274
  42   0.0000       0.013170         0.3584
  43   0.0000       0.039443         1.0733
  44   0.0000       0.062771         1.7081
  45   0.0000       0.072401         1.9701

MULLIKEN ATOMIC CHARGES
-----------------------
   0 C :   -0.011905
   1 C :   -0.046379
   2 S :    0.064863
   3 C :    0.084667
   4 O :   -0.304868
   5 C :    0.185400
   6 C :   -0.050133
   7 N :   -0.059078
   8 C :    0.042895
   9 C :   -0.077786
  10 H :   -0.029609
  11 H :    0.032630
  12 H :    0.023354
  13 H :    0.019347
  14 H :   -0.026046
  15 H :    0.113890
  16 H :    0.017615
  17 H :    0.001650
  18 H :    0.019496
Sum of atomic charges:   -0.0000000

LOEWDIN ATOMIC CHARGES
----------------------
   0 C :   -0.122310
   1 C :   -0.128525
   2 S :    0.365490
   3 C :   -0.115506
   4 O :   -0.110254
   5 C :    0.085820
   6 C :   -0.124962
   7 N :    0.004279
   8 C :    0.025296
   9 C :   -0.138679
  10 H :    0.023030
  11 H :    0.026887
  12 H :    0.014189
  13 H :    0.013845
  14 H :    0.025211
  15 H :    0.081700
  16 H :    0.030397
  17 H :    0.016721
  18 H :    0.027369

  Mayer bond orders larger than 0.100000
B(  0-C ,  1-C ) :   1.5490 B(  0-C ,  6-C ) :   1.1522 B(  0-C , 10-H ) :   0.9957
B(  1-C ,  2-S ) :   1.0849 B(  1-C ,  7-N ) :   1.1180 B(  2-S ,  3-C ) :   1.0815
B(  3-C ,  4-O ) :   1.1371 B(  3-C ,  6-C ) :   1.5270 B(  4-O ,  5-C ) :   0.9592
B(  5-C , 11-H ) :   0.9788 B(  5-C , 12-H ) :   0.9652 B(  5-C , 13-H ) :   0.9650
B(  6-C , 14-H ) :   0.9930 B(  7-N ,  8-C ) :   1.1428 B(  7-N , 15-H ) :   0.9221
B(  8-C ,  9-C ) :   1.8870 B(  8-C , 16-H ) :   0.9600 B(  9-C , 17-H ) :   0.9578
B(  9-C , 18-H ) :   0.9475

Dispersion correction           -0.033704352
FINAL SINGLE POINT ENERGY      -799.902611257826

DIPOLE MOMENT
-------------
                                X             Y             Z
Electronic contribution:     -5.90372      -2.36874       0.68448
Nuclear contribution   :      6.19095       1.96365      -0.74606
                        -----------------------------------------
Total Dipole Moment    :      0.28723      -0.40510      -0.06157
                        -----------------------------------------
Magnitude (a.u.)       :      0.50040
Magnitude (Debye)      :      1.27190

Rotational constants in cm-1:     0.143213     0.017586     0.015715
Rotational constants in MHz :  4293.427979   527.206871   471.124196

                             ****ORCA TERMINATED NORMALLY****
TOTAL RUN TIME: 0 days 0 hours 6 minutes 42 seconds 752 msec
