                         Program Version 4.2.0 -  RELEASE  -
|  1> # ORCA input file
|  2> # SCF done        -14.355674824517          0.000389277406
|  3> ! B3LYP/G D3BJ Opt RIJCOSX def2-SVP def2/J
|  4> * xyz 0 1
|  5>    C       -0.09434         1.17225        -0.00808
|  6>    S        1.18935         0.00066        -0.01064
|  7>    C       -0.09130        -1.17424        -0.00511
|  8>    N       -1.26615        -0.66411        -0.00175
|  9>    N       -1.26787         0.65908        -0.00339
| 10>    H        0.09765         2.22567        -0.00983
| 11>    H        0.10343        -2.22715        -0.00420
| 12> *
| 13>
| 14>                          ****END OF INPUT****
 Total Charge           Charge          ....    0
 Multiplicity           Mult            ....    1
 Number of Electrons    NEL             ....   44
Dispersion correction           -0.011996353
FINAL SINGLE POINT ENERGY      -584.826027408222
Dispersion correction            ... done
Dispersion correction           -0.012011244
FINAL SINGLE POINT ENERGY      -584.828429868512
Dispersion correction            ... done
Dispersion correction           -0.012016957
FINAL SINGLE POINT ENERGY      -584.828550757563
Dispersion correction            ... done
FINAL SINGLE POINT ENERGY      -584.828565864338
Dispersion correction            ... done
Dispersion correction           -0.012020462
FINAL SINGLE POINT ENERGY      -584.828562132049
Dispersion correction            ... done
Dispersion correction           -0.012019958
FINAL SINGLE POINT ENERGY      -584.828568483763
Dispersion correction            ... done
                    ***********************HURRAY********************

CARTESIAN COORDINATES (ANGSTROEM)
---------------------------------
  C     -0.090118    1.182548   -0.007985
  S      1.187053    0.000668   -0.010807
  C     -0.087059   -1.184533   -0.005106
  N     -1.285487   -0.683684   -0.001755
  N     -1.287229    0.678611   -0.003421
  H      0.113871    2.254802   -0.009848
  H      0.119738   -2.256252   -0.004077

 Multiplicity           Mult            ....    1
 Number of Electrons    NEL             ....   44
 Basis Dimension        Dim             ....   84

ORBITAL ENERGIES
----------------

  NO   OCC          E(Eh)            E(eV)
   0   2.0000     -88.903915     -2419.1985
   1   2.0000     -14.365188      -390.8966
   2   2.0000     -14.365097      -390.8942
   3   2.0000     -10.264246      -279.3043
   4   2.0000     -10.264208      -279.3033
   5   2.0000      -8.000065      -217.6928
   6   2.0000      -5.967591      -162.3864
   7   2.0000      -5.963969      -162.2879
   8   2.0000      -5.961833      -162.2297
   9   2.0000      -1.038671       -28.2637
  10   2.0000      -0.828715       -22.5505
  11   2.0000      -0.822101       -22.3705
  12   2.0000      -0.634249       -17.2588
  13   2.0000      -0.595651       -16.2085
  14   2.0000      -0.523554       -14.2466
  15   2.0000      -0.450612       -12.2618
  16   2.0000      -0.438453       -11.9309
  17   2.0000      -0.437446       -11.9035
  18   2.0000      -0.317636        -8.6433
  19   2.0000      -0.311589        -8.4788
  20   2.0000      -0.300754        -8.1839
  21   2.0000      -0.270965        -7.3733
  22   0.0000      -0.051684        -1.4064
  23   0.0000       0.009871         0.2686
  24   0.0000       0.011931         0.3247
  25   0.0000       0.069030         1.8784
  26   0.0000       0.090276         2.4565

MULLIKEN ATOMIC CHARGES
-----------------------
   0 C :   -0.013941
   1 S :    0.072577
   2 C :   -0.013854
   3 N :   -0.085830
   4 N :   -0.085819
   5 H :    0.063457
   6 H :    0.063410
Sum of atomic charges:    0.0000000

LOEWDIN ATOMIC CHARGES
----------------------
   0 C :   -0.147086
   1 S :    0.389006
   2 C :   -0.147059
   3 N :   -0.077914
   4 N :   -0.077913
   5 H :    0.030487
   6 H :    0.030479

  Mayer bond orders larger than 0.100000
B(  0-C ,  1-S ) :   1.1458 B(  0-C ,  4-N ) :   1.7180 B(  0-C ,  5-H ) :   0.9630
B(  1-S ,  2-C ) :   1.1458 B(  1-S ,  3-N ) :   0.1154 B(  1-S ,  4-N ) :   0.1154
B(  2-C ,  3-N ) :   1.7180 B(  2-C ,  6-H ) :   0.9630 B(  3-N ,  4-N ) :   1.1647

Dispersion correction           -0.012019809
FINAL SINGLE POINT ENERGY      -584.828569104809

DIPOLE MOMENT
-------------
                                X             Y             Z
Electronic contribution:      1.10862       0.00141      -0.00404
Nuclear contribution   :      0.16787       0.00021      -0.00004
                        -----------------------------------------
Total Dipole Moment    :      1.27649       0.00163      -0.00408
                        -----------------------------------------
Magnitude (a.u.)       :      1.27650
Magnitude (Debye)      :      3.24460

Rotational constants in cm-1:     0.296252     0.183739     0.113404
Rotational constants in MHz :  8881.415213  5508.355660  3399.775738

                             ****ORCA TERMINATED NORMALLY****
TOTAL RUN TIME: 0 days 0 hours 1 minutes 6 seconds 445 msec
