                         Program Version 4.2.0 -  RELEASE  -
|  1> # ORCA input file
|  2> # SCF done        -27.178047830376          0.000554201011
|  3> ! B3LYP/G D3BJ Opt RIJCOSX def2-SVP def2/J
|  4> * xyz 0 1
|  5>    C        1.44726        -1.00324        -0.00181
|  6>    S        2.31983         0.48965         0.00182
|  7>    C        0.89018         1.46241         0.00403
|  8>    C       -0.19169         0.65146         0.00276
|  9>    C        0.12183        -0.73615        -0.00053
| 10>    O       -1.05431        -1.42374        -0.00172
| 11>    C       -2.05618        -0.49905         0.00151
| 12>    O       -3.21007        -0.75974         0.00070
| 13>    O       -1.54919         0.76656         0.00346
| 14>    H        1.96357        -1.93954        -0.00431
| 15>    H        0.95390         2.52974         0.00628
| 16> *
| 17>
| 18>                          ****END OF INPUT****
 Total Charge           Charge          ....    0
 Multiplicity           Mult            ....    1
 Number of Electrons    NEL             ....   72
Dispersion correction           -0.021280841
FINAL SINGLE POINT ENERGY      -815.172499602188
Dispersion correction            ... done
Dispersion correction           -0.021325085
FINAL SINGLE POINT ENERGY      -815.174159594484
Dispersion correction            ... done
Dispersion correction           -0.021339513
FINAL SINGLE POINT ENERGY      -815.174353617463
Dispersion correction            ... done
FINAL SINGLE POINT ENERGY      -815.174343720414
Dispersion correction            ... done
Dispersion correction           -0.021340307
FINAL SINGLE POINT ENERGY      -815.174407479771
Dispersion correction            ... done
Dispersion correction           -0.021339258
FINAL SINGLE POINT ENERGY      -815.174407197414
Dispersion correction            ... done
                    ***********************HURRAY********************

CARTESIAN COORDINATES (ANGSTROEM)
---------------------------------
  C      1.456083   -1.014823   -0.001845
  S      2.338585    0.495951    0.001710
  C      0.893666    1.477607    0.004009
  C     -0.186835    0.648942    0.002767
  C      0.125260   -0.729104   -0.000481
  O     -1.052259   -1.428738   -0.001459
  C     -2.081060   -0.505651    0.000746
  O     -3.233652   -0.768059    0.000925
  O     -1.551502    0.770907    0.003722
  H      1.971458   -1.971629   -0.004344
  H      0.955386    2.562957    0.006440

 Multiplicity           Mult            ....    1
 Number of Electrons    NEL             ....   72
 Basis Dimension        Dim             ....  140

ORBITAL ENERGIES
----------------

  NO   OCC          E(Eh)            E(eV)
   0   2.0000     -88.902694     -2419.1653
   1   2.0000     -19.231334      -523.3112
   2   2.0000     -19.231133      -523.3057
   3   2.0000     -19.152912      -521.1772
   4   2.0000     -10.388872      -282.6956
   5   2.0000     -10.278649      -279.6963
   6   2.0000     -10.278261      -279.6857
   7   2.0000     -10.244115      -278.7565
   8   2.0000     -10.243659      -278.7441
   9   2.0000      -7.996946      -217.6080
  10   2.0000      -5.965460      -162.3284
  11   2.0000      -5.961311      -162.2155
  12   2.0000      -5.957567      -162.1136
  13   2.0000      -1.189669       -32.3725
  14   2.0000      -1.079542       -29.3758
  15   2.0000      -1.066886       -29.0315
  16   2.0000      -0.908601       -24.7243
  17   2.0000      -0.763003       -20.7624
  18   2.0000      -0.758792       -20.6478
  19   2.0000      -0.660007       -17.9597
  20   2.0000      -0.650342       -17.6967
  21   2.0000      -0.622000       -16.9255
  22   2.0000      -0.539282       -14.6746
  23   2.0000      -0.538638       -14.6571
  24   2.0000      -0.519125       -14.1261
  25   2.0000      -0.471734       -12.8365
  26   2.0000      -0.438357       -11.9283
  27   2.0000      -0.423090       -11.5129
  28   2.0000      -0.422106       -11.4861
  29   2.0000      -0.421422       -11.4675
  30   2.0000      -0.406891       -11.0721
  31   2.0000      -0.381371       -10.3776
  32   2.0000      -0.358837        -9.7644
  33   2.0000      -0.331829        -9.0295
  34   2.0000      -0.265165        -7.2155
  35   2.0000      -0.258816        -7.0427
  36   0.0000      -0.044572        -1.2129
  37   0.0000       0.009348         0.2544
  38   0.0000       0.012142         0.3304
  39   0.0000       0.053301         1.4504
  40   0.0000       0.056971         1.5503

MULLIKEN ATOMIC CHARGES
-----------------------
   0 C :   -0.166888
   1 S :    0.100498
   2 C :   -0.175549
   3 C :    0.215981
   4 C :    0.209038
   5 O :   -0.231676
   6 C :    0.323369
   7 O :   -0.133498
   8 O :   -0.233703
   9 H :    0.043831
  10 H :    0.048597
Sum of atomic charges:   -0.0000000

LOEWDIN ATOMIC CHARGES
----------------------
   0 C :   -0.205205
   1 S :    0.443673
   2 C :   -0.207013
   3 C :   -0.012457
   4 C :   -0.012462
   5 O :   -0.044934
   6 C :    0.120633
   7 O :   -0.112771
   8 O :   -0.045512
   9 H :    0.037724
  10 H :    0.038325

  Mayer bond orders larger than 0.100000
B(  0-C ,  1-S ) :   1.1263 B(  0-C ,  4-C ) :   1.5255 B(  0-C ,  9-H ) :   0.9877
B(  1-S ,  2-C ) :   1.1286 B(  2-C ,  3-C ) :   1.5251 B(  2-C , 10-H ) :   0.9857
B(  3-C ,  4-C ) :   1.2418 B(  3-C ,  8-O ) :   1.0544 B(  4-C ,  5-O ) :   1.0556
B(  5-O ,  6-C ) :   1.0508 B(  6-C ,  7-O ) :   2.2337 B(  6-C ,  8-O ) :   1.0483

Dispersion correction           -0.021338630
FINAL SINGLE POINT ENERGY      -815.174406647320

DIPOLE MOMENT
-------------
                                X             Y             Z
Electronic contribution:     -1.32170      -0.29692       0.00026
Nuclear contribution   :      2.76463       0.62307      -0.00030
                        -----------------------------------------
Total Dipole Moment    :      1.44293       0.32615      -0.00004
                        -----------------------------------------
Magnitude (a.u.)       :      1.47933
Magnitude (Debye)      :      3.76015

Rotational constants in cm-1:     0.164017     0.033046     0.027505
Rotational constants in MHz :  4917.112258   990.701466   824.567365

                             ****ORCA TERMINATED NORMALLY****
TOTAL RUN TIME: 0 days 0 hours 3 minutes 11 seconds 475 msec
