                         Program Version 4.2.0 -  RELEASE  -
|  1> # ORCA input file
|  2> # SCF done        -45.137974241758          0.000788717010
|  3> ! B3LYP/G D3BJ Opt RIJCOSX def2-SVP def2/J
|  4> * xyz 0 1
|  5>    C        0.98866         0.50817        -0.11738
|  6>    C        0.55961        -0.75541         0.02531
|  7>    C       -0.89623        -0.74200         0.12287
|  8>    O       -1.50862        -1.94044         0.20458
|  9>    C       -2.91123        -2.00700         0.29535
| 10>    C       -1.34690         0.55049         0.05469
| 11>    C       -0.16656         1.39969        -0.06302
| 12>    C       -0.05350         2.76054         0.00685
| 13>    C        1.16745         3.50965        -0.17698
| 14>    C        0.88542         4.82468         0.00567
| 15>    O        1.66874         5.91643        -0.06507
| 16>    C        3.02590         5.69627        -0.36902
| 17>    C       -0.53149         4.96457         0.34104
| 18>    C       -1.08877         3.74319         0.33232
| 19>    C       -2.72869         1.01855        -0.01452
| 20>    C       -3.18531         1.82555        -0.96372
| 21>    H        2.00601         0.83742        -0.19281
| 22>    H        1.13633        -1.66000         0.05777
| 23>    H       -3.16721        -3.05958         0.17501
| 24>    H       -3.39151        -1.41866        -0.49076
| 25>    H       -3.25929        -1.66385         1.27397
| 26>    H        2.11122         3.07871        -0.44486
| 27>    H        3.50304         6.67472        -0.36894
| 28>    H        3.13775         5.23249        -1.35375
| 29>    H        3.49720         5.05614         0.38301
| 30>    H       -0.99542         5.90806         0.55632
| 31>    H       -2.10492         3.49611         0.56356
| 32>    H       -3.40850         0.66144         0.74962
| 33>    H       -2.54468         2.19439        -1.74663
| 34>    H       -4.21205         2.15026        -0.98707
| 35> *
| 36>
| 37>                          ****END OF INPUT****
 Total Charge           Charge          ....    0
 Multiplicity           Mult            ....    1
 Number of Electrons    NEL             ....  114
Dispersion correction           -0.059496365
FINAL SINGLE POINT ENERGY      -691.796004887571
Dispersion correction            ... done
Dispersion correction           -0.058914607
FINAL SINGLE POINT ENERGY      -691.800359964130
Dispersion correction            ... done
Dispersion correction           -0.059173958
FINAL SINGLE POINT ENERGY      -691.800446291351
Dispersion correction            ... done
FINAL SINGLE POINT ENERGY      -691.800811045375
FINAL SINGLE POINT ENERGY      -691.800830426237
FINAL SINGLE POINT ENERGY      -691.800769399361
FINAL SINGLE POINT ENERGY      -691.800705078913
FINAL SINGLE POINT ENERGY      -691.800713401519
FINAL SINGLE POINT ENERGY      -691.800668954347
FINAL SINGLE POINT ENERGY      -691.800593210321
Dispersion correction            ... done
Dispersion correction           -0.059032089
FINAL SINGLE POINT ENERGY      -691.800566577466
Dispersion correction            ... done
Dispersion correction           -0.059028993
FINAL SINGLE POINT ENERGY      -691.800558304153
Dispersion correction            ... done
                    ***********************HURRAY********************

CARTESIAN COORDINATES (ANGSTROEM)
---------------------------------
  C      0.959067    0.513975   -0.352658
  C      0.536838   -0.758883   -0.157868
  C     -0.919111   -0.744899    0.006261
  O     -1.514900   -1.930265    0.210902
  C     -2.842819   -2.001316    0.689005
  C     -1.408964    0.547402   -0.125042
  C     -0.206889    1.405017   -0.272089
  C     -0.072904    2.766779   -0.135839
  C      1.177516    3.516156   -0.265762
  C      0.905240    4.812308    0.080913
  O      1.703322    5.883807    0.146069
  C      3.062937    5.692198   -0.189434
  C     -0.518434    4.946987    0.441148
  C     -1.105167    3.735001    0.299753
  C     -2.799475    0.957282   -0.330854
  C     -3.225212    1.903539   -1.186243
  H      1.987852    0.852364   -0.449931
  H      1.133830   -1.668070   -0.100401
  H     -3.000647   -3.036113    1.022629
  H     -3.573152   -1.759779   -0.100253
  H     -2.992188   -1.321402    1.543797
  H      2.125570    3.106313   -0.599083
  H      3.572662    6.650462   -0.025415
  H      3.171467    5.391548   -1.246565
  H      3.522580    4.917397    0.447754
  H     -0.971895    5.876810    0.782112
  H     -2.135641    3.476446    0.517142
  H     -3.563590    0.417034    0.233520
  H     -2.533178    2.471860   -1.811259
  H     -4.288266    2.140622   -1.278899

 Multiplicity           Mult            ....    1
 Number of Electrons    NEL             ....  114
 Basis Dimension        Dim             ....  294

ORBITAL ENERGIES
----------------

  NO   OCC          E(Eh)            E(eV)
   0   2.0000     -19.176120      -521.8087
   1   2.0000     -19.174140      -521.7549
   2   2.0000     -10.249792      -278.9110
   3   2.0000     -10.249290      -278.8974
   4   2.0000     -10.248067      -278.8641
   5   2.0000     -10.246434      -278.8196
   6   2.0000     -10.205137      -277.6959
   7   2.0000     -10.203814      -277.6599
   8   2.0000     -10.190869      -277.3076
   9   2.0000     -10.187721      -277.2220
  10   2.0000     -10.187183      -277.2073
  11   2.0000     -10.185441      -277.1600
  12   2.0000     -10.181862      -277.0625
  13   2.0000     -10.180783      -277.0332
  14   2.0000     -10.173901      -276.8459
  15   2.0000     -10.168227      -276.6915
  16   2.0000      -1.070954       -29.1421
  17   2.0000      -1.067151       -29.0386
  18   2.0000      -0.869299       -23.6548
  19   2.0000      -0.846260       -23.0279
  20   2.0000      -0.768971       -20.9248
  21   2.0000      -0.751763       -20.4565
  22   2.0000      -0.729639       -19.8545
  23   2.0000      -0.707703       -19.2576
  24   2.0000      -0.693641       -18.8749
  25   2.0000      -0.682373       -18.5683
  26   2.0000      -0.622439       -16.9374
  27   2.0000      -0.582946       -15.8628
  28   2.0000      -0.568847       -15.4791
  29   2.0000      -0.559790       -15.2327
  30   2.0000      -0.544380       -14.8133
  31   2.0000      -0.524983       -14.2855
  32   2.0000      -0.505677       -13.7602
  33   2.0000      -0.498541       -13.5660
  34   2.0000      -0.477978       -13.0064
  35   2.0000      -0.477433       -12.9916
  36   2.0000      -0.471671       -12.8348
  37   2.0000      -0.456091       -12.4109
  38   2.0000      -0.442218       -12.0334
  39   2.0000      -0.428248       -11.6532
  40   2.0000      -0.420193       -11.4340
  41   2.0000      -0.413430       -11.2500
  42   2.0000      -0.394857       -10.7446
  43   2.0000      -0.391161       -10.6440
  44   2.0000      -0.388458       -10.5705
  45   2.0000      -0.380942       -10.3659
  46   2.0000      -0.376227       -10.2377
  47   2.0000      -0.357471        -9.7273
  48   2.0000      -0.345606        -9.4044
  49   2.0000      -0.340674        -9.2702
  50   2.0000      -0.337402        -9.1812
  51   2.0000      -0.323777        -8.8104
  52   2.0000      -0.305880        -8.3234
  53   2.0000      -0.276796        -7.5320
  54   2.0000      -0.232266        -6.3203
  55   2.0000      -0.210951        -5.7403
  56   2.0000      -0.189996        -5.1700
  57   0.0000      -0.091798        -2.4979
  58   0.0000      -0.009422        -0.2564
  59   0.0000       0.044216         1.2032
  60   0.0000       0.060848         1.6558
  61   0.0000       0.062187         1.6922

MULLIKEN ATOMIC CHARGES
-----------------------
   0 C :    0.002330
   1 C :    0.013135
   2 C :    0.125395
   3 O :   -0.294989
   4 C :    0.190274
   5 C :   -0.028818
   6 C :    0.016453
   7 C :    0.027132
   8 C :   -0.158770
   9 C :    0.210849
  10 O :   -0.284100
  11 C :    0.189072
  12 C :    0.000795
  13 C :    0.013031
  14 C :   -0.042927
  15 C :   -0.035510
  16 H :   -0.024685
  17 H :   -0.021323
  18 H :    0.027356
  19 H :    0.032804
  20 H :    0.029092
  21 H :   -0.038681
  22 H :    0.034208
  23 H :    0.021126
  24 H :    0.022742
  25 H :   -0.022873
  26 H :   -0.013414
  27 H :   -0.024122
  28 H :    0.025907
  29 H :    0.008509
Sum of atomic charges:    0.0000000

LOEWDIN ATOMIC CHARGES
----------------------
   0 C :   -0.022920
   1 C :   -0.027582
   2 C :    0.052977
   3 O :   -0.083020
   4 C :    0.086981
   5 C :   -0.117166
   6 C :    0.017092
   7 C :    0.019664
   8 C :   -0.138463
   9 C :    0.048981
  10 O :   -0.076801
  11 C :    0.085527
  12 C :   -0.028824
  13 C :   -0.018536
  14 C :   -0.031965
  15 C :   -0.066663
  16 H :    0.023016
  17 H :    0.026878
  18 H :    0.025507
  19 H :    0.018017
  20 H :    0.017314
  21 H :    0.016127
  22 H :    0.026201
  23 H :    0.016505
  24 H :    0.016316
  25 H :    0.026552
  26 H :    0.026108
  27 H :    0.020843
  28 H :    0.021572
  29 H :    0.019763

  Mayer bond orders larger than 0.100000
B(  0-C ,  1-C ) :   1.6020 B(  0-C ,  6-C ) :   1.0902 B(  0-C , 16-H ) :   1.0010
B(  1-C ,  2-C ) :   1.1037 B(  1-C , 17-H ) :   1.0050 B(  2-C ,  3-O ) :   1.1800
B(  2-C ,  5-C ) :   1.4800 B(  3-O ,  4-C ) :   0.9487 B(  4-C , 18-H ) :   0.9729
B(  4-C , 19-H ) :   0.9658 B(  4-C , 20-H ) :   0.9628 B(  5-C ,  6-C ) :   1.0634
B(  5-C , 14-C ) :   1.0766 B(  6-C ,  7-C ) :   1.5249 B(  7-C ,  8-C ) :   1.0873
B(  7-C , 13-C ) :   1.0756 B(  8-C ,  9-C ) :   1.5054 B(  8-C , 21-H ) :   1.0071
B(  9-C , 10-O ) :   1.1764 B(  9-C , 12-C ) :   1.0754 B( 10-O , 11-C ) :   0.9575
B( 11-C , 22-H ) :   0.9790 B( 11-C , 23-H ) :   0.9661 B( 11-C , 24-H ) :   0.9635
B( 12-C , 13-C ) :   1.6442 B( 12-C , 25-H ) :   1.0047 B( 13-C , 26-H ) :   0.9935
B( 14-C , 15-C ) :   1.9299 B( 14-C , 27-H ) :   0.9408 B( 15-C , 28-H ) :   0.9513
B( 15-C , 29-H ) :   0.9417

Dispersion correction           -0.059026026
FINAL SINGLE POINT ENERGY      -691.800559880104

DIPOLE MOMENT
-------------
                                X             Y             Z
Electronic contribution:      2.23601      -0.25053       0.38817
Nuclear contribution   :     -2.02821       0.14322      -0.17273
                        -----------------------------------------
Total Dipole Moment    :      0.20780      -0.10730       0.21544
                        -----------------------------------------
Magnitude (a.u.)       :      0.31798
Magnitude (Debye)      :      0.80823

Rotational constants in cm-1:     0.041283     0.009031     0.007702
Rotational constants in MHz :  1237.623593   270.730658   230.907436

                             ****ORCA TERMINATED NORMALLY****
TOTAL RUN TIME: 0 days 0 hours 33 minutes 11 seconds 471 msec
