                         Program Version 4.2.0 -  RELEASE  -
|  1> # ORCA input file
|  2> # SCF done        -60.756234537949          0.000445296709
|  3> ! B3LYP/G D3BJ Opt RIJCOSX def2-SVP def2/J
|  4> * xyz 0 1
|  5>    C       -2.38352         1.00162         0.57402
|  6>    C       -1.16006         1.57624         0.25746
|  7>    C       -0.08354         0.73202         0.06350
|  8>    C       -0.21777        -0.65513         0.18963
|  9>    C       -1.43859        -1.21460         0.48992
| 10>    C       -2.52645        -0.37085         0.68217
| 11>    C        1.12418        -1.28130        -0.03144
| 12>    C        2.00653        -0.07525        -0.35153
| 13>    O        3.18744        -0.08127        -0.60995
| 14>    N        1.23041         1.04642        -0.25735
| 15>    C        1.72876         2.37297        -0.52634
| 16>    C        1.33668         2.84805        -1.92238
| 17>    C        1.66188        -2.00779         1.21789
| 18>    C        0.81795        -3.25238         1.50035
| 19>    O        0.64024        -4.20153         0.77841
| 20>    N        0.26085        -3.08588         2.73702
| 21>    C        0.63811        -1.89082         3.33142
| 22>    C        0.27886        -1.37784         4.56090
| 23>    C        0.81301        -0.14913         4.92517
| 24>    C        1.68099         0.53116         4.08816
| 25>    C        2.03641         0.00706         2.85072
| 26>    C        1.50436        -1.20538         2.47374
| 27>    H       -3.23950         1.64063         0.73182
| 28>    H       -1.06348         2.64701         0.16987
| 29>    H       -1.55143        -2.28525         0.56466
| 30>    H       -3.49228        -0.79107         0.91746
| 31>    H        1.13126        -1.99142        -0.86404
| 32>    H        2.81783         2.32069        -0.44475
| 33>    H        1.34433         3.05567         0.23721
| 34>    H        1.75730         2.18247        -2.67197
| 35>    H        1.71762         3.85092        -2.09365
| 36>    H        0.25502         2.85836        -2.03572
| 37>    H        2.70135        -2.28848         1.02237
| 38>    H       -0.35497        -3.76170         3.16103
| 39>    H       -0.39124        -1.91131         5.21719
| 40>    H        0.54954         0.27794         5.88096
| 41>    H        2.08953         1.47983         4.40117
| 42>    H        2.72209         0.53439         2.20574
| 43> *
| 44>
| 45>                          ****END OF INPUT****
 Total Charge           Charge          ....    0
 Multiplicity           Mult            ....    1
 Number of Electrons    NEL             ....  154
Dispersion correction           -0.094508656
FINAL SINGLE POINT ENERGY      -954.959935003648
Dispersion correction            ... done
Dispersion correction           -0.092894977
FINAL SINGLE POINT ENERGY      -954.965305101962
Dispersion correction            ... done
Dispersion correction           -0.092496434
FINAL SINGLE POINT ENERGY      -954.965418988697
Dispersion correction            ... done
FINAL SINGLE POINT ENERGY      -954.965042291114
FINAL SINGLE POINT ENERGY      -954.965234486005
FINAL SINGLE POINT ENERGY      -954.965256463698
Dispersion correction            ... done
Dispersion correction           -0.092177848
FINAL SINGLE POINT ENERGY      -954.965239792882
Dispersion correction            ... done
Dispersion correction           -0.092170073
FINAL SINGLE POINT ENERGY      -954.965228584410
Dispersion correction            ... done
                    ***********************HURRAY********************

CARTESIAN COORDINATES (ANGSTROEM)
---------------------------------
  C     -2.609063    0.890831    0.202086
  C     -1.364613    1.519804    0.043397
  C     -0.231581    0.711980   -0.008509
  C     -0.315957   -0.688452    0.103066
  C     -1.555361   -1.299895    0.243274
  C     -2.708318   -0.499174    0.296230
  C      1.080364   -1.254717    0.006687
  C      1.946396   -0.005868   -0.225464
  O      3.151274    0.034566   -0.370101
  N      1.107274    1.093291   -0.183843
  C      1.570406    2.450279   -0.400101
  C      1.409272    2.897908   -1.851155
  C      1.580662   -2.017102    1.256230
  C      0.607867   -3.170223    1.575388
  O      0.255958   -4.061357    0.834606
  N      0.151911   -2.957608    2.860571
  C      0.717602   -1.822736    3.452479
  C      0.512769   -1.307325    4.728105
  C      1.232748   -0.158649    5.088017
  C      2.134222    0.437463    4.202242
  C      2.326732   -0.094550    2.916503
  C      1.604303   -1.220316    2.539624
  H     -3.513077    1.502917    0.243276
  H     -1.293694    2.604886   -0.048377
  H     -1.630825   -2.387390    0.295986
  H     -3.687436   -0.970349    0.406732
  H      1.189586   -1.931673   -0.856630
  H      2.630271    2.472356   -0.106965
  H      1.021470    3.115172    0.284882
  H      2.000573    2.252247   -2.516177
  H      1.763267    3.933033   -1.978539
  H      0.356742    2.849124   -2.171118
  H      2.571963   -2.433581    1.013409
  H     -0.523091   -3.573029    3.298206
  H     -0.179385   -1.780287    5.427549
  H      1.085423    0.271471    6.081480
  H      2.694158    1.322392    4.512124
  H      3.038885    0.359635    2.225670

 Multiplicity           Mult            ....    1
 Number of Electrons    NEL             ....  154
 Basis Dimension        Dim             ....  388

ORBITAL ENERGIES
----------------

  NO   OCC          E(Eh)            E(eV)
   0   2.0000     -19.115719      -520.1652
   1   2.0000     -19.115079      -520.1477
   2   2.0000     -14.376602      -391.2072
   3   2.0000     -14.374670      -391.1546
   4   2.0000     -10.298227      -280.2290
   5   2.0000     -10.293469      -280.0995
   6   2.0000     -10.239651      -278.6351
   7   2.0000     -10.235900      -278.5330
   8   2.0000     -10.235315      -278.5171
   9   2.0000     -10.218472      -278.0588
  10   2.0000     -10.217795      -278.0403
  11   2.0000     -10.200519      -277.5702
  12   2.0000     -10.199956      -277.5549
  13   2.0000     -10.199586      -277.5448
  14   2.0000     -10.199074      -277.5309
  15   2.0000     -10.198830      -277.5243
  16   2.0000     -10.198723      -277.5214
  17   2.0000     -10.198183      -277.5067
  18   2.0000     -10.196956      -277.4733
  19   2.0000     -10.192448      -277.3506
  20   2.0000     -10.192238      -277.3449
  21   2.0000     -10.191032      -277.3121
  22   2.0000      -1.043841       -28.4044
  23   2.0000      -1.041728       -28.3469
  24   2.0000      -0.965487       -26.2722
  25   2.0000      -0.960311       -26.1314
  26   2.0000      -0.855973       -23.2922
  27   2.0000      -0.847086       -23.0504
  28   2.0000      -0.821853       -22.3637
  29   2.0000      -0.784267       -21.3410
  30   2.0000      -0.756734       -20.5918
  31   2.0000      -0.741928       -20.1889
  32   2.0000      -0.732438       -19.9306
  33   2.0000      -0.721422       -19.6309
  34   2.0000      -0.695653       -18.9297
  35   2.0000      -0.651761       -17.7353
  36   2.0000      -0.627671       -17.0798
  37   2.0000      -0.618414       -16.8279
  38   2.0000      -0.604365       -16.4456
  39   2.0000      -0.588876       -16.0241
  40   2.0000      -0.584311       -15.8999
  41   2.0000      -0.562331       -15.3018
  42   2.0000      -0.542563       -14.7639
  43   2.0000      -0.523217       -14.2375
  44   2.0000      -0.505245       -13.7484
  45   2.0000      -0.498554       -13.5663
  46   2.0000      -0.486962       -13.2509
  47   2.0000      -0.467216       -12.7136
  48   2.0000      -0.464096       -12.6287
  49   2.0000      -0.463269       -12.6062
  50   2.0000      -0.460408       -12.5283
  51   2.0000      -0.454831       -12.3766
  52   2.0000      -0.444449       -12.0941
  53   2.0000      -0.440256       -11.9800
  54   2.0000      -0.433440       -11.7945
  55   2.0000      -0.428303       -11.6547
  56   2.0000      -0.421202       -11.4615
  57   2.0000      -0.408863       -11.1257
  58   2.0000      -0.404789       -11.0149
  59   2.0000      -0.396452       -10.7880
  60   2.0000      -0.389400       -10.5961
  61   2.0000      -0.380873       -10.3641
  62   2.0000      -0.380023       -10.3410
  63   2.0000      -0.379327       -10.3220
  64   2.0000      -0.372386       -10.1331
  65   2.0000      -0.369819       -10.0633
  66   2.0000      -0.360242        -9.8027
  67   2.0000      -0.349322        -9.5055
  68   2.0000      -0.341587        -9.2950
  69   2.0000      -0.319119        -8.6837
  70   2.0000      -0.309093        -8.4109
  71   2.0000      -0.272641        -7.4189
  72   2.0000      -0.262978        -7.1560
  73   2.0000      -0.262786        -7.1508
  74   2.0000      -0.260463        -7.0876
  75   2.0000      -0.227435        -6.1888
  76   2.0000      -0.222125        -6.0443
  77   0.0000      -0.031783        -0.8649
  78   0.0000      -0.022051        -0.6000
  79   0.0000      -0.016522        -0.4496
  80   0.0000      -0.011186        -0.3044
  81   0.0000       0.013539         0.3684

MULLIKEN ATOMIC CHARGES
-----------------------
   0 C :    0.033588
   1 C :   -0.088776
   2 C :    0.192141
   3 C :   -0.041139
   4 C :   -0.050358
   5 C :    0.029950
   6 C :    0.056873
   7 C :    0.131467
   8 O :   -0.225364
   9 N :   -0.247727
  10 C :    0.125343
  11 C :   -0.002104
  12 C :    0.027180
  13 C :    0.126732
  14 O :   -0.207320
  15 N :   -0.093481
  16 C :    0.153378
  17 C :   -0.069635
  18 C :    0.029927
  19 C :    0.032217
  20 C :   -0.047659
  21 C :   -0.035294
  22 H :   -0.015847
  23 H :   -0.030975
  24 H :   -0.003475
  25 H :   -0.023147
  26 H :    0.046289
  27 H :    0.028615
  28 H :    0.016416
  29 H :    0.030376
  30 H :    0.018128
  31 H :    0.019939
  32 H :    0.045401
  33 H :    0.118365
  34 H :   -0.038540
  35 H :   -0.015636
  36 H :   -0.020270
  37 H :   -0.005577
Sum of atomic charges:   -0.0000000

LOEWDIN ATOMIC CHARGES
----------------------
   0 C :   -0.013703
   1 C :   -0.063617
   2 C :    0.036080
   3 C :   -0.041362
   4 C :   -0.016865
   5 C :   -0.041922
   6 C :   -0.021427
   7 C :    0.081732
   8 O :   -0.202571
   9 N :   -0.008806
  10 C :    0.043391
  11 C :   -0.059278
  12 C :   -0.022380
  13 C :    0.081001
  14 O :   -0.197227
  15 N :    0.021853
  16 C :    0.031482
  17 C :   -0.059503
  18 C :   -0.012836
  19 C :   -0.041459
  20 C :   -0.015533
  21 C :   -0.042347
  22 H :    0.027943
  23 H :    0.026504
  24 H :    0.032901
  25 H :    0.025648
  26 H :    0.055802
  27 H :    0.031702
  28 H :    0.023586
  29 H :    0.031503
  30 H :    0.029359
  31 H :    0.024125
  32 H :    0.055400
  33 H :    0.087260
  34 H :    0.026513
  35 H :    0.028049
  36 H :    0.026337
  37 H :    0.032663

  Mayer bond orders larger than 0.100000
B(  0-C ,  1-C ) :   1.3259 B(  0-C ,  5-C ) :   1.4046 B(  0-C , 22-H ) :   0.9813
B(  1-C ,  2-C ) :   1.3679 B(  1-C , 23-H ) :   0.9953 B(  2-C ,  3-C ) :   1.3538
B(  2-C ,  9-N ) :   1.0262 B(  3-C ,  4-C ) :   1.4527 B(  3-C ,  6-C ) :   0.9545
B(  4-C ,  5-C ) :   1.3089 B(  4-C , 24-H ) :   0.9852 B(  5-C , 25-H ) :   0.9859
B(  6-C ,  7-C ) :   0.9192 B(  6-C , 12-C ) :   1.0273 B(  6-C , 26-H ) :   0.8674
B(  7-C ,  8-O ) :   2.0876 B(  7-C ,  9-N ) :   1.1353 B(  9-N , 10-C ) :   0.9548
B( 10-C , 11-C ) :   1.1212 B( 10-C , 27-H ) :   0.9338 B( 10-C , 28-H ) :   0.9416
B( 11-C , 29-H ) :   0.9647 B( 11-C , 30-H ) :   0.9648 B( 11-C , 31-H ) :   0.9673
B( 12-C , 13-C ) :   0.9072 B( 12-C , 21-C ) :   0.9537 B( 12-C , 32-H ) :   0.8699
B( 13-C , 14-O ) :   2.1428 B( 13-C , 15-N ) :   1.1420 B( 15-N , 16-C ) :   1.0609
B( 15-N , 33-H ) :   0.9215 B( 16-C , 17-C ) :   1.3678 B( 16-C , 21-C ) :   1.3447
B( 17-C , 18-C ) :   1.3347 B( 17-C , 34-H ) :   0.9997 B( 18-C , 19-C ) :   1.4056
B( 18-C , 35-H ) :   0.9785 B( 19-C , 20-C ) :   1.3137 B( 19-C , 36-H ) :   0.9857
B( 20-C , 21-C ) :   1.4518 B( 20-C , 37-H ) :   0.9852

Dispersion correction           -0.092169164
FINAL SINGLE POINT ENERGY      -954.965234327159

DIPOLE MOMENT
-------------
                                X             Y             Z
Electronic contribution:      1.03304     -13.15510       3.81894
Nuclear contribution   :     -1.89746      14.19717      -2.95772
                        -----------------------------------------
Total Dipole Moment    :     -0.86443       1.04207       0.86121
                        -----------------------------------------
Magnitude (a.u.)       :      1.60463
Magnitude (Debye)      :      4.07863

Rotational constants in cm-1:     0.013144     0.008937     0.007764
Rotational constants in MHz :   394.035450   267.912937   232.757318

                             ****ORCA TERMINATED NORMALLY****
TOTAL RUN TIME: 0 days 0 hours 42 minutes 3 seconds 692 msec
