                         Program Version 4.2.0 -  RELEASE  -
|  1> # ORCA input file
|  2> # SCF done        -27.730840951211          0.000389152375
|  3> ! B3LYP/G D3BJ Opt RIJCOSX def2-SVP def2/J
|  4> * xyz 0 1
|  5>    C        0.89104         1.53680         0.16226
|  6>    S        2.31746         0.57440         0.11553
|  7>    C        1.45665        -0.93825        -0.07300
|  8>    C        0.11823        -0.64947        -0.09311
|  9>    C       -0.20632         0.73731         0.03834
| 10>    N       -1.58154         0.84944        -0.00090
| 11>    C       -1.99559        -0.35487        -0.14172
| 12>    O       -1.05318        -1.32986        -0.20707
| 13>    C        2.15596        -2.18833        -0.17697
| 14>    C        1.54790        -3.36290        -0.32371
| 15>    H        0.95792         2.59832         0.27481
| 16>    H       -3.02379        -0.65345        -0.21072
| 17>    H        3.23388        -2.11934        -0.12838
| 18>    H        0.47522        -3.43767        -0.37312
| 19>    H        2.10618        -4.27877        -0.39803
| 20> *
| 21>
| 22>                          ****END OF INPUT****
 Total Charge           Charge          ....    0
 Multiplicity           Mult            ....    1
 Number of Electrons    NEL             ....   78
Dispersion correction           -0.030157735
FINAL SINGLE POINT ENERGY      -797.490752136257
Dispersion correction            ... done
Dispersion correction           -0.030035102
FINAL SINGLE POINT ENERGY      -797.493252015910
Dispersion correction            ... done
Dispersion correction           -0.029995960
FINAL SINGLE POINT ENERGY      -797.493487368394
Dispersion correction            ... done
FINAL SINGLE POINT ENERGY      -797.493475239402
Dispersion correction            ... done
Dispersion correction           -0.029981206
FINAL SINGLE POINT ENERGY      -797.493562876082
Dispersion correction            ... done
Dispersion correction           -0.029984777
FINAL SINGLE POINT ENERGY      -797.493568470261
Dispersion correction            ... done
                    ***********************HURRAY********************

CARTESIAN COORDINATES (ANGSTROEM)
---------------------------------
  C      0.895629    1.562642    0.173751
  S      2.322840    0.583813    0.112021
  C      1.455308   -0.934185   -0.090877
  C      0.116787   -0.615836   -0.104221
  C     -0.214417    0.756906    0.042439
  N     -1.604889    0.878344    0.008623
  C     -2.017319   -0.331420   -0.145842
  O     -1.053063   -1.312289   -0.225575
  C      2.152990   -2.200904   -0.192382
  C      1.557990   -3.400409   -0.311075
  H      0.966289    2.639204    0.309900
  H     -3.045827   -0.683316   -0.225093
  H      3.246357   -2.143801   -0.161731
  H      0.469721   -3.501399   -0.344647
  H      2.151623   -4.313990   -0.381081

 Multiplicity           Mult            ....    1
 Number of Electrons    NEL             ....   78
 Basis Dimension        Dim             ....  169

ORBITAL ENERGIES
----------------

  NO   OCC          E(Eh)            E(eV)
   0   2.0000     -88.889012     -2418.7930
   1   2.0000     -19.219306      -522.9839
   2   2.0000     -14.339994      -390.2111
   3   2.0000     -10.293641      -280.1042
   4   2.0000     -10.253808      -279.0203
   5   2.0000     -10.231538      -278.4143
   6   2.0000     -10.229051      -278.3466
   7   2.0000     -10.225669      -278.2546
   8   2.0000     -10.211889      -277.8796
   9   2.0000     -10.193939      -277.3912
  10   2.0000      -7.983335      -217.2376
  11   2.0000      -5.951556      -161.9501
  12   2.0000      -5.947478      -161.8391
  13   2.0000      -5.944542      -161.7592
  14   2.0000      -1.130306       -30.7572
  15   2.0000      -0.934379       -25.4257
  16   2.0000      -0.889012       -24.1913
  17   2.0000      -0.789982       -21.4965
  18   2.0000      -0.751990       -20.4627
  19   2.0000      -0.714624       -19.4459
  20   2.0000      -0.644822       -17.5465
  21   2.0000      -0.615937       -16.7605
  22   2.0000      -0.598658       -16.2903
  23   2.0000      -0.554072       -15.0771
  24   2.0000      -0.510533       -13.8923
  25   2.0000      -0.489762       -13.3271
  26   2.0000      -0.476106       -12.9555
  27   2.0000      -0.470082       -12.7916
  28   2.0000      -0.465737       -12.6734
  29   2.0000      -0.411571       -11.1994
  30   2.0000      -0.395884       -10.7725
  31   2.0000      -0.387082       -10.5330
  32   2.0000      -0.367239        -9.9931
  33   2.0000      -0.360282        -9.8038
  34   2.0000      -0.353048        -9.6069
  35   2.0000      -0.302465        -8.2305
  36   2.0000      -0.302026        -8.2185
  37   2.0000      -0.256142        -6.9700
  38   2.0000      -0.218911        -5.9569
  39   0.0000      -0.060582        -1.6485
  40   0.0000      -0.014363        -0.3908
  41   0.0000       0.016418         0.4468
  42   0.0000       0.050021         1.3611
  43   0.0000       0.077219         2.1012

MULLIKEN ATOMIC CHARGES
-----------------------
   0 C :   -0.192319
   1 S :    0.115564
   2 C :   -0.192712
   3 C :    0.185458
   4 C :    0.096787
   5 N :   -0.092053
   6 C :    0.193432
   7 O :   -0.236615
   8 C :    0.045937
   9 C :   -0.032817
  10 H :    0.032577
  11 H :    0.032730
  12 H :   -0.010952
  13 H :    0.030934
  14 H :    0.024052
Sum of atomic charges:    0.0000000

LOEWDIN ATOMIC CHARGES
----------------------
   0 C :   -0.198960
   1 S :    0.453921
   2 C :   -0.205690
   3 C :   -0.002994
   4 C :   -0.063650
   5 N :   -0.100754
   6 C :    0.097612
   7 O :   -0.033039
   8 C :   -0.043097
   9 C :   -0.046655
  10 H :    0.032370
  11 H :    0.027453
  12 H :    0.030180
  13 H :    0.025921
  14 H :    0.027383

  Mayer bond orders larger than 0.100000
B(  0-C ,  1-S ) :   1.1607 B(  0-C ,  2-C ) :   0.1194 B(  0-C ,  4-C ) :   1.4241
B(  0-C , 10-H ) :   0.9858 B(  1-S ,  2-C ) :   1.1154 B(  2-C ,  3-C ) :   1.4625
B(  2-C ,  8-C ) :   1.1214 B(  3-C ,  4-C ) :   1.2507 B(  3-C ,  7-O ) :   1.0802
B(  4-C ,  5-N ) :   1.2384 B(  5-N ,  6-C ) :   1.7920 B(  6-C ,  7-O ) :   1.0936
B(  6-C , 11-H ) :   0.9792 B(  8-C ,  9-C ) :   1.9140 B(  8-C , 12-H ) :   0.9466
B(  9-C , 13-H ) :   0.9498 B(  9-C , 14-H ) :   0.9430

Dispersion correction           -0.029985721
FINAL SINGLE POINT ENERGY      -797.493568773674

DIPOLE MOMENT
-------------
                                X             Y             Z
Electronic contribution:     -0.64674       5.36719       0.48162
Nuclear contribution   :      0.78744      -5.67995      -0.50401
                        -----------------------------------------
Total Dipole Moment    :      0.14069      -0.31276      -0.02239
                        -----------------------------------------
Magnitude (a.u.)       :      0.34368
Magnitude (Debye)      :      0.87356

Rotational constants in cm-1:     0.057378     0.042043     0.024265
Rotational constants in MHz :  1720.143579  1260.409425   727.451724

                             ****ORCA TERMINATED NORMALLY****
TOTAL RUN TIME: 0 days 0 hours 6 minutes 14 seconds 668 msec
