                         Program Version 4.2.0 -  RELEASE  -
|  1> # ORCA input file
|  2> # SCF done        -31.298680970715          0.000520252001
|  3> ! B3LYP/G D3BJ Opt RIJCOSX def2-SVP def2/J
|  4> * xyz 0 1
|  5>    N       -0.96878        -1.39392        -0.29618
|  6>    C        0.24398        -0.73493        -0.15914
|  7>    C        1.48133        -1.29414        -0.20461
|  8>    S        2.73079        -0.11232        -0.07855
|  9>    C        1.56973         1.15627         0.04527
| 10>    C        0.28820         0.69270        -0.00566
| 11>    N       -0.88458         1.42580         0.06880
| 12>    C       -2.10059         0.73372        -0.29643
| 13>    C       -2.09313        -0.68562         0.27342
| 14>    C       -0.87996         2.77771         0.31903
| 15>    C       -1.87857         3.63386         0.12075
| 16>    H       -0.93192        -2.38235        -0.09090
| 17>    H        1.73604        -2.32841        -0.31469
| 18>    H        1.92353         2.16162         0.14005
| 19>    H       -2.20347         0.68014        -1.38838
| 20>    H       -2.94899         1.28221         0.11513
| 21>    H       -3.01375        -1.20071        -0.00926
| 22>    H       -2.04296        -0.63099         1.37335
| 23>    H        0.05082         3.12857         0.73958
| 24>    H       -2.82160         3.36254        -0.31683
| 25>    H       -1.76338         4.66427         0.40002
| 26> *
| 27>
| 28>                          ****END OF INPUT****
 Total Charge           Charge          ....    0
 Multiplicity           Mult            ....    1
 Number of Electrons    NEL             ....   88
Dispersion correction           -0.043197715
FINAL SINGLE POINT ENERGY      -818.152361937841
Dispersion correction            ... done
Dispersion correction           -0.042960149
FINAL SINGLE POINT ENERGY      -818.155302047739
Dispersion correction            ... done
Dispersion correction           -0.042919469
FINAL SINGLE POINT ENERGY      -818.155438883923
Dispersion correction            ... done
FINAL SINGLE POINT ENERGY      -818.155370579262
FINAL SINGLE POINT ENERGY      -818.155408448674
FINAL SINGLE POINT ENERGY      -818.155429075178
Dispersion correction            ... done
Dispersion correction           -0.042921947
FINAL SINGLE POINT ENERGY      -818.155436679191
Dispersion correction            ... done
Dispersion correction           -0.042921561
FINAL SINGLE POINT ENERGY      -818.155440189459
Dispersion correction            ... done
                    ***********************HURRAY********************

CARTESIAN COORDINATES (ANGSTROEM)
---------------------------------
  N     -0.956295   -1.400010   -0.308733
  C      0.266643   -0.750941   -0.152853
  C      1.523274   -1.308514   -0.167552
  S      2.768050   -0.104938   -0.056219
  C      1.596930    1.170913    0.027083
  C      0.306631    0.688637   -0.010052
  N     -0.885823    1.417388    0.084334
  C     -2.131624    0.736417   -0.240079
  C     -2.111210   -0.713279    0.241406
  C     -0.871344    2.783173    0.305551
  C     -1.870107    3.656366    0.085571
  H     -0.926622   -2.396190   -0.122202
  H      1.780325   -2.361164   -0.266791
  H      1.928034    2.203916    0.092167
  H     -2.333215    0.769096   -1.327441
  H     -2.948497    1.269375    0.266663
  H     -3.025828   -1.214979   -0.110627
  H     -2.127263   -0.723439    1.351952
  H      0.070134    3.140245    0.730885
  H     -2.823835    3.374887   -0.363983
  H     -1.735620    4.699061    0.375690

 Multiplicity           Mult            ....    1
 Number of Electrons    NEL             ....   88
 Basis Dimension        Dim             ....  208

ORBITAL ENERGIES
----------------

  NO   OCC          E(Eh)            E(eV)
   0   2.0000     -88.858010     -2417.9494
   1   2.0000     -14.361130      -390.7862
   2   2.0000     -14.339907      -390.2087
   3   2.0000     -10.232123      -278.4302
   4   2.0000     -10.231297      -278.4078
   5   2.0000     -10.224613      -278.2259
   6   2.0000     -10.222236      -278.1612
   7   2.0000     -10.220849      -278.1234
   8   2.0000     -10.195675      -277.4384
   9   2.0000     -10.193348      -277.3751
  10   2.0000     -10.168927      -276.7106
  11   2.0000      -7.952599      -216.4012
  12   2.0000      -5.921047      -161.1199
  13   2.0000      -5.917037      -161.0108
  14   2.0000      -5.913388      -160.9115
  15   2.0000      -0.970535       -26.4096
  16   2.0000      -0.919141       -25.0111
  17   2.0000      -0.856816       -23.3151
  18   2.0000      -0.763520       -20.7764
  19   2.0000      -0.750851       -20.4317
  20   2.0000      -0.711505       -19.3610
  21   2.0000      -0.682042       -18.5593
  22   2.0000      -0.631452       -17.1827
  23   2.0000      -0.603422       -16.4199
  24   2.0000      -0.562947       -15.3186
  25   2.0000      -0.538093       -14.6423
  26   2.0000      -0.521048       -14.1784
  27   2.0000      -0.498934       -13.5767
  28   2.0000      -0.485953       -13.2235
  29   2.0000      -0.473633       -12.8882
  30   2.0000      -0.440735       -11.9930
  31   2.0000      -0.419701       -11.4207
  32   2.0000      -0.417536       -11.3617
  33   2.0000      -0.404487       -11.0067
  34   2.0000      -0.394912       -10.7461
  35   2.0000      -0.379983       -10.3399
  36   2.0000      -0.375015       -10.2047
  37   2.0000      -0.360562        -9.8114
  38   2.0000      -0.342985        -9.3331
  39   2.0000      -0.329180        -8.9574
  40   2.0000      -0.297922        -8.1069
  41   2.0000      -0.255265        -6.9461
  42   2.0000      -0.200957        -5.4683
  43   2.0000      -0.182609        -4.9690
  44   0.0000      -0.007593        -0.2066
  45   0.0000       0.033895         0.9223
  46   0.0000       0.045902         1.2491
  47   0.0000       0.055821         1.5190
  48   0.0000       0.067355         1.8328

MULLIKEN ATOMIC CHARGES
-----------------------
   0 N :   -0.161089
   1 C :    0.108529
   2 C :   -0.203498
   3 S :    0.079623
   4 C :   -0.216078
   5 C :    0.175654
   6 N :   -0.247575
   7 C :    0.154465
   8 C :    0.130168
   9 C :    0.081355
  10 C :   -0.086968
  11 H :    0.109978
  12 H :   -0.005888
  13 H :    0.009942
  14 H :    0.017686
  15 H :    0.013922
  16 H :    0.001339
  17 H :    0.009052
  18 H :    0.004443
  19 H :    0.010340
  20 H :    0.014599
Sum of atomic charges:    0.0000000

LOEWDIN ATOMIC CHARGES
----------------------
   0 N :   -0.057009
   1 C :   -0.030527
   2 C :   -0.251245
   3 S :    0.404314
   4 C :   -0.245349
   5 C :   -0.023775
   6 N :   -0.027347
   7 C :    0.050372
   8 C :    0.033109
   9 C :    0.025610
  10 C :   -0.139942
  11 H :    0.072979
  12 H :    0.017667
  13 H :    0.019194
  14 H :    0.018724
  15 H :    0.029037
  16 H :    0.025291
  17 H :    0.009547
  18 H :    0.026650
  19 H :    0.016232
  20 H :    0.026470

  Mayer bond orders larger than 0.100000
B(  0-N ,  1-C ) :   1.1376 B(  0-N ,  8-C ) :   1.0273 B(  0-N , 11-H ) :   0.9222
B(  1-C ,  2-C ) :   1.5004 B(  1-C ,  5-C ) :   1.2402 B(  2-C ,  3-S ) :   1.1171
B(  2-C , 12-H ) :   0.9738 B(  3-S ,  4-C ) :   1.1243 B(  4-C ,  5-C ) :   1.4936
B(  4-C , 13-H ) :   0.9716 B(  5-C ,  6-N ) :   1.0577 B(  6-N ,  7-C ) :   0.9826
B(  6-N ,  9-C ) :   1.1135 B(  7-C ,  8-C ) :   1.0897 B(  7-C , 14-H ) :   0.9361
B(  7-C , 15-H ) :   0.9297 B(  8-C , 16-H ) :   0.9366 B(  8-C , 17-H ) :   0.9318
B(  9-C , 10-C ) :   1.8776 B(  9-C , 18-H ) :   0.9536 B( 10-C , 19-H ) :   0.9514
B( 10-C , 20-H ) :   0.9398

Dispersion correction           -0.042921142
FINAL SINGLE POINT ENERGY      -818.155442243025

DIPOLE MOMENT
-------------
                                X             Y             Z
Electronic contribution:     11.33003      -4.23509      -0.55500
Nuclear contribution   :    -12.11147       3.66369       0.77073
                        -----------------------------------------
Total Dipole Moment    :     -0.78144      -0.57140       0.21572
                        -----------------------------------------
Magnitude (a.u.)       :      0.99180
Magnitude (Debye)      :      2.52096

Rotational constants in cm-1:     0.053375     0.026636     0.018057
Rotational constants in MHz :  1600.138033   798.515654   541.328162

                             ****ORCA TERMINATED NORMALLY****
TOTAL RUN TIME: 0 days 0 hours 10 minutes 41 seconds 31 msec
