                         Program Version 4.2.0 -  RELEASE  -
|  1> # ORCA input file
|  2> # SCF done        -50.724239744835          0.000992749360
|  3> ! B3LYP/G D3BJ Opt RIJCOSX def2-SVP def2/J
|  4> * xyz 0 1
|  5>    C       -1.60189         1.22256         0.06858
|  6>    S       -2.78796         0.00927         0.09499
|  7>    C       -1.61563        -1.26870         0.03354
|  8>    C       -0.32961        -0.74229        -0.00695
|  9>    C       -0.32346         0.69756         0.01428
| 10>    C        0.89495         1.39235        -0.01862
| 11>    C        2.08523         0.69385        -0.07749
| 12>    C        3.30603         1.49075        -0.11082
| 13>    O        3.35698         2.69533        -0.05108
| 14>    C        4.64998         0.71280        -0.23944
| 15>    F        4.69645        -0.04643        -1.34895
| 16>    F        5.68607         1.54616        -0.29640
| 17>    F        4.86647        -0.11076         0.80196
| 18>    C        2.07610        -0.73267        -0.10211
| 19>    C        0.90766        -1.42701        -0.06590
| 20>    C       -2.00369        -2.64883         0.03197
| 21>    C       -3.26030        -3.08917         0.05688
| 22>    H       -1.88435         2.25594         0.09414
| 23>    H        0.91136         2.47160        -0.00100
| 24>    H        3.00355        -1.27791        -0.14748
| 25>    H        0.91905        -2.50543        -0.08348
| 26>    H       -1.18501        -3.35495         0.00945
| 27>    H       -4.09612        -2.40937         0.07791
| 28>    H       -3.48840        -4.13944         0.05770
| 29> *
| 30>
| 31>                          ****END OF INPUT****
 Total Charge           Charge          ....    0
 Multiplicity           Mult            ....    1
 Number of Electrons    NEL             ....  130
Dispersion correction           -0.055094396
FINAL SINGLE POINT ENERGY     -1233.731078025333
Dispersion correction            ... done
Dispersion correction           -0.054720172
FINAL SINGLE POINT ENERGY     -1233.734566002299
Dispersion correction            ... done
Dispersion correction           -0.054540359
FINAL SINGLE POINT ENERGY     -1233.734433658290
Dispersion correction            ... done
FINAL SINGLE POINT ENERGY     -1233.734968696574
FINAL SINGLE POINT ENERGY     -1233.734830807004
FINAL SINGLE POINT ENERGY     -1233.734918682486
FINAL SINGLE POINT ENERGY     -1233.734942604485
Dispersion correction            ... done
Dispersion correction           -0.054660480
FINAL SINGLE POINT ENERGY     -1233.734920728542
Dispersion correction            ... done
Dispersion correction           -0.054668270
FINAL SINGLE POINT ENERGY     -1233.734909350690
Dispersion correction            ... done
                    ***********************HURRAY********************

CARTESIAN COORDINATES (ANGSTROEM)
---------------------------------
  C     -1.616295    1.266745    0.086094
  S     -2.808615    0.043436    0.120963
  C     -1.649662   -1.250031    0.064648
  C     -0.350322   -0.724174    0.027595
  C     -0.331424    0.727887    0.035274
  C      0.909838    1.416726   -0.013871
  C      2.094212    0.704161   -0.068696
  C      3.350348    1.493161   -0.135239
  O      3.397592    2.701824   -0.109863
  C      4.691754    0.711897   -0.269838
  F      4.713074    0.004664   -1.415285
  F      5.731570    1.533986   -0.268453
  F      4.846807   -0.159240    0.745890
  C      2.071011   -0.736356   -0.066051
  C      0.890439   -1.427301   -0.020308
  C     -2.032709   -2.647548    0.045646
  C     -3.277910   -3.152821    0.012523
  H     -1.900335    2.317357    0.103212
  H      0.946784    2.508232   -0.014322
  H      3.005580   -1.291919   -0.096203
  H      0.900187   -2.518911   -0.018867
  H     -1.186759   -3.342593    0.054750
  H     -4.164462   -2.512692   -0.007685
  H     -3.447244   -4.231279   -0.000234

 Multiplicity           Mult            ....    1
 Number of Electrons    NEL             ....  130
 Basis Dimension        Dim             ....  277

ORBITAL ENERGIES
----------------

  NO   OCC          E(Eh)            E(eV)
   0   2.0000     -88.904671     -2419.2191
   1   2.0000     -24.729116      -672.9135
   2   2.0000     -24.728409      -672.8942
   3   2.0000     -24.726932      -672.8540
   4   2.0000     -19.152548      -521.1673
   5   2.0000     -10.437014      -284.0056
   6   2.0000     -10.301836      -280.3272
   7   2.0000     -10.238064      -278.5919
   8   2.0000     -10.236629      -278.5528
   9   2.0000     -10.224053      -278.2106
  10   2.0000     -10.222174      -278.1595
  11   2.0000     -10.220459      -278.1128
  12   2.0000     -10.219931      -278.0985
  13   2.0000     -10.218482      -278.0590
  14   2.0000     -10.213528      -277.9242
  15   2.0000     -10.212300      -277.8908
  16   2.0000     -10.203254      -277.6446
  17   2.0000      -7.999225      -217.6700
  18   2.0000      -5.966833      -162.3658
  19   2.0000      -5.962799      -162.2560
  20   2.0000      -5.961642      -162.2245
  21   2.0000      -1.308631       -35.6097
  22   2.0000      -1.217255       -33.1232
  23   2.0000      -1.214860       -33.0580
  24   2.0000      -1.060630       -28.8612
  25   2.0000      -0.914179       -24.8761
  26   2.0000      -0.855097       -23.2684
  27   2.0000      -0.805230       -21.9114
  28   2.0000      -0.779135       -21.2013
  29   2.0000      -0.762976       -20.7616
  30   2.0000      -0.733280       -19.9536
  31   2.0000      -0.712791       -19.3960
  32   2.0000      -0.661825       -18.0092
  33   2.0000      -0.626958       -17.0604
  34   2.0000      -0.619872       -16.8676
  35   2.0000      -0.613299       -16.6887
  36   2.0000      -0.602150       -16.3853
  37   2.0000      -0.598613       -16.2891
  38   2.0000      -0.561315       -15.2742
  39   2.0000      -0.534719       -14.5504
  40   2.0000      -0.521167       -14.1817
  41   2.0000      -0.494625       -13.4594
  42   2.0000      -0.480517       -13.0755
  43   2.0000      -0.478483       -13.0202
  44   2.0000      -0.475244       -12.9320
  45   2.0000      -0.468295       -12.7430
  46   2.0000      -0.451134       -12.2760
  47   2.0000      -0.450814       -12.2673
  48   2.0000      -0.442927       -12.0527
  49   2.0000      -0.439410       -11.9570
  50   2.0000      -0.432921       -11.7804
  51   2.0000      -0.430656       -11.7188
  52   2.0000      -0.420186       -11.4338
  53   2.0000      -0.418541       -11.3891
  54   2.0000      -0.413682       -11.2569
  55   2.0000      -0.393633       -10.7113
  56   2.0000      -0.388205       -10.5636
  57   2.0000      -0.370162       -10.0726
  58   2.0000      -0.358307        -9.7500
  59   2.0000      -0.355687        -9.6787
  60   2.0000      -0.330093        -8.9823
  61   2.0000      -0.286171        -7.7871
  62   2.0000      -0.284403        -7.7390
  63   2.0000      -0.274022        -7.4565
  64   2.0000      -0.216221        -5.8837
  65   0.0000      -0.101780        -2.7696
  66   0.0000      -0.067646        -1.8407
  67   0.0000      -0.013160        -0.3581
  68   0.0000       0.015405         0.4192
  69   0.0000       0.023139         0.6297

MULLIKEN ATOMIC CHARGES
-----------------------
   0 C :   -0.113782
   1 S :    0.161335
   2 C :   -0.145937
   3 C :    0.135010
   4 C :    0.103598
   5 C :   -0.046156
   6 C :   -0.017686
   7 C :    0.021043
   8 O :   -0.161034
   9 C :    0.521413
  10 F :   -0.177274
  11 F :   -0.136652
  12 F :   -0.178929
  13 C :    0.040924
  14 C :   -0.033242
  15 C :    0.006616
  16 C :   -0.037189
  17 H :    0.031014
  18 H :   -0.001375
  19 H :   -0.003222
  20 H :   -0.017477
  21 H :   -0.001911
  22 H :    0.019714
  23 H :    0.031198
Sum of atomic charges:    0.0000000

LOEWDIN ATOMIC CHARGES
----------------------
   0 C :   -0.182567
   1 S :    0.501524
   2 C :   -0.188710
   3 C :   -0.036429
   4 C :   -0.053789
   5 C :    0.043837
   6 C :   -0.082534
   7 C :    0.036959
   8 O :   -0.113291
   9 C :    0.144244
  10 F :   -0.062882
  11 F :   -0.030818
  12 F :   -0.062726
  13 C :   -0.017403
  14 C :   -0.016693
  15 C :   -0.040333
  16 C :   -0.051555
  17 H :    0.031408
  18 H :    0.038467
  19 H :    0.026914
  20 H :    0.031087
  21 H :    0.035830
  22 H :    0.019282
  23 H :    0.030179

  Mayer bond orders larger than 0.100000
B(  0-C ,  1-S ) :   1.2203 B(  0-C ,  2-C ) :   0.1034 B(  0-C ,  4-C ) :   1.3704
B(  0-C , 17-H ) :   0.9658 B(  1-S ,  2-C ) :   1.1423 B(  2-C ,  3-C ) :   1.3536
B(  2-C , 15-C ) :   1.1574 B(  3-C ,  4-C ) :   1.1838 B(  3-C , 14-C ) :   1.1925
B(  4-C ,  5-C ) :   1.1651 B(  5-C ,  6-C ) :   1.4767 B(  5-C , 18-H ) :   1.0029
B(  6-C ,  7-C ) :   0.9553 B(  6-C , 13-C ) :   1.1735 B(  7-C ,  8-O ) :   2.1549
B(  7-C ,  9-C ) :   0.8712 B(  9-C , 10-F ) :   1.1141 B(  9-C , 11-F ) :   1.1835
B(  9-C , 12-F ) :   1.0943 B( 13-C , 14-C ) :   1.5551 B( 13-C , 19-H ) :   0.9612
B( 14-C , 20-H ) :   0.9830 B( 15-C , 16-C ) :   1.8938 B( 15-C , 21-H ) :   0.9471
B( 16-C , 22-H ) :   0.9558 B( 16-C , 23-H ) :   0.9452

Dispersion correction           -0.054670128
FINAL SINGLE POINT ENERGY     -1233.734914660887

DIPOLE MOMENT
-------------
                                X             Y             Z
Electronic contribution:     22.55845       9.30752      -1.09687
Nuclear contribution   :    -24.02712     -10.01877       1.16750
                        -----------------------------------------
Total Dipole Moment    :     -1.46868      -0.71124       0.07063
                        -----------------------------------------
Magnitude (a.u.)       :      1.63336
Magnitude (Debye)      :      4.15167

Rotational constants in cm-1:     0.038454     0.006483     0.005718
Rotational constants in MHz :  1152.829506   194.358241   171.414447

                             ****ORCA TERMINATED NORMALLY****
TOTAL RUN TIME: 0 days 0 hours 20 minutes 5 seconds 155 msec
