                         Program Version 4.2.0 -  RELEASE  -
|  1> # ORCA input file
|  2> # SCF done        -36.615518154575          0.000445695187
|  3> ! B3LYP/G D3BJ Opt RIJCOSX def2-SVP def2/J
|  4> * xyz 0 1
|  5>    C       -1.01228         1.12236        -0.08139
|  6>    C        0.26815         0.62724        -0.05509
|  7>    N        1.41792         1.33602        -0.14812
|  8>    C        2.53582         0.66772        -0.10397
|  9>    C        3.78857         1.49282        -0.14474
| 10>    C        4.25513         1.81849         1.27651
| 11>    C        2.56431        -0.76916         0.02740
| 12>    C        3.84409        -1.55204        -0.00636
| 13>    C        4.22050        -1.88012        -1.45358
| 14>    N        1.47425        -1.47586         0.13084
| 15>    C        0.29728        -0.80787         0.09820
| 16>    C       -0.96196        -1.34806         0.18670
| 17>    S       -2.15955        -0.13359         0.08066
| 18>    H       -1.32929         2.13991        -0.18342
| 19>    H        3.55726         2.42505        -0.66190
| 20>    H        4.57948         0.97558        -0.68751
| 21>    H        3.48203         2.37488         1.80079
| 22>    H        5.15855         2.42294         1.24479
| 23>    H        4.46444         0.91080         1.83907
| 24>    H        3.67984        -2.48470         0.53510
| 25>    H        4.65326        -1.00291         0.47420
| 26>    H        3.42553        -2.45696        -1.91964
| 27>    H        5.13671        -2.46503        -1.47945
| 28>    H        4.37129        -0.97273        -2.03510
| 29>    H       -1.23713        -2.37631         0.30270
| 30> *
| 31>
| 32>                          ****END OF INPUT****
 Total Charge           Charge          ....    0
 Multiplicity           Mult            ....    1
 Number of Electrons    NEL             ....  102
Dispersion correction           -0.051355301
FINAL SINGLE POINT ENERGY      -895.552813202780
Dispersion correction            ... done
Dispersion correction           -0.050951174
FINAL SINGLE POINT ENERGY      -895.555978296859
Dispersion correction            ... done
Dispersion correction           -0.050863950
FINAL SINGLE POINT ENERGY      -895.556138280271
Dispersion correction            ... done
FINAL SINGLE POINT ENERGY      -895.556160679374
FINAL SINGLE POINT ENERGY      -895.556141498744
FINAL SINGLE POINT ENERGY      -895.556155240854
Dispersion correction            ... done
Dispersion correction           -0.050784830
FINAL SINGLE POINT ENERGY      -895.556147280828
Dispersion correction            ... done
Dispersion correction           -0.050778171
FINAL SINGLE POINT ENERGY      -895.556132732734
Dispersion correction            ... done
                    ***********************HURRAY********************

CARTESIAN COORDINATES (ANGSTROEM)
---------------------------------
  C     -1.035836    1.147527   -0.003075
  C      0.254257    0.633459   -0.020901
  N      1.413912    1.344759   -0.104498
  C      2.536286    0.669271   -0.096976
  C      3.810213    1.484293   -0.121423
  C      4.242206    1.905228    1.292316
  C      2.557411   -0.793264   -0.001027
  C      3.852033   -1.573959   -0.044102
  C      4.251307   -1.946249   -1.480188
  N      1.454417   -1.496496    0.073213
  C      0.274816   -0.813856    0.066897
  C     -1.000670   -1.358795    0.142421
  S     -2.187209   -0.119468    0.113835
  H     -1.339750    2.190395   -0.059347
  H      3.603407    2.383055   -0.720705
  H      4.620764    0.933882   -0.621278
  H      3.433270    2.470211    1.780778
  H      5.138837    2.543810    1.262285
  H      4.470925    1.031648    1.923229
  H      3.689108   -2.492514    0.538029
  H      4.662858   -1.013554    0.444913
  H      3.444510   -2.521333   -1.960224
  H      5.165406   -2.560319   -1.492621
  H      4.437283   -1.050882   -2.094067
  H     -1.275562   -2.408379    0.219205

 Multiplicity           Mult            ....    1
 Number of Electrons    NEL             ....  102
 Basis Dimension        Dim             ....  246

ORBITAL ENERGIES
----------------

  NO   OCC          E(Eh)            E(eV)
   0   2.0000     -88.892972     -2418.9007
   1   2.0000     -14.330823      -389.9615
   2   2.0000     -14.330683      -389.9577
   3   2.0000     -10.235517      -278.5226
   4   2.0000     -10.235401      -278.5194
   5   2.0000     -10.224246      -278.2159
   6   2.0000     -10.224039      -278.2102
   7   2.0000     -10.215439      -277.9762
   8   2.0000     -10.215307      -277.9726
   9   2.0000     -10.193112      -277.3687
  10   2.0000     -10.192952      -277.3643
  11   2.0000     -10.187680      -277.2209
  12   2.0000     -10.187540      -277.2171
  13   2.0000      -7.987363      -217.3472
  14   2.0000      -5.954963      -162.0428
  15   2.0000      -5.950951      -161.9336
  16   2.0000      -5.949875      -161.9043
  17   2.0000      -0.971443       -26.4343
  18   2.0000      -0.902270       -24.5520
  19   2.0000      -0.880161       -23.9504
  20   2.0000      -0.796094       -21.6628
  21   2.0000      -0.766702       -20.8630
  22   2.0000      -0.726096       -19.7581
  23   2.0000      -0.719657       -19.5829
  24   2.0000      -0.661922       -18.0118
  25   2.0000      -0.642686       -17.4884
  26   2.0000      -0.598773       -16.2934
  27   2.0000      -0.581225       -15.8159
  28   2.0000      -0.571177       -15.5425
  29   2.0000      -0.548884       -14.9359
  30   2.0000      -0.480892       -13.0857
  31   2.0000      -0.470744       -12.8096
  32   2.0000      -0.451533       -12.2868
  33   2.0000      -0.449685       -12.2366
  34   2.0000      -0.434207       -11.8154
  35   2.0000      -0.430117       -11.7041
  36   2.0000      -0.424276       -11.5451
  37   2.0000      -0.413581       -11.2541
  38   2.0000      -0.395978       -10.7751
  39   2.0000      -0.391703       -10.6588
  40   2.0000      -0.372580       -10.1384
  41   2.0000      -0.357237        -9.7209
  42   2.0000      -0.357073        -9.7165
  43   2.0000      -0.351523        -9.5654
  44   2.0000      -0.350532        -9.5385
  45   2.0000      -0.346578        -9.4309
  46   2.0000      -0.332850        -9.0573
  47   2.0000      -0.301128        -8.1941
  48   2.0000      -0.253414        -6.8957
  49   2.0000      -0.240186        -6.5358
  50   2.0000      -0.226358        -6.1595
  51   0.0000      -0.078873        -2.1462
  52   0.0000       0.004197         0.1142
  53   0.0000       0.006723         0.1829
  54   0.0000       0.048579         1.3219
  55   0.0000       0.057132         1.5546

MULLIKEN ATOMIC CHARGES
-----------------------
   0 C :   -0.145669
   1 C :    0.062376
   2 N :   -0.039606
   3 C :   -0.131506
   4 C :    0.109039
   5 C :   -0.005050
   6 C :   -0.132663
   7 C :    0.109268
   8 C :   -0.004337
   9 N :   -0.038435
  10 C :    0.063489
  11 C :   -0.146983
  12 S :    0.142918
  13 H :    0.016406
  14 H :    0.009034
  15 H :   -0.002365
  16 H :    0.023830
  17 H :    0.020972
  18 H :    0.010788
  19 H :    0.007589
  20 H :   -0.001407
  21 H :    0.023556
  22 H :    0.020288
  23 H :    0.011632
  24 H :    0.016837
Sum of atomic charges:   -0.0000000

LOEWDIN ATOMIC CHARGES
----------------------
   0 C :   -0.209124
   1 C :   -0.053533
   2 N :   -0.060312
   3 C :    0.001711
   4 C :   -0.036547
   5 C :   -0.048519
   6 C :    0.001433
   7 C :   -0.036619
   8 C :   -0.048468
   9 N :   -0.060240
  10 C :   -0.053518
  11 C :   -0.209368
  12 S :    0.493830
  13 H :    0.028755
  14 H :    0.034200
  15 H :    0.022434
  16 H :    0.028050
  17 H :    0.025754
  18 H :    0.020411
  19 H :    0.033846
  20 H :    0.022834
  21 H :    0.028007
  22 H :    0.025857
  23 H :    0.020276
  24 H :    0.028852

  Mayer bond orders larger than 0.100000
B(  0-C ,  1-C ) :   1.3810 B(  0-C , 11-C ) :   0.1278 B(  0-C , 12-S ) :   1.2048
B(  0-C , 13-H ) :   0.9689 B(  1-C ,  2-N ) :   1.3398 B(  1-C , 10-C ) :   1.1910
B(  2-N ,  3-C ) :   1.7165 B(  3-C ,  4-C ) :   1.0636 B(  3-C ,  6-C ) :   1.1058
B(  4-C ,  5-C ) :   1.1114 B(  4-C , 14-H ) :   0.9105 B(  4-C , 15-H ) :   0.9136
B(  5-C , 16-H ) :   0.9633 B(  5-C , 17-H ) :   0.9663 B(  5-C , 18-H ) :   0.9673
B(  6-C ,  7-C ) :   1.0643 B(  6-C ,  9-N ) :   1.7201 B(  7-C ,  8-C ) :   1.1100
B(  7-C , 19-H ) :   0.9098 B(  7-C , 20-H ) :   0.9140 B(  8-C , 21-H ) :   0.9632
B(  8-C , 22-H ) :   0.9661 B(  8-C , 23-H ) :   0.9678 B(  9-N , 10-C ) :   1.3392
B( 10-C , 11-C ) :   1.3810 B( 11-C , 12-S ) :   1.2050 B( 11-C , 24-H ) :   0.9689

Dispersion correction           -0.050775046
FINAL SINGLE POINT ENERGY      -895.556127828997

DIPOLE MOMENT
-------------
                                X             Y             Z
Electronic contribution:    -22.92107      -0.36510       0.68711
Nuclear contribution   :     23.18309       0.37025      -0.69003
                        -----------------------------------------
Total Dipole Moment    :      0.26202       0.00516      -0.00292
                        -----------------------------------------
Magnitude (a.u.)       :      0.26209
Magnitude (Debye)      :      0.66617

Rotational constants in cm-1:     0.043846     0.015311     0.012135
Rotational constants in MHz :  1314.460267   458.998099   363.806578

                             ****ORCA TERMINATED NORMALLY****
TOTAL RUN TIME: 0 days 0 hours 15 minutes 4 seconds 58 msec
