                         Program Version 4.2.0 -  RELEASE  -
|  1> # ORCA input file
|  2> # SCF done        -36.120714275517          0.000625545341
|  3> ! B3LYP/G D3BJ Opt RIJCOSX def2-SVP def2/J
|  4> * xyz 0 1
|  5>    C        1.48441         1.18880        -0.19234
|  6>    S        2.67797        -0.01134         0.11591
|  7>    C        1.45647        -1.19108         0.38705
|  8>    C        0.20502        -0.68092         0.24390
|  9>    C        0.21989         0.70171        -0.09555
| 10>    C       -1.03318         1.47434        -0.35240
| 11>    C       -2.23629         0.80359         0.31302
| 12>    C       -2.28082        -0.68927        -0.10046
| 13>    O       -2.35125        -0.71554        -1.51210
| 14>    C       -2.83777        -1.90966        -2.06301
| 15>    C       -1.06420        -1.44704         0.45481
| 16>    N       -2.19025         1.03079         1.74351
| 17>    H        1.79166         2.18664        -0.43362
| 18>    H        1.73870        -2.19432         0.63852
| 19>    H       -1.21373         1.50892        -1.42906
| 20>    H       -0.93909         2.49538         0.01957
| 21>    H       -3.15298         1.27485        -0.06136
| 22>    H       -3.19720        -1.14809         0.31548
| 23>    H       -2.91030        -1.74122        -3.13579
| 24>    H       -3.83102        -2.15527        -1.66475
| 25>    H       -2.16755        -2.75798        -1.88120
| 26>    H       -0.99065        -2.42893        -0.01819
| 27>    H       -1.21623        -1.62175         1.52553
| 28>    H       -1.30536         0.71249         2.12305
| 29>    H       -2.93818         0.53326         2.21405
| 30> *
| 31>
| 32>                          ****END OF INPUT****
 Total Charge           Charge          ....    0
 Multiplicity           Mult            ....    1
 Number of Electrons    NEL             ....   98
Dispersion correction           -0.051049895
FINAL SINGLE POINT ENERGY      -878.516553560166
Dispersion correction            ... done
Dispersion correction           -0.050818664
FINAL SINGLE POINT ENERGY      -878.519007051119
Dispersion correction            ... done
Dispersion correction           -0.050801455
FINAL SINGLE POINT ENERGY      -878.519159854778
Dispersion correction            ... done
FINAL SINGLE POINT ENERGY      -878.519067432068
FINAL SINGLE POINT ENERGY      -878.518970597402
FINAL SINGLE POINT ENERGY      -878.519092912219
Dispersion correction            ... done
Dispersion correction           -0.050967480
FINAL SINGLE POINT ENERGY      -878.519111605782
Dispersion correction            ... done
Dispersion correction           -0.050976165
FINAL SINGLE POINT ENERGY      -878.519112359145
Dispersion correction            ... done
                    ***********************HURRAY********************

CARTESIAN COORDINATES (ANGSTROEM)
---------------------------------
  C      1.505288    1.155665   -0.181679
  S      2.669675   -0.109237    0.017770
  C      1.421663   -1.281347    0.258592
  C      0.169344   -0.719960    0.194696
  C      0.215364    0.692784   -0.083965
  C     -1.038856    1.495305   -0.322699
  C     -2.268857    0.844148    0.323496
  C     -2.335959   -0.647746   -0.077095
  O     -2.418967   -0.677717   -1.489379
  C     -2.698294   -1.928846   -2.059047
  C     -1.132130   -1.423202    0.475324
  N     -2.250765    1.081180    1.760988
  H      1.832229    2.171530   -0.398967
  H      1.678186   -2.319161    0.466822
  H     -1.217060    1.554826   -1.407568
  H     -0.932675    2.522176    0.058239
  H     -3.169148    1.322137   -0.097524
  H     -3.260974   -1.091850    0.350984
  H     -3.000595   -1.761245   -3.103456
  H     -3.528925   -2.442102   -1.533904
  H     -1.822526   -2.605428   -2.056190
  H     -1.122153   -2.453420    0.089418
  H     -1.271333   -1.512570    1.567130
  H     -1.346936    0.826331    2.159502
  H     -2.957527    0.526110    2.243084

 Multiplicity           Mult            ....    1
 Number of Electrons    NEL             ....   98
 Basis Dimension        Dim             ....  237

ORBITAL ENERGIES
----------------

  NO   OCC          E(Eh)            E(eV)
   0   2.0000     -88.865192     -2418.1448
   1   2.0000     -19.135673      -520.7081
   2   2.0000     -14.305749      -389.2792
   3   2.0000     -10.235814      -278.5307
   4   2.0000     -10.234321      -278.4900
   5   2.0000     -10.210876      -277.8521
   6   2.0000     -10.201735      -277.6033
   7   2.0000     -10.199995      -277.5560
   8   2.0000     -10.193397      -277.3764
   9   2.0000     -10.189508      -277.2706
  10   2.0000     -10.187471      -277.2152
  11   2.0000     -10.182202      -277.0718
  12   2.0000      -7.960274      -216.6101
  13   2.0000      -5.928352      -161.3186
  14   2.0000      -5.924282      -161.2079
  15   2.0000      -5.921727      -161.1384
  16   2.0000      -1.029196       -28.0058
  17   2.0000      -0.887629       -24.1536
  18   2.0000      -0.867416       -23.6036
  19   2.0000      -0.785668       -21.3791
  20   2.0000      -0.752439       -20.4749
  21   2.0000      -0.725191       -19.7335
  22   2.0000      -0.686088       -18.6694
  23   2.0000      -0.670284       -18.2393
  24   2.0000      -0.616574       -16.7778
  25   2.0000      -0.572449       -15.5771
  26   2.0000      -0.564684       -15.3658
  27   2.0000      -0.515112       -14.0169
  28   2.0000      -0.503359       -13.6971
  29   2.0000      -0.491861       -13.3842
  30   2.0000      -0.483553       -13.1581
  31   2.0000      -0.465930       -12.6786
  32   2.0000      -0.460021       -12.5178
  33   2.0000      -0.422596       -11.4994
  34   2.0000      -0.415911       -11.3175
  35   2.0000      -0.410821       -11.1790
  36   2.0000      -0.402524       -10.9532
  37   2.0000      -0.395604       -10.7649
  38   2.0000      -0.389428       -10.5969
  39   2.0000      -0.382891       -10.4190
  40   2.0000      -0.353433        -9.6174
  41   2.0000      -0.345318        -9.3966
  42   2.0000      -0.336107        -9.1459
  43   2.0000      -0.328500        -8.9389
  44   2.0000      -0.310971        -8.4619
  45   2.0000      -0.263014        -7.1570
  46   2.0000      -0.239317        -6.5121
  47   2.0000      -0.234613        -6.3841
  48   2.0000      -0.227054        -6.1784
  49   0.0000      -0.013530        -0.3682
  50   0.0000       0.039519         1.0754
  51   0.0000       0.054673         1.4877
  52   0.0000       0.055716         1.5161
  53   0.0000       0.075455         2.0532

MULLIKEN ATOMIC CHARGES
-----------------------
   0 C :   -0.143995
   1 S :    0.089390
   2 C :   -0.142878
   3 C :   -0.035607
   4 C :   -0.070372
   5 C :    0.195257
   6 C :   -0.001061
   7 C :    0.137650
   8 O :   -0.381832
   9 C :    0.193570
  10 C :    0.156257
  11 N :   -0.179293
  12 H :    0.009334
  13 H :    0.006250
  14 H :    0.026382
  15 H :   -0.000830
  16 H :   -0.014390
  17 H :   -0.034468
  18 H :    0.022461
  19 H :   -0.009330
  20 H :    0.012303
  21 H :   -0.011135
  22 H :   -0.004027
  23 H :    0.095297
  24 H :    0.085068
Sum of atomic charges:   -0.0000000

LOEWDIN ATOMIC CHARGES
----------------------
   0 C :   -0.203295
   1 S :    0.419371
   2 C :   -0.205873
   3 C :   -0.069521
   4 C :   -0.066495
   5 C :   -0.019892
   6 C :    0.012878
   7 C :    0.055876
   8 O :   -0.167131
   9 C :    0.069581
  10 C :   -0.037790
  11 N :   -0.098730
  12 H :    0.021293
  13 H :    0.019729
  14 H :    0.038641
  15 H :    0.029374
  16 H :    0.019398
  17 H :   -0.001970
  18 H :    0.021545
  19 H :    0.002396
  20 H :    0.004629
  21 H :    0.026650
  22 H :    0.026436
  23 H :    0.052496
  24 H :    0.050404

  Mayer bond orders larger than 0.100000
B(  0-C ,  1-S ) :   1.1573 B(  0-C ,  4-C ) :   1.5532 B(  0-C , 12-H ) :   0.9629
B(  1-S ,  2-C ) :   1.1597 B(  2-C ,  3-C ) :   1.5525 B(  2-C , 13-H ) :   0.9623
B(  3-C ,  4-C ) :   1.2897 B(  3-C , 10-C ) :   1.0192 B(  4-C ,  5-C ) :   1.0306
B(  5-C ,  6-C ) :   1.0570 B(  5-C , 14-H ) :   0.9051 B(  5-C , 15-H ) :   0.9135
B(  6-C ,  7-C ) :   0.9791 B(  6-C , 11-N ) :   1.1005 B(  6-C , 16-H ) :   0.9076
B(  7-C ,  8-O ) :   1.0050 B(  7-C , 10-C ) :   1.0296 B(  7-C , 17-H ) :   0.9138
B(  8-O ,  9-C ) :   0.9993 B(  9-C , 18-H ) :   0.9774 B(  9-C , 19-H ) :   0.9576
B(  9-C , 20-H ) :   0.9646 B( 10-C , 21-H ) :   0.9049 B( 10-C , 22-H ) :   0.9019
B( 11-N , 23-H ) :   0.9673 B( 11-N , 24-H ) :   0.9683

Dispersion correction           -0.050978597
FINAL SINGLE POINT ENERGY      -878.519110532957

DIPOLE MOMENT
-------------
                                X             Y             Z
Electronic contribution:     13.38323       2.39368       0.52294
Nuclear contribution   :    -13.75174      -3.19030      -0.37859
                        -----------------------------------------
Total Dipole Moment    :     -0.36851      -0.79662       0.14435
                        -----------------------------------------
Magnitude (a.u.)       :      0.88951
Magnitude (Debye)      :      2.26097

Rotational constants in cm-1:     0.044551     0.019949     0.016791
Rotational constants in MHz :  1335.604761   598.054028   503.370018

                             ****ORCA TERMINATED NORMALLY****
TOTAL RUN TIME: 0 days 0 hours 19 minutes 7 seconds 521 msec
