                         Program Version 4.2.0 -  RELEASE  -
|  1> # ORCA input file
|  2> # SCF done        -21.020794343398          0.000562510658
|  3> ! B3LYP/G D3BJ Opt RIJCOSX def2-SVP def2/J
|  4> * xyz 0 1
|  5>    C        0.22265         1.12448        -0.12731
|  6>    S        1.25828        -0.39168        -0.28584
|  7>    C       -0.36980        -0.95244        -0.02916
|  8>    C       -0.98446         0.24702         0.06425
|  9>    C       -2.35962         0.66342         0.28315
| 10>    O       -2.67203         1.83483         0.35340
| 11>    C       -3.35758        -0.46445         0.41377
| 12>    H        0.22976         1.72268        -1.03412
| 13>    H        0.50639         1.72763         0.73042
| 14>    H       -0.69254        -1.97415         0.02553
| 15>    H       -3.07739        -1.11339         1.24060
| 16>    H       -3.36405        -1.05597        -0.49932
| 17>    H       -4.34889        -0.05601         0.58969
| 18> *
| 19>
| 20>                          ****END OF INPUT****
 Total Charge           Charge          ....    0
 Multiplicity           Mult            ....    1
 Number of Electrons    NEL             ....   60
Dispersion correction           -0.021384235
FINAL SINGLE POINT ENERGY      -667.225854027624
Dispersion correction            ... done
Dispersion correction           -0.021277591
FINAL SINGLE POINT ENERGY      -667.227588973174
Dispersion correction            ... done
Dispersion correction           -0.021258140
FINAL SINGLE POINT ENERGY      -667.227787070321
Dispersion correction            ... done
FINAL SINGLE POINT ENERGY      -667.227846103080
FINAL SINGLE POINT ENERGY      -667.227848347709
FINAL SINGLE POINT ENERGY      -667.227852044484
FINAL SINGLE POINT ENERGY      -667.227848675619
FINAL SINGLE POINT ENERGY      -667.227835088757
FINAL SINGLE POINT ENERGY      -667.227815871119
FINAL SINGLE POINT ENERGY      -667.227783995427
FINAL SINGLE POINT ENERGY      -667.227755111438
FINAL SINGLE POINT ENERGY      -667.227740007414
Dispersion correction            ... done
Dispersion correction           -0.021239412
FINAL SINGLE POINT ENERGY      -667.227735491549
Dispersion correction            ... done
Dispersion correction           -0.021236143
FINAL SINGLE POINT ENERGY      -667.227735483909
Dispersion correction            ... done
                    ***********************HURRAY********************

CARTESIAN COORDINATES (ANGSTROEM)
---------------------------------
  C      0.228990    1.143040   -0.127487
  S      1.322706   -0.379876   -0.220518
  C     -0.324822   -0.962398    0.022177
  C     -0.959755    0.237065    0.065985
  C     -2.358176    0.639117    0.246129
  O     -2.669347    1.819506    0.243615
  C     -3.385417   -0.465564    0.411965
  H      0.248275    1.719242   -1.063335
  H      0.489529    1.783387    0.726980
  H     -0.662312   -1.997597    0.104415
  H     -3.018937   -1.273587    1.062970
  H     -3.610801   -0.910764   -0.572019
  H     -4.309212   -0.039601    0.824182

 Multiplicity           Mult            ....    1
 Number of Electrons    NEL             ....   60
 Basis Dimension        Dim             ....  132

ORBITAL ENERGIES
----------------

  NO   OCC          E(Eh)            E(eV)
   0   2.0000     -88.864934     -2418.1378
   1   2.0000     -19.117640      -520.2174
   2   2.0000     -10.273201      -279.5480
   3   2.0000     -10.242190      -278.7041
   4   2.0000     -10.235248      -278.5153
   5   2.0000     -10.206720      -277.7390
   6   2.0000     -10.194069      -277.3947
   7   2.0000      -7.960353      -216.6122
   8   2.0000      -5.928831      -161.3317
   9   2.0000      -5.926075      -161.2567
  10   2.0000      -5.919379      -161.0745
  11   2.0000      -1.023189       -27.8424
  12   2.0000      -0.886606       -24.1258
  13   2.0000      -0.751145       -20.4397
  14   2.0000      -0.692618       -18.8471
  15   2.0000      -0.683037       -18.5864
  16   2.0000      -0.582538       -15.8517
  17   2.0000      -0.539649       -14.6846
  18   2.0000      -0.480072       -13.0634
  19   2.0000      -0.468878       -12.7588
  20   2.0000      -0.450633       -12.2623
  21   2.0000      -0.437870       -11.9151
  22   2.0000      -0.404560       -11.0086
  23   2.0000      -0.401119       -10.9150
  24   2.0000      -0.369783       -10.0623
  25   2.0000      -0.362026        -9.8512
  26   2.0000      -0.341422        -9.2906
  27   2.0000      -0.320752        -8.7281
  28   2.0000      -0.251615        -6.8468
  29   2.0000      -0.234220        -6.3735
  30   0.0000      -0.063759        -1.7350
  31   0.0000      -0.007154        -0.1947
  32   0.0000       0.050736         1.3806
  33   0.0000       0.053087         1.4446
  34   0.0000       0.074748         2.0340

MULLIKEN ATOMIC CHARGES
-----------------------
   0 C :    0.043349
   1 S :   -0.018974
   2 C :   -0.037966
   3 C :   -0.114990
   4 C :    0.032031
   5 O :   -0.207438
   6 C :    0.033848
   7 H :    0.078037
   8 H :    0.078975
   9 H :    0.022784
  10 H :    0.024821
  11 H :    0.036255
  12 H :    0.029270
Sum of atomic charges:   -0.0000000

LOEWDIN ATOMIC CHARGES
----------------------
   0 C :   -0.059253
   1 S :    0.265456
   2 C :   -0.107076
   3 C :   -0.134315
   4 C :    0.059086
   5 O :   -0.165819
   6 C :   -0.074845
   7 H :    0.039511
   8 H :    0.039648
   9 H :    0.021426
  10 H :    0.032585
  11 H :    0.044922
  12 H :    0.038673

  Mayer bond orders larger than 0.100000
B(  0-C ,  1-S ) :   0.9931 B(  0-C ,  3-C ) :   1.0391 B(  0-C ,  7-H ) :   0.9324
B(  0-C ,  8-H ) :   0.9322 B(  1-S ,  2-C ) :   1.1002 B(  1-S ,  3-C ) :   0.1135
B(  2-C ,  3-C ) :   1.6455 B(  2-C ,  9-H ) :   0.9888 B(  3-C ,  4-C ) :   1.0107
B(  4-C ,  5-O ) :   2.1415 B(  4-C ,  6-C ) :   1.0533 B(  6-C , 10-H ) :   0.9502
B(  6-C , 11-H ) :   0.9449 B(  6-C , 12-H ) :   0.9480

Dispersion correction           -0.021235811
FINAL SINGLE POINT ENERGY      -667.227737114260

DIPOLE MOMENT
-------------
                                X             Y             Z
Electronic contribution:      5.94800       0.90553      -0.79331
Nuclear contribution   :     -5.69965      -1.78296       0.76300
                        -----------------------------------------
Total Dipole Moment    :      0.24834      -0.87743      -0.03031
                        -----------------------------------------
Magnitude (a.u.)       :      0.91240
Magnitude (Debye)      :      2.31913

Rotational constants in cm-1:     0.186011     0.044845     0.036642
Rotational constants in MHz :  5576.484437  1344.420456  1098.490023

                             ****ORCA TERMINATED NORMALLY****
TOTAL RUN TIME: 0 days 0 hours 8 minutes 58 seconds 476 msec
