                         Program Version 4.2.0 -  RELEASE  -
|  1> # ORCA input file
|  2> # SCF done        -50.201733577389          0.000284069705
|  3> ! B3LYP/G D3BJ Opt RIJCOSX def2-SVP def2/J
|  4> * xyz 0 1
|  5>    C        2.16209        -0.25911        -1.18389
|  6>    C        3.44043        -0.13460        -0.77954
|  7>    C        3.42344         0.56981         0.48763
|  8>    C        2.12809         0.84852         0.83103
|  9>    O        1.78479         1.53630         1.99747
| 10>    C        2.89638         1.87228         2.71018
| 11>    C        4.15139         1.59494         2.37276
| 12>    O        4.51343         0.90636         1.21520
| 13>    C        1.27164         0.35436        -0.18341
| 14>    C       -0.10531         0.39591        -0.28365
| 15>    C       -1.07169         0.89708         0.62289
| 16>    C       -2.31565         0.72921         0.07700
| 17>    O       -3.48079         1.08424         0.66623
| 18>    C       -3.25731         1.64349         1.92405
| 19>    C       -2.05300         1.80460         2.46209
| 20>    O       -0.86788         1.45832         1.88572
| 21>    C       -2.18519         0.10860        -1.22683
| 22>    C       -0.87184        -0.09700        -1.44118
| 23>    H        1.81761        -0.73693        -2.07870
| 24>    H        4.33370        -0.47378        -1.26606
| 25>    H        2.65420         2.40773         3.61319
| 26>    H        5.00526         1.87720         2.96045
| 27>    H       -4.17216         1.92872         2.40957
| 28>    H       -1.91853         2.23966         3.43852
| 29>    H       -3.01367        -0.12470        -1.86633
| 30>    H       -0.42610        -0.53291        -2.31228
| 31> *
| 32>
| 33>                          ****END OF INPUT****
 Total Charge           Charge          ....    0
 Multiplicity           Mult            ....    1
 Number of Electrons    NEL             ....  124
Dispersion correction           -0.055577148
FINAL SINGLE POINT ENERGY      -838.447553407798
Dispersion correction            ... done
Dispersion correction           -0.055362955
FINAL SINGLE POINT ENERGY      -838.451462660431
Dispersion correction            ... done
Dispersion correction           -0.055440438
FINAL SINGLE POINT ENERGY      -838.451731329667
Dispersion correction            ... done
FINAL SINGLE POINT ENERGY      -838.451772309555
FINAL SINGLE POINT ENERGY      -838.451748365044
FINAL SINGLE POINT ENERGY      -838.451398192490
FINAL SINGLE POINT ENERGY      -838.451154943115
FINAL SINGLE POINT ENERGY      -838.450499186894
FINAL SINGLE POINT ENERGY      -838.451086869181
FINAL SINGLE POINT ENERGY      -838.450843736315
Dispersion correction            ... done
Dispersion correction           -0.055482621
FINAL SINGLE POINT ENERGY      -838.450695305108
Dispersion correction            ... done
Dispersion correction           -0.055484648
FINAL SINGLE POINT ENERGY      -838.450736934620
Dispersion correction            ... done
                    ***********************HURRAY********************

CARTESIAN COORDINATES (ANGSTROEM)
---------------------------------
  C      2.159376    0.019277   -1.319803
  C      3.453707    0.187663   -0.947514
  C      3.443171    0.737289    0.410299
  C      2.157496    0.941184    0.825267
  O      1.824865    1.366879    2.099056
  C      2.940187    1.524956    2.879091
  C      4.200878    1.341881    2.467195
  O      4.541693    0.953011    1.170506
  C      1.271740    0.489405   -0.217148
  C     -0.101408    0.434103   -0.265927
  C     -1.099181    0.951050    0.635588
  C     -2.325870    0.542683    0.195229
  O     -3.501711    0.874239    0.778763
  C     -3.317716    1.768135    1.836080
  C     -2.116744    2.190290    2.250164
  O     -0.918694    1.807365    1.707051
  C     -2.182171   -0.264884   -1.020060
  C     -0.857646   -0.309460   -1.315572
  H      1.797445   -0.343988   -2.277997
  H      4.353422   -0.030326   -1.519410
  H      2.705621    1.830213    3.898171
  H      5.066617    1.478826    3.110492
  H     -4.251899    2.092691    2.287939
  H     -2.003517    2.889365    3.078365
  H     -3.007312   -0.728834   -1.556402
  H     -0.389020   -0.844711   -2.137314

 Multiplicity           Mult            ....    1
 Number of Electrons    NEL             ....  124
 Basis Dimension        Dim             ....  292

ORBITAL ENERGIES
----------------

  NO   OCC          E(Eh)            E(eV)
   0   2.0000     -19.191597      -522.2299
   1   2.0000     -19.191323      -522.2224
   2   2.0000     -19.176376      -521.8157
   3   2.0000     -19.176137      -521.8092
   4   2.0000     -10.256724      -279.0996
   5   2.0000     -10.256508      -279.0938
   6   2.0000     -10.252548      -278.9860
   7   2.0000     -10.252506      -278.9849
   8   2.0000     -10.247438      -278.8470
   9   2.0000     -10.247109      -278.8380
  10   2.0000     -10.234310      -278.4897
  11   2.0000     -10.234156      -278.4855
  12   2.0000     -10.220776      -278.1215
  13   2.0000     -10.220313      -278.1089
  14   2.0000     -10.201387      -277.5938
  15   2.0000     -10.201301      -277.5915
  16   2.0000     -10.199361      -277.5387
  17   2.0000     -10.199046      -277.5302
  18   2.0000      -1.099767       -29.9262
  19   2.0000      -1.098766       -29.8989
  20   2.0000      -1.062488       -28.9118
  21   2.0000      -1.060142       -28.8479
  22   2.0000      -0.884233       -24.0612
  23   2.0000      -0.863399       -23.4943
  24   2.0000      -0.769335       -20.9347
  25   2.0000      -0.762282       -20.7427
  26   2.0000      -0.753893       -20.5145
  27   2.0000      -0.707383       -19.2489
  28   2.0000      -0.706327       -19.2201
  29   2.0000      -0.682828       -18.5807
  30   2.0000      -0.658401       -17.9160
  31   2.0000      -0.611992       -16.6532
  32   2.0000      -0.594255       -16.1705
  33   2.0000      -0.581422       -15.8213
  34   2.0000      -0.571707       -15.5569
  35   2.0000      -0.555542       -15.1171
  36   2.0000      -0.524117       -14.2619
  37   2.0000      -0.500604       -13.6221
  38   2.0000      -0.486569       -13.2402
  39   2.0000      -0.474653       -12.9160
  40   2.0000      -0.473234       -12.8774
  41   2.0000      -0.472024       -12.8444
  42   2.0000      -0.467496       -12.7212
  43   2.0000      -0.442470       -12.0402
  44   2.0000      -0.430404       -11.7119
  45   2.0000      -0.428164       -11.6509
  46   2.0000      -0.415653       -11.3105
  47   2.0000      -0.415069       -11.2946
  48   2.0000      -0.407114       -11.0781
  49   2.0000      -0.402065       -10.9407
  50   2.0000      -0.401247       -10.9185
  51   2.0000      -0.398815       -10.8523
  52   2.0000      -0.381205       -10.3731
  53   2.0000      -0.373294       -10.1579
  54   2.0000      -0.347702        -9.4615
  55   2.0000      -0.342338        -9.3155
  56   2.0000      -0.329744        -8.9728
  57   2.0000      -0.267251        -7.2723
  58   2.0000      -0.256801        -6.9879
  59   2.0000      -0.250252        -6.8097
  60   2.0000      -0.183726        -4.9995
  61   2.0000      -0.178874        -4.8674
  62   0.0000      -0.112556        -3.0628
  63   0.0000      -0.000477        -0.0130
  64   0.0000       0.017806         0.4845
  65   0.0000       0.027210         0.7404
  66   0.0000       0.057676         1.5694

MULLIKEN ATOMIC CHARGES
-----------------------
   0 C :   -0.002196
   1 C :   -0.002607
   2 C :    0.142149
   3 C :    0.095278
   4 O :   -0.263109
   5 C :    0.157160
   6 C :    0.111136
   7 O :   -0.250236
   8 C :    0.010764
   9 C :    0.004150
  10 C :    0.099172
  11 C :    0.136496
  12 O :   -0.251634
  13 C :    0.119772
  14 C :    0.151082
  15 O :   -0.263263
  16 C :    0.006154
  17 C :   -0.008843
  18 H :   -0.017290
  19 H :   -0.013949
  20 H :    0.016651
  21 H :    0.018729
  22 H :    0.015547
  23 H :    0.019038
  24 H :   -0.014747
  25 H :   -0.015403
Sum of atomic charges:    0.0000000

LOEWDIN ATOMIC CHARGES
----------------------
   0 C :   -0.018484
   1 C :   -0.029941
   2 C :    0.040638
   3 C :   -0.026319
   4 O :   -0.071604
   5 C :    0.034793
   6 C :    0.004598
   7 O :   -0.061146
   8 C :    0.005161
   9 C :    0.005085
  10 C :   -0.026071
  11 C :    0.040596
  12 O :   -0.062311
  13 C :    0.006361
  14 C :    0.033540
  15 O :   -0.071758
  16 C :   -0.029524
  17 C :   -0.019593
  18 H :    0.024924
  19 H :    0.031218
  20 H :    0.034566
  21 H :    0.032338
  22 H :    0.031754
  23 H :    0.034897
  24 H :    0.031105
  25 H :    0.025175

  Mayer bond orders larger than 0.100000
B(  0-C ,  1-C ) :   1.6309 B(  0-C ,  8-C ) :   1.0620 B(  0-C , 18-H ) :   0.9976
B(  1-C ,  2-C ) :   1.0846 B(  1-C , 19-H ) :   1.0145 B(  2-C ,  3-C ) :   1.5100
B(  2-C ,  7-O ) :   1.0975 B(  3-C ,  4-O ) :   1.0393 B(  3-C ,  8-C ) :   1.1660
B(  4-O ,  5-C ) :   1.0567 B(  5-C ,  6-C ) :   1.7934 B(  5-C , 20-H ) :   0.9747
B(  6-C ,  7-O ) :   0.9866 B(  6-C , 21-H ) :   0.9765 B(  8-C ,  9-C ) :   1.4459
B(  9-C , 10-C ) :   1.1656 B(  9-C , 17-C ) :   1.0605 B( 10-C , 11-C ) :   1.5086
B( 10-C , 15-O ) :   1.0393 B( 11-C , 12-O ) :   1.0974 B( 11-C , 16-C ) :   1.0859
B( 12-O , 13-C ) :   0.9866 B( 13-C , 14-C ) :   1.7899 B( 13-C , 22-H ) :   0.9766
B( 14-C , 15-O ) :   1.0555 B( 14-C , 23-H ) :   0.9775 B( 16-C , 17-C ) :   1.6328
B( 16-C , 24-H ) :   1.0136 B( 17-C , 25-H ) :   0.9992

Dispersion correction           -0.055484179
FINAL SINGLE POINT ENERGY      -838.450765359701

DIPOLE MOMENT
-------------
                                X             Y             Z
Electronic contribution:     -0.04808       0.78870       1.08708
Nuclear contribution   :      0.03559      -0.68794      -0.81330
                        -----------------------------------------
Total Dipole Moment    :     -0.01249       0.10075       0.27379
                        -----------------------------------------
Magnitude (a.u.)       :      0.29201
Magnitude (Debye)      :      0.74222

Rotational constants in cm-1:     0.030555     0.009953     0.007586
Rotational constants in MHz :   916.007815   298.385661   227.416145

                             ****ORCA TERMINATED NORMALLY****
TOTAL RUN TIME: 0 days 0 hours 37 minutes 49 seconds 290 msec
