                         Program Version 4.2.0 -  RELEASE  -
|  1> # ORCA input file
|  2> # SCF done        -34.841026108941          0.000523768407
|  3> ! B3LYP/G D3BJ Opt RIJCOSX def2-SVP def2/J
|  4> * xyz 0 1
|  5>    C        1.47759         1.14705         0.31225
|  6>    S        2.70489        -0.05417         0.37113
|  7>    C        1.54691        -1.28768         0.05538
|  8>    C        0.28957        -0.79497        -0.08889
|  9>    C        0.24864         0.62019         0.06073
| 10>    C       -1.01159         1.42793        -0.02921
| 11>    C       -1.24218         2.21360         1.26132
| 12>    O       -1.42038         3.40472         1.23687
| 13>    C       -1.25260         1.42601         2.54375
| 14>    C       -2.23470         0.55683        -0.38158
| 15>    C       -2.16130        -0.86035         0.17940
| 16>    C       -0.94224        -1.58863        -0.38159
| 17>    H        1.73332         2.17619         0.46893
| 18>    H        1.86784        -2.30829        -0.00899
| 19>    H       -0.89505         2.18569        -0.81360
| 20>    H       -2.23004         0.95903         2.65743
| 21>    H       -1.09754         2.09643         3.38555
| 22>    H       -0.49192         0.65092         2.53576
| 23>    H       -2.30232         0.48891        -1.46972
| 24>    H       -3.13971         1.05607        -0.02863
| 25>    H       -3.07035        -1.39968        -0.09417
| 26>    H       -2.09995        -0.84194         1.26756
| 27>    H       -1.05076        -1.69747        -1.46554
| 28>    H       -0.85713        -2.59036         0.04376
| 29> *
| 30>
| 31>                          ****END OF INPUT****
 Total Charge           Charge          ....    0
 Multiplicity           Mult            ....    1
 Number of Electrons    NEL             ....   96
Dispersion correction           -0.052109143
FINAL SINGLE POINT ENERGY      -861.302908662049
Dispersion correction            ... done
Dispersion correction           -0.051468630
FINAL SINGLE POINT ENERGY      -861.305960611083
Dispersion correction            ... done
Dispersion correction           -0.051492539
FINAL SINGLE POINT ENERGY      -861.306141997506
Dispersion correction            ... done
FINAL SINGLE POINT ENERGY      -861.305977246579
FINAL SINGLE POINT ENERGY      -861.306004578397
FINAL SINGLE POINT ENERGY      -861.306075897097
FINAL SINGLE POINT ENERGY      -861.306078746998
Dispersion correction            ... done
Dispersion correction           -0.051601890
FINAL SINGLE POINT ENERGY      -861.306119535942
Dispersion correction            ... done
Dispersion correction           -0.051598612
FINAL SINGLE POINT ENERGY      -861.306121790965
Dispersion correction            ... done
                    ***********************HURRAY********************

CARTESIAN COORDINATES (ANGSTROEM)
---------------------------------
  C      1.492263    1.208110    0.219969
  S      2.721184    0.005132    0.369571
  C      1.572898   -1.264942    0.122493
  C      0.299893   -0.783225   -0.071735
  C      0.253807    0.652769   -0.009083
  C     -1.037309    1.441051   -0.044867
  C     -1.170416    2.198727    1.286310
  O     -1.185270    3.410013    1.301672
  C     -1.251178    1.388164    2.565361
  C     -2.265489    0.559738   -0.391009
  C     -2.201795   -0.880779    0.131513
  C     -0.934130   -1.601136   -0.348288
  H      1.734060    2.263540    0.339294
  H      1.900120   -2.303862    0.118549
  H     -0.966054    2.244111   -0.793115
  H     -2.275119    0.996264    2.681863
  H     -1.026104    2.040984    3.418978
  H     -0.569829    0.526173    2.547481
  H     -2.349723    0.524648   -1.490567
  H     -3.181272    1.059073   -0.034185
  H     -3.090436   -1.430592   -0.218697
  H     -2.238166   -0.895775    1.233474
  H     -1.014316   -1.778475   -1.437062
  H     -0.848619   -2.593680    0.119980

 Multiplicity           Mult            ....    1
 Number of Electrons    NEL             ....   96
 Basis Dimension        Dim             ....  232

ORBITAL ENERGIES
----------------

  NO   OCC          E(Eh)            E(eV)
   0   2.0000     -88.874353     -2418.3941
   1   2.0000     -19.121060      -520.3105
   2   2.0000     -10.271787      -279.5095
   3   2.0000     -10.209814      -277.8232
   4   2.0000     -10.209772      -277.8220
   5   2.0000     -10.201695      -277.6022
   6   2.0000     -10.200734      -277.5761
   7   2.0000     -10.199152      -277.5330
   8   2.0000     -10.198677      -277.5201
   9   2.0000     -10.197510      -277.4884
  10   2.0000     -10.197064      -277.4762
  11   2.0000     -10.190287      -277.2918
  12   2.0000      -7.969418      -216.8589
  13   2.0000      -5.937495      -161.5675
  14   2.0000      -5.933313      -161.4537
  15   2.0000      -5.930971      -161.3899
  16   2.0000      -1.029188       -28.0056
  17   2.0000      -0.885474       -24.0950
  18   2.0000      -0.822928       -22.3930
  19   2.0000      -0.775893       -21.1131
  20   2.0000      -0.734796       -19.9948
  21   2.0000      -0.728227       -19.8161
  22   2.0000      -0.697307       -18.9747
  23   2.0000      -0.644896       -17.5485
  24   2.0000      -0.594879       -16.1875
  25   2.0000      -0.572927       -15.5901
  26   2.0000      -0.539925       -14.6921
  27   2.0000      -0.508750       -13.8438
  28   2.0000      -0.501206       -13.6385
  29   2.0000      -0.470845       -12.8124
  30   2.0000      -0.454732       -12.3739
  31   2.0000      -0.445604       -12.1255
  32   2.0000      -0.437412       -11.9026
  33   2.0000      -0.430457       -11.7133
  34   2.0000      -0.411044       -11.1851
  35   2.0000      -0.405183       -11.0256
  36   2.0000      -0.402976       -10.9655
  37   2.0000      -0.397987       -10.8298
  38   2.0000      -0.392278       -10.6744
  39   2.0000      -0.364295        -9.9130
  40   2.0000      -0.360721        -9.8157
  41   2.0000      -0.343575        -9.3491
  42   2.0000      -0.342520        -9.3204
  43   2.0000      -0.332958        -9.0602
  44   2.0000      -0.332157        -9.0385
  45   2.0000      -0.258739        -7.0406
  46   2.0000      -0.240464        -6.5434
  47   2.0000      -0.232774        -6.3341
  48   0.0000      -0.024495        -0.6665
  49   0.0000      -0.016480        -0.4484
  50   0.0000       0.040769         1.1094
  51   0.0000       0.047713         1.2983
  52   0.0000       0.053926         1.4674

MULLIKEN ATOMIC CHARGES
-----------------------
   0 C :   -0.130383
   1 S :    0.103200
   2 C :   -0.144857
   3 C :   -0.045628
   4 C :   -0.048440
   5 C :    0.102212
   6 C :   -0.047559
   7 O :   -0.195274
   8 C :    0.061266
   9 C :    0.046788
  10 C :    0.003637
  11 C :    0.146097
  12 H :    0.025583
  13 H :    0.011458
  14 H :   -0.006968
  15 H :    0.033302
  16 H :    0.024805
  17 H :    0.041869
  18 H :    0.009419
  19 H :    0.003135
  20 H :   -0.002595
  21 H :    0.002960
  22 H :    0.014072
  23 H :   -0.008097
Sum of atomic charges:    0.0000000

LOEWDIN ATOMIC CHARGES
----------------------
   0 C :   -0.196804
   1 S :    0.432533
   2 C :   -0.202748
   3 C :   -0.069154
   4 C :   -0.068585
   5 C :   -0.047163
   6 C :    0.089107
   7 O :   -0.150198
   8 C :   -0.077058
   9 C :   -0.019641
  10 C :   -0.032081
  11 C :   -0.021428
  12 H :    0.026988
  13 H :    0.021895
  14 H :    0.038519
  15 H :    0.043010
  16 H :    0.037278
  17 H :    0.037802
  18 H :    0.028423
  19 H :    0.024996
  20 H :    0.025336
  21 H :    0.018894
  22 H :    0.031786
  23 H :    0.028291

  Mayer bond orders larger than 0.100000
B(  0-C ,  1-S ) :   1.1710 B(  0-C ,  4-C ) :   1.5408 B(  0-C , 12-H ) :   0.9600
B(  1-S ,  2-C ) :   1.1618 B(  2-C ,  3-C ) :   1.5494 B(  2-C , 13-H ) :   0.9646
B(  3-C ,  4-C ) :   1.2815 B(  3-C , 11-C ) :   1.0490 B(  4-C ,  5-C ) :   0.9847
B(  5-C ,  6-C ) :   0.9332 B(  5-C ,  9-C ) :   1.0414 B(  5-C , 14-H ) :   0.8635
B(  6-C ,  7-O ) :   2.1719 B(  6-C ,  8-C ) :   1.0327 B(  8-C , 15-H ) :   0.9328
B(  8-C , 16-H ) :   0.9441 B(  8-C , 17-H ) :   0.9451 B(  9-C , 10-C ) :   1.0757
B(  9-C , 18-H ) :   0.9321 B(  9-C , 19-H ) :   0.9360 B( 10-C , 11-C ) :   1.0865
B( 10-C , 20-H ) :   0.9270 B( 10-C , 21-H ) :   0.9408 B( 11-C , 22-H ) :   0.9160
B( 11-C , 23-H ) :   0.9155

Dispersion correction           -0.051599072
FINAL SINGLE POINT ENERGY      -861.306125506922

DIPOLE MOMENT
-------------
                                X             Y             Z
Electronic contribution:     12.32990       3.80397      -1.15644
Nuclear contribution   :    -12.61731      -4.97835       1.05507
                        -----------------------------------------
Total Dipole Moment    :     -0.28741      -1.17438      -0.10137
                        -----------------------------------------
Magnitude (a.u.)       :      1.21328
Magnitude (Debye)      :      3.08391

Rotational constants in cm-1:     0.038548     0.024363     0.017409
Rotational constants in MHz :  1155.643632   730.393681   521.895796

                             ****ORCA TERMINATED NORMALLY****
TOTAL RUN TIME: 0 days 0 hours 17 minutes 37 seconds 702 msec
