                         Program Version 4.2.0 -  RELEASE  -
|  1> # ORCA input file
|  2> # SCF done        -29.597927641963          0.000931537029
|  3> ! B3LYP/G D3BJ Opt RIJCOSX def2-SVP def2/J
|  4> * xyz 0 1
|  5>    C       -1.49306        -1.24284         0.10948
|  6>    S       -2.67819        -0.02397         0.21280
|  7>    C       -1.50888         1.22178         0.16989
|  8>    C       -0.23129         0.72457         0.07807
|  9>    C       -0.21945        -0.71719         0.04257
| 10>    C        1.01046        -1.40170        -0.05087
| 11>    C        2.17800        -0.68266        -0.10541
| 12>    C        3.46649        -1.37140        -0.20041
| 13>    O        4.54592        -0.83609        -0.24684
| 14>    C        2.15919         0.74364        -0.06953
| 15>    C        0.99636         1.43513         0.01898
| 16>    H       -1.78195        -2.27454         0.10277
| 17>    H       -1.81829         2.24644         0.21401
| 18>    H        1.02041        -2.48179        -0.07794
| 19>    H        3.37734        -2.47682        -0.23018
| 20>    H        3.11258         1.24754        -0.11583
| 21>    H        0.98151         2.51389         0.04594
| 22> *
| 23>
| 24>                          ****END OF INPUT****
 Total Charge           Charge          ....    0
 Multiplicity           Mult            ....    1
 Number of Electrons    NEL             ....   84
Dispersion correction           -0.038152443
FINAL SINGLE POINT ENERGY      -819.588368953166
Dispersion correction            ... done
Dispersion correction           -0.038006019
FINAL SINGLE POINT ENERGY      -819.590798728313
Dispersion correction            ... done
Dispersion correction           -0.037982579
FINAL SINGLE POINT ENERGY      -819.590865926316
Dispersion correction            ... done
FINAL SINGLE POINT ENERGY      -819.590769743524
FINAL SINGLE POINT ENERGY      -819.590848485415
Dispersion correction            ... done
Dispersion correction           -0.037986504
FINAL SINGLE POINT ENERGY      -819.590847802598
Dispersion correction            ... done
Dispersion correction           -0.037979419
FINAL SINGLE POINT ENERGY      -819.590862865848
Dispersion correction            ... done
                    ***********************HURRAY********************

CARTESIAN COORDINATES (ANGSTROEM)
---------------------------------
  C     -1.507766   -1.259516    0.112292
  S     -2.695060   -0.031714    0.210590
  C     -1.536334    1.235133    0.164557
  C     -0.243145    0.736694    0.077396
  C     -0.226914   -0.718603    0.044893
  C      1.021353   -1.398353   -0.046401
  C      2.191986   -0.674154   -0.098215
  C      3.476203   -1.397132   -0.208126
  O      4.563517   -0.872659   -0.291339
  C      2.175560    0.765016   -0.058365
  C      0.997925    1.453938    0.023767
  H     -1.792146   -2.309973    0.101885
  H     -1.854678    2.275094    0.203244
  H      1.049276   -2.491547   -0.079444
  H      3.374601   -2.514710   -0.214123
  H      3.137188    1.280120   -0.097831
  H      0.985583    2.546356    0.052720

 Multiplicity           Mult            ....    1
 Number of Electrons    NEL             ....   84
 Basis Dimension        Dim             ....  188

ORBITAL ENERGIES
----------------

  NO   OCC          E(Eh)            E(eV)
   0   2.0000     -88.900539     -2419.1067
   1   2.0000     -19.128626      -520.5164
   2   2.0000     -10.272306      -279.5236
   3   2.0000     -10.229303      -278.3535
   4   2.0000     -10.225308      -278.2448
   5   2.0000     -10.218106      -278.0488
   6   2.0000     -10.215355      -277.9739
   7   2.0000     -10.214187      -277.9421
   8   2.0000     -10.206418      -277.7308
   9   2.0000     -10.204640      -277.6824
  10   2.0000     -10.200848      -277.5792
  11   2.0000      -7.995153      -217.5592
  12   2.0000      -5.962795      -162.2559
  13   2.0000      -5.958626      -162.1425
  14   2.0000      -5.957685      -162.1169
  15   2.0000      -1.031393       -28.0656
  16   2.0000      -0.905607       -24.6428
  17   2.0000      -0.844328       -22.9753
  18   2.0000      -0.777914       -21.1681
  19   2.0000      -0.752689       -20.4817
  20   2.0000      -0.716160       -19.4877
  21   2.0000      -0.644781       -17.5454
  22   2.0000      -0.618341       -16.8259
  23   2.0000      -0.588020       -16.0008
  24   2.0000      -0.557463       -15.1693
  25   2.0000      -0.518160       -14.0999
  26   2.0000      -0.498798       -13.5730
  27   2.0000      -0.482226       -13.1220
  28   2.0000      -0.446610       -12.1529
  29   2.0000      -0.436544       -11.8790
  30   2.0000      -0.430608       -11.7174
  31   2.0000      -0.423460       -11.5229
  32   2.0000      -0.422936       -11.5087
  33   2.0000      -0.399333       -10.8664
  34   2.0000      -0.388340       -10.5673
  35   2.0000      -0.368464       -10.0264
  36   2.0000      -0.356071        -9.6892
  37   2.0000      -0.343625        -9.3505
  38   2.0000      -0.302295        -8.2259
  39   2.0000      -0.264384        -7.1943
  40   2.0000      -0.258056        -7.0221
  41   2.0000      -0.222894        -6.0653
  42   0.0000      -0.083401        -2.2695
  43   0.0000      -0.039348        -1.0707
  44   0.0000       0.009527         0.2592
  45   0.0000       0.036882         1.0036
  46   0.0000       0.050726         1.3803

MULLIKEN ATOMIC CHARGES
-----------------------
   0 C :   -0.131545
   1 S :    0.150811
   2 C :   -0.140609
   3 C :    0.099021
   4 C :    0.099788
   5 C :   -0.033263
   6 C :   -0.003852
   7 C :    0.153978
   8 O :   -0.192628
   9 C :    0.018517
  10 C :    0.007457
  11 H :    0.024952
  12 H :    0.023069
  13 H :   -0.023589
  14 H :   -0.027154
  15 H :   -0.005437
  16 H :   -0.019516
Sum of atomic charges:   -0.0000000

LOEWDIN ATOMIC CHARGES
----------------------
   0 C :   -0.199312
   1 S :    0.495673
   2 C :   -0.206689
   3 C :   -0.045340
   4 C :   -0.054943
   5 C :    0.012666
   6 C :   -0.083537
   7 C :    0.102609
   8 O :   -0.142303
   9 C :   -0.005293
  10 C :   -0.014271
  11 H :    0.028006
  12 H :    0.027313
  13 H :    0.029751
  14 H :   -0.009998
  15 H :    0.034337
  16 H :    0.031330

  Mayer bond orders larger than 0.100000
B(  0-C ,  1-S ) :   1.2217 B(  0-C ,  2-C ) :   0.1108 B(  0-C ,  4-C ) :   1.3912
B(  0-C , 11-H ) :   0.9652 B(  1-S ,  2-C ) :   1.1981 B(  2-C ,  3-C ) :   1.4196
B(  2-C , 12-H ) :   0.9648 B(  3-C ,  4-C ) :   1.1957 B(  3-C , 10-C ) :   1.1598
B(  4-C ,  5-C ) :   1.1786 B(  5-C ,  6-C ) :   1.4642 B(  5-C , 13-H ) :   0.9950
B(  6-C ,  7-C ) :   0.9849 B(  6-C ,  9-C ) :   1.1729 B(  7-C ,  8-O ) :   2.1375
B(  7-C , 14-H ) :   0.9424 B(  9-C , 10-C ) :   1.5517 B(  9-C , 15-H ) :   0.9852
B( 10-C , 16-H ) :   0.9975

Dispersion correction           -0.037979402
FINAL SINGLE POINT ENERGY      -819.590861149012

DIPOLE MOMENT
-------------
                                X             Y             Z
Electronic contribution:     -3.89650      -0.01778       0.22644
Nuclear contribution   :      2.39534      -0.06807      -0.11797
                        -----------------------------------------
Total Dipole Moment    :     -1.50116      -0.08584       0.10846
                        -----------------------------------------
Magnitude (a.u.)       :      1.50752
Magnitude (Debye)      :      3.83181

Rotational constants in cm-1:     0.107451     0.018149     0.015527
Rotational constants in MHz :  3221.301336   544.085185   465.483202

                             ****ORCA TERMINATED NORMALLY****
TOTAL RUN TIME: 0 days 0 hours 8 minutes 39 seconds 998 msec
