                         Program Version 4.2.0 -  RELEASE  -
|  1> # ORCA input file
|  2> # SCF done        -29.106427196974          0.000707497748
|  3> ! B3LYP/G D3BJ Opt RIJCOSX def2-SVP def2/J
|  4> * xyz 0 1
|  5>    C       -0.40489        -1.32795         0.06295
|  6>    S        1.27494        -0.81862        -0.46133
|  7>    C        1.01572         0.79678         0.02449
|  8>    C       -0.39355         1.11593         0.12166
|  9>    N       -0.77192         2.36889         0.20160
| 10>    N       -2.01953         2.71619         0.44819
| 11>    C       -1.20691        -0.06061         0.14873
| 12>    S       -2.84589        -0.20572         0.27245
| 13>    C        2.15166         1.64589         0.16732
| 14>    C        2.14046         2.95146         0.44769
| 15>    H       -0.31598        -1.77957         1.05449
| 16>    H       -0.82977        -2.05850        -0.62341
| 17>    H        0.90496        -0.99146        -1.84790
| 18>    H       -2.20022         3.70402         0.39466
| 19>    H       -2.78069         2.04299         0.44601
| 20>    H        3.09915         1.12892         0.05691
| 21>    H        1.21957         3.49308         0.54654
| 22>    H        3.05990         3.49260         0.58460
| 23> *
| 24>
| 25>                          ****END OF INPUT****
 Total Charge           Charge          ....    0
 Multiplicity           Mult            ....    1
 Number of Electrons    NEL             ....   90
Dispersion correction           -0.041038658
FINAL SINGLE POINT ENERGY     -1138.756345963779
Dispersion correction            ... done
Dispersion correction           -0.040645877
FINAL SINGLE POINT ENERGY     -1138.759603018237
Dispersion correction            ... done
Dispersion correction           -0.040597136
FINAL SINGLE POINT ENERGY     -1138.759973925392
Dispersion correction            ... done
FINAL SINGLE POINT ENERGY     -1138.760102901153
FINAL SINGLE POINT ENERGY     -1138.760157927784
FINAL SINGLE POINT ENERGY     -1138.760215656652
FINAL SINGLE POINT ENERGY     -1138.760167012083
FINAL SINGLE POINT ENERGY     -1138.760167664291
FINAL SINGLE POINT ENERGY     -1138.760184899452
Dispersion correction            ... done
Dispersion correction           -0.040619340
FINAL SINGLE POINT ENERGY     -1138.760142773100
Dispersion correction            ... done
Dispersion correction           -0.040621380
FINAL SINGLE POINT ENERGY     -1138.760167328890
Dispersion correction            ... done
                    ***********************HURRAY********************

CARTESIAN COORDINATES (ANGSTROEM)
---------------------------------
  C     -0.411255   -1.339593    0.061724
  S      1.254270   -0.795579   -0.496900
  C      1.019414    0.785743    0.090683
  C     -0.414449    1.116558    0.122204
  N     -0.805673    2.377883    0.204979
  N     -2.072839    2.710301    0.287285
  C     -1.246766   -0.071045    0.143122
  S     -2.890324   -0.221485    0.305406
  C      2.167735    1.645504    0.202322
  C      2.200143    2.977433    0.429454
  H     -0.287069   -1.780407    1.062995
  H     -0.831283   -2.086383   -0.624618
  H      0.883809   -0.953878   -1.880746
  H     -2.243411    3.682868    0.515655
  H     -2.801889    2.000886    0.430660
  H      3.128760    1.119435    0.121893
  H      1.287461    3.565870    0.503641
  H      3.160376    3.480207    0.565891

 Multiplicity           Mult            ....    1
 Number of Electrons    NEL             ....   90
 Basis Dimension        Dim             ....  188

ORBITAL ENERGIES
----------------

  NO   OCC          E(Eh)            E(eV)
   0   2.0000     -88.940293     -2420.1884
   1   2.0000     -88.828197     -2417.1381
   2   2.0000     -14.379198      -391.2779
   3   2.0000     -14.364642      -390.8818
   4   2.0000     -10.262309      -279.2516
   5   2.0000     -10.251448      -278.9561
   6   2.0000     -10.229607      -278.3617
   7   2.0000     -10.191570      -277.3267
   8   2.0000     -10.180268      -277.0192
   9   2.0000     -10.149434      -276.1801
  10   2.0000      -8.029009      -218.4804
  11   2.0000      -7.923355      -215.6054
  12   2.0000      -5.995694      -163.1511
  13   2.0000      -5.995339      -163.1415
  14   2.0000      -5.990808      -163.0182
  15   2.0000      -5.891173      -160.3070
  16   2.0000      -5.889757      -160.2684
  17   2.0000      -5.882715      -160.0768
  18   2.0000      -1.009739       -27.4764
  19   2.0000      -0.901540       -24.5322
  20   2.0000      -0.811546       -22.0833
  21   2.0000      -0.799185       -21.7469
  22   2.0000      -0.745015       -20.2729
  23   2.0000      -0.696345       -18.9485
  24   2.0000      -0.675334       -18.3768
  25   2.0000      -0.609145       -16.5757
  26   2.0000      -0.585067       -15.9205
  27   2.0000      -0.555650       -15.1200
  28   2.0000      -0.525634       -14.3032
  29   2.0000      -0.498970       -13.5777
  30   2.0000      -0.474596       -12.9144
  31   2.0000      -0.454501       -12.3676
  32   2.0000      -0.448209       -12.1964
  33   2.0000      -0.429222       -11.6797
  34   2.0000      -0.416812       -11.3420
  35   2.0000      -0.390790       -10.6339
  36   2.0000      -0.378717       -10.3054
  37   2.0000      -0.360299        -9.8042
  38   2.0000      -0.343573        -9.3491
  39   2.0000      -0.320459        -8.7201
  40   2.0000      -0.292556        -7.9609
  41   2.0000      -0.288406        -7.8479
  42   2.0000      -0.239124        -6.5069
  43   2.0000      -0.226266        -6.1570
  44   2.0000      -0.163810        -4.4575
  45   0.0000      -0.096824        -2.6347
  46   0.0000      -0.027078        -0.7368
  47   0.0000       0.004183         0.1138
  48   0.0000       0.037398         1.0177
  49   0.0000       0.061800         1.6817

MULLIKEN ATOMIC CHARGES
-----------------------
   0 C :    0.036623
   1 S :    0.250399
   2 C :   -0.261277
   3 C :    0.111837
   4 N :   -0.091733
   5 N :   -0.016129
   6 C :   -0.173453
   7 S :   -0.168575
   8 C :    0.010526
   9 C :   -0.052374
  10 H :    0.087911
  11 H :    0.063449
  12 H :   -0.014537
  13 H :    0.134830
  14 H :    0.113179
  15 H :   -0.035327
  16 H :    0.008329
  17 H :   -0.003678
Sum of atomic charges:   -0.0000000

LOEWDIN ATOMIC CHARGES
----------------------
   0 C :   -0.122951
   1 S :    0.689597
   2 C :   -0.335430
   3 C :   -0.104133
   4 N :   -0.025774
   5 N :    0.072551
   6 C :   -0.162782
   7 S :    0.029578
   8 C :   -0.058521
   9 C :   -0.109509
  10 H :    0.049517
  11 H :    0.034918
  12 H :   -0.089047
  13 H :    0.073322
  14 H :    0.014533
  15 H :    0.017227
  16 H :    0.013035
  17 H :    0.013868

  Mayer bond orders larger than 0.100000
B(  0-C ,  1-S ) :   0.9559 B(  0-C ,  6-C ) :   1.0007 B(  0-C , 10-H ) :   0.9120
B(  0-C , 11-H ) :   0.9309 B(  1-S ,  2-C ) :   1.1394 B(  1-S , 12-H ) :   0.7179
B(  2-C ,  3-C ) :   1.0158 B(  2-C ,  8-C ) :   1.1917 B(  2-C , 12-H ) :   0.1197
B(  3-C ,  4-N ) :   1.6257 B(  3-C ,  6-C ) :   1.1809 B(  4-N ,  5-N ) :   1.2340
B(  5-N , 13-H ) :   0.9500 B(  5-N , 14-H ) :   0.8881 B(  6-C ,  7-S ) :   1.6122
B(  7-S , 14-H ) :   0.1337 B(  8-C ,  9-C ) :   1.8808 B(  8-C , 15-H ) :   0.9363
B(  9-C , 16-H ) :   0.9380 B(  9-C , 17-H ) :   0.9361

Dispersion correction           -0.040623663
FINAL SINGLE POINT ENERGY     -1138.760168678660

DIPOLE MOMENT
-------------
                                X             Y             Z
Electronic contribution:     -4.65968      -4.51266      -0.19231
Nuclear contribution   :      4.37891       3.80004       0.05177
                        -----------------------------------------
Total Dipole Moment    :     -0.28076      -0.71262      -0.14054
                        -----------------------------------------
Magnitude (a.u.)       :      0.77872
Magnitude (Debye)      :      1.97936

Rotational constants in cm-1:     0.044967     0.028812     0.017941
Rotational constants in MHz :  1348.071082   863.755176   537.850123

                             ****ORCA TERMINATED NORMALLY****
TOTAL RUN TIME: 0 days 0 hours 13 minutes 18 seconds 215 msec
