                         Program Version 4.2.0 -  RELEASE  -
|  1> # ORCA input file
|  2> # SCF done        -42.409940795059          0.000845944032
|  3> ! B3LYP/G D3BJ Opt RIJCOSX def2-SVP def2/J
|  4> * xyz 0 1
|  5>    C       -0.86834         1.30882         0.30017
|  6>    S       -2.09950         0.12843         0.24163
|  7>    C       -0.99213        -1.18045        -0.00057
|  8>    C        0.30849        -0.69006        -0.02927
|  9>    C        0.37106         0.73806         0.13981
| 10>    N        1.55791         1.39212         0.12521
| 11>    C        2.63014         0.67085        -0.03916
| 12>    C        3.94703         1.40719        -0.06368
| 13>    N        3.84454         2.84514         0.06302
| 14>    C        2.57142        -0.75923        -0.19208
| 15>    C        3.82664        -1.57975        -0.36199
| 16>    N        3.61311        -3.00562        -0.48565
| 17>    N        1.44124        -1.41048        -0.18950
| 18>    C       -1.48687        -2.51860        -0.14607
| 19>    C       -0.71794        -3.58818        -0.34622
| 20>    H       -1.10767         2.34225         0.44490
| 21>    H        4.46416         1.18021        -1.00276
| 22>    H        4.57677         1.03442         0.75242
| 23>    H        3.26749         3.20934        -0.68889
| 24>    H        3.36330         3.07325         0.92742
| 25>    H        4.48441        -1.40402         0.49690
| 26>    H        4.35946        -1.23404        -1.25511
| 27>    H        3.12275        -3.34639         0.33530
| 28>    H        3.01136        -3.18944        -1.28237
| 29>    H       -2.56412        -2.61577        -0.09009
| 30>    H        0.35138        -3.49707        -0.40336
| 31>    H       -1.14191        -4.57073        -0.45315
| 32> *
| 33>
| 34>                          ****END OF INPUT****
 Total Charge           Charge          ....    0
 Multiplicity           Mult            ....    1
 Number of Electrons    NEL             ....  116
Dispersion correction           -0.058372941
FINAL SINGLE POINT ENERGY     -1004.947734444103
Dispersion correction            ... done
Dispersion correction           -0.057880817
FINAL SINGLE POINT ENERGY     -1004.951508786359
Dispersion correction            ... done
Dispersion correction           -0.057860577
FINAL SINGLE POINT ENERGY     -1004.951814725245
Dispersion correction            ... done
FINAL SINGLE POINT ENERGY     -1004.951822774204
Dispersion correction            ... done
Dispersion correction           -0.057898525
FINAL SINGLE POINT ENERGY     -1004.951881495018
Dispersion correction            ... done
Dispersion correction           -0.057895997
FINAL SINGLE POINT ENERGY     -1004.951895574586
Dispersion correction            ... done
                    ***********************HURRAY********************

CARTESIAN COORDINATES (ANGSTROEM)
---------------------------------
  C     -0.904903    1.332878    0.240397
  S     -2.125834    0.131425    0.187157
  C     -1.013757   -1.185726   -0.015808
  C      0.294769   -0.680999   -0.041832
  C      0.352359    0.756516    0.108859
  N      1.547941    1.414829    0.111712
  C      2.627190    0.692313   -0.037177
  C      3.965562    1.416437   -0.029753
  N      3.903993    2.853639    0.124818
  C      2.570214   -0.757591   -0.204956
  C      3.845328   -1.562941   -0.405422
  N      3.677441   -2.992237   -0.546815
  N      1.436000   -1.407773   -0.199585
  C     -1.516205   -2.541777   -0.131950
  C     -0.769406   -3.653257   -0.260081
  H     -1.145890    2.384870    0.374215
  H      4.507709    1.170118   -0.961185
  H      4.592460    0.986032    0.773230
  H      3.313573    3.236578   -0.614819
  H      3.384776    3.065396    0.978528
  H      4.532535   -1.355018    0.434569
  H      4.370999   -1.165325   -1.293704
  H      3.184033   -3.353880    0.270424
  H      3.040694   -3.177625   -1.323243
  H     -2.607914   -2.637674   -0.107244
  H      0.319972   -3.597912   -0.290734
  H     -1.249459   -4.631046   -0.342738

 Multiplicity           Mult            ....    1
 Number of Electrons    NEL             ....  116
 Basis Dimension        Dim             ....  274

ORBITAL ENERGIES
----------------

  NO   OCC          E(Eh)            E(eV)
   0   2.0000     -88.896595     -2418.9993
   1   2.0000     -14.342416      -390.2770
   2   2.0000     -14.341216      -390.2443
   3   2.0000     -14.307300      -389.3214
   4   2.0000     -14.304442      -389.2437
   5   2.0000     -10.241249      -278.6786
   6   2.0000     -10.241104      -278.6746
   7   2.0000     -10.233061      -278.4557
   8   2.0000     -10.231139      -278.4034
   9   2.0000     -10.228898      -278.3425
  10   2.0000     -10.223932      -278.2073
  11   2.0000     -10.222604      -278.1712
  12   2.0000     -10.222115      -278.1579
  13   2.0000     -10.207811      -277.7687
  14   2.0000     -10.189629      -277.2739
  15   2.0000      -7.991114      -217.4493
  16   2.0000      -5.958730      -162.1453
  17   2.0000      -5.954845      -162.0396
  18   2.0000      -5.953384      -161.9998
  19   2.0000      -0.983033       -26.7497
  20   2.0000      -0.918193       -24.9853
  21   2.0000      -0.894266       -24.3342
  22   2.0000      -0.872251       -23.7351
  23   2.0000      -0.870123       -23.6772
  24   2.0000      -0.787087       -21.4177
  25   2.0000      -0.770165       -20.9573
  26   2.0000      -0.718636       -19.5551
  27   2.0000      -0.702284       -19.1101
  28   2.0000      -0.675734       -18.3876
  29   2.0000      -0.619640       -16.8613
  30   2.0000      -0.613697       -16.6996
  31   2.0000      -0.591975       -16.1085
  32   2.0000      -0.562069       -15.2947
  33   2.0000      -0.538033       -14.6406
  34   2.0000      -0.505262       -13.7489
  35   2.0000      -0.493341       -13.4245
  36   2.0000      -0.490767       -13.3545
  37   2.0000      -0.476604       -12.9690
  38   2.0000      -0.464672       -12.6444
  39   2.0000      -0.445146       -12.1130
  40   2.0000      -0.442173       -12.0321
  41   2.0000      -0.437496       -11.9049
  42   2.0000      -0.425377       -11.5751
  43   2.0000      -0.409925       -11.1546
  44   2.0000      -0.401043       -10.9129
  45   2.0000      -0.393628       -10.7112
  46   2.0000      -0.378779       -10.3071
  47   2.0000      -0.372432       -10.1344
  48   2.0000      -0.363476        -9.8907
  49   2.0000      -0.360690        -9.8149
  50   2.0000      -0.346740        -9.4353
  51   2.0000      -0.316644        -8.6163
  52   2.0000      -0.299523        -8.1504
  53   2.0000      -0.260731        -7.0949
  54   2.0000      -0.258816        -7.0427
  55   2.0000      -0.243612        -6.6290
  56   2.0000      -0.241754        -6.5785
  57   2.0000      -0.215456        -5.8628
  58   0.0000      -0.088737        -2.4147
  59   0.0000      -0.029010        -0.7894
  60   0.0000      -0.000863        -0.0235
  61   0.0000       0.027172         0.7394
  62   0.0000       0.047641         1.2964

MULLIKEN ATOMIC CHARGES
-----------------------
   0 C :   -0.148972
   1 S :    0.152091
   2 C :   -0.175407
   3 C :    0.062094
   4 C :    0.066712
   5 N :   -0.036959
   6 C :   -0.163812
   7 C :    0.150347
   8 N :   -0.171785
   9 C :   -0.154726
  10 C :    0.152174
  11 N :   -0.178027
  12 N :   -0.038425
  13 C :    0.016131
  14 C :   -0.016090
  15 H :    0.015631
  16 H :    0.018843
  17 H :    0.019563
  18 H :    0.088184
  19 H :    0.087478
  20 H :    0.021802
  21 H :    0.018280
  22 H :    0.095503
  23 H :    0.094567
  24 H :   -0.016166
  25 H :    0.022969
  26 H :    0.018000
Sum of atomic charges:   -0.0000000

LOEWDIN ATOMIC CHARGES
----------------------
   0 C :   -0.208274
   1 S :    0.494284
   2 C :   -0.189686
   3 C :   -0.048653
   4 C :   -0.050599
   5 N :   -0.066592
   6 C :   -0.020392
   7 C :    0.004618
   8 N :   -0.098908
   9 C :   -0.019937
  10 C :    0.005810
  11 N :   -0.097184
  12 N :   -0.059820
  13 C :   -0.048672
  14 C :   -0.039174
  15 H :    0.029306
  16 H :    0.030506
  17 H :    0.030966
  18 H :    0.054471
  19 H :    0.054173
  20 H :    0.031286
  21 H :    0.031338
  22 H :    0.054912
  23 H :    0.054773
  24 H :    0.026732
  25 H :    0.020090
  26 H :    0.024625

  Mayer bond orders larger than 0.100000
B(  0-C ,  1-S ) :   1.1846 B(  0-C ,  2-C ) :   0.1208 B(  0-C ,  4-C ) :   1.3858
B(  0-C , 15-H ) :   0.9713 B(  1-S ,  2-C ) :   1.1804 B(  2-C ,  3-C ) :   1.3340
B(  2-C , 13-C ) :   1.1320 B(  3-C ,  4-C ) :   1.1958 B(  3-C , 12-N ) :   1.3532
B(  4-C ,  5-N ) :   1.3272 B(  5-N ,  6-C ) :   1.7580 B(  6-C ,  7-C ) :   0.9899
B(  6-C ,  9-C ) :   1.0730 B(  7-C ,  8-N ) :   1.1750 B(  7-C , 16-H ) :   0.9187
B(  7-C , 17-H ) :   0.9204 B(  8-N , 18-H ) :   0.9720 B(  8-N , 19-H ) :   0.9713
B(  9-C , 10-C ) :   0.9903 B(  9-C , 12-N ) :   1.7398 B( 10-C , 11-N ) :   1.1720
B( 10-C , 20-H ) :   0.9182 B( 10-C , 21-H ) :   0.9191 B( 11-N , 22-H ) :   0.9738
B( 11-N , 23-H ) :   0.9740 B( 13-C , 14-C ) :   1.9090 B( 13-C , 24-H ) :   0.9440
B( 14-C , 25-H ) :   0.9341 B( 14-C , 26-H ) :   0.9391

Dispersion correction           -0.057895904
FINAL SINGLE POINT ENERGY     -1004.951894676840

DIPOLE MOMENT
-------------
                                X             Y             Z
Electronic contribution:    -14.18655       4.42516       1.38087
Nuclear contribution   :     13.51446      -4.37918      -1.33729
                        -----------------------------------------
Total Dipole Moment    :     -0.67209       0.04599       0.04358
                        -----------------------------------------
Magnitude (a.u.)       :      0.67507
Magnitude (Debye)      :      1.71589

Rotational constants in cm-1:     0.024950     0.014347     0.009166
Rotational constants in MHz :   747.970476   430.120422   274.792492

                             ****ORCA TERMINATED NORMALLY****
TOTAL RUN TIME: 0 days 0 hours 15 minutes 39 seconds 837 msec
