                         Program Version 4.2.0 -  RELEASE  -
|  1> # ORCA input file
|  2> # SCF done        -25.408700443823          0.000281480545
|  3> ! B3LYP/G D3BJ Opt RIJCOSX def2-SVP def2/J
|  4> * xyz 0 1
|  5>    C        1.57643        -1.18493         0.00095
|  6>    C        0.28484        -0.76128         0.00045
|  7>    C       -0.95497        -1.46484         0.00120
|  8>    C       -2.11163        -0.76374         0.00056
|  9>    C       -2.12506         0.66957        -0.00106
| 10>    C       -0.98171         1.39223        -0.00191
| 11>    C        0.27101         0.71198        -0.00113
| 12>    C        1.55447         1.15987        -0.00146
| 13>    C        2.43376        -0.00429        -0.00081
| 14>    C        3.77227         0.00769        -0.00080
| 15>    H        1.93957        -2.19503         0.00211
| 16>    H       -0.94779        -2.54537         0.00232
| 17>    H       -3.06271        -1.27707         0.00124
| 18>    H       -3.08556         1.16502        -0.00133
| 19>    H       -0.99486         2.47270        -0.00291
| 20>    H        1.89834         2.17671        -0.00241
| 21>    H        4.32887         0.93057        -0.00047
| 22>    H        4.34477        -0.90543         0.00158
| 23> *
| 24>
| 25>                          ****END OF INPUT****
 Total Charge           Charge          ....    0
 Multiplicity           Mult            ....    1
 Number of Electrons    NEL             ....   68
Dispersion correction           -0.035186645
FINAL SINGLE POINT ENERGY      -385.577879710676
Dispersion correction            ... done
Dispersion correction           -0.035044246
FINAL SINGLE POINT ENERGY      -385.580737281840
Dispersion correction            ... done
Dispersion correction           -0.035025866
FINAL SINGLE POINT ENERGY      -385.580803444904
Dispersion correction            ... done
FINAL SINGLE POINT ENERGY      -385.580812675953
Dispersion correction            ... done
Dispersion correction           -0.035023307
FINAL SINGLE POINT ENERGY      -385.580814300518
Dispersion correction            ... done
Dispersion correction           -0.035024579
FINAL SINGLE POINT ENERGY      -385.580813759570
Dispersion correction            ... done
                    ***********************HURRAY********************

CARTESIAN COORDINATES (ANGSTROEM)
---------------------------------
  C      1.589362   -1.198617    0.001091
  C      0.287258   -0.769517    0.000568
  C     -0.964433   -1.479084    0.001244
  C     -2.130867   -0.773119    0.000450
  C     -2.144279    0.678637   -0.001081
  C     -0.991200    1.406232   -0.001757
  C      0.273480    0.720208   -0.000962
  C      1.567432    1.173280   -0.001311
  C      2.446242   -0.004618   -0.000172
  C      3.796586    0.008120   -0.000201
  H      1.950744   -2.226046    0.002225
  H     -0.965826   -2.572186    0.002470
  H     -3.087393   -1.301477    0.001008
  H     -3.110385    1.189368   -0.001718
  H     -1.013604    2.499079   -0.002964
  H      1.909958    2.207174   -0.002377
  H      4.354707    0.948500   -0.001148
  H      4.372259   -0.921574    0.000754

 Multiplicity           Mult            ....    1
 Number of Electrons    NEL             ....   68
 Basis Dimension        Dim             ....  180

ORBITAL ENERGIES
----------------

  NO   OCC          E(Eh)            E(eV)
   0   2.0000     -10.217763      -278.0395
   1   2.0000     -10.203665      -277.6558
   2   2.0000     -10.192711      -277.3578
   3   2.0000     -10.192559      -277.3536
   4   2.0000     -10.191140      -277.3150
   5   2.0000     -10.191056      -277.3127
   6   2.0000     -10.189785      -277.2781
   7   2.0000     -10.189701      -277.2759
   8   2.0000     -10.179909      -277.0094
   9   2.0000     -10.179857      -277.0080
  10   2.0000      -0.870962       -23.7001
  11   2.0000      -0.814331       -22.1591
  12   2.0000      -0.750923       -20.4337
  13   2.0000      -0.747917       -20.3519
  14   2.0000      -0.681953       -18.5569
  15   2.0000      -0.657592       -17.8940
  16   2.0000      -0.578667       -15.7463
  17   2.0000      -0.565599       -15.3907
  18   2.0000      -0.538768       -14.6606
  19   2.0000      -0.502389       -13.6707
  20   2.0000      -0.476072       -12.9546
  21   2.0000      -0.468667       -12.7531
  22   2.0000      -0.438762       -11.9393
  23   2.0000      -0.420758       -11.4494
  24   2.0000      -0.407039       -11.0761
  25   2.0000      -0.392334       -10.6759
  26   2.0000      -0.387337       -10.5400
  27   2.0000      -0.380178       -10.3452
  28   2.0000      -0.345781        -9.4092
  29   2.0000      -0.331891        -9.0312
  30   2.0000      -0.329648        -8.9702
  31   2.0000      -0.279330        -7.6010
  32   2.0000      -0.255577        -6.9546
  33   2.0000      -0.189007        -5.1431
  34   0.0000      -0.099177        -2.6987
  35   0.0000       0.006618         0.1801
  36   0.0000       0.031183         0.8485
  37   0.0000       0.069917         1.9025
  38   0.0000       0.077078         2.0974

MULLIKEN ATOMIC CHARGES
-----------------------
   0 C :   -0.062715
   1 C :    0.069628
   2 C :    0.008167
   3 C :    0.018284
   4 C :    0.017908
   5 C :    0.008273
   6 C :    0.070902
   7 C :   -0.063238
   8 C :    0.044166
   9 C :   -0.003947
  10 H :   -0.036282
  11 H :   -0.027451
  12 H :   -0.018432
  13 H :   -0.018730
  14 H :   -0.027591
  15 H :   -0.036438
  16 H :    0.028748
  17 H :    0.028747
Sum of atomic charges:    0.0000000

LOEWDIN ATOMIC CHARGES
----------------------
   0 C :   -0.051020
   1 C :   -0.015286
   2 C :   -0.020295
   3 C :   -0.026983
   4 C :   -0.027007
   5 C :   -0.020231
   6 C :   -0.015223
   7 C :   -0.051092
   8 C :   -0.014879
   9 C :    0.032814
  10 H :    0.019810
  11 H :    0.027681
  12 H :    0.025889
  13 H :    0.025823
  14 H :    0.027665
  15 H :    0.019810
  16 H :    0.031266
  17 H :    0.031258

  Mayer bond orders larger than 0.100000
B(  0-C ,  1-C ) :   1.5368 B(  0-C ,  8-C ) :   1.0439 B(  0-C , 10-H ) :   1.0092
B(  1-C ,  2-C ) :   1.1139 B(  1-C ,  6-C ) :   1.0829 B(  2-C ,  3-C ) :   1.6139
B(  2-C , 11-H ) :   0.9910 B(  3-C ,  4-C ) :   1.1190 B(  3-C , 12-H ) :   0.9787
B(  4-C ,  5-C ) :   1.6141 B(  4-C , 13-H ) :   0.9788 B(  5-C ,  6-C ) :   1.1138
B(  5-C , 14-H ) :   0.9909 B(  6-C ,  7-C ) :   1.5364 B(  7-C ,  8-C ) :   1.0437
B(  7-C , 15-H ) :   1.0093 B(  8-C ,  9-C ) :   1.8010 B(  9-C , 16-H ) :   0.9389
B(  9-C , 17-H ) :   0.9389

Dispersion correction           -0.035025108
FINAL SINGLE POINT ENERGY      -385.580813730314

DIPOLE MOMENT
-------------
                                X             Y             Z
Electronic contribution:     -0.91261      -0.00891       0.00004
Nuclear contribution   :      1.25437       0.01197      -0.00004
                        -----------------------------------------
Total Dipole Moment    :      0.34176       0.00306      -0.00000
                        -----------------------------------------
Magnitude (a.u.)       :      0.34177
Magnitude (Debye)      :      0.86872

Rotational constants in cm-1:     0.122569     0.034557     0.026957
Rotational constants in MHz :  3674.524166  1035.988545   808.142379

                             ****ORCA TERMINATED NORMALLY****
TOTAL RUN TIME: 0 days 0 hours 6 minutes 37 seconds 43 msec
