                         Program Version 4.2.0 -  RELEASE  -
|  1> # ORCA input file
|  2> # SCF done        -34.151530625070          0.000934012679
|  3> ! B3LYP/G D3BJ Opt RIJCOSX def2-SVP def2/J
|  4> * xyz 0 1
|  5>    C       -0.29234        -1.75479         0.13749
|  6>    N       -1.61030        -1.42199         0.25742
|  7>    C       -1.82522        -0.03118         0.15963
|  8>    O       -2.91399         0.49067         0.23750
|  9>    C       -0.49030         0.49349        -0.03834
| 10>    C        0.42890        -0.61472        -0.04431
| 11>    C        1.76704        -0.07983        -0.24514
| 12>    O        2.85523        -0.59776        -0.32074
| 13>    N        1.54834         1.30338        -0.34692
| 14>    C        0.22314         1.65345        -0.22698
| 15>    C       -0.28324         2.99578        -0.29605
| 16>    C        0.44721         4.08812        -0.51831
| 17>    H        0.03188        -2.77754         0.18972
| 18>    H       -2.36193        -2.07797         0.39966
| 19>    H        2.30166         1.95693        -0.48770
| 20>    H       -1.35251         3.06644        -0.15289
| 21>    H        1.51374         4.05708        -0.66924
| 22>    H       -0.00674         5.06227        -0.55847
| 23> *
| 24>
| 25>                          ****END OF INPUT****
 Total Charge           Charge          ....    0
 Multiplicity           Mult            ....    1
 Number of Electrons    NEL             ....   84
Dispersion correction           -0.034669043
FINAL SINGLE POINT ENERGY      -568.016853562956
Dispersion correction            ... done
Dispersion correction           -0.034612081
FINAL SINGLE POINT ENERGY      -568.019304415704
Dispersion correction            ... done
Dispersion correction           -0.034603862
FINAL SINGLE POINT ENERGY      -568.019425757186
Dispersion correction            ... done
FINAL SINGLE POINT ENERGY      -568.019412508847
FINAL SINGLE POINT ENERGY      -568.019429511682
Dispersion correction            ... done
Dispersion correction           -0.034606272
FINAL SINGLE POINT ENERGY      -568.019437030597
Dispersion correction            ... done
Dispersion correction           -0.034606701
FINAL SINGLE POINT ENERGY      -568.019435495711
Dispersion correction            ... done
                    ***********************HURRAY********************

CARTESIAN COORDINATES (ANGSTROEM)
---------------------------------
  C     -0.294874   -1.770344    0.119511
  N     -1.627117   -1.433806    0.235603
  C     -1.838886   -0.018404    0.177709
  O     -2.923271    0.515363    0.286279
  C     -0.478955    0.488565   -0.016377
  C      0.434170   -0.620784   -0.034344
  C      1.794368   -0.097275   -0.237300
  O      2.881621   -0.618915   -0.341097
  N      1.572293    1.310830   -0.308767
  C      0.232970    1.656445   -0.201483
  C     -0.290125    3.000555   -0.300534
  C      0.435518    4.108031   -0.531265
  H      0.032184   -2.809158    0.155121
  H     -2.390403   -2.080662    0.393432
  H      2.337815    1.953071   -0.469195
  H     -1.374968    3.061084   -0.176937
  H      1.520656    4.080211   -0.670065
  H     -0.042425    5.087023   -0.603961

 Multiplicity           Mult            ....    1
 Number of Electrons    NEL             ....   84
 Basis Dimension        Dim             ....  198

ORBITAL ENERGIES
----------------

  NO   OCC          E(Eh)            E(eV)
   0   2.0000     -19.118538      -520.2419
   1   2.0000     -19.115157      -520.1499
   2   2.0000     -14.383335      -391.3905
   3   2.0000     -14.377640      -391.2355
   4   2.0000     -10.302778      -280.3528
   5   2.0000     -10.302528      -280.3460
   6   2.0000     -10.266171      -279.3567
   7   2.0000     -10.263741      -279.2906
   8   2.0000     -10.222138      -278.1585
   9   2.0000     -10.220148      -278.1044
  10   2.0000     -10.193690      -277.3844
  11   2.0000     -10.193406      -277.3767
  12   2.0000      -1.042616       -28.3710
  13   2.0000      -1.037777       -28.2394
  14   2.0000      -0.971203       -26.4278
  15   2.0000      -0.956367       -26.0241
  16   2.0000      -0.806970       -21.9588
  17   2.0000      -0.804988       -21.9048
  18   2.0000      -0.732712       -19.9381
  19   2.0000      -0.689439       -18.7606
  20   2.0000      -0.678384       -18.4598
  21   2.0000      -0.603792       -16.4300
  22   2.0000      -0.588187       -16.0054
  23   2.0000      -0.549097       -14.9417
  24   2.0000      -0.526873       -14.3369
  25   2.0000      -0.504334       -13.7236
  26   2.0000      -0.492015       -13.3884
  27   2.0000      -0.472946       -12.8695
  28   2.0000      -0.469422       -12.7736
  29   2.0000      -0.451292       -12.2803
  30   2.0000      -0.434405       -11.8208
  31   2.0000      -0.431384       -11.7385
  32   2.0000      -0.431076       -11.7302
  33   2.0000      -0.395224       -10.7546
  34   2.0000      -0.389135       -10.5889
  35   2.0000      -0.371004       -10.0955
  36   2.0000      -0.349329        -9.5057
  37   2.0000      -0.297030        -8.0826
  38   2.0000      -0.282140        -7.6774
  39   2.0000      -0.272813        -7.4236
  40   2.0000      -0.264859        -7.2072
  41   2.0000      -0.211430        -5.7533
  42   0.0000      -0.100525        -2.7354
  43   0.0000      -0.024690        -0.6719
  44   0.0000       0.027442         0.7467
  45   0.0000       0.042048         1.1442
  46   0.0000       0.052269         1.4223

MULLIKEN ATOMIC CHARGES
-----------------------
   0 C :    0.054934
   1 N :   -0.152560
   2 C :    0.169215
   3 O :   -0.182881
   4 C :   -0.087361
   5 C :   -0.043235
   6 C :    0.174964
   7 O :   -0.177972
   8 N :   -0.150259
   9 C :    0.037122
  10 C :    0.022388
  11 C :   -0.014667
  12 H :    0.022819
  13 H :    0.129355
  14 H :    0.120972
  15 H :    0.018183
  16 H :    0.020524
  17 H :    0.038458
Sum of atomic charges:    0.0000000

LOEWDIN ATOMIC CHARGES
----------------------
   0 C :    0.088102
   1 N :    0.016797
   2 C :    0.076783
   3 O :   -0.186213
   4 C :   -0.116271
   5 C :   -0.126422
   6 C :    0.081609
   7 O :   -0.182327
   8 N :    0.013194
   9 C :    0.069355
  10 C :   -0.028473
  11 C :   -0.018781
  12 H :    0.035412
  13 H :    0.087832
  14 H :    0.083318
  15 H :    0.048483
  16 H :    0.022329
  17 H :    0.035276

  Mayer bond orders larger than 0.100000
B(  0-C ,  1-N ) :   1.1982 B(  0-C ,  5-C ) :   1.4809 B(  0-C , 12-H ) :   0.9806
B(  1-N ,  2-C ) :   1.0258 B(  1-N , 13-H ) :   0.9260 B(  2-C ,  3-O ) :   2.1627
B(  2-C ,  4-C ) :   0.9750 B(  4-C ,  5-C ) :   1.2096 B(  4-C ,  9-C ) :   1.4028
B(  5-C ,  6-C ) :   0.9439 B(  6-C ,  7-O ) :   2.1959 B(  6-C ,  8-N ) :   1.0225
B(  8-N ,  9-C ) :   1.1855 B(  8-N , 14-H ) :   0.9192 B(  9-C , 10-C ) :   1.1696
B( 10-C , 11-C ) :   1.8396 B( 10-C , 15-H ) :   0.9411 B( 11-C , 16-H ) :   0.9610
B( 11-C , 17-H ) :   0.9402

Dispersion correction           -0.034606688
FINAL SINGLE POINT ENERGY      -568.019433250011

DIPOLE MOMENT
-------------
                                X             Y             Z
Electronic contribution:     -0.22277      -5.49693       0.69834
Nuclear contribution   :      0.12649       5.67211      -0.74309
                        -----------------------------------------
Total Dipole Moment    :     -0.09628       0.17517      -0.04475
                        -----------------------------------------
Magnitude (a.u.)       :      0.20484
Magnitude (Debye)      :      0.52066

Rotational constants in cm-1:     0.039840     0.033158     0.018103
Rotational constants in MHz :  1194.378002   994.056324   542.702948

                             ****ORCA TERMINATED NORMALLY****
TOTAL RUN TIME: 0 days 0 hours 8 minutes 37 seconds 833 msec
