                         Program Version 4.2.0 -  RELEASE  -
|  1> # ORCA input file
|  2> # SCF done        -34.841341481214          0.000859906690
|  3> ! B3LYP/G D3BJ Opt RIJCOSX def2-SVP def2/J
|  4> * xyz 0 1
|  5>    C        1.50544         1.13667         0.29223
|  6>    S        2.68272        -0.11719         0.34818
|  7>    C        1.46111        -1.30543         0.10856
|  8>    C        0.22182        -0.76146        -0.00786
|  9>    C        0.24817         0.65916         0.09864
| 10>    C       -0.98642         1.49519        -0.04021
| 11>    C       -2.25494         0.66616         0.16171
| 12>    C       -2.58918         0.27085         1.59702
| 13>    O       -3.60186        -0.34086         1.83541
| 14>    C       -1.62697         0.67131         2.68212
| 15>    C       -2.17168        -0.61391        -0.68645
| 16>    C       -1.05407        -1.52415        -0.18000
| 17>    H        1.81705         2.15628         0.40286
| 18>    H        1.73533        -2.34081         0.07037
| 19>    H       -1.00988         1.90610        -1.05560
| 20>    H       -0.95081         2.34549         0.64296
| 21>    H       -3.11588         1.24756        -0.19032
| 22>    H       -1.94262         0.23553         3.62604
| 23>    H       -1.61543         1.75530         2.77780
| 24>    H       -0.61997         0.34249         2.43947
| 25>    H       -1.98355        -0.33952        -1.72655
| 26>    H       -3.12362        -1.14339        -0.63473
| 27>    H       -0.90309        -2.35743        -0.86976
| 28>    H       -1.34769        -1.95042         0.78527
| 29> *
| 30>
| 31>                          ****END OF INPUT****
 Total Charge           Charge          ....    0
 Multiplicity           Mult            ....    1
 Number of Electrons    NEL             ....   96
Dispersion correction           -0.052759408
FINAL SINGLE POINT ENERGY      -861.303496314110
Dispersion correction            ... done
Dispersion correction           -0.051787007
FINAL SINGLE POINT ENERGY      -861.306644135791
Dispersion correction            ... done
Dispersion correction           -0.051784371
FINAL SINGLE POINT ENERGY      -861.306773664444
Dispersion correction            ... done
FINAL SINGLE POINT ENERGY      -861.306788326881
FINAL SINGLE POINT ENERGY      -861.306811235190
FINAL SINGLE POINT ENERGY      -861.306801098874
FINAL SINGLE POINT ENERGY      -861.306783704268
FINAL SINGLE POINT ENERGY      -861.306756260901
FINAL SINGLE POINT ENERGY      -861.306403259451
FINAL SINGLE POINT ENERGY      -861.305897735147
FINAL SINGLE POINT ENERGY      -861.306277812562
FINAL SINGLE POINT ENERGY      -861.306328869557
FINAL SINGLE POINT ENERGY      -861.306315371217
FINAL SINGLE POINT ENERGY      -861.306303060566
FINAL SINGLE POINT ENERGY      -861.306054188746
FINAL SINGLE POINT ENERGY      -861.306159252144
FINAL SINGLE POINT ENERGY      -861.306130329506
Dispersion correction            ... done
Dispersion correction           -0.052219926
FINAL SINGLE POINT ENERGY      -861.306138801013
Dispersion correction            ... done
Dispersion correction           -0.052217062
FINAL SINGLE POINT ENERGY      -861.306143323947
Dispersion correction            ... done
                    ***********************HURRAY********************

CARTESIAN COORDINATES (ANGSTROEM)
---------------------------------
  C      1.515018    1.201366    0.317129
  S      2.694649   -0.053263    0.457993
  C      1.502109   -1.269183    0.169551
  C      0.247617   -0.734946   -0.010779
  C      0.257436    0.702617    0.073102
  C     -0.999233    1.515155   -0.108028
  C     -2.273840    0.690240    0.136452
  C     -2.633928    0.381924    1.598485
  O     -3.743300   -0.040517    1.846448
  C     -1.591827    0.546410    2.683269
  C     -2.205157   -0.639157   -0.648098
  C     -1.027981   -1.520875   -0.201948
  H      1.805972    2.245968    0.420962
  H      1.785842   -2.320997    0.160203
  H     -1.039450    1.888941   -1.146768
  H     -0.978608    2.414832    0.526528
  H     -3.139871    1.256279   -0.242408
  H     -2.021953    0.235433    3.644161
  H     -1.245496    1.590201    2.747612
  H     -0.699445   -0.055671    2.453264
  H     -2.127289   -0.405019   -1.722829
  H     -3.149633   -1.182584   -0.498129
  H     -0.867126   -2.333860   -0.927955
  H     -1.290524   -2.019775    0.748943

 Multiplicity           Mult            ....    1
 Number of Electrons    NEL             ....   96
 Basis Dimension        Dim             ....  232

ORBITAL ENERGIES
----------------

  NO   OCC          E(Eh)            E(eV)
   0   2.0000     -88.873448     -2418.3695
   1   2.0000     -19.120263      -520.2888
   2   2.0000     -10.271018      -279.4886
   3   2.0000     -10.208962      -277.8000
   4   2.0000     -10.208615      -277.7905
   5   2.0000     -10.201907      -277.6080
   6   2.0000     -10.200462      -277.5687
   7   2.0000     -10.198924      -277.5268
   8   2.0000     -10.197404      -277.4855
   9   2.0000     -10.196508      -277.4611
  10   2.0000     -10.195939      -277.4456
  11   2.0000     -10.189636      -277.2741
  12   2.0000      -7.968550      -216.8353
  13   2.0000      -5.936624      -161.5437
  14   2.0000      -5.932492      -161.4313
  15   2.0000      -5.930059      -161.3651
  16   2.0000      -1.028630       -27.9904
  17   2.0000      -0.884216       -24.0607
  18   2.0000      -0.825559       -22.4646
  19   2.0000      -0.766455       -20.8563
  20   2.0000      -0.740515       -20.1504
  21   2.0000      -0.728752       -19.8304
  22   2.0000      -0.695349       -18.9214
  23   2.0000      -0.640829       -17.4379
  24   2.0000      -0.604919       -16.4607
  25   2.0000      -0.571188       -15.5428
  26   2.0000      -0.537688       -14.6312
  27   2.0000      -0.503941       -13.7129
  28   2.0000      -0.496225       -13.5030
  29   2.0000      -0.473427       -12.8826
  30   2.0000      -0.460340       -12.5265
  31   2.0000      -0.449663       -12.2360
  32   2.0000      -0.427942       -11.6449
  33   2.0000      -0.418254       -11.3813
  34   2.0000      -0.413752       -11.2588
  35   2.0000      -0.406987       -11.0747
  36   2.0000      -0.402711       -10.9583
  37   2.0000      -0.401517       -10.9258
  38   2.0000      -0.399627       -10.8744
  39   2.0000      -0.367549       -10.0015
  40   2.0000      -0.358713        -9.7611
  41   2.0000      -0.348745        -9.4898
  42   2.0000      -0.342657        -9.3242
  43   2.0000      -0.332467        -9.0469
  44   2.0000      -0.323330        -8.7982
  45   2.0000      -0.248308        -6.7568
  46   2.0000      -0.243601        -6.6287
  47   2.0000      -0.235128        -6.3982
  48   0.0000      -0.025426        -0.6919
  49   0.0000      -0.017225        -0.4687
  50   0.0000       0.042421         1.1543
  51   0.0000       0.046788         1.2732
  52   0.0000       0.049700         1.3524

MULLIKEN ATOMIC CHARGES
-----------------------
   0 C :   -0.143492
   1 S :    0.098845
   2 C :   -0.141389
   3 C :   -0.046175
   4 C :   -0.067118
   5 C :    0.195238
   6 C :   -0.078298
   7 C :   -0.024997
   8 O :   -0.204353
   9 C :    0.079815
  10 C :    0.042079
  11 C :    0.111723
  12 H :    0.009821
  13 H :    0.011549
  14 H :    0.010810
  15 H :   -0.007203
  16 H :    0.008917
  17 H :    0.023136
  18 H :    0.023568
  19 H :    0.048329
  20 H :    0.005909
  21 H :    0.013913
  22 H :    0.010206
  23 H :    0.019166
Sum of atomic charges:   -0.0000000

LOEWDIN ATOMIC CHARGES
----------------------
   0 C :   -0.206755
   1 S :    0.428585
   2 C :   -0.203213
   3 C :   -0.073068
   4 C :   -0.072952
   5 C :   -0.019541
   6 C :   -0.058350
   7 C :    0.090001
   8 O :   -0.152256
   9 C :   -0.077191
  10 C :   -0.011127
  11 C :   -0.027482
  12 H :    0.021425
  13 H :    0.021984
  14 H :    0.036050
  15 H :    0.025362
  16 H :    0.039111
  17 H :    0.034542
  18 H :    0.041021
  19 H :    0.047055
  20 H :    0.022682
  21 H :    0.029093
  22 H :    0.033718
  23 H :    0.031306

  Mayer bond orders larger than 0.100000
B(  0-C ,  1-S ) :   1.1631 B(  0-C ,  4-C ) :   1.5490 B(  0-C , 12-H ) :   0.9657
B(  1-S ,  2-C ) :   1.1665 B(  2-C ,  3-C ) :   1.5462 B(  2-C , 13-H ) :   0.9662
B(  3-C ,  4-C ) :   1.2935 B(  3-C , 11-C ) :   1.0344 B(  4-C ,  5-C ) :   1.0179
B(  5-C ,  6-C ) :   1.0402 B(  5-C , 14-H ) :   0.8977 B(  5-C , 15-H ) :   0.9192
B(  6-C ,  7-C ) :   0.9001 B(  6-C , 10-C ) :   1.0537 B(  6-C , 16-H ) :   0.8903
B(  7-C ,  8-O ) :   2.1532 B(  7-C ,  9-C ) :   1.0633 B(  9-C , 17-H ) :   0.9458
B(  9-C , 18-H ) :   0.9273 B(  9-C , 19-H ) :   0.9375 B( 10-C , 11-C ) :   1.0905
B( 10-C , 20-H ) :   0.9430 B( 10-C , 21-H ) :   0.9275 B( 11-C , 22-H ) :   0.9171
B( 11-C , 23-H ) :   0.9166

Dispersion correction           -0.052218769
FINAL SINGLE POINT ENERGY      -861.306140348595

DIPOLE MOMENT
-------------
                                X             Y             Z
Electronic contribution:      8.40813      -0.37132       0.00050
Nuclear contribution   :     -7.73550       0.64337      -0.35301
                        -----------------------------------------
Total Dipole Moment    :      0.67263       0.27205      -0.35251
                        -----------------------------------------
Magnitude (a.u.)       :      0.80666
Magnitude (Debye)      :      2.05036

Rotational constants in cm-1:     0.056174     0.018226     0.017109
Rotational constants in MHz :  1684.049003   546.415177   512.912582

                             ****ORCA TERMINATED NORMALLY****
TOTAL RUN TIME: 0 days 0 hours 56 minutes 6 seconds 19 msec
