                         Program Version 4.2.0 -  RELEASE  -
|  1> # ORCA input file
|  2> # SCF done        -32.785218528118          0.000233663873
|  3> ! B3LYP/G D3BJ Opt RIJCOSX def2-SVP def2/J
|  4> * xyz 0 1
|  5>    C        1.58149         1.23412        -0.04219
|  6>    S        2.77596         0.00169        -0.06409
|  7>    C        1.56389        -1.21487        -0.01887
|  8>    C        0.30818        -0.69538         0.01557
|  9>    C        0.31756         0.72953        -0.00561
| 10>    C       -0.93098         1.53678         0.05617
| 11>    S       -1.11189         2.28654         1.74130
| 12>    C       -2.15535         0.70414        -0.31339
| 13>    C       -2.15709        -0.64517         0.40070
| 14>    C       -0.95693        -1.51092        -0.01022
| 15>    O       -1.14783        -2.11103        -1.27735
| 16>    H        1.87645         2.26455        -0.05036
| 17>    H        1.84435        -2.24894        -0.02590
| 18>    H       -0.85954         2.41973        -0.58424
| 19>    H       -0.90178         1.16462         2.42530
| 20>    H       -2.15674         0.55233        -1.39722
| 21>    H       -3.05924         1.25915        -0.05690
| 22>    H       -3.07128        -1.18991         0.16004
| 23>    H       -2.13243        -0.48986         1.48095
| 24>    H       -0.86573        -2.36227         0.67415
| 25>    H       -1.18391        -1.41767        -1.94641
| 26> *
| 27>
| 28>                          ****END OF INPUT****
 Total Charge           Charge          ....    0
 Multiplicity           Mult            ....    1
 Number of Electrons    NEL             ....   98
Dispersion correction           -0.048887508
FINAL SINGLE POINT ENERGY     -1182.010658227895
Dispersion correction            ... done
Dispersion correction           -0.048438316
FINAL SINGLE POINT ENERGY     -1182.013506838953
Dispersion correction            ... done
Dispersion correction           -0.048399870
FINAL SINGLE POINT ENERGY     -1182.013686261872
Dispersion correction            ... done
FINAL SINGLE POINT ENERGY     -1182.013657335901
FINAL SINGLE POINT ENERGY     -1182.013535025872
FINAL SINGLE POINT ENERGY     -1182.013387149919
FINAL SINGLE POINT ENERGY     -1182.013288571736
FINAL SINGLE POINT ENERGY     -1182.013351792784
Dispersion correction            ... done
Dispersion correction           -0.048450542
FINAL SINGLE POINT ENERGY     -1182.013369542828
Dispersion correction            ... done
Dispersion correction           -0.048448657
FINAL SINGLE POINT ENERGY     -1182.013353674541
Dispersion correction            ... done
                    ***********************HURRAY********************

CARTESIAN COORDINATES (ANGSTROEM)
---------------------------------
  C      1.585213    1.262602   -0.129807
  S      2.758848    0.002636   -0.266752
  C      1.546303   -1.215669   -0.117441
  C      0.288941   -0.676033    0.036858
  C      0.312497    0.763445    0.023386
  C     -0.948971    1.567673    0.160864
  S     -1.184055    2.197667    1.901444
  C     -2.153516    0.754928   -0.336906
  C     -2.225452   -0.615519    0.334071
  C     -0.985872   -1.492168    0.071469
  O     -1.114934   -2.255538   -1.125007
  H      1.891114    2.307305   -0.154868
  H      1.812281   -2.270307   -0.170437
  H     -0.862819    2.500305   -0.414480
  H     -0.786444    1.070000    2.530947
  H     -2.055172    0.630589   -1.431366
  H     -3.078965    1.322132   -0.157776
  H     -3.100373   -1.179571   -0.022555
  H     -2.352638   -0.470473    1.419976
  H     -0.919480   -2.246769    0.872341
  H     -0.849348   -1.690074   -1.862531

 Multiplicity           Mult            ....    1
 Number of Electrons    NEL             ....   98
 Basis Dimension        Dim             ....  212

ORBITAL ENERGIES
----------------

  NO   OCC          E(Eh)            E(eV)
   0   2.0000     -88.880989     -2418.5747
   1   2.0000     -88.837630     -2417.3948
   2   2.0000     -19.129434      -520.5384
   3   2.0000     -10.243090      -278.7286
   4   2.0000     -10.232191      -278.4321
   5   2.0000     -10.216080      -277.9937
   6   2.0000     -10.215185      -277.9693
   7   2.0000     -10.204948      -277.6907
   8   2.0000     -10.198737      -277.5217
   9   2.0000     -10.196731      -277.4672
  10   2.0000     -10.186285      -277.1829
  11   2.0000      -7.976019      -217.0385
  12   2.0000      -7.931872      -215.8372
  13   2.0000      -5.944009      -161.7447
  14   2.0000      -5.939837      -161.6312
  15   2.0000      -5.937754      -161.5745
  16   2.0000      -5.901255      -160.5813
  17   2.0000      -5.897497      -160.4791
  18   2.0000      -5.890509      -160.2889
  19   2.0000      -1.009694       -27.4752
  20   2.0000      -0.889376       -24.2012
  21   2.0000      -0.827957       -22.5299
  22   2.0000      -0.766988       -20.8708
  23   2.0000      -0.737182       -20.0597
  24   2.0000      -0.718458       -19.5502
  25   2.0000      -0.685504       -18.6535
  26   2.0000      -0.624454       -16.9922
  27   2.0000      -0.587298       -15.9812
  28   2.0000      -0.578438       -15.7401
  29   2.0000      -0.536505       -14.5990
  30   2.0000      -0.512330       -13.9412
  31   2.0000      -0.477077       -12.9819
  32   2.0000      -0.464605       -12.6425
  33   2.0000      -0.441471       -12.0130
  34   2.0000      -0.439131       -11.9494
  35   2.0000      -0.418490       -11.3877
  36   2.0000      -0.410991       -11.1836
  37   2.0000      -0.408645       -11.1198
  38   2.0000      -0.383398       -10.4328
  39   2.0000      -0.374310       -10.1855
  40   2.0000      -0.356391        -9.6979
  41   2.0000      -0.352332        -9.5874
  42   2.0000      -0.346870        -9.4388
  43   2.0000      -0.331207        -9.0126
  44   2.0000      -0.319599        -8.6967
  45   2.0000      -0.279577        -7.6077
  46   2.0000      -0.255979        -6.9656
  47   2.0000      -0.245133        -6.6704
  48   2.0000      -0.230820        -6.2809
  49   0.0000      -0.031782        -0.8648
  50   0.0000       0.014833         0.4036
  51   0.0000       0.030848         0.8394
  52   0.0000       0.043959         1.1962
  53   0.0000       0.054140         1.4732

MULLIKEN ATOMIC CHARGES
-----------------------
   0 C :   -0.128370
   1 S :    0.111414
   2 C :   -0.123877
   3 C :   -0.073961
   4 C :    0.036252
   5 C :   -0.123571
   6 S :   -0.052348
   7 C :    0.089046
   8 C :    0.056099
   9 C :    0.241377
  10 O :   -0.307660
  11 H :    0.017771
  12 H :    0.023615
  13 H :    0.031886
  14 H :    0.056200
  15 H :   -0.000948
  16 H :    0.005031
  17 H :    0.002697
  18 H :   -0.009160
  19 H :   -0.008346
  20 H :    0.156852
Sum of atomic charges:   -0.0000000

LOEWDIN ATOMIC CHARGES
----------------------
   0 C :   -0.195013
   1 S :    0.442694
   2 C :   -0.187898
   3 C :   -0.092914
   4 C :   -0.085182
   5 C :   -0.111807
   6 S :    0.141790
   7 C :   -0.038979
   8 C :   -0.046179
   9 C :    0.072661
  10 O :   -0.134198
  11 H :    0.025392
  12 H :    0.027364
  13 H :    0.029584
  14 H :   -0.031343
  15 H :    0.018993
  16 H :    0.024942
  17 H :    0.029045
  18 H :    0.017807
  19 H :    0.024797
  20 H :    0.068445

  Mayer bond orders larger than 0.100000
B(  0-C ,  1-S ) :   1.1693 B(  0-C ,  4-C ) :   1.5345 B(  0-C , 11-H ) :   0.9648
B(  1-S ,  2-C ) :   1.1798 B(  2-C ,  3-C ) :   1.5352 B(  2-C , 12-H ) :   0.9643
B(  3-C ,  4-C ) :   1.2955 B(  3-C ,  9-C ) :   0.9925 B(  4-C ,  5-C ) :   0.9746
B(  5-C ,  6-S ) :   1.0344 B(  5-C ,  7-C ) :   1.0107 B(  5-C , 13-H ) :   0.9130
B(  6-S , 14-H ) :   0.9514 B(  7-C ,  8-C ) :   1.0696 B(  7-C , 15-H ) :   0.9309
B(  7-C , 16-H ) :   0.9272 B(  8-C ,  9-C ) :   1.0415 B(  8-C , 17-H ) :   0.9212
B(  8-C , 18-H ) :   0.9226 B(  9-C , 10-O ) :   1.0505 B(  9-C , 19-H ) :   0.8998
B( 10-O , 20-H ) :   0.9788

Dispersion correction           -0.048449538
FINAL SINGLE POINT ENERGY     -1182.013350061563

DIPOLE MOMENT
-------------
                                X             Y             Z
Electronic contribution:      9.49791       2.21085       0.96596
Nuclear contribution   :     -9.28924      -2.05846      -1.27370
                        -----------------------------------------
Total Dipole Moment    :      0.20867       0.15240      -0.30774
                        -----------------------------------------
Magnitude (a.u.)       :      0.40183
Magnitude (Debye)      :      1.02138

Rotational constants in cm-1:     0.035374     0.025837     0.016628
Rotational constants in MHz :  1060.490674   774.587790   498.502652

                             ****ORCA TERMINATED NORMALLY****
TOTAL RUN TIME: 0 days 0 hours 18 minutes 54 seconds 2 msec
