                         Program Version 4.2.0 -  RELEASE  -
|  1> # ORCA input file
|  2> # SCF done        -36.896639934404          0.000129224371
|  3> ! B3LYP/G D3BJ Opt RIJCOSX def2-SVP def2/J
|  4> * xyz 0 1
|  5>    C        1.43379         0.78393         0.00844
|  6>    C        0.17126         1.29275         0.00224
|  7>    C       -0.21667         2.72457         0.00986
|  8>    F        0.85792         3.52811         0.02424
|  9>    F       -0.94226         3.08298        -1.06665
| 10>    F       -0.95947         3.06750         1.07951
| 11>    S       -1.04112         0.04691        -0.01886
| 12>    C        0.20138        -1.16273        -0.01875
| 13>    O       -0.21127        -2.43923        -0.03407
| 14>    C        0.79328        -3.43357        -0.04893
| 15>    C        1.45670        -0.62514        -0.00362
| 16>    H        2.31697         1.39649         0.02122
| 17>    H        0.26557        -4.38463        -0.06572
| 18>    H        1.41856        -3.37401         0.84623
| 19>    H        1.42142        -3.34379        -0.93959
| 20>    H        2.36546        -1.19653        -0.00066
| 21> *
| 22>
| 23>                          ****END OF INPUT****
 Total Charge           Charge          ....    0
 Multiplicity           Mult            ....    1
 Number of Electrons    NEL             ....   92
Dispersion correction           -0.028733722
FINAL SINGLE POINT ENERGY     -1004.032216634950
Dispersion correction            ... done
Dispersion correction           -0.028722363
FINAL SINGLE POINT ENERGY     -1004.033730787923
Dispersion correction            ... done
Dispersion correction           -0.028715301
FINAL SINGLE POINT ENERGY     -1004.033805001631
Dispersion correction            ... done
FINAL SINGLE POINT ENERGY     -1004.033807084977
FINAL SINGLE POINT ENERGY     -1004.033416599813
FINAL SINGLE POINT ENERGY     -1004.033708090416
FINAL SINGLE POINT ENERGY     -1004.033749247313
FINAL SINGLE POINT ENERGY     -1004.033663595999
FINAL SINGLE POINT ENERGY     -1004.033760495787
Dispersion correction            ... done
Dispersion correction           -0.028683395
FINAL SINGLE POINT ENERGY     -1004.033769946690
Dispersion correction            ... done
Dispersion correction           -0.028684663
FINAL SINGLE POINT ENERGY     -1004.033767257288
Dispersion correction            ... done
                    ***********************HURRAY********************

CARTESIAN COORDINATES (ANGSTROEM)
---------------------------------
  C      1.455698    0.801091   -0.019059
  C      0.187960    1.314938    0.060495
  C     -0.228316    2.745662    0.023582
  F      0.813358    3.564451    0.236795
  F     -0.764612    3.085966   -1.166512
  F     -1.165410    3.020783    0.953533
  S     -1.025460    0.059476    0.107563
  C      0.216217   -1.162368    0.011447
  O     -0.208214   -2.429360    0.009200
  C      0.773461   -3.448077   -0.042607
  C      1.485642   -0.626721   -0.043866
  H      2.344252    1.431032   -0.065595
  H      0.230444   -4.401179   -0.017188
  H      1.455709   -3.387047    0.822987
  H      1.364314   -3.385004   -0.973142
  H      2.396477   -1.220034   -0.102744

 Multiplicity           Mult            ....    1
 Number of Electrons    NEL             ....   92
 Basis Dimension        Dim             ....  183

ORBITAL ENERGIES
----------------

  NO   OCC          E(Eh)            E(eV)
   0   2.0000     -88.886797     -2418.7327
   1   2.0000     -24.717219      -672.5897
   2   2.0000     -24.711188      -672.4256
   3   2.0000     -24.707754      -672.3322
   4   2.0000     -19.194759      -522.3159
   5   2.0000     -10.434899      -283.9480
   6   2.0000     -10.287225      -279.9296
   7   2.0000     -10.266487      -279.3653
   8   2.0000     -10.224254      -278.2161
   9   2.0000     -10.214517      -277.9511
  10   2.0000     -10.202392      -277.6212
  11   2.0000      -7.982310      -217.2097
  12   2.0000      -5.950543      -161.9225
  13   2.0000      -5.946740      -161.8190
  14   2.0000      -5.942940      -161.7156
  15   2.0000      -1.291939       -35.1554
  16   2.0000      -1.202624       -32.7251
  17   2.0000      -1.195138       -32.5213
  18   2.0000      -1.093040       -29.7431
  19   2.0000      -0.891787       -24.2668
  20   2.0000      -0.774296       -21.0697
  21   2.0000      -0.758366       -20.6362
  22   2.0000      -0.721012       -19.6197
  23   2.0000      -0.676193       -18.4001
  24   2.0000      -0.614395       -16.7185
  25   2.0000      -0.593612       -16.1530
  26   2.0000      -0.585115       -15.9218
  27   2.0000      -0.571839       -15.5605
  28   2.0000      -0.546227       -14.8636
  29   2.0000      -0.515891       -14.0381
  30   2.0000      -0.495907       -13.4943
  31   2.0000      -0.478120       -13.0103
  32   2.0000      -0.463528       -12.6132
  33   2.0000      -0.461709       -12.5637
  34   2.0000      -0.445380       -12.1194
  35   2.0000      -0.427731       -11.6392
  36   2.0000      -0.426988       -11.6189
  37   2.0000      -0.410202       -11.1622
  38   2.0000      -0.403891       -10.9904
  39   2.0000      -0.402785       -10.9603
  40   2.0000      -0.391360       -10.6495
  41   2.0000      -0.367061        -9.9882
  42   2.0000      -0.356563        -9.7026
  43   2.0000      -0.344714        -9.3801
  44   2.0000      -0.269989        -7.3468
  45   2.0000      -0.232069        -6.3149
  46   0.0000      -0.030378        -0.8266
  47   0.0000       0.020534         0.5588
  48   0.0000       0.046937         1.2772
  49   0.0000       0.050715         1.3800
  50   0.0000       0.069749         1.8980

MULLIKEN ATOMIC CHARGES
-----------------------
   0 C :    0.056112
   1 C :   -0.263688
   2 C :    0.565443
   3 F :   -0.166932
   4 F :   -0.172485
   5 F :   -0.176734
   6 S :    0.145158
   7 C :    0.092114
   8 O :   -0.292223
   9 C :    0.179423
  10 C :   -0.054650
  11 H :    0.000007
  12 H :    0.041468
  13 H :    0.031506
  14 H :    0.029612
  15 H :   -0.014131
Sum of atomic charges:   -0.0000000

LOEWDIN ATOMIC CHARGES
----------------------
   0 C :   -0.027832
   1 C :   -0.259483
   2 C :    0.155118
   3 F :   -0.059106
   4 F :   -0.072467
   5 F :   -0.071923
   6 S :    0.433830
   7 C :   -0.092775
   8 O :   -0.095917
   9 C :    0.090344
  10 C :   -0.133586
  11 H :    0.036169
  12 H :    0.031186
  13 H :    0.018749
  14 H :    0.018599
  15 H :    0.029092

  Mayer bond orders larger than 0.100000
B(  0-C ,  1-C ) :   1.5934 B(  0-C , 10-C ) :   1.2076 B(  0-C , 11-H ) :   0.9955
B(  1-C ,  2-C ) :   0.9870 B(  1-C ,  6-S ) :   1.0869 B(  2-C ,  3-F ) :   1.1510
B(  2-C ,  4-F ) :   1.1583 B(  2-C ,  5-F ) :   1.1418 B(  6-S ,  7-C ) :   1.1472
B(  7-C ,  8-O ) :   1.1666 B(  7-C , 10-C ) :   1.4590 B(  8-O ,  9-C ) :   0.9427
B(  9-C , 12-H ) :   0.9789 B(  9-C , 13-H ) :   0.9676 B(  9-C , 14-H ) :   0.9679
B( 10-C , 15-H ) :   0.9965

Dispersion correction           -0.028684092
FINAL SINGLE POINT ENERGY     -1004.033766226554

DIPOLE MOMENT
-------------
                                X             Y             Z
Electronic contribution:     -7.52227      19.09274       0.34573
Nuclear contribution   :      8.40030     -20.64939      -0.37736
                        -----------------------------------------
Total Dipole Moment    :      0.87803      -1.55665      -0.03162
                        -----------------------------------------
Magnitude (a.u.)       :      1.78749
Magnitude (Debye)      :      4.54343

Rotational constants in cm-1:     0.086679     0.017161     0.015538
Rotational constants in MHz :  2598.580498   514.465487   465.805386

                             ****ORCA TERMINATED NORMALLY****
TOTAL RUN TIME: 0 days 0 hours 12 minutes 49 seconds 720 msec
