                         Program Version 4.2.0 -  RELEASE  -
|  1> # ORCA input file
|  2> # SCF done        -37.167339587130          0.000259876866
|  3> ! B3LYP/G D3BJ Opt RIJCOSX def2-SVP def2/J
|  4> * xyz 0 1
|  5>    C       -0.91213         1.36570        -0.05822
|  6>    S       -2.11699         0.19011        -0.38450
|  7>    C       -0.97320        -1.08538        -0.45215
|  8>    C        0.29588        -0.62495        -0.23015
|  9>    C        0.33185         0.79859        -0.00609
| 10>    N        1.51052         1.45226         0.19346
| 11>    C        2.58586         0.71920         0.20261
| 12>    C        2.53989        -0.73650         0.05502
| 13>    N        3.71293        -1.44371         0.10274
| 14>    C        3.65343        -2.88746         0.06290
| 15>    N        1.43080        -1.37690        -0.17570
| 16>    N        3.79672         1.32323         0.41733
| 17>    C        3.86035         2.76658         0.45734
| 18>    H       -1.18057         2.39429         0.06733
| 19>    H       -1.29349        -2.08914        -0.64133
| 20>    H        4.41797        -1.06715         0.71999
| 21>    H        3.26353        -3.31362         0.99250
| 22>    H        4.65289        -3.27592        -0.12462
| 23>    H        2.98567        -3.17330        -0.74661
| 24>    H        4.58632         0.87754        -0.02705
| 25>    H        3.02501         3.12126         1.05625
| 26>    H        3.78245         3.21493        -0.53793
| 27>    H        4.80114         3.06522         0.91685
| 28> *
| 29>
| 30>                          ****END OF INPUT****
 Total Charge           Charge          ....    0
 Multiplicity           Mult            ....    1
 Number of Electrons    NEL             ....  102
Dispersion correction           -0.046649079
FINAL SINGLE POINT ENERGY      -927.614018764916
Dispersion correction            ... done
Dispersion correction           -0.046449349
FINAL SINGLE POINT ENERGY      -927.617161733894
Dispersion correction            ... done
Dispersion correction           -0.046444035
FINAL SINGLE POINT ENERGY      -927.617492030904
Dispersion correction            ... done
FINAL SINGLE POINT ENERGY      -927.617649220308
FINAL SINGLE POINT ENERGY      -927.617742613416
FINAL SINGLE POINT ENERGY      -927.617810646328
FINAL SINGLE POINT ENERGY      -927.617905096294
FINAL SINGLE POINT ENERGY      -927.617931204533
FINAL SINGLE POINT ENERGY      -927.617938568528
FINAL SINGLE POINT ENERGY      -927.617937530356
FINAL SINGLE POINT ENERGY      -927.617931236438
Dispersion correction            ... done
Dispersion correction           -0.046489877
FINAL SINGLE POINT ENERGY      -927.617924487260
Dispersion correction            ... done
Dispersion correction           -0.046489587
FINAL SINGLE POINT ENERGY      -927.617918839807
Dispersion correction            ... done
                    ***********************HURRAY********************

CARTESIAN COORDINATES (ANGSTROEM)
---------------------------------
  C     -0.956108    1.383746   -0.068801
  S     -2.165310    0.198927   -0.387072
  C     -1.024848   -1.092990   -0.449949
  C      0.260687   -0.628999   -0.231615
  C      0.299541    0.806182   -0.010156
  N      1.488975    1.461028    0.189999
  C      2.562698    0.726102    0.203736
  C      2.514071   -0.745179    0.059327
  N      3.708449   -1.428188    0.145236
  C      3.705108   -2.874787    0.065784
  N      1.404776   -1.385424   -0.173920
  N      3.803640    1.301488    0.393199
  C      3.902963    2.746329    0.462258
  H     -1.211457    2.433497    0.055324
  H     -1.338408   -2.117098   -0.639424
  H      4.373704   -1.016506    0.791390
  H      3.074230   -3.344390    0.840975
  H      4.736333   -3.241996    0.160898
  H      3.299911   -3.191198   -0.906491
  H      4.546136    0.834980   -0.119261
  H      3.262666    3.118369    1.273194
  H      3.564029    3.244057   -0.465057
  H      4.945042    3.026931    0.670397

 Multiplicity           Mult            ....    1
 Number of Electrons    NEL             ....  102
 Basis Dimension        Dim             ....  236

ORBITAL ENERGIES
----------------

  NO   OCC          E(Eh)            E(eV)
   0   2.0000     -88.869268     -2418.2557
   1   2.0000     -14.353179      -390.5699
   2   2.0000     -14.352893      -390.5621
   3   2.0000     -14.313733      -389.4965
   4   2.0000     -14.313204      -389.4821
   5   2.0000     -10.261192      -279.2212
   6   2.0000     -10.260940      -279.2144
   7   2.0000     -10.220711      -278.1197
   8   2.0000     -10.220421      -278.1118
   9   2.0000     -10.209337      -277.8102
  10   2.0000     -10.209145      -277.8050
  11   2.0000     -10.195738      -277.4401
  12   2.0000     -10.195640      -277.4375
  13   2.0000      -7.963841      -216.7071
  14   2.0000      -5.931710      -161.4100
  15   2.0000      -5.927758      -161.3025
  16   2.0000      -5.925716      -161.2469
  17   2.0000      -0.987834       -26.8803
  18   2.0000      -0.938941       -25.5499
  19   2.0000      -0.918764       -25.0008
  20   2.0000      -0.868147       -23.6235
  21   2.0000      -0.853028       -23.2121
  22   2.0000      -0.741966       -20.1899
  23   2.0000      -0.710148       -19.3241
  24   2.0000      -0.699991       -19.0477
  25   2.0000      -0.680382       -18.5141
  26   2.0000      -0.612356       -16.6631
  27   2.0000      -0.603713       -16.4279
  28   2.0000      -0.578369       -15.7382
  29   2.0000      -0.548110       -14.9148
  30   2.0000      -0.518545       -14.1103
  31   2.0000      -0.510730       -13.8977
  32   2.0000      -0.476233       -12.9589
  33   2.0000      -0.468744       -12.7552
  34   2.0000      -0.448043       -12.1919
  35   2.0000      -0.439129       -11.9493
  36   2.0000      -0.432782       -11.7766
  37   2.0000      -0.419570       -11.4171
  38   2.0000      -0.413436       -11.2502
  39   2.0000      -0.396782       -10.7970
  40   2.0000      -0.396057       -10.7773
  41   2.0000      -0.390631       -10.6296
  42   2.0000      -0.360925        -9.8213
  43   2.0000      -0.344433        -9.3725
  44   2.0000      -0.341604        -9.2955
  45   2.0000      -0.296982        -8.0813
  46   2.0000      -0.288983        -7.8636
  47   2.0000      -0.273350        -7.4382
  48   2.0000      -0.241142        -6.5618
  49   2.0000      -0.207417        -5.6441
  50   2.0000      -0.204052        -5.5525
  51   0.0000      -0.049877        -1.3572
  52   0.0000       0.023912         0.6507
  53   0.0000       0.032812         0.8929
  54   0.0000       0.044673         1.2156
  55   0.0000       0.063033         1.7152

MULLIKEN ATOMIC CHARGES
-----------------------
   0 C :   -0.160129
   1 S :    0.108274
   2 C :   -0.164209
   3 C :    0.073413
   4 C :    0.071622
   5 N :   -0.071381
   6 C :   -0.015402
   7 C :   -0.020464
   8 N :   -0.190346
   9 C :    0.141174
  10 N :   -0.072080
  11 N :   -0.193887
  12 C :    0.133426
  13 H :    0.005384
  14 H :    0.004091
  15 H :    0.119213
  16 H :    0.019703
  17 H :    0.007274
  18 H :    0.026735
  19 H :    0.119363
  20 H :    0.031571
  21 H :    0.017938
  22 H :    0.008717
Sum of atomic charges:    0.0000000

LOEWDIN ATOMIC CHARGES
----------------------
   0 C :   -0.219915
   1 S :    0.451467
   2 C :   -0.220358
   3 C :   -0.053811
   4 C :   -0.054468
   5 N :   -0.110040
   6 C :    0.013027
   7 C :    0.013493
   8 N :   -0.038555
   9 C :    0.027016
  10 N :   -0.111823
  11 N :   -0.041083
  12 C :    0.025505
  13 H :    0.023691
  14 H :    0.023387
  15 H :    0.068477
  16 H :    0.017917
  17 H :    0.020333
  18 H :    0.029446
  19 H :    0.068294
  20 H :    0.030615
  21 H :    0.017173
  22 H :    0.020213

  Mayer bond orders larger than 0.100000
B(  0-C ,  1-S ) :   1.1725 B(  0-C ,  2-C ) :   0.1131 B(  0-C ,  4-C ) :   1.4244
B(  0-C , 13-H ) :   0.9667 B(  1-S ,  2-C ) :   1.1723 B(  2-C ,  3-C ) :   1.4234
B(  2-C , 14-H ) :   0.9679 B(  3-C ,  4-C ) :   1.1916 B(  3-C , 10-N ) :   1.2919
B(  4-C ,  5-N ) :   1.2894 B(  5-N ,  6-C ) :   1.6987 B(  6-C ,  7-C ) :   1.0275
B(  6-C , 11-N ) :   1.2111 B(  7-C ,  8-N ) :   1.2209 B(  7-C , 10-N ) :   1.6947
B(  8-N ,  9-C ) :   1.0145 B(  8-N , 15-H ) :   0.9024 B(  9-C , 16-H ) :   0.9655
B(  9-C , 17-H ) :   0.9721 B(  9-C , 18-H ) :   0.9711 B( 11-N , 12-C ) :   1.0161
B( 11-N , 19-H ) :   0.9024 B( 12-C , 20-H ) :   0.9702 B( 12-C , 21-H ) :   0.9665
B( 12-C , 22-H ) :   0.9719

Dispersion correction           -0.046489853
FINAL SINGLE POINT ENERGY      -927.617914958878

DIPOLE MOMENT
-------------
                                X             Y             Z
Electronic contribution:    -14.42564       0.62670      -1.54449
Nuclear contribution   :     15.92747      -0.69037       1.69893
                        -----------------------------------------
Total Dipole Moment    :      1.50183      -0.06367       0.15443
                        -----------------------------------------
Magnitude (a.u.)       :      1.51109
Magnitude (Debye)      :      3.84089

Rotational constants in cm-1:     0.038052     0.017113     0.011874
Rotational constants in MHz :  1140.771304   513.042832   355.961304

                             ****ORCA TERMINATED NORMALLY****
TOTAL RUN TIME: 0 days 0 hours 20 minutes 17 seconds 245 msec
