                         Program Version 4.2.0 -  RELEASE  -
|  1> # ORCA input file
|  2> # SCF done        -46.216396646080          0.000551714992
|  3> ! B3LYP/G D3BJ Opt RIJCOSX def2-SVP def2/J
|  4> * xyz 0 1
|  5>    C       -0.85850         1.27552        -0.06160
|  6>    S       -2.10679         0.11584         0.02875
|  7>    C       -1.01482        -1.22633         0.07739
|  8>    C        0.29497        -0.76244         0.02410
|  9>    C        0.37608         0.67189        -0.05742
| 10>    N        1.57529         1.29920        -0.11842
| 11>    C        2.64641         0.55520        -0.10166
| 12>    C        3.97878         1.24236        -0.15961
| 13>    C        3.87055         2.71183        -0.59112
| 14>    O        3.17329         3.50377         0.32807
| 15>    C        2.56297        -0.87988        -0.00496
| 16>    C        3.80431        -1.73845         0.04614
| 17>    N        3.56039        -3.15548         0.20666
| 18>    N        1.42099        -1.50796         0.05458
| 19>    C       -1.52558        -2.56403         0.15892
| 20>    C       -0.76636        -3.65837         0.19164
| 21>    H       -1.08501         2.32064        -0.11521
| 22>    H        4.63763         0.71232        -0.84989
| 23>    H        4.43254         1.19740         0.83550
| 24>    H        3.39376         2.75695        -1.58165
| 25>    H        4.87284         3.14197        -0.66711
| 26>    H        2.28441         3.11988         0.39493
| 27>    H        4.43574        -1.40173         0.87588
| 28>    H        4.37468        -1.59571        -0.87917
| 29>    H        3.03417        -3.31490         1.06040
| 30>    H        2.98244        -3.48803        -0.55903
| 31>    H       -2.60484        -2.63982         0.19430
| 32>    H        0.30606        -3.58873         0.15757
| 33>    H       -1.20220        -4.63976         0.25382
| 34> *
| 35>
| 36>                          ****END OF INPUT****
 Total Charge           Charge          ....    0
 Multiplicity           Mult            ....    1
 Number of Electrons    NEL             ....  124
Dispersion correction           -0.062656992
FINAL SINGLE POINT ENERGY     -1064.091636722248
Dispersion correction            ... done
Dispersion correction           -0.061948148
FINAL SINGLE POINT ENERGY     -1064.095155069773
Dispersion correction            ... done
Dispersion correction           -0.062006557
FINAL SINGLE POINT ENERGY     -1064.095621920966
Dispersion correction            ... done
FINAL SINGLE POINT ENERGY     -1064.095654176299
Dispersion correction            ... done
Dispersion correction           -0.062042189
FINAL SINGLE POINT ENERGY     -1064.095620353482
Dispersion correction            ... done
Dispersion correction           -0.062039729
FINAL SINGLE POINT ENERGY     -1064.095643613372
Dispersion correction            ... done
                    ***********************HURRAY********************

CARTESIAN COORDINATES (ANGSTROEM)
---------------------------------
  C     -0.904022    1.285042   -0.027057
  S     -2.138506    0.097446    0.042809
  C     -1.039133   -1.244590    0.076895
  C      0.276609   -0.757409    0.037732
  C      0.348464    0.684992   -0.029179
  N      1.555729    1.320022   -0.094733
  C      2.636565    0.576581   -0.092235
  C      3.979226    1.260569   -0.191116
  C      3.904209    2.731847   -0.609041
  O      3.262223    3.538474    0.342834
  C      2.557612   -0.879538    0.012315
  C      3.819594   -1.728461    0.077641
  N      3.612168   -3.151136    0.235286
  N      1.411862   -1.505634    0.068868
  C     -1.553008   -2.599992    0.136164
  C     -0.816434   -3.725392    0.162550
  H     -1.138754    2.345705   -0.078875
  H      4.622039    0.706200   -0.895440
  H      4.484579    1.193239    0.789812
  H      3.413747    2.793926   -1.602659
  H      4.928805    3.118796   -0.731249
  H      2.359672    3.180466    0.395106
  H      4.452652   -1.353746    0.903134
  H      4.418045   -1.546114   -0.833458
  H      3.046982   -3.316535    1.069464
  H      3.030918   -3.492049   -0.531324
  H     -2.645749   -2.682882    0.157802
  H      0.273805   -3.685555    0.143042
  H     -1.305697   -4.701120    0.206711

 Multiplicity           Mult            ....    1
 Number of Electrons    NEL             ....  124
 Basis Dimension        Dim             ....  293

ORBITAL ENERGIES
----------------

  NO   OCC          E(Eh)            E(eV)
   0   2.0000     -88.901426     -2419.1308
   1   2.0000     -19.107514      -519.9419
   2   2.0000     -14.352282      -390.5455
   3   2.0000     -14.347316      -390.4103
   4   2.0000     -14.309767      -389.3886
   5   2.0000     -10.253552      -279.0133
   6   2.0000     -10.246148      -278.8119
   7   2.0000     -10.239791      -278.6389
   8   2.0000     -10.236528      -278.5501
   9   2.0000     -10.233839      -278.4769
  10   2.0000     -10.228221      -278.3241
  11   2.0000     -10.227169      -278.2954
  12   2.0000     -10.227035      -278.2918
  13   2.0000     -10.211569      -277.8709
  14   2.0000     -10.200446      -277.5682
  15   2.0000     -10.193612      -277.3823
  16   2.0000      -7.995892      -217.5793
  17   2.0000      -5.963473      -162.2744
  18   2.0000      -5.959615      -162.1694
  19   2.0000      -5.958210      -162.1311
  20   2.0000      -0.996473       -27.1154
  21   2.0000      -0.986040       -26.8315
  22   2.0000      -0.921733       -25.0816
  23   2.0000      -0.896609       -24.3980
  24   2.0000      -0.874856       -23.8061
  25   2.0000      -0.798377       -21.7250
  26   2.0000      -0.786355       -21.3978
  27   2.0000      -0.741666       -20.1818
  28   2.0000      -0.719507       -19.5788
  29   2.0000      -0.696915       -18.9640
  30   2.0000      -0.653109       -17.7720
  31   2.0000      -0.620993       -16.8981
  32   2.0000      -0.611121       -16.6295
  33   2.0000      -0.590397       -16.0655
  34   2.0000      -0.569895       -15.5076
  35   2.0000      -0.545149       -14.8343
  36   2.0000      -0.506186       -13.7740
  37   2.0000      -0.497615       -13.5408
  38   2.0000      -0.489508       -13.3202
  39   2.0000      -0.479349       -13.0438
  40   2.0000      -0.468708       -12.7542
  41   2.0000      -0.457943       -12.4613
  42   2.0000      -0.450038       -12.2462
  43   2.0000      -0.443595       -12.0708
  44   2.0000      -0.433014       -11.7829
  45   2.0000      -0.420158       -11.4331
  46   2.0000      -0.407396       -11.0858
  47   2.0000      -0.407204       -11.0806
  48   2.0000      -0.389024       -10.5859
  49   2.0000      -0.381376       -10.3778
  50   2.0000      -0.376169       -10.2361
  51   2.0000      -0.367286        -9.9944
  52   2.0000      -0.366474        -9.9723
  53   2.0000      -0.352179        -9.5833
  54   2.0000      -0.334663        -9.1066
  55   2.0000      -0.313490        -8.5305
  56   2.0000      -0.303811        -8.2671
  57   2.0000      -0.266252        -7.2451
  58   2.0000      -0.263098        -7.1593
  59   2.0000      -0.254900        -6.9362
  60   2.0000      -0.245940        -6.6924
  61   2.0000      -0.219995        -5.9864
  62   0.0000      -0.095080        -2.5873
  63   0.0000      -0.035348        -0.9619
  64   0.0000      -0.006120        -0.1665
  65   0.0000       0.023029         0.6266
  66   0.0000       0.044995         1.2244

MULLIKEN ATOMIC CHARGES
-----------------------
   0 C :   -0.153174
   1 S :    0.158035
   2 C :   -0.173385
   3 C :    0.055373
   4 C :    0.085438
   5 N :   -0.079332
   6 C :   -0.091984
   7 C :    0.035784
   8 C :    0.262178
   9 O :   -0.326813
  10 C :   -0.164710
  11 C :    0.153698
  12 N :   -0.178477
  13 N :   -0.032107
  14 C :    0.016921
  15 C :   -0.015016
  16 H :    0.020526
  17 H :    0.008475
  18 H :    0.026584
  19 H :   -0.018116
  20 H :   -0.008988
  21 H :    0.155277
  22 H :    0.021468
  23 H :    0.022725
  24 H :    0.093627
  25 H :    0.096991
  26 H :   -0.014246
  27 H :    0.023387
  28 H :    0.019858
Sum of atomic charges:   -0.0000000

LOEWDIN ATOMIC CHARGES
----------------------
   0 C :   -0.207964
   1 S :    0.500126
   2 C :   -0.188011
   3 C :   -0.047994
   4 C :   -0.047764
   5 N :   -0.061046
   6 C :    0.012268
   7 C :   -0.058869
   8 C :    0.077118
   9 O :   -0.149543
  10 C :   -0.018474
  11 C :    0.006233
  12 N :   -0.096371
  13 N :   -0.055873
  14 C :   -0.048434
  15 C :   -0.036353
  16 H :    0.030879
  17 H :    0.033734
  18 H :    0.040720
  19 H :    0.002111
  20 H :    0.017394
  21 H :    0.049088
  22 H :    0.032405
  23 H :    0.031841
  24 H :    0.054806
  25 H :    0.054564
  26 H :    0.027603
  27 H :    0.020287
  28 H :    0.025517

  Mayer bond orders larger than 0.100000
B(  0-C ,  1-S ) :   1.1854 B(  0-C ,  2-C ) :   0.1209 B(  0-C ,  4-C ) :   1.3840
B(  0-C , 16-H ) :   0.9730 B(  1-S ,  2-C ) :   1.1843 B(  2-C ,  3-C ) :   1.3313
B(  2-C , 14-C ) :   1.1329 B(  3-C ,  4-C ) :   1.2001 B(  3-C , 13-N ) :   1.3575
B(  4-C ,  5-N ) :   1.3109 B(  5-N ,  6-C ) :   1.6924 B(  6-C ,  7-C ) :   1.0672
B(  6-C , 10-C ) :   1.0962 B(  7-C ,  8-C ) :   1.0726 B(  7-C , 17-H ) :   0.9007
B(  7-C , 18-H ) :   0.8912 B(  8-C ,  9-O ) :   1.0698 B(  8-C , 19-H ) :   0.9370
B(  8-C , 20-H ) :   0.9344 B(  9-O , 21-H ) :   0.9605 B( 10-C , 11-C ) :   0.9909
B( 10-C , 13-N ) :   1.7358 B( 11-C , 12-N ) :   1.1717 B( 11-C , 22-H ) :   0.9192
B( 11-C , 23-H ) :   0.9181 B( 12-N , 24-H ) :   0.9743 B( 12-N , 25-H ) :   0.9738
B( 14-C , 15-C ) :   1.9071 B( 14-C , 26-H ) :   0.9442 B( 15-C , 27-H ) :   0.9348
B( 15-C , 28-H ) :   0.9395

Dispersion correction           -0.062038095
FINAL SINGLE POINT ENERGY     -1064.095647024242

DIPOLE MOMENT
-------------
                                X             Y             Z
Electronic contribution:    -15.10117       3.96566       0.82988
Nuclear contribution   :     14.51711      -4.49618      -1.11824
                        -----------------------------------------
Total Dipole Moment    :     -0.58406      -0.53053      -0.28836
                        -----------------------------------------
Magnitude (a.u.)       :      0.84008
Magnitude (Debye)      :      2.13532

Rotational constants in cm-1:     0.021509     0.012173     0.007878
Rotational constants in MHz :   644.812139   364.927981   236.163248

                             ****ORCA TERMINATED NORMALLY****
TOTAL RUN TIME: 0 days 0 hours 17 minutes 43 seconds 428 msec
