                         Program Version 4.2.0 -  RELEASE  -
|  1> # ORCA input file
|  2> # SCF done        -24.274464145212          0.000653961815
|  3> ! B3LYP/G D3BJ Opt RIJCOSX def2-SVP def2/J
|  4> * xyz 0 1
|  5>    C        0.09974         1.16090         0.12550
|  6>    S       -1.07192        -0.07408         0.26465
|  7>    C        0.16147        -1.26086         0.02419
|  8>    N       -0.19570        -2.62188         0.02882
|  9>    O        0.68921        -3.43505        -0.14557
| 10>    O       -1.36956        -2.88350         0.20592
| 11>    C        1.40724        -0.71289        -0.15380
| 12>    C        1.36281         0.68669        -0.09413
| 13>    H       -0.20196         2.18630         0.21303
| 14>    H        2.29030        -1.30282        -0.31723
| 15>    H        2.22406         1.31897        -0.20819
| 16> *
| 17>
| 18>                          ****END OF INPUT****
 Total Charge           Charge          ....    0
 Multiplicity           Mult            ....    1
 Number of Electrons    NEL             ....   66
Dispersion correction           -0.021479057
FINAL SINGLE POINT ENERGY      -757.146324544872
Dispersion correction            ... done
Dispersion correction           -0.021391952
FINAL SINGLE POINT ENERGY      -757.148339772203
Dispersion correction            ... done
Dispersion correction           -0.021379600
FINAL SINGLE POINT ENERGY      -757.148340058292
Dispersion correction            ... done
FINAL SINGLE POINT ENERGY      -757.148454996281
FINAL SINGLE POINT ENERGY      -757.148340659438
FINAL SINGLE POINT ENERGY      -757.148505950456
Dispersion correction            ... done
Dispersion correction           -0.021384463
FINAL SINGLE POINT ENERGY      -757.148498133791
Dispersion correction            ... done
Dispersion correction           -0.021385367
FINAL SINGLE POINT ENERGY      -757.148473631553
Dispersion correction            ... done
                    ***********************HURRAY********************

CARTESIAN COORDINATES (ANGSTROEM)
---------------------------------
  C      0.101652    1.187899    0.138398
  S     -1.079091   -0.060184    0.292952
  C      0.150984   -1.251895    0.037565
  N     -0.196922   -2.650684    0.028083
  O      0.715750   -3.454321   -0.081395
  O     -1.385716   -2.925137    0.132037
  C      1.403201   -0.718085   -0.156608
  C      1.369394    0.701335   -0.099231
  H     -0.205645    2.229699    0.228086
  H      2.279967   -1.336817   -0.340062
  H      2.242116    1.339969   -0.236633

 Multiplicity           Mult            ....    1
 Number of Electrons    NEL             ....   66
 Basis Dimension        Dim             ....  131

ORBITAL ENERGIES
----------------

  NO   OCC          E(Eh)            E(eV)
   0   2.0000     -88.910256     -2419.3711
   1   2.0000     -19.166231      -521.5396
   2   2.0000     -19.165850      -521.5293
   3   2.0000     -14.569810      -396.4647
   4   2.0000     -10.270856      -279.4842
   5   2.0000     -10.248603      -278.8787
   6   2.0000     -10.232554      -278.4420
   7   2.0000     -10.226615      -278.2803
   8   2.0000      -8.005137      -217.8308
   9   2.0000      -5.973336      -162.5427
  10   2.0000      -5.968971      -162.4240
  11   2.0000      -5.966444      -162.3552
  12   2.0000      -1.228280       -33.4232
  13   2.0000      -1.054576       -28.6965
  14   2.0000      -0.919586       -25.0232
  15   2.0000      -0.804246       -21.8847
  16   2.0000      -0.770295       -20.9608
  17   2.0000      -0.691509       -18.8169
  18   2.0000      -0.591072       -16.0839
  19   2.0000      -0.564013       -15.3476
  20   2.0000      -0.556959       -15.1556
  21   2.0000      -0.548968       -14.9382
  22   2.0000      -0.509933       -13.8760
  23   2.0000      -0.486027       -13.2255
  24   2.0000      -0.436482       -11.8773
  25   2.0000      -0.425770       -11.5858
  26   2.0000      -0.413201       -11.2438
  27   2.0000      -0.384978       -10.4758
  28   2.0000      -0.317366        -8.6360
  29   2.0000      -0.316536        -8.6134
  30   2.0000      -0.299832        -8.1588
  31   2.0000      -0.288640        -7.8543
  32   2.0000      -0.277424        -7.5491
  33   0.0000      -0.100223        -2.7272
  34   0.0000      -0.019708        -0.5363
  35   0.0000       0.014472         0.3938
  36   0.0000       0.036793         1.0012
  37   0.0000       0.055292         1.5046

MULLIKEN ATOMIC CHARGES
-----------------------
   0 C :   -0.073956
   1 S :    0.184060
   2 C :   -0.035630
   3 N :    0.256143
   4 O :   -0.243285
   5 O :   -0.256800
   6 C :    0.053645
   7 C :    0.040317
   8 H :    0.047106
   9 H :    0.018189
  10 H :    0.010210
Sum of atomic charges:    0.0000000

LOEWDIN ATOMIC CHARGES
----------------------
   0 C :   -0.161932
   1 S :    0.483925
   2 C :   -0.196997
   3 N :    0.266752
   4 O :   -0.207521
   5 O :   -0.220291
   6 C :   -0.023367
   7 C :   -0.056937
   8 H :    0.033059
   9 H :    0.045884
  10 H :    0.037425

  Mayer bond orders larger than 0.100000
B(  0-C ,  1-S ) :   1.1907 B(  0-C ,  7-C ) :   1.5251 B(  0-C ,  8-H ) :   0.9698
B(  1-S ,  2-C ) :   1.1468 B(  2-C ,  3-N ) :   0.9290 B(  2-C ,  6-C ) :   1.4920
B(  3-N ,  4-O ) :   1.5318 B(  3-N ,  5-O ) :   1.5070 B(  4-O ,  5-O ) :   0.2798
B(  6-C ,  7-C ) :   1.2578 B(  6-C ,  9-H ) :   0.9875 B(  7-C , 10-H ) :   0.9888

Dispersion correction           -0.021385337
FINAL SINGLE POINT ENERGY      -757.148472338711

DIPOLE MOMENT
-------------
                                X             Y             Z
Electronic contribution:     -3.68440      -3.27451       0.51443
Nuclear contribution   :      4.23115       5.04218      -0.53744
                        -----------------------------------------
Total Dipole Moment    :      0.54675       1.76767      -0.02301
                        -----------------------------------------
Magnitude (a.u.)       :      1.85044
Magnitude (Debye)      :      4.70344

Rotational constants in cm-1:     0.126320     0.050358     0.036030
Rotational constants in MHz :  3786.964616  1509.693296  1080.144765

                             ****ORCA TERMINATED NORMALLY****
TOTAL RUN TIME: 0 days 0 hours 4 minutes 31 seconds 970 msec
