                         Program Version 4.2.0 -  RELEASE  -
|  1> # ORCA input file
|  2> # SCF done        -31.797919073138          0.000778438772
|  3> ! B3LYP/G D3BJ Opt RIJCOSX def2-SVP def2/J
|  4> * xyz 0 1
|  5>    C        1.49025        -1.30832        -0.24819
|  6>    S        2.76449        -0.17013        -0.23288
|  7>    C        1.66917         1.14495         0.08806
|  8>    C        0.36857         0.69079         0.14688
|  9>    C        0.27652        -0.71890        -0.04657
| 10>    O       -0.86211        -1.46171        -0.11784
| 11>    S       -2.16198        -0.99128         0.81190
| 12>    C       -2.38745         0.62205         0.02910
| 13>    S       -1.00993         1.74637         0.44170
| 14>    C        2.23490         2.45933         0.22745
| 15>    C        1.60862         3.55989         0.63674
| 16>    H        1.67336        -2.34710        -0.43017
| 17>    H       -3.28875         1.07553         0.42978
| 18>    H       -2.45441         0.49218        -1.04943
| 19>    H        3.28716         2.50494        -0.02708
| 20>    H        0.57394         3.56591         0.92975
| 21>    H        2.13113         4.49846         0.69735
| 22> *
| 23>
| 24>                          ****END OF INPUT****
 Total Charge           Charge          ....    0
 Multiplicity           Mult            ....    1
 Number of Electrons    NEL             ....  104
Dispersion correction           -0.045153396
FINAL SINGLE POINT ENERGY     -1539.537778541689
Dispersion correction            ... done
Dispersion correction           -0.044786102
FINAL SINGLE POINT ENERGY     -1539.540776039928
Dispersion correction            ... done
Dispersion correction           -0.044730789
FINAL SINGLE POINT ENERGY     -1539.541136955655
Dispersion correction            ... done
FINAL SINGLE POINT ENERGY     -1539.541092178374
FINAL SINGLE POINT ENERGY     -1539.541209483920
FINAL SINGLE POINT ENERGY     -1539.541098401579
FINAL SINGLE POINT ENERGY     -1539.541233309915
FINAL SINGLE POINT ENERGY     -1539.541284533242
Dispersion correction            ... done
Dispersion correction           -0.044761130
FINAL SINGLE POINT ENERGY     -1539.541291344759
Dispersion correction            ... done
Dispersion correction           -0.044761726
FINAL SINGLE POINT ENERGY     -1539.541285277662
Dispersion correction            ... done
                    ***********************HURRAY********************

CARTESIAN COORDINATES (ANGSTROEM)
---------------------------------
  C      1.515814   -1.332562   -0.287910
  S      2.792231   -0.195322   -0.104641
  C      1.678850    1.131505    0.160661
  C      0.361959    0.685210    0.095620
  C      0.287216   -0.727166   -0.180803
  O     -0.874562   -1.421131   -0.383741
  S     -2.126814   -1.089309    0.736372
  C     -2.426144    0.589211    0.151380
  S     -1.022401    1.740311    0.405489
  C      2.255670    2.446659    0.379046
  C      1.628794    3.632435    0.484252
  H      1.704564   -2.383086   -0.496103
  H     -3.265597    0.998854    0.732932
  H     -2.704008    0.551471   -0.911887
  H      3.349433    2.444144    0.456124
  H      0.547002    3.749546    0.403569
  H      2.211473    4.542190    0.646191

 Multiplicity           Mult            ....    1
 Number of Electrons    NEL             ....  104
 Basis Dimension        Dim             ....  196

ORBITAL ENERGIES
----------------

  NO   OCC          E(Eh)            E(eV)
   0   2.0000     -88.899086     -2419.0671
   1   2.0000     -88.879550     -2418.5355
   2   2.0000     -88.867227     -2418.2002
   3   2.0000     -19.188969      -522.1584
   4   2.0000     -10.260491      -279.2022
   5   2.0000     -10.257795      -279.1288
   6   2.0000     -10.229253      -278.3521
   7   2.0000     -10.225577      -278.2521
   8   2.0000     -10.215511      -277.9782
   9   2.0000     -10.206777      -277.7405
  10   2.0000     -10.190250      -277.2908
  11   2.0000      -7.990446      -217.4311
  12   2.0000      -7.974553      -216.9986
  13   2.0000      -7.961613      -216.6465
  14   2.0000      -5.962717      -162.2538
  15   2.0000      -5.955931      -162.0691
  16   2.0000      -5.946229      -161.8051
  17   2.0000      -5.942656      -161.7079
  18   2.0000      -5.938898      -161.6056
  19   2.0000      -5.935548      -161.5145
  20   2.0000      -5.930942      -161.3891
  21   2.0000      -5.926978      -161.2813
  22   2.0000      -5.920202      -161.0969
  23   2.0000      -1.065715       -28.9996
  24   2.0000      -0.890964       -24.2444
  25   2.0000      -0.834469       -22.7070
  26   2.0000      -0.784219       -21.3397
  27   2.0000      -0.774558       -21.0768
  28   2.0000      -0.714169       -19.4335
  29   2.0000      -0.689413       -18.7599
  30   2.0000      -0.647864       -17.6293
  31   2.0000      -0.600874       -16.3506
  32   2.0000      -0.568160       -15.4604
  33   2.0000      -0.526478       -14.3262
  34   2.0000      -0.518022       -14.0961
  35   2.0000      -0.478665       -13.0251
  36   2.0000      -0.464752       -12.6465
  37   2.0000      -0.459379       -12.5003
  38   2.0000      -0.442301       -12.0356
  39   2.0000      -0.437563       -11.9067
  40   2.0000      -0.410198       -11.1620
  41   2.0000      -0.397413       -10.8142
  42   2.0000      -0.384271       -10.4565
  43   2.0000      -0.376763       -10.2522
  44   2.0000      -0.363550        -9.8927
  45   2.0000      -0.352903        -9.6030
  46   2.0000      -0.320730        -8.7275
  47   2.0000      -0.308378        -8.3914
  48   2.0000      -0.288015        -7.8373
  49   2.0000      -0.249495        -6.7891
  50   2.0000      -0.227798        -6.1987
  51   2.0000      -0.211442        -5.7536
  52   0.0000      -0.049380        -1.3437
  53   0.0000      -0.039866        -1.0848
  54   0.0000       0.008405         0.2287
  55   0.0000       0.023686         0.6445
  56   0.0000       0.030474         0.8292

MULLIKEN ATOMIC CHARGES
-----------------------
   0 C :   -0.118586
   1 S :    0.116081
   2 C :   -0.176536
   3 C :   -0.016614
   4 C :    0.223418
   5 O :   -0.408923
   6 S :    0.227766
   7 C :   -0.124125
   8 S :    0.032834
   9 C :    0.037097
  10 C :   -0.052044
  11 H :    0.023126
  12 H :    0.083894
  13 H :    0.105421
  14 H :   -0.008426
  15 H :    0.032458
  16 H :    0.023160
Sum of atomic charges:   -0.0000000

LOEWDIN ATOMIC CHARGES
----------------------
   0 C :   -0.213966
   1 S :    0.441565
   2 C :   -0.198077
   3 C :   -0.216412
   4 C :   -0.036821
   5 O :   -0.250401
   6 S :    0.374787
   7 C :   -0.263909
   8 S :    0.309364
   9 C :   -0.048609
  10 C :   -0.058898
  11 H :    0.031720
  12 H :    0.034813
  13 H :    0.026624
  14 H :    0.028793
  15 H :    0.011960
  16 H :    0.027468

  Mayer bond orders larger than 0.100000
B(  0-C ,  1-S ) :   1.1369 B(  0-C ,  4-C ) :   1.5646 B(  0-C , 11-H ) :   0.9621
B(  1-S ,  2-C ) :   1.1361 B(  2-C ,  3-C ) :   1.5059 B(  2-C ,  9-C ) :   1.1361
B(  3-C ,  4-C ) :   1.2088 B(  3-C ,  8-S ) :   1.0244 B(  4-C ,  5-O ) :   1.0357
B(  5-O ,  6-S ) :   0.8800 B(  6-S ,  7-C ) :   1.0080 B(  7-C ,  8-S ) :   0.9702
B(  7-C , 12-H ) :   0.9421 B(  7-C , 13-H ) :   0.9350 B(  9-C , 10-C ) :   1.9027
B(  9-C , 14-H ) :   0.9440 B( 10-C , 15-H ) :   0.9483 B( 10-C , 16-H ) :   0.9402

Dispersion correction           -0.044763331
FINAL SINGLE POINT ENERGY     -1539.541290566990

DIPOLE MOMENT
-------------
                                X             Y             Z
Electronic contribution:     -1.02170      -6.89643       0.35677
Nuclear contribution   :      0.62471       7.08585      -0.28870
                        -----------------------------------------
Total Dipole Moment    :     -0.39699       0.18942       0.06807
                        -----------------------------------------
Magnitude (a.u.)       :      0.44510
Magnitude (Debye)      :      1.13136

Rotational constants in cm-1:     0.038992     0.021670     0.014300
Rotational constants in MHz :  1168.956580   649.643907   428.705322

                             ****ORCA TERMINATED NORMALLY****
TOTAL RUN TIME: 0 days 0 hours 11 minutes 37 seconds 931 msec
