                         Program Version 4.2.0 -  RELEASE  -
|  1> # ORCA input file
|  2> # SCF done        -30.852010701978          0.000753646717
|  3> ! B3LYP/G D3BJ Opt RIJCOSX def2-SVP def2/J
|  4> * xyz 0 1
|  5>    C        1.41440        -0.89446        -0.12876
|  6>    S        1.87827         0.76224        -0.19119
|  7>    C        0.24666         1.29817         0.03474
|  8>    C       -0.60715         0.21688         0.15129
|  9>    C        0.07210        -1.04258         0.05646
| 10>    O       -0.63588        -2.18688         0.15380
| 11>    C        0.08088        -3.39481         0.05780
| 12>    C       -1.99611         0.27638         0.34228
| 13>    N       -3.13319         0.28850         0.49836
| 14>    C       -0.01150         2.71290         0.07402
| 15>    C       -1.20086         3.28658         0.24293
| 16>    H        2.16714        -1.64867        -0.23353
| 17>    H       -0.65783        -4.18672         0.16199
| 18>    H        0.82473        -3.47922         0.85655
| 19>    H        0.58023        -3.48383        -0.91230
| 20>    H        0.87377         3.32595        -0.04716
| 21>    H       -2.10368         2.71484         0.36747
| 22>    H       -1.29858         4.35784         0.25919
| 23> *
| 24>
| 25>                          ****END OF INPUT****
 Total Charge           Charge          ....    0
 Multiplicity           Mult            ....    1
 Number of Electrons    NEL             ....   86
Dispersion correction           -0.036945234
FINAL SINGLE POINT ENERGY      -836.773765169378
Dispersion correction            ... done
Dispersion correction           -0.036680064
FINAL SINGLE POINT ENERGY      -836.776435975311
Dispersion correction            ... done
Dispersion correction           -0.036660134
FINAL SINGLE POINT ENERGY      -836.776537904735
Dispersion correction            ... done
FINAL SINGLE POINT ENERGY      -836.776545264831
FINAL SINGLE POINT ENERGY      -836.776528889658
FINAL SINGLE POINT ENERGY      -836.776556332706
FINAL SINGLE POINT ENERGY      -836.776561171221
Dispersion correction            ... done
Dispersion correction           -0.036666513
FINAL SINGLE POINT ENERGY      -836.776562683331
Dispersion correction            ... done
Dispersion correction           -0.036666258
FINAL SINGLE POINT ENERGY      -836.776563692511
Dispersion correction            ... done
                    ***********************HURRAY********************

CARTESIAN COORDINATES (ANGSTROEM)
---------------------------------
  C      1.434043   -0.913881   -0.122846
  S      1.872118    0.760167   -0.196211
  C      0.237794    1.291643    0.055199
  C     -0.611929    0.193710    0.187650
  C      0.082519   -1.066459    0.090925
  O     -0.613820   -2.208033    0.213945
  C      0.091967   -3.420717    0.040695
  C     -2.016991    0.269473    0.390660
  N     -3.164952    0.346924    0.553745
  C     -0.023150    2.723113    0.093391
  C     -1.219196    3.328114    0.191625
  H      2.190733   -1.683548   -0.243099
  H     -0.641753   -4.229696    0.143309
  H      0.877950   -3.541999    0.806843
  H      0.559742   -3.469833   -0.959274
  H      0.874805    3.347712    0.028826
  H     -2.158422    2.777405    0.255088
  H     -1.278060    4.419013    0.213469

 Multiplicity           Mult            ....    1
 Number of Electrons    NEL             ....   86
 Basis Dimension        Dim             ....  193

ORBITAL ENERGIES
----------------

  NO   OCC          E(Eh)            E(eV)
   0   2.0000     -88.894541     -2418.9434
   1   2.0000     -19.186955      -522.1036
   2   2.0000     -14.324222      -389.7819
   3   2.0000     -10.275693      -279.6158
   4   2.0000     -10.261073      -279.2180
   5   2.0000     -10.249134      -278.8931
   6   2.0000     -10.234088      -278.4837
   7   2.0000     -10.227128      -278.2943
   8   2.0000     -10.223849      -278.2051
   9   2.0000     -10.217713      -278.0381
  10   2.0000     -10.202887      -277.6347
  11   2.0000      -7.989546      -217.4066
  12   2.0000      -5.957650      -162.1159
  13   2.0000      -5.953703      -162.0085
  14   2.0000      -5.950712      -161.9271
  15   2.0000      -1.084458       -29.5096
  16   2.0000      -0.909140       -24.7390
  17   2.0000      -0.888071       -24.1656
  18   2.0000      -0.799311       -21.7504
  19   2.0000      -0.780302       -21.2331
  20   2.0000      -0.735729       -20.0202
  21   2.0000      -0.705811       -19.2061
  22   2.0000      -0.635575       -17.2949
  23   2.0000      -0.598657       -16.2903
  24   2.0000      -0.583517       -15.8783
  25   2.0000      -0.543767       -14.7966
  26   2.0000      -0.500150       -13.6098
  27   2.0000      -0.491310       -13.3692
  28   2.0000      -0.479616       -13.0510
  29   2.0000      -0.469957       -12.7882
  30   2.0000      -0.432000       -11.7553
  31   2.0000      -0.424489       -11.5509
  32   2.0000      -0.410923       -11.1818
  33   2.0000      -0.389442       -10.5973
  34   2.0000      -0.383559       -10.4372
  35   2.0000      -0.359424        -9.7804
  36   2.0000      -0.356315        -9.6958
  37   2.0000      -0.354770        -9.6538
  38   2.0000      -0.354080        -9.6350
  39   2.0000      -0.327980        -8.9248
  40   2.0000      -0.309511        -8.4222
  41   2.0000      -0.252104        -6.8601
  42   2.0000      -0.231294        -6.2938
  43   0.0000      -0.073809        -2.0085
  44   0.0000       0.002154         0.0586
  45   0.0000       0.014960         0.4071
  46   0.0000       0.033312         0.9065
  47   0.0000       0.041200         1.1211

MULLIKEN ATOMIC CHARGES
-----------------------
   0 C :   -0.215146
   1 S :    0.128131
   2 C :   -0.089828
   3 C :   -0.101201
   4 C :    0.260804
   5 O :   -0.288617
   6 C :    0.185364
   7 C :   -0.165680
   8 N :    0.086105
   9 C :    0.036333
  10 C :   -0.025881
  11 H :    0.025451
  12 H :    0.044684
  13 H :    0.024215
  14 H :    0.021285
  15 H :   -0.009117
  16 H :    0.048267
  17 H :    0.034832
Sum of atomic charges:   -0.0000000

LOEWDIN ATOMIC CHARGES
----------------------
   0 C :   -0.257080
   1 S :    0.457114
   2 C :   -0.139693
   3 C :   -0.124095
   4 C :    0.031800
   5 O :   -0.083586
   6 C :    0.087130
   7 C :   -0.018845
   8 N :   -0.070630
   9 C :   -0.050900
  10 C :   -0.017283
  11 H :    0.026281
  12 H :    0.031993
  13 H :    0.015741
  14 H :    0.015857
  15 H :    0.029934
  16 H :    0.034191
  17 H :    0.032070

  Mayer bond orders larger than 0.100000
B(  0-C ,  1-S ) :   1.0989 B(  0-C ,  4-C ) :   1.4606 B(  0-C , 11-H ) :   0.9684
B(  1-S ,  2-C ) :   1.1571 B(  2-C ,  3-C ) :   1.4706 B(  2-C ,  9-C ) :   1.1347
B(  3-C ,  4-C ) :   1.2348 B(  3-C ,  7-C ) :   1.1512 B(  4-C ,  5-O ) :   1.2178
B(  5-O ,  6-C ) :   0.9512 B(  6-C , 12-H ) :   0.9786 B(  6-C , 13-H ) :   0.9654
B(  6-C , 14-H ) :   0.9646 B(  7-C ,  8-N ) :   2.9432 B(  9-C , 10-C ) :   1.9100
B(  9-C , 15-H ) :   0.9377 B( 10-C , 16-H ) :   0.9460 B( 10-C , 17-H ) :   0.9421

Dispersion correction           -0.036666215
FINAL SINGLE POINT ENERGY      -836.776564894391

DIPOLE MOMENT
-------------
                                X             Y             Z
Electronic contribution:      0.68013       2.58239       0.11445
Nuclear contribution   :      1.03359      -3.09597      -0.40414
                        -----------------------------------------
Total Dipole Moment    :      1.71372      -0.51358      -0.28969
                        -----------------------------------------
Magnitude (a.u.)       :      1.81232
Magnitude (Debye)      :      4.60656

Rotational constants in cm-1:     0.045446     0.028323     0.017512
Rotational constants in MHz :  1362.428424   849.111537   524.998656

                             ****ORCA TERMINATED NORMALLY****
TOTAL RUN TIME: 0 days 0 hours 9 minutes 51 seconds 609 msec
