                         Program Version 4.2.0 -  RELEASE  -
|  1> # ORCA input file
|  2> # SCF done        -37.922777657625          0.000457205699
|  3> ! B3LYP/G D3BJ Opt RIJCOSX def2-SVP def2/J
|  4> * xyz 0 1
|  5>    C       -0.81184         0.32034         0.79662
|  6>    O       -0.82780        -0.98765         1.15836
|  7>    C        0.00454        -1.60334         0.32696
|  8>    C        0.56961        -0.71543        -0.57996
|  9>    C        0.02536         0.54769        -0.26195
| 10>    C        1.48774        -1.44767        -1.48613
| 11>    O        2.15957        -1.03074        -2.39460
| 12>    C        1.38154        -2.85983        -0.99418
| 13>    C        0.49664        -2.92600         0.08104
| 14>    S        0.32821        -4.51118         0.68197
| 15>    C        1.45622        -5.11298        -0.51729
| 16>    C        1.92420        -4.10082        -1.33032
| 17>    C        1.75721        -6.51777        -0.53181
| 18>    C        2.59292        -7.11628        -1.37869
| 19>    H       -1.43355         0.98335         1.36394
| 20>    H        0.21698         1.48664        -0.73801
| 21>    H        2.62433        -4.25525        -2.12959
| 22>    H        1.24431        -7.10279         0.22055
| 23>    H        3.12424        -6.57378        -2.14061
| 24>    H        2.76938        -8.17593        -1.33091
| 25> *
| 26>
| 27>                          ****END OF INPUT****
 Total Charge           Charge          ....    0
 Multiplicity           Mult            ....    1
 Number of Electrons    NEL             ....  104
Dispersion correction           -0.044789517
FINAL SINGLE POINT ENERGY      -970.855002559962
Dispersion correction            ... done
Dispersion correction           -0.044719392
FINAL SINGLE POINT ENERGY      -970.858751308317
Dispersion correction            ... done
Dispersion correction           -0.044691796
FINAL SINGLE POINT ENERGY      -970.859003183526
Dispersion correction            ... done
FINAL SINGLE POINT ENERGY      -970.858985735977
FINAL SINGLE POINT ENERGY      -970.859093758195
Dispersion correction            ... done
Dispersion correction           -0.044683959
FINAL SINGLE POINT ENERGY      -970.859125877423
Dispersion correction            ... done
Dispersion correction           -0.044683657
FINAL SINGLE POINT ENERGY      -970.859126037247
Dispersion correction            ... done
                    ***********************HURRAY********************

CARTESIAN COORDINATES (ANGSTROEM)
---------------------------------
  C     -0.818161    0.359953    0.830312
  O     -0.829767   -0.985250    1.153886
  C      0.005800   -1.572263    0.295248
  C      0.566463   -0.669163   -0.581254
  C      0.026858    0.604256   -0.223824
  C      1.469980   -1.419369   -1.515208
  O      2.118849   -1.012342   -2.448511
  C      1.366207   -2.860401   -1.026951
  C      0.478596   -2.922494    0.048234
  S      0.308030   -4.514258    0.644928
  C      1.448059   -5.132940   -0.548056
  C      1.918875   -4.108745   -1.366852
  C      1.758965   -6.552181   -0.536116
  C      2.631392   -7.175906   -1.346149
  H     -1.455991    0.992663    1.439555
  H      0.230320    1.571566   -0.676959
  H      2.634277   -4.266662   -2.173444
  H      1.221780   -7.146675    0.211494
  H      3.200534   -6.639557   -2.109415
  H      2.808745   -8.249652   -1.255529

 Multiplicity           Mult            ....    1
 Number of Electrons    NEL             ....  104
 Basis Dimension        Dim             ....  230

ORBITAL ENERGIES
----------------

  NO   OCC          E(Eh)            E(eV)
   0   2.0000     -88.901257     -2419.1262
   1   2.0000     -19.229934      -523.2731
   2   2.0000     -19.139602      -520.8150
   3   2.0000     -10.293320      -280.0955
   4   2.0000     -10.270876      -279.4848
   5   2.0000     -10.256313      -279.0885
   6   2.0000     -10.240800      -278.6663
   7   2.0000     -10.234482      -278.4944
   8   2.0000     -10.214157      -277.9413
   9   2.0000     -10.213522      -277.9241
  10   2.0000     -10.213364      -277.9198
  11   2.0000     -10.206019      -277.7199
  12   2.0000     -10.198557      -277.5169
  13   2.0000     -10.196553      -277.4623
  14   2.0000      -7.995140      -217.5588
  15   2.0000      -5.963103      -162.2643
  16   2.0000      -5.959170      -162.1573
  17   2.0000      -5.956761      -162.0917
  18   2.0000      -1.130737       -30.7689
  19   2.0000      -1.043249       -28.3882
  20   2.0000      -0.912482       -24.8299
  21   2.0000      -0.847951       -23.0739
  22   2.0000      -0.802534       -21.8381
  23   2.0000      -0.776470       -21.1288
  24   2.0000      -0.758152       -20.6304
  25   2.0000      -0.709004       -19.2930
  26   2.0000      -0.668074       -18.1792
  27   2.0000      -0.628330       -17.0977
  28   2.0000      -0.598649       -16.2901
  29   2.0000      -0.572807       -15.5869
  30   2.0000      -0.555501       -15.1160
  31   2.0000      -0.537285       -14.6203
  32   2.0000      -0.507855       -13.8194
  33   2.0000      -0.494502       -13.4561
  34   2.0000      -0.488539       -13.2938
  35   2.0000      -0.464560       -12.6413
  36   2.0000      -0.451062       -12.2740
  37   2.0000      -0.445983       -12.1358
  38   2.0000      -0.428860       -11.6699
  39   2.0000      -0.427296       -11.6273
  40   2.0000      -0.418988       -11.4012
  41   2.0000      -0.402279       -10.9466
  42   2.0000      -0.396118       -10.7789
  43   2.0000      -0.386018       -10.5041
  44   2.0000      -0.374043       -10.1782
  45   2.0000      -0.368194       -10.0191
  46   2.0000      -0.329802        -8.9744
  47   2.0000      -0.302936        -8.2433
  48   2.0000      -0.278843        -7.5877
  49   2.0000      -0.269785        -7.3412
  50   2.0000      -0.266793        -7.2598
  51   2.0000      -0.205941        -5.6039
  52   0.0000      -0.097594        -2.6557
  53   0.0000      -0.050428        -1.3722
  54   0.0000       0.004881         0.1328
  55   0.0000       0.013731         0.3736
  56   0.0000       0.050452         1.3729

MULLIKEN ATOMIC CHARGES
-----------------------
   0 C :    0.136260
   1 O :   -0.194435
   2 C :    0.080746
   3 C :   -0.075561
   4 C :   -0.036862
   5 C :    0.198126
   6 O :   -0.127129
   7 C :   -0.076607
   8 C :   -0.043792
   9 S :    0.179987
  10 C :   -0.105302
  11 C :    0.001180
  12 C :    0.038133
  13 C :   -0.032007
  14 H :    0.015918
  15 H :    0.001673
  16 H :   -0.004263
  17 H :   -0.007788
  18 H :    0.020762
  19 H :    0.030963
Sum of atomic charges:   -0.0000000

LOEWDIN ATOMIC CHARGES
----------------------
   0 C :    0.039721
   1 O :    0.015773
   2 C :    0.031241
   3 C :   -0.112606
   4 C :   -0.040617
   5 C :    0.093973
   6 O :   -0.116076
   7 C :   -0.086982
   8 C :   -0.196374
   9 S :    0.471868
  10 C :   -0.171320
  11 C :   -0.026019
  12 C :   -0.046194
  13 C :   -0.044753
  14 H :    0.026090
  15 H :    0.040045
  16 H :    0.039469
  17 H :    0.029442
  18 H :    0.023718
  19 H :    0.029600

  Mayer bond orders larger than 0.100000
B(  0-C ,  1-O ) :   1.0676 B(  0-C ,  4-C ) :   1.5343 B(  0-C , 14-H ) :   1.0034
B(  1-O ,  2-C ) :   1.2160 B(  2-C ,  3-C ) :   1.4704 B(  2-C ,  8-C ) :   1.1073
B(  3-C ,  4-C ) :   1.2333 B(  3-C ,  5-C ) :   0.9206 B(  4-C , 15-H ) :   1.0053
B(  5-C ,  6-O ) :   2.2633 B(  5-C ,  7-C ) :   0.9034 B(  7-C ,  8-C ) :   1.4286
B(  7-C , 11-C ) :   1.3259 B(  8-C ,  9-S ) :   1.1168 B(  9-S , 10-C ) :   1.1031
B( 10-C , 11-C ) :   1.4470 B( 10-C , 12-C ) :   1.1150 B( 11-C , 16-H ) :   0.9995
B( 12-C , 13-C ) :   1.9213 B( 12-C , 17-H ) :   0.9469 B( 13-C , 18-H ) :   0.9513
B( 13-C , 19-H ) :   0.9442

Dispersion correction           -0.044683374
FINAL SINGLE POINT ENERGY      -970.859122665709

DIPOLE MOMENT
-------------
                                X             Y             Z
Electronic contribution:     -3.84736       5.76144       2.87238
Nuclear contribution   :      3.39528      -6.06917      -2.19446
                        -----------------------------------------
Total Dipole Moment    :     -0.45208      -0.30773       0.67792
                        -----------------------------------------
Magnitude (a.u.)       :      0.87100
Magnitude (Debye)      :      2.21391

Rotational constants in cm-1:     0.048623     0.013633     0.010649
Rotational constants in MHz :  1457.688572   408.697552   319.254299

                             ****ORCA TERMINATED NORMALLY****
TOTAL RUN TIME: 0 days 0 hours 11 minutes 53 seconds 267 msec
