                         Program Version 4.2.0 -  RELEASE  -
|  1> # ORCA input file
|  2> # SCF done        -38.556272770405          0.000553441282
|  3> ! B3LYP/G D3BJ Opt RIJCOSX def2-SVP def2/J
|  4> * xyz 0 1
|  5>    C       -1.92125         0.84681         0.05163
|  6>    N       -0.70813         1.43276         0.07643
|  7>    C       -0.35299         2.82897         0.15633
|  8>    C       -1.55912         3.75322         0.13449
|  9>    N        0.26694         0.52892         0.01684
| 10>    C       -0.31623        -0.65884        -0.04658
| 11>    C       -1.71925        -0.51599        -0.03014
| 12>    C       -2.76398        -1.58165        -0.06960
| 13>    C       -2.96451        -2.22827         1.30202
| 14>    C        0.48816        -1.91328        -0.09710
| 15>    C        1.10978        -2.20516         1.27117
| 16>    C        1.91602        -3.46329         1.34734
| 17>    C        2.15192        -4.31449         0.36665
| 18>    H       -2.83561         1.40246         0.08605
| 19>    H        0.31058         3.05184        -0.68647
| 20>    H        0.22210         2.98130         1.07715
| 21>    H       -2.13319         3.61863        -0.77930
| 22>    H       -1.22017         4.78496         0.17817
| 23>    H       -2.20490         3.56894         0.98990
| 24>    H       -2.47697        -2.35082        -0.79143
| 25>    H       -3.70716        -1.14175        -0.40294
| 26>    H       -2.05010        -2.71730         1.62931
| 27>    H       -3.75745        -2.97230         1.25982
| 28>    H       -3.23443        -1.47466         2.03940
| 29>    H        1.28720        -1.79508        -0.83124
| 30>    H       -0.15300        -2.74285        -0.39877
| 31>    H        0.31743        -2.25806         2.02612
| 32>    H        1.74885        -1.36095         1.54761
| 33>    H        2.33091        -3.65630         2.33011
| 34>    H        1.76646        -4.17468        -0.62831
| 35>    H        2.75010        -5.19710         0.51931
| 36> *
| 37>
| 38>                          ****END OF INPUT****
 Total Charge           Charge          ....    0
 Multiplicity           Mult            ....    1
 Number of Electrons    NEL             ....   98
Dispersion correction           -0.052130711
FINAL SINGLE POINT ENERGY      -539.142583180133
Dispersion correction            ... done
Dispersion correction           -0.051561155
FINAL SINGLE POINT ENERGY      -539.146379852064
Dispersion correction            ... done
Dispersion correction           -0.051416165
FINAL SINGLE POINT ENERGY      -539.146547494935
Dispersion correction            ... done
FINAL SINGLE POINT ENERGY      -539.146481961990
FINAL SINGLE POINT ENERGY      -539.146447970787
FINAL SINGLE POINT ENERGY      -539.146428755443
FINAL SINGLE POINT ENERGY      -539.146414220240
FINAL SINGLE POINT ENERGY      -539.146402496637
FINAL SINGLE POINT ENERGY      -539.146393162953
FINAL SINGLE POINT ENERGY      -539.146393325888
FINAL SINGLE POINT ENERGY      -539.146398563477
FINAL SINGLE POINT ENERGY      -539.146406356520
FINAL SINGLE POINT ENERGY      -539.146411070275
FINAL SINGLE POINT ENERGY      -539.146406880287
FINAL SINGLE POINT ENERGY      -539.146396193886
Dispersion correction            ... done
Dispersion correction           -0.051372269
FINAL SINGLE POINT ENERGY      -539.146382844489
Dispersion correction            ... done
Dispersion correction           -0.051361607
FINAL SINGLE POINT ENERGY      -539.146369425306
Dispersion correction            ... done
                    ***********************HURRAY********************

CARTESIAN COORDINATES (ANGSTROEM)
---------------------------------
  C     -1.939014    0.839721    0.070345
  N     -0.708711    1.423368    0.055008
  C     -0.343091    2.828212    0.165925
  C     -1.519828    3.780515    0.041585
  N      0.276287    0.515902   -0.015427
  C     -0.323419   -0.675599   -0.050287
  C     -1.741417   -0.534896    0.003268
  C     -2.786683   -1.613091    0.027488
  C     -3.128060   -2.113119    1.441311
  C      0.501627   -1.926939   -0.108143
  C      1.013355   -2.363665    1.271209
  C      1.939057   -3.548481    1.285972
  C      2.411106   -4.212935    0.227116
  H     -2.856399    1.421109    0.114404
  H      0.402875    3.029622   -0.617869
  H      0.168427    2.975139    1.132379
  H     -2.033164    3.670811   -0.926589
  H     -1.151046    4.814831    0.118131
  H     -2.259830    3.628301    0.842149
  H     -2.444001   -2.463621   -0.585258
  H     -3.704431   -1.240816   -0.458503
  H     -2.235932   -2.520388    1.943320
  H     -3.891893   -2.907462    1.416824
  H     -3.512822   -1.291218    2.065874
  H      1.363152   -1.739874   -0.767899
  H     -0.081855   -2.743324   -0.563835
  H      0.153948   -2.572875    1.934853
  H      1.527229   -1.505415    1.742237
  H      2.259542   -3.872707    2.284773
  H      2.138581   -3.947616   -0.797968
  H      3.094419   -5.057500    0.351576

 Multiplicity           Mult            ....    1
 Number of Electrons    NEL             ....   98
 Basis Dimension        Dim             ....  272

ORBITAL ENERGIES
----------------

  NO   OCC          E(Eh)            E(eV)
   0   2.0000     -14.392037      -391.6272
   1   2.0000     -14.320499      -389.6806
   2   2.0000     -10.233272      -278.4615
   3   2.0000     -10.209586      -277.8170
   4   2.0000     -10.200696      -277.5751
   5   2.0000     -10.192372      -277.3485
   6   2.0000     -10.188387      -277.2401
   7   2.0000     -10.184019      -277.1213
   8   2.0000     -10.183541      -277.1082
   9   2.0000     -10.180388      -277.0225
  10   2.0000     -10.178840      -276.9803
  11   2.0000     -10.173249      -276.8282
  12   2.0000     -10.172356      -276.8039
  13   2.0000      -1.032450       -28.0944
  14   2.0000      -0.841380       -22.8951
  15   2.0000      -0.790515       -21.5110
  16   2.0000      -0.788489       -21.4559
  17   2.0000      -0.753767       -20.5110
  18   2.0000      -0.730910       -19.8891
  19   2.0000      -0.706042       -19.2124
  20   2.0000      -0.651996       -17.7417
  21   2.0000      -0.636370       -17.3165
  22   2.0000      -0.600310       -16.3353
  23   2.0000      -0.559903       -15.2357
  24   2.0000      -0.548471       -14.9247
  25   2.0000      -0.525589       -14.3020
  26   2.0000      -0.508089       -13.8258
  27   2.0000      -0.488427       -13.2908
  28   2.0000      -0.467268       -12.7150
  29   2.0000      -0.455242       -12.3878
  30   2.0000      -0.437163       -11.8958
  31   2.0000      -0.432189       -11.7605
  32   2.0000      -0.428072       -11.6484
  33   2.0000      -0.418411       -11.3855
  34   2.0000      -0.412615       -11.2278
  35   2.0000      -0.399427       -10.8690
  36   2.0000      -0.388658       -10.5759
  37   2.0000      -0.380349       -10.3498
  38   2.0000      -0.375213       -10.2101
  39   2.0000      -0.360682        -9.8147
  40   2.0000      -0.353358        -9.6154
  41   2.0000      -0.347375        -9.4525
  42   2.0000      -0.342388        -9.3169
  43   2.0000      -0.337838        -9.1930
  44   2.0000      -0.333569        -9.0769
  45   2.0000      -0.274443        -7.4680
  46   2.0000      -0.253073        -6.8865
  47   2.0000      -0.237867        -6.4727
  48   2.0000      -0.226998        -6.1769
  49   0.0000       0.015293         0.4162
  50   0.0000       0.022432         0.6104
  51   0.0000       0.050946         1.3863
  52   0.0000       0.054523         1.4836
  53   0.0000       0.066920         1.8210

MULLIKEN ATOMIC CHARGES
-----------------------
   0 C :    0.044422
   1 N :   -0.157116
   2 C :    0.160595
   3 C :   -0.032905
   4 N :   -0.131445
   5 C :   -0.120940
   6 C :   -0.122649
   7 C :    0.094809
   8 C :    0.009038
   9 C :    0.137282
  10 C :    0.054955
  11 C :   -0.066417
  12 C :   -0.037941
  13 H :   -0.013777
  14 H :    0.024534
  15 H :    0.020348
  16 H :    0.027477
  17 H :    0.025820
  18 H :    0.029707
  19 H :   -0.000180
  20 H :   -0.010544
  21 H :    0.009138
  22 H :    0.013057
  23 H :    0.004907
  24 H :    0.005496
  25 H :   -0.012426
  26 H :    0.004787
  27 H :    0.018817
  28 H :   -0.008568
  29 H :    0.015089
  30 H :    0.014631
Sum of atomic charges:   -0.0000000

LOEWDIN ATOMIC CHARGES
----------------------
   0 C :   -0.022523
   1 N :    0.080539
   2 C :    0.044524
   3 C :   -0.061374
   4 N :   -0.119052
   5 C :   -0.043802
   6 C :   -0.097928
   7 C :   -0.028982
   8 C :   -0.054449
   9 C :   -0.029463
  10 C :   -0.031983
  11 C :   -0.023188
  12 C :   -0.075259
  13 H :    0.018929
  14 H :    0.029966
  15 H :    0.026582
  16 H :    0.028388
  17 H :    0.035600
  18 H :    0.026528
  19 H :    0.025922
  20 H :    0.025074
  21 H :    0.019968
  22 H :    0.021473
  23 H :    0.020529
  24 H :    0.033255
  25 H :    0.024120
  26 H :    0.027686
  27 H :    0.035846
  28 H :    0.022397
  29 H :    0.018230
  30 H :    0.022446

  Mayer bond orders larger than 0.100000
B(  0-C ,  1-N ) :   1.2190 B(  0-C ,  4-N ) :   0.1164 B(  0-C ,  6-C ) :   1.4144
B(  0-C , 13-H ) :   0.9813 B(  1-N ,  2-C ) :   0.9447 B(  1-N ,  4-N ) :   1.1446
B(  2-C ,  3-C ) :   1.1132 B(  2-C , 14-H ) :   0.9444 B(  2-C , 15-H ) :   0.9438
B(  3-C , 16-H ) :   0.9650 B(  3-C , 17-H ) :   0.9613 B(  3-C , 18-H ) :   0.9633
B(  4-N ,  5-C ) :   1.5476 B(  5-C ,  6-C ) :   1.3414 B(  5-C ,  9-C ) :   1.0826
B(  6-C ,  7-C ) :   1.0806 B(  7-C ,  8-C ) :   1.1084 B(  7-C , 19-H ) :   0.9209
B(  7-C , 20-H ) :   0.9184 B(  8-C , 21-H ) :   0.9667 B(  8-C , 22-H ) :   0.9622
B(  8-C , 23-H ) :   0.9657 B(  9-C , 10-C ) :   1.1110 B(  9-C , 24-H ) :   0.8930
B(  9-C , 25-H ) :   0.9068 B( 10-C , 11-C ) :   1.0360 B( 10-C , 26-H ) :   0.9179
B( 10-C , 27-H ) :   0.9144 B( 11-C , 12-C ) :   2.0176 B( 11-C , 28-H ) :   0.9579
B( 12-C , 29-H ) :   0.9410 B( 12-C , 30-H ) :   0.9483

Dispersion correction           -0.051360192
FINAL SINGLE POINT ENERGY      -539.146370337474

DIPOLE MOMENT
-------------
                                X             Y             Z
Electronic contribution:      2.98812       2.83733      -2.59667
Nuclear contribution   :     -3.70019      -2.08651       2.74232
                        -----------------------------------------
Total Dipole Moment    :     -0.71206       0.75082       0.14564
                        -----------------------------------------
Magnitude (a.u.)       :      1.04497
Magnitude (Debye)      :      2.65611

Rotational constants in cm-1:     0.038749     0.014080     0.011101
Rotational constants in MHz :  1161.663961   422.101209   332.800068

                             ****ORCA TERMINATED NORMALLY****
TOTAL RUN TIME: 0 days 0 hours 36 minutes 52 seconds 709 msec
