                         Program Version 4.2.0 -  RELEASE  -
|  1> # ORCA input file
|  2> # SCF done        -39.310198928583          0.000215549139
|  3> ! B3LYP/G D3BJ Opt RIJCOSX def2-SVP def2/J
|  4> * xyz 0 1
|  5>    C       -2.04526        -1.14549        -0.02586
|  6>    S       -2.10415         0.58626        -0.08377
|  7>    C       -0.37558         0.65400        -0.02607
|  8>    C        0.16802        -0.62044         0.03361
|  9>    C       -0.78920        -1.66359         0.03593
| 10>    C       -0.44625        -3.11801         0.06300
| 11>    C        0.10847        -3.56972        -1.28841
| 12>    S        1.89077        -0.55197         0.10072
| 13>    C        1.84973         1.20637         0.05311
| 14>    C        0.56795         1.70132        -0.02299
| 15>    C        0.17552         3.14477        -0.03603
| 16>    C        0.03606         3.68004         1.39031
| 17>    C        3.07358         1.95695         0.10022
| 18>    C        4.28742         1.42898         0.23354
| 19>    H       -2.97155        -1.68566        -0.03657
| 20>    H       -1.33747        -3.69722         0.31044
| 21>    H        0.30649        -3.29042         0.83619
| 22>    H       -0.62927        -3.41185        -2.07217
| 23>    H        0.36265        -4.62631        -1.25741
| 24>    H        1.00391        -3.00479        -1.53680
| 25>    H       -0.78334         3.23824        -0.55087
| 26>    H        0.91489         3.73446        -0.58065
| 27>    H       -0.71584         3.11129         1.93279
| 28>    H       -0.26466         4.72483         1.37403
| 29>    H        0.98154         3.59587         1.92194
| 30>    H        2.95667         3.03012         0.02620
| 31>    H        4.43247         0.36449         0.31733
| 32>    H        5.16989         2.04288         0.26497
| 33> *
| 34>
| 35>                          ****END OF INPUT****
 Total Charge           Charge          ....    0
 Multiplicity           Mult            ....    1
 Number of Electrons    NEL             ....  118
Dispersion correction           -0.063591324
FINAL SINGLE POINT ENERGY     -1261.579655433307
Dispersion correction            ... done
Dispersion correction           -0.063027967
FINAL SINGLE POINT ENERGY     -1261.583998339671
Dispersion correction            ... done
Dispersion correction           -0.062929331
FINAL SINGLE POINT ENERGY     -1261.584279776833
Dispersion correction            ... done
FINAL SINGLE POINT ENERGY     -1261.584347080301
FINAL SINGLE POINT ENERGY     -1261.584297961723
FINAL SINGLE POINT ENERGY     -1261.584293547594
FINAL SINGLE POINT ENERGY     -1261.584309078272
Dispersion correction            ... done
Dispersion correction           -0.063060602
FINAL SINGLE POINT ENERGY     -1261.584326720125
Dispersion correction            ... done
Dispersion correction           -0.063058359
FINAL SINGLE POINT ENERGY     -1261.584322063839
Dispersion correction            ... done
                    ***********************HURRAY********************

CARTESIAN COORDINATES (ANGSTROEM)
---------------------------------
  C     -2.054305   -1.095695    0.061296
  S     -2.067882    0.651791    0.016861
  C     -0.324537    0.684345    0.024421
  C      0.191192   -0.608543    0.060726
  C     -0.794327   -1.647342    0.083140
  C     -0.474616   -3.117056    0.069951
  C      0.083043   -3.581095   -1.283361
  S      1.930443   -0.579590    0.074410
  C      1.936204    1.191486    0.036996
  C      0.653624    1.725209    0.006434
  C      0.288430    3.185184    0.020186
  C     -0.246657    3.640457    1.386489
  C      3.191580    1.919694    0.043090
  C      4.429714    1.397861    0.092520
  H     -3.001971   -1.633099    0.068279
  H     -1.378389   -3.692415    0.326527
  H      0.263302   -3.328503    0.863563
  H     -0.667767   -3.450992   -2.078082
  H      0.377204   -4.642207   -1.252109
  H      0.970613   -2.994889   -1.567887
  H     -0.482246    3.359892   -0.750883
  H      1.152094    3.801836   -0.270685
  H     -1.105897    3.027249    1.698722
  H     -0.577477    4.690796    1.354484
  H      0.529048    3.541674    2.161218
  H      3.086253    3.008985    0.001329
  H      4.605464    0.318900    0.140323
  H      5.311324    2.041468    0.088773

 Multiplicity           Mult            ....    1
 Number of Electrons    NEL             ....  118
 Basis Dimension        Dim             ....  274

ORBITAL ENERGIES
----------------

  NO   OCC          E(Eh)            E(eV)
   0   2.0000     -88.873324     -2418.3661
   1   2.0000     -88.869354     -2418.2581
   2   2.0000     -10.217530      -278.0331
   3   2.0000     -10.212447      -277.8948
   4   2.0000     -10.211132      -277.8590
   5   2.0000     -10.210225      -277.8343
   6   2.0000     -10.205502      -277.7058
   7   2.0000     -10.203905      -277.6624
   8   2.0000     -10.202759      -277.6312
   9   2.0000     -10.200042      -277.5573
  10   2.0000     -10.198567      -277.5171
  11   2.0000     -10.188184      -277.2346
  12   2.0000     -10.185385      -277.1584
  13   2.0000     -10.184344      -277.1301
  14   2.0000      -7.967535      -216.8076
  15   2.0000      -7.963547      -216.6991
  16   2.0000      -5.935901      -161.5241
  17   2.0000      -5.932004      -161.4180
  18   2.0000      -5.931900      -161.4152
  19   2.0000      -5.928345      -161.3185
  20   2.0000      -5.928205      -161.3147
  21   2.0000      -5.924134      -161.2039
  22   2.0000      -0.902077       -24.5468
  23   2.0000      -0.844683       -22.9850
  24   2.0000      -0.795569       -21.6485
  25   2.0000      -0.777235       -21.1497
  26   2.0000      -0.772169       -21.0118
  27   2.0000      -0.720896       -19.6166
  28   2.0000      -0.694272       -18.8921
  29   2.0000      -0.691245       -18.8097
  30   2.0000      -0.624319       -16.9886
  31   2.0000      -0.618899       -16.8411
  32   2.0000      -0.609644       -16.5893
  33   2.0000      -0.542292       -14.7565
  34   2.0000      -0.534209       -14.5366
  35   2.0000      -0.523019       -14.2321
  36   2.0000      -0.477657       -12.9977
  37   2.0000      -0.468494       -12.7484
  38   2.0000      -0.453104       -12.3296
  39   2.0000      -0.441481       -12.0133
  40   2.0000      -0.437057       -11.8929
  41   2.0000      -0.422872       -11.5069
  42   2.0000      -0.419544       -11.4164
  43   2.0000      -0.400329       -10.8935
  44   2.0000      -0.399185       -10.8624
  45   2.0000      -0.389225       -10.5914
  46   2.0000      -0.385300       -10.4846
  47   2.0000      -0.373737       -10.1699
  48   2.0000      -0.369806       -10.0629
  49   2.0000      -0.353140        -9.6094
  50   2.0000      -0.348696        -9.4885
  51   2.0000      -0.346537        -9.4298
  52   2.0000      -0.341611        -9.2957
  53   2.0000      -0.338824        -9.2199
  54   2.0000      -0.328939        -8.9509
  55   2.0000      -0.290800        -7.9131
  56   2.0000      -0.264645        -7.2013
  57   2.0000      -0.225754        -6.1431
  58   2.0000      -0.204661        -5.5691
  59   0.0000      -0.051845        -1.4108
  60   0.0000       0.009681         0.2634
  61   0.0000       0.020555         0.5593
  62   0.0000       0.042168         1.1474
  63   0.0000       0.053103         1.4450

MULLIKEN ATOMIC CHARGES
-----------------------
   0 C :   -0.138655
   1 S :    0.105890
   2 C :   -0.080120
   3 C :   -0.051055
   4 C :   -0.039586
   5 C :    0.082521
   6 C :    0.003624
   7 S :    0.100236
   8 C :   -0.112832
   9 C :   -0.053293
  10 C :    0.064289
  11 C :    0.010112
  12 C :   -0.012064
  13 C :   -0.040052
  14 H :    0.014723
  15 H :   -0.006148
  16 H :    0.011219
  17 H :    0.016044
  18 H :    0.014406
  19 H :    0.016963
  20 H :    0.010973
  21 H :   -0.000766
  22 H :    0.016374
  23 H :    0.013910
  24 H :    0.018762
  25 H :   -0.008179
  26 H :    0.021098
  27 H :    0.021606
Sum of atomic charges:    0.0000000

LOEWDIN ATOMIC CHARGES
----------------------
   0 C :   -0.188937
   1 S :    0.399535
   2 C :   -0.202732
   3 C :   -0.196876
   4 C :   -0.067850
   5 C :   -0.027505
   6 C :   -0.051903
   7 S :    0.396794
   8 C :   -0.169496
   9 C :   -0.056991
  10 C :   -0.028931
  11 C :   -0.050497
  12 C :   -0.043678
  13 C :   -0.061307
  14 H :    0.022596
  15 H :    0.027380
  16 H :    0.029393
  17 H :    0.024914
  18 H :    0.023788
  19 H :    0.020165
  20 H :    0.030199
  21 H :    0.025685
  22 H :    0.019921
  23 H :    0.023837
  24 H :    0.025887
  25 H :    0.032410
  26 H :    0.018090
  27 H :    0.026109

  Mayer bond orders larger than 0.100000
B(  0-C ,  1-S ) :   1.1140 B(  0-C ,  4-C ) :   1.5735 B(  0-C , 14-H ) :   0.9599
B(  1-S ,  2-C ) :   1.0781 B(  2-C ,  3-C ) :   1.4507 B(  2-C ,  9-C ) :   1.2598
B(  3-C ,  4-C ) :   1.2608 B(  3-C ,  7-S ) :   1.0744 B(  4-C ,  5-C ) :   1.0744
B(  5-C ,  6-C ) :   1.1050 B(  5-C , 15-H ) :   0.9214 B(  5-C , 16-H ) :   0.9214
B(  6-C , 17-H ) :   0.9670 B(  6-C , 18-H ) :   0.9637 B(  6-C , 19-H ) :   0.9691
B(  7-S ,  8-C ) :   1.0634 B(  8-C ,  9-C ) :   1.5226 B(  8-C , 12-C ) :   1.1476
B(  9-C , 10-C ) :   1.0936 B( 10-C , 11-C ) :   1.1046 B( 10-C , 20-H ) :   0.9162
B( 10-C , 21-H ) :   0.9146 B( 11-C , 22-H ) :   0.9683 B( 11-C , 23-H ) :   0.9630
B( 11-C , 24-H ) :   0.9668 B( 12-C , 13-C ) :   1.8932 B( 12-C , 25-H ) :   0.9528
B( 13-C , 26-H ) :   0.9523 B( 13-C , 27-H ) :   0.9448

Dispersion correction           -0.063053697
FINAL SINGLE POINT ENERGY     -1261.584328138509

DIPOLE MOMENT
-------------
                                X             Y             Z
Electronic contribution:     -3.56123      -0.81482      -0.08388
Nuclear contribution   :      3.38577       0.81063       0.08883
                        -----------------------------------------
Total Dipole Moment    :     -0.17546      -0.00419       0.00495
                        -----------------------------------------
Magnitude (a.u.)       :      0.17558
Magnitude (Debye)      :      0.44629

Rotational constants in cm-1:     0.024076     0.015807     0.009971
Rotational constants in MHz :   721.784840   473.885752   298.915075

                             ****ORCA TERMINATED NORMALLY****
TOTAL RUN TIME: 0 days 0 hours 21 minutes 8 seconds 17 msec
