                         Program Version 4.2.0 -  RELEASE  -
|  1> # ORCA input file
|  2> # SCF done        -29.202305645010          0.000699157814
|  3> ! B3LYP/G D3BJ Opt RIJCOSX def2-SVP def2/J
|  4> * xyz 0 1
|  5>    C        1.04276         1.27880         0.06548
|  6>    C       -0.28218         0.76411         0.06879
|  7>    C       -1.49896         1.40145         0.05099
|  8>    S       -2.79021         0.28415         0.07524
|  9>    C       -1.73096        -1.05807         0.10966
| 10>    C       -0.41464        -0.66826         0.10187
| 11>    C        0.80882        -1.42157         0.12455
| 12>    N        1.96674        -0.81361         0.11731
| 13>    N        2.08209         0.50455         0.09103
| 14>    C        0.79443        -2.87616         0.15569
| 15>    C        1.89793        -3.60802         0.26446
| 16>    H        1.23084         2.34280         0.04305
| 17>    H       -1.69578         2.45421         0.02690
| 18>    H       -2.14207        -2.04688         0.13425
| 19>    H       -0.17912        -3.34167         0.08759
| 20>    H        2.85958        -3.12974         0.33473
| 21>    H        1.86833        -4.68375         0.28401
| 22> *
| 23>
| 24>                          ****END OF INPUT****
 Total Charge           Charge          ....    0
 Multiplicity           Mult            ....    1
 Number of Electrons    NEL             ....   84
Dispersion correction           -0.037950692
FINAL SINGLE POINT ENERGY      -815.702044157698
Dispersion correction            ... done
Dispersion correction           -0.037798844
FINAL SINGLE POINT ENERGY      -815.705251246758
Dispersion correction            ... done
Dispersion correction           -0.037780983
FINAL SINGLE POINT ENERGY      -815.705442697992
Dispersion correction            ... done
FINAL SINGLE POINT ENERGY      -815.705486825337
FINAL SINGLE POINT ENERGY      -815.705485825875
Dispersion correction            ... done
Dispersion correction           -0.037779841
FINAL SINGLE POINT ENERGY      -815.705487220197
Dispersion correction            ... done
Dispersion correction           -0.037779349
FINAL SINGLE POINT ENERGY      -815.705489260999
Dispersion correction            ... done
                    ***********************HURRAY********************

CARTESIAN COORDINATES (ANGSTROEM)
---------------------------------
  C      1.043628    1.306991    0.079706
  C     -0.285346    0.779600    0.070955
  C     -1.516576    1.419321    0.029360
  S     -2.794319    0.276366    0.036188
  C     -1.733226   -1.071151    0.095129
  C     -0.407843   -0.656721    0.110051
  C      0.822173   -1.410443    0.156218
  N      1.991378   -0.806601    0.160482
  N      2.105258    0.546178    0.121538
  C      0.799252   -2.882945    0.200424
  C      1.900296   -3.645088    0.226214
  H      1.221407    2.387855    0.049252
  H     -1.726591    2.486793   -0.007048
  H     -2.135398   -2.081281    0.117690
  H     -0.187947   -3.353294    0.213790
  H      2.887662   -3.178016    0.214486
  H      1.833794   -4.735223    0.261165

 Multiplicity           Mult            ....    1
 Number of Electrons    NEL             ....   84
 Basis Dimension        Dim             ....  188

ORBITAL ENERGIES
----------------

  NO   OCC          E(Eh)            E(eV)
   0   2.0000     -88.910138     -2419.3679
   1   2.0000     -14.345374      -390.3575
   2   2.0000     -14.341138      -390.2422
   3   2.0000     -10.241618      -278.6886
   4   2.0000     -10.238368      -278.6002
   5   2.0000     -10.237841      -278.5858
   6   2.0000     -10.233006      -278.4543
   7   2.0000     -10.220885      -278.1244
   8   2.0000     -10.220472      -278.1132
   9   2.0000     -10.201114      -277.5864
  10   2.0000     -10.196197      -277.4526
  11   2.0000      -8.004700      -217.8190
  12   2.0000      -5.972322      -162.5152
  13   2.0000      -5.968104      -162.4004
  14   2.0000      -5.967292      -162.3783
  15   2.0000      -0.996720       -27.1221
  16   2.0000      -0.907751       -24.7012
  17   2.0000      -0.842962       -22.9382
  18   2.0000      -0.788690       -21.4613
  19   2.0000      -0.757142       -20.6029
  20   2.0000      -0.744934       -20.2707
  21   2.0000      -0.662304       -18.0222
  22   2.0000      -0.626767       -17.0552
  23   2.0000      -0.601769       -16.3750
  24   2.0000      -0.563737       -15.3401
  25   2.0000      -0.552299       -15.0288
  26   2.0000      -0.496803       -13.5187
  27   2.0000      -0.482988       -13.1428
  28   2.0000      -0.469700       -12.7812
  29   2.0000      -0.442228       -12.0336
  30   2.0000      -0.433981       -11.8092
  31   2.0000      -0.428849       -11.6696
  32   2.0000      -0.400925       -10.9097
  33   2.0000      -0.390238       -10.6189
  34   2.0000      -0.383572       -10.4375
  35   2.0000      -0.371529       -10.1098
  36   2.0000      -0.339817        -9.2469
  37   2.0000      -0.299915        -8.1611
  38   2.0000      -0.288816        -7.8591
  39   2.0000      -0.274076        -7.4580
  40   2.0000      -0.233329        -6.3492
  41   2.0000      -0.226917        -6.1747
  42   0.0000      -0.089534        -2.4364
  43   0.0000      -0.032687        -0.8895
  44   0.0000      -0.009632        -0.2621
  45   0.0000       0.027443         0.7468
  46   0.0000       0.050814         1.3827

MULLIKEN ATOMIC CHARGES
-----------------------
   0 C :    0.019951
   1 C :    0.071571
   2 C :   -0.130218
   3 S :    0.160326
   4 C :   -0.135984
   5 C :    0.072286
   6 C :    0.006153
   7 N :   -0.091188
   8 N :   -0.068973
   9 C :   -0.038132
  10 C :    0.032825
  11 H :   -0.004100
  12 H :    0.033108
  13 H :    0.030259
  14 H :   -0.027338
  15 H :    0.044419
  16 H :    0.025034
Sum of atomic charges:    0.0000000

LOEWDIN ATOMIC CHARGES
----------------------
   0 C :    0.005211
   1 C :   -0.072154
   2 C :   -0.193145
   3 S :    0.507319
   4 C :   -0.194797
   5 C :   -0.063417
   6 C :    0.001884
   7 N :   -0.067995
   8 N :   -0.056051
   9 C :   -0.044754
  10 C :    0.005848
  11 H :    0.026444
  12 H :    0.031233
  13 H :    0.028526
  14 H :    0.023714
  15 H :    0.034633
  16 H :    0.027500

  Mayer bond orders larger than 0.100000
B(  0-C ,  1-C ) :   1.1196 B(  0-C ,  8-N ) :   1.7450 B(  0-C , 11-H ) :   0.9883
B(  1-C ,  2-C ) :   1.3952 B(  1-C ,  5-C ) :   1.2266 B(  2-C ,  3-S ) :   1.2226
B(  2-C ,  4-C ) :   0.1103 B(  2-C , 12-H ) :   0.9653 B(  3-S ,  4-C ) :   1.2140
B(  4-C ,  5-C ) :   1.4400 B(  4-C , 13-H ) :   0.9538 B(  5-C ,  6-C ) :   1.0847
B(  6-C ,  7-N ) :   1.7141 B(  6-C ,  9-C ) :   1.0972 B(  7-N ,  8-N ) :   1.1391
B(  9-C , 10-C ) :   1.9367 B(  9-C , 14-H ) :   0.9554 B( 10-C , 15-H ) :   0.9359
B( 10-C , 16-H ) :   0.9404

Dispersion correction           -0.037779227
FINAL SINGLE POINT ENERGY      -815.705489085917

DIPOLE MOMENT
-------------
                                X             Y             Z
Electronic contribution:     -4.38618       5.22272      -0.22105
Nuclear contribution   :      2.66877      -5.28408       0.18873
                        -----------------------------------------
Total Dipole Moment    :     -1.71741      -0.06136      -0.03233
                        -----------------------------------------
Magnitude (a.u.)       :      1.71881
Magnitude (Debye)      :      4.36887

Rotational constants in cm-1:     0.060399     0.026348     0.018345
Rotational constants in MHz :  1810.729612   789.884890   549.977130

                             ****ORCA TERMINATED NORMALLY****
TOTAL RUN TIME: 0 days 0 hours 8 minutes 20 seconds 421 msec
