                         Program Version 4.2.0 -  RELEASE  -
|  1> # ORCA input file
|  2> # SCF done        -33.743216697213          0.000651850916
|  3> ! B3LYP/G D3BJ Opt RIJCOSX def2-SVP def2/J
|  4> * xyz 0 1
|  5>    C       -1.44772         1.17577        -0.14794
|  6>    S       -2.59174        -0.08223        -0.22386
|  7>    C       -1.39779        -1.32792        -0.07221
|  8>    C       -0.13184        -0.76393        -0.00250
|  9>    C       -0.16844         0.68603        -0.01711
| 10>    N        0.94960         1.43530         0.08502
| 11>    C        2.06865         0.78451         0.17438
| 12>    N        2.24252        -0.54179         0.06006
| 13>    C        1.18259        -1.30690        -0.05450
| 14>    C        1.43350        -2.67927        -0.33918
| 15>    N        1.67847        -3.76440        -0.61201
| 16>    C       -1.83420        -2.69800         0.02640
| 17>    C       -1.22792        -3.64027         0.74255
| 18>    H       -1.75189         2.20184        -0.17394
| 19>    H        2.97376         1.36181         0.30488
| 20>    H       -2.76258        -2.91829        -0.48524
| 21>    H       -0.34050        -3.44677         1.31900
| 22>    H       -1.61249        -4.64338         0.77968
| 23> *
| 24>
| 25>                          ****END OF INPUT****
 Total Charge           Charge          ....    0
 Multiplicity           Mult            ....    1
 Number of Electrons    NEL             ....   96
Dispersion correction           -0.044918629
FINAL SINGLE POINT ENERGY      -907.902331661864
Dispersion correction            ... done
Dispersion correction           -0.044300126
FINAL SINGLE POINT ENERGY      -907.905725319349
Dispersion correction            ... done
Dispersion correction           -0.044587213
FINAL SINGLE POINT ENERGY      -907.905732299545
Dispersion correction            ... done
FINAL SINGLE POINT ENERGY      -907.906337042016
FINAL SINGLE POINT ENERGY      -907.906369118178
FINAL SINGLE POINT ENERGY      -907.906381598326
FINAL SINGLE POINT ENERGY      -907.906390435073
Dispersion correction            ... done
Dispersion correction           -0.044403752
FINAL SINGLE POINT ENERGY      -907.906392608474
Dispersion correction            ... done
Dispersion correction           -0.044403643
FINAL SINGLE POINT ENERGY      -907.906394329846
Dispersion correction            ... done
                    ***********************HURRAY********************

CARTESIAN COORDINATES (ANGSTROEM)
---------------------------------
  C     -1.463059    1.192821   -0.098915
  S     -2.583942   -0.092098   -0.182451
  C     -1.382003   -1.338310   -0.073745
  C     -0.110330   -0.749270   -0.010798
  C     -0.164237    0.706645   -0.001204
  N      0.955489    1.476765    0.081506
  C      2.094422    0.837752    0.116367
  N      2.282695   -0.511071    0.013643
  C      1.221215   -1.283981   -0.064227
  C      1.486319   -2.687273   -0.291429
  N      1.715124   -3.802180   -0.511295
  C     -1.844357   -2.719383    0.004153
  C     -1.291642   -3.693988    0.741780
  H     -1.773435    2.234969   -0.114628
  H      3.010446    1.431197    0.209439
  H     -2.758292   -2.940190   -0.558784
  H     -0.414670   -3.530500    1.369448
  H     -1.717765   -4.699794    0.734618

 Multiplicity           Mult            ....    1
 Number of Electrons    NEL             ....   96
 Basis Dimension        Dim             ....  211

ORBITAL ENERGIES
----------------

  NO   OCC          E(Eh)            E(eV)
   0   2.0000     -88.917609     -2419.5711
   1   2.0000     -14.355064      -390.6212
   2   2.0000     -14.349861      -390.4796
   3   2.0000     -14.347007      -390.4019
   4   2.0000     -10.296682      -280.1870
   5   2.0000     -10.271217      -279.4940
   6   2.0000     -10.257753      -279.1276
   7   2.0000     -10.255940      -279.0783
   8   2.0000     -10.242486      -278.7122
   9   2.0000     -10.238952      -278.6161
  10   2.0000     -10.238730      -278.6100
  11   2.0000     -10.225651      -278.2541
  12   2.0000     -10.212871      -277.9064
  13   2.0000      -8.012288      -218.0254
  14   2.0000      -5.979782      -162.7182
  15   2.0000      -5.975745      -162.6083
  16   2.0000      -5.974867      -162.5844
  17   2.0000      -1.004047       -27.3215
  18   2.0000      -0.925820       -25.1929
  19   2.0000      -0.914741       -24.8914
  20   2.0000      -0.897900       -24.4331
  21   2.0000      -0.807251       -21.9664
  22   2.0000      -0.797245       -21.6941
  23   2.0000      -0.737381       -20.0652
  24   2.0000      -0.711993       -19.3743
  25   2.0000      -0.656116       -17.8538
  26   2.0000      -0.628858       -17.1121
  27   2.0000      -0.591808       -16.1039
  28   2.0000      -0.560456       -15.2508
  29   2.0000      -0.555773       -15.1234
  30   2.0000      -0.495980       -13.4963
  31   2.0000      -0.487170       -13.2566
  32   2.0000      -0.469844       -12.7851
  33   2.0000      -0.462354       -12.5813
  34   2.0000      -0.449013       -12.2183
  35   2.0000      -0.431432       -11.7399
  36   2.0000      -0.408226       -11.1084
  37   2.0000      -0.389907       -10.6099
  38   2.0000      -0.386635       -10.5209
  39   2.0000      -0.384337       -10.4583
  40   2.0000      -0.377115       -10.2618
  41   2.0000      -0.356657        -9.7051
  42   2.0000      -0.337545        -9.1851
  43   2.0000      -0.320512        -8.7216
  44   2.0000      -0.306528        -8.3410
  45   2.0000      -0.296254        -8.0615
  46   2.0000      -0.276564        -7.5257
  47   2.0000      -0.238168        -6.4809
  48   0.0000      -0.117505        -3.1975
  49   0.0000      -0.052606        -1.4315
  50   0.0000      -0.028377        -0.7722
  51   0.0000       0.007343         0.1998
  52   0.0000       0.014789         0.4024

MULLIKEN ATOMIC CHARGES
-----------------------
   0 C :   -0.110631
   1 S :    0.179395
   2 C :   -0.181278
   3 C :    0.184377
   4 C :    0.033972
   5 N :   -0.075126
   6 C :    0.098461
   7 N :   -0.094010
   8 C :   -0.173762
   9 C :   -0.132651
  10 N :    0.119656
  11 C :    0.003266
  12 C :    0.007477
  13 H :    0.027984
  14 H :    0.021743
  15 H :    0.010289
  16 H :    0.041812
  17 H :    0.039026
Sum of atomic charges:   -0.0000000

LOEWDIN ATOMIC CHARGES
----------------------
   0 C :   -0.198349
   1 S :    0.524128
   2 C :   -0.170201
   3 C :   -0.076201
   4 C :   -0.024896
   5 N :   -0.071676
   6 C :    0.046026
   7 N :   -0.075207
   8 C :    0.004408
   9 C :   -0.019865
  10 N :   -0.033751
  11 C :   -0.058152
  12 C :   -0.004684
  13 H :    0.036555
  14 H :    0.023662
  15 H :    0.034033
  16 H :    0.029306
  17 H :    0.034863

  Mayer bond orders larger than 0.100000
B(  0-C ,  1-S ) :   1.1958 B(  0-C ,  2-C ) :   0.1130 B(  0-C ,  4-C ) :   1.3959
B(  0-C , 13-H ) :   0.9695 B(  1-S ,  2-C ) :   1.1957 B(  2-C ,  3-C ) :   1.3556
B(  2-C , 11-C ) :   1.0763 B(  3-C ,  4-C ) :   1.1488 B(  3-C ,  8-C ) :   1.1906
B(  4-C ,  5-N ) :   1.3609 B(  5-N ,  6-C ) :   1.6539 B(  6-C ,  7-N ) :   1.2982
B(  6-C , 14-H ) :   0.9668 B(  7-N ,  8-C ) :   1.7323 B(  8-C ,  9-C ) :   1.1029
B(  9-C , 10-N ) :   3.0200 B( 11-C , 12-C ) :   1.9297 B( 11-C , 15-H ) :   0.9430
B( 12-C , 16-H ) :   0.9559 B( 12-C , 17-H ) :   0.9434

Dispersion correction           -0.044404439
FINAL SINGLE POINT ENERGY      -907.906394312238

DIPOLE MOMENT
-------------
                                X             Y             Z
Electronic contribution:      1.00977       3.46460      -1.45753
Nuclear contribution   :     -2.46105      -2.87579       1.69556
                        -----------------------------------------
Total Dipole Moment    :     -1.45128       0.58881       0.23803
                        -----------------------------------------
Magnitude (a.u.)       :      1.58416
Magnitude (Debye)      :      4.02662

Rotational constants in cm-1:     0.030328     0.028229     0.015019
Rotational constants in MHz :   909.209590   846.272984   450.251607

                             ****ORCA TERMINATED NORMALLY****
TOTAL RUN TIME: 0 days 0 hours 13 minutes 5 seconds 100 msec
