                         Program Version 4.2.0 -  RELEASE  -
|  1> # ORCA input file
|  2> # SCF done        -25.344515884632          0.000963676897
|  3> ! B3LYP/G D3BJ Opt RIJCOSX def2-SVP def2/J
|  4> * xyz 0 1
|  5>    N        0.82386         1.19505         0.41907
|  6>    C        1.91682         0.23413         0.44007
|  7>    N        1.28684        -1.05807         0.27528
|  8>    C        0.13471        -0.82750        -0.58834
|  9>    C       -0.09595         0.73485        -0.59620
| 10>    N       -1.46773         0.92909        -0.16842
| 11>    C       -1.74811        -0.26407         0.61641
| 12>    N       -1.07671        -1.39145        -0.03123
| 13>    H        1.11781         2.15352         0.29423
| 14>    H        2.47144         0.30036         1.37801
| 15>    H        2.62000         0.37561        -0.40383
| 16>    H        0.93840        -1.40240         1.16397
| 17>    H        0.34936        -1.22842        -1.58467
| 18>    H        0.07235         1.18778        -1.58446
| 19>    H       -2.08010         0.98168        -0.97680
| 20>    H       -2.81552        -0.43918         0.73517
| 21>    H       -1.28686        -0.11570         1.59781
| 22>    H       -1.65862        -1.78976        -0.75975
| 23> *
| 24>
| 25>                          ****END OF INPUT****
 Total Charge           Charge          ....    0
 Multiplicity           Mult            ....    1
 Number of Electrons    NEL             ....   62
Dispersion correction           -0.029602230
FINAL SINGLE POINT ENERGY      -377.168179949397
Dispersion correction            ... done
Dispersion correction           -0.029346424
FINAL SINGLE POINT ENERGY      -377.169530594979
Dispersion correction            ... done
Dispersion correction           -0.029303596
FINAL SINGLE POINT ENERGY      -377.169718661466
Dispersion correction            ... done
FINAL SINGLE POINT ENERGY      -377.169820397579
FINAL SINGLE POINT ENERGY      -377.169852294983
FINAL SINGLE POINT ENERGY      -377.169886138583
Dispersion correction            ... done
Dispersion correction           -0.029276422
FINAL SINGLE POINT ENERGY      -377.169900294524
Dispersion correction            ... done
Dispersion correction           -0.029270791
FINAL SINGLE POINT ENERGY      -377.169904388682
Dispersion correction            ... done
                    ***********************HURRAY********************

CARTESIAN COORDINATES (ANGSTROEM)
---------------------------------
  N      0.827663    1.178794    0.438704
  C      1.944037    0.237640    0.433377
  N      1.335638   -1.062582    0.222475
  C      0.132368   -0.834739   -0.581366
  C     -0.096229    0.737989   -0.586771
  N     -1.485676    0.942164   -0.198241
  C     -1.779994   -0.234171    0.617220
  N     -1.073818   -1.385783    0.022276
  H      1.098304    2.154837    0.345102
  H      2.502053    0.267526    1.383176
  H      2.672323    0.445555   -0.383321
  H      1.038548   -1.472110    1.105593
  H      0.263754   -1.231701   -1.601702
  H      0.083873    1.186593   -1.583525
  H     -2.067427    0.937497   -1.036424
  H     -2.859887   -0.424002    0.698587
  H     -1.379078   -0.052885    1.626232
  H     -1.654462   -1.815103   -0.695070

 Multiplicity           Mult            ....    1
 Number of Electrons    NEL             ....   62
 Basis Dimension        Dim             ....  162

ORBITAL ENERGIES
----------------

  NO   OCC          E(Eh)            E(eV)
   0   2.0000     -14.311869      -389.4458
   1   2.0000     -14.307942      -389.3389
   2   2.0000     -14.304726      -389.2514
   3   2.0000     -14.299012      -389.0959
   4   2.0000     -10.232543      -278.4416
   5   2.0000     -10.229493      -278.3587
   6   2.0000     -10.228762      -278.3388
   7   2.0000     -10.227609      -278.3074
   8   2.0000      -0.974403       -26.5148
   9   2.0000      -0.909193       -24.7404
  10   2.0000      -0.866002       -23.5651
  11   2.0000      -0.804943       -21.9036
  12   2.0000      -0.715203       -19.4617
  13   2.0000      -0.630068       -17.1450
  14   2.0000      -0.600328       -16.3358
  15   2.0000      -0.575268       -15.6538
  16   2.0000      -0.540939       -14.7197
  17   2.0000      -0.508495       -13.8369
  18   2.0000      -0.478867       -13.0306
  19   2.0000      -0.463147       -12.6029
  20   2.0000      -0.441524       -12.0145
  21   2.0000      -0.421178       -11.4608
  22   2.0000      -0.403936       -10.9916
  23   2.0000      -0.396677       -10.7941
  24   2.0000      -0.371704       -10.1146
  25   2.0000      -0.364433        -9.9167
  26   2.0000      -0.344873        -9.3845
  27   2.0000      -0.260351        -7.0845
  28   2.0000      -0.236609        -6.4385
  29   2.0000      -0.227787        -6.1984
  30   2.0000      -0.221294        -6.0217
  31   0.0000       0.034981         0.9519
  32   0.0000       0.064413         1.7528
  33   0.0000       0.079111         2.1527
  34   0.0000       0.095435         2.5969
  35   0.0000       0.110093         2.9958

MULLIKEN ATOMIC CHARGES
-----------------------
   0 N :   -0.244769
   1 C :    0.226167
   2 N :   -0.198621
   3 C :    0.066052
   4 C :    0.029898
   5 N :   -0.185660
   6 C :    0.207799
   7 N :   -0.223680
   8 H :    0.095935
   9 H :    0.000459
  10 H :   -0.016832
  11 H :    0.099597
  12 H :   -0.018979
  13 H :   -0.023370
  14 H :    0.081623
  15 H :    0.009998
  16 H :    0.003407
  17 H :    0.090976
Sum of atomic charges:   -0.0000000

LOEWDIN ATOMIC CHARGES
----------------------
   0 N :   -0.122129
   1 C :    0.074926
   2 N :   -0.111693
   3 C :    0.049708
   4 C :    0.036595
   5 N :   -0.110703
   6 C :    0.067115
   7 N :   -0.118908
   8 H :    0.055588
   9 H :    0.011709
  10 H :   -0.010238
  11 H :    0.055849
  12 H :    0.003296
  13 H :   -0.005643
  14 H :    0.047292
  15 H :    0.014425
  16 H :    0.011077
  17 H :    0.051733

  Mayer bond orders larger than 0.100000
B(  0-N ,  1-C ) :   1.0074 B(  0-N ,  4-C ) :   1.0656 B(  0-N ,  8-H ) :   0.9408
B(  1-C ,  2-N ) :   1.0887 B(  1-C ,  9-H ) :   0.9529 B(  1-C , 10-H ) :   0.9417
B(  2-N ,  3-C ) :   1.1122 B(  2-N , 11-H ) :   0.9251 B(  3-C ,  4-C ) :   0.9636
B(  3-C ,  7-N ) :   1.1402 B(  3-C , 12-H ) :   0.9192 B(  4-C ,  5-N ) :   1.1474
B(  4-C , 13-H ) :   0.9142 B(  5-N ,  6-C ) :   1.0366 B(  5-N , 14-H ) :   0.9398
B(  6-C ,  7-N ) :   1.0174 B(  6-C , 15-H ) :   0.9597 B(  6-C , 16-H ) :   0.9418
B(  7-N , 17-H ) :   0.9425

Dispersion correction           -0.029268416
FINAL SINGLE POINT ENERGY      -377.169904831685

DIPOLE MOMENT
-------------
                                X             Y             Z
Electronic contribution:     -0.29907      -0.22280      -0.00712
Nuclear contribution   :     -0.00134       0.46504      -0.56179
                        -----------------------------------------
Total Dipole Moment    :     -0.30042       0.24225      -0.56891
                        -----------------------------------------
Magnitude (a.u.)       :      0.68745
Magnitude (Debye)      :      1.74736

Rotational constants in cm-1:     0.124459     0.072936     0.055381
Rotational constants in MHz :  3731.186933  2186.569450  1660.268268

                             ****ORCA TERMINATED NORMALLY****
TOTAL RUN TIME: 0 days 0 hours 6 minutes 33 seconds 774 msec
