                         Program Version 4.2.0 -  RELEASE  -
|  1> # ORCA input file
|  2> # SCF done        -21.137146767497          0.000269504263
|  3> ! B3LYP/G D3BJ Opt RIJCOSX def2-SVP def2/J
|  4> * xyz 0 1
|  5>    C       -1.24072        -0.12110         0.00129
|  6>    S       -0.44542         1.40409        -0.00325
|  7>    C        1.09823         0.64867        -0.00389
|  8>    C        0.99425        -0.70588        -0.00112
|  9>    C       -0.36095        -1.15880         0.00199
| 10>    O       -0.73845        -2.45813         0.00519
| 11>    S        2.34488        -1.84979        -0.00103
| 12>    H       -2.30913        -0.17625         0.00306
| 13>    H        1.98752         1.24639        -0.00650
| 14>    H        0.04657        -3.02052         0.00503
| 15>    H        3.29669        -0.92498        -0.00798
| 16> *
| 17>
| 18>                          ****END OF INPUT****
 Total Charge           Charge          ....    0
 Multiplicity           Mult            ....    1
 Number of Electrons    NEL             ....   68
Dispersion correction           -0.023615697
FINAL SINGLE POINT ENERGY     -1026.045587505680
Dispersion correction            ... done
Dispersion correction           -0.023554398
FINAL SINGLE POINT ENERGY     -1026.047116653702
Dispersion correction            ... done
Dispersion correction           -0.023539998
FINAL SINGLE POINT ENERGY     -1026.047245766779
Dispersion correction            ... done
FINAL SINGLE POINT ENERGY     -1026.047292530955
FINAL SINGLE POINT ENERGY     -1026.047573681813
FINAL SINGLE POINT ENERGY     -1026.046708226449
FINAL SINGLE POINT ENERGY     -1026.049358586924
FINAL SINGLE POINT ENERGY     -1026.050886131595
FINAL SINGLE POINT ENERGY     -1026.052155380678
FINAL SINGLE POINT ENERGY     -1026.053273003162
FINAL SINGLE POINT ENERGY     -1026.054088859137
FINAL SINGLE POINT ENERGY     -1026.054565889164
FINAL SINGLE POINT ENERGY     -1026.054682631198
FINAL SINGLE POINT ENERGY     -1026.054793304628
Dispersion correction            ... done
Dispersion correction           -0.023603746
FINAL SINGLE POINT ENERGY     -1026.054819253057
Dispersion correction            ... done
Dispersion correction           -0.023602885
FINAL SINGLE POINT ENERGY     -1026.054824144762
Dispersion correction            ... done
                    ***********************HURRAY********************

CARTESIAN COORDINATES (ANGSTROEM)
---------------------------------
  C     -1.234713   -0.137479   -0.125322
  S     -0.539137    1.448923    0.002991
  C      1.046450    0.809528    0.217013
  C      1.042742   -0.564427    0.184421
  C     -0.278170   -1.116173   -0.005861
  O     -0.527998   -2.438932   -0.061270
  S      2.457575   -1.609606    0.446261
  H     -2.301964   -0.274133   -0.283452
  H      1.904330    1.462278    0.363398
  H      0.315781   -2.894284    0.111067
  H      2.788574   -1.801995   -0.856456

 Multiplicity           Mult            ....    1
 Number of Electrons    NEL             ....   68
 Basis Dimension        Dim             ....  126

ORBITAL ENERGIES
----------------

  NO   OCC          E(Eh)            E(eV)
   0   2.0000     -88.880697     -2418.5667
   1   2.0000     -88.866525     -2418.1811
   2   2.0000     -19.164217      -521.4849
   3   2.0000     -10.254646      -279.0431
   4   2.0000     -10.224735      -278.2292
   5   2.0000     -10.222958      -278.1808
   6   2.0000     -10.204600      -277.6813
   7   2.0000      -7.975498      -217.0243
   8   2.0000      -7.960103      -216.6054
   9   2.0000      -5.943615      -161.7340
  10   2.0000      -5.939696      -161.6273
  11   2.0000      -5.936716      -161.5463
  12   2.0000      -5.929067      -161.3381
  13   2.0000      -5.925545      -161.2423
  14   2.0000      -5.919450      -161.0764
  15   2.0000      -1.054378       -28.6911
  16   2.0000      -0.883912       -24.0525
  17   2.0000      -0.790016       -21.4974
  18   2.0000      -0.723776       -19.6950
  19   2.0000      -0.694348       -18.8942
  20   2.0000      -0.591493       -16.0954
  21   2.0000      -0.569783       -15.5046
  22   2.0000      -0.513904       -13.9840
  23   2.0000      -0.481462       -13.1012
  24   2.0000      -0.445008       -12.1093
  25   2.0000      -0.421501       -11.4696
  26   2.0000      -0.409784       -11.1508
  27   2.0000      -0.384990       -10.4761
  28   2.0000      -0.363335        -9.8869
  29   2.0000      -0.354187        -9.6379
  30   2.0000      -0.347760        -9.4630
  31   2.0000      -0.269793        -7.3414
  32   2.0000      -0.254327        -6.9206
  33   2.0000      -0.223856        -6.0914
  34   0.0000      -0.028530        -0.7763
  35   0.0000       0.020476         0.5572
  36   0.0000       0.035321         0.9611
  37   0.0000       0.056304         1.5321
  38   0.0000       0.068588         1.8664

MULLIKEN ATOMIC CHARGES
-----------------------
   0 C :   -0.175323
   1 S :    0.105389
   2 C :   -0.091893
   3 C :   -0.123531
   4 C :    0.203303
   5 O :   -0.189368
   6 S :   -0.013815
   7 H :    0.024203
   8 H :    0.027980
   9 H :    0.162260
  10 H :    0.070795
Sum of atomic charges:    0.0000000

LOEWDIN ATOMIC CHARGES
----------------------
   0 C :   -0.242306
   1 S :    0.437359
   2 C :   -0.191626
   3 C :   -0.256729
   4 C :   -0.002610
   5 O :   -0.054996
   6 S :    0.206304
   7 H :    0.028045
   8 H :    0.028542
   9 H :    0.066029
  10 H :   -0.018011

  Mayer bond orders larger than 0.100000
B(  0-C ,  1-S ) :   1.1226 B(  0-C ,  4-C ) :   1.5362 B(  0-C ,  7-H ) :   0.9668
B(  1-S ,  2-C ) :   1.2083 B(  2-C ,  3-C ) :   1.5465 B(  2-C ,  8-H ) :   0.9664
B(  3-C ,  4-C ) :   1.1971 B(  3-C ,  6-S ) :   1.0199 B(  4-C ,  5-O ) :   1.2407
B(  5-O ,  9-H ) :   0.9308 B(  6-S , 10-H ) :   0.9416

Dispersion correction           -0.023602367
FINAL SINGLE POINT ENERGY     -1026.054824763799

DIPOLE MOMENT
-------------
                                X             Y             Z
Electronic contribution:     -0.26146       1.72417       0.82465
Nuclear contribution   :      0.71635      -1.64397      -1.08714
                        -----------------------------------------
Total Dipole Moment    :      0.45489       0.08020      -0.26250
                        -----------------------------------------
Magnitude (a.u.)       :      0.53128
Magnitude (Debye)      :      1.35041

Rotational constants in cm-1:     0.107665     0.048005     0.033432
Rotational constants in MHz :  3227.706962  1439.139075  1002.252273

                             ****ORCA TERMINATED NORMALLY****
TOTAL RUN TIME: 0 days 0 hours 7 minutes 55 seconds 47 msec
