                         Program Version 4.2.0 -  RELEASE  -
|  1> # ORCA input file
|  2> # SCF done        -33.841691254390          0.000532407383
|  3> ! B3LYP/G D3BJ Opt RIJCOSX def2-SVP def2/J
|  4> * xyz 0 1
|  5>    C        0.71883        -1.03860         0.00417
|  6>    C        1.15764         0.23331        -0.00002
|  7>    C        0.00253         1.12131        -0.00186
|  8>    C       -1.15534         0.21922         0.00146
|  9>    C       -0.74128        -1.05695         0.00493
| 10>    F       -2.42398         0.64753         0.00101
| 11>    C       -0.01269         2.47690        -0.00836
| 12>    C       -1.16782         3.36487        -0.01369
| 13>    C       -0.72904         4.63674        -0.02233
| 14>    C        0.73106         4.65513        -0.02348
| 15>    C        1.14514         3.37898        -0.01511
| 16>    F        2.41378         2.95068        -0.01293
| 17>    H        1.32009        -1.92879         0.00651
| 18>    H        2.17465         0.57130        -0.00166
| 19>    H       -1.34962        -1.94059         0.00788
| 20>    H       -2.18480         3.02680        -0.01083
| 21>    H       -1.33035         5.52689        -0.02788
| 22>    H        1.33939         5.53876        -0.02981
| 23> *
| 24>
| 25>                          ****END OF INPUT****
 Total Charge           Charge          ....    0
 Multiplicity           Mult            ....    1
 Number of Electrons    NEL             ....   84
Dispersion correction           -0.034608060
FINAL SINGLE POINT ENERGY      -583.863915979616
Dispersion correction            ... done
Dispersion correction           -0.034549439
FINAL SINGLE POINT ENERGY      -583.866665219152
Dispersion correction            ... done
Dispersion correction           -0.034548033
FINAL SINGLE POINT ENERGY      -583.866749922672
Dispersion correction            ... done
FINAL SINGLE POINT ENERGY      -583.866767492820
Dispersion correction            ... done
Dispersion correction           -0.034550673
FINAL SINGLE POINT ENERGY      -583.866774765769
Dispersion correction            ... done
Dispersion correction           -0.034549742
FINAL SINGLE POINT ENERGY      -583.866774820978
Dispersion correction            ... done
                    ***********************HURRAY********************

CARTESIAN COORDINATES (ANGSTROEM)
---------------------------------
  C      0.725584   -1.057597    0.005482
  C      1.175949    0.223999   -0.001012
  C      0.005738    1.117161   -0.004526
  C     -1.164776    0.206898    0.000433
  C     -0.752436   -1.078803    0.006254
  F     -2.426910    0.632674   -0.000541
  C     -0.015947    2.481005   -0.011231
  C     -1.186153    3.374171   -0.014971
  C     -0.735782    4.655768   -0.020930
  C      0.742238    4.676965   -0.021928
  C      1.154572    3.391261   -0.016399
  F      2.416702    2.965474   -0.015682
  H      1.342911   -1.955952    0.009748
  H      2.205070    0.570043   -0.003095
  H     -1.390193   -1.960779    0.011027
  H     -2.215276    3.028132   -0.013083
  H     -1.353104    5.554129   -0.024934
  H      1.380001    5.558938   -0.026614

 Multiplicity           Mult            ....    1
 Number of Electrons    NEL             ....   84
 Basis Dimension        Dim             ....  198

ORBITAL ENERGIES
----------------

  NO   OCC          E(Eh)            E(eV)
   0   2.0000     -24.713156      -672.4792
   1   2.0000     -24.713134      -672.4786
   2   2.0000     -10.276761      -279.6449
   3   2.0000     -10.276740      -279.6443
   4   2.0000     -10.232721      -278.4465
   5   2.0000     -10.232245      -278.4335
   6   2.0000     -10.208705      -277.7930
   7   2.0000     -10.208703      -277.7929
   8   2.0000     -10.201348      -277.5928
   9   2.0000     -10.201348      -277.5928
  10   2.0000     -10.193079      -277.3678
  11   2.0000     -10.193073      -277.3676
  12   2.0000      -1.222070       -33.2542
  13   2.0000      -1.221944       -33.2508
  14   2.0000      -0.888767       -24.1846
  15   2.0000      -0.866658       -23.5830
  16   2.0000      -0.764577       -20.8052
  17   2.0000      -0.717081       -19.5128
  18   2.0000      -0.710840       -19.3429
  19   2.0000      -0.667744       -18.1702
  20   2.0000      -0.592326       -16.1180
  21   2.0000      -0.586855       -15.9691
  22   2.0000      -0.578884       -15.7522
  23   2.0000      -0.569716       -15.5028
  24   2.0000      -0.541602       -14.7377
  25   2.0000      -0.488002       -13.2792
  26   2.0000      -0.484065       -13.1721
  27   2.0000      -0.478777       -13.0282
  28   2.0000      -0.477714       -12.9993
  29   2.0000      -0.457910       -12.4604
  30   2.0000      -0.450182       -12.2501
  31   2.0000      -0.441473       -12.0131
  32   2.0000      -0.403778       -10.9874
  33   2.0000      -0.399062       -10.8590
  34   2.0000      -0.394272       -10.7287
  35   2.0000      -0.390157       -10.6167
  36   2.0000      -0.382314       -10.4033
  37   2.0000      -0.355614        -9.6768
  38   2.0000      -0.341509        -9.2929
  39   2.0000      -0.269144        -7.3238
  40   2.0000      -0.230297        -6.2667
  41   2.0000      -0.226927        -6.1750
  42   0.0000      -0.121698        -3.3116
  43   0.0000       0.015381         0.4185
  44   0.0000       0.052656         1.4328
  45   0.0000       0.067128         1.8266
  46   0.0000       0.068184         1.8554

MULLIKEN ATOMIC CHARGES
-----------------------
   0 C :    0.039929
   1 C :   -0.001277
   2 C :   -0.035925
   3 C :    0.251809
   4 C :   -0.060525
   5 F :   -0.177722
   6 C :   -0.035939
   7 C :   -0.001269
   8 C :    0.039922
   9 C :   -0.060510
  10 C :    0.251803
  11 F :   -0.177722
  12 H :   -0.004142
  13 H :   -0.004005
  14 H :   -0.008138
  15 H :   -0.004006
  16 H :   -0.004145
  17 H :   -0.008136
Sum of atomic charges:   -0.0000000

LOEWDIN ATOMIC CHARGES
----------------------
   0 C :    0.005118
   1 C :   -0.054491
   2 C :    0.007873
   3 C :    0.065269
   4 C :   -0.061445
   5 F :   -0.047454
   6 C :    0.007872
   7 C :   -0.054491
   8 C :    0.005118
   9 C :   -0.061445
  10 C :    0.065269
  11 F :   -0.047453
  12 H :    0.027565
  13 H :    0.026028
  14 H :    0.031536
  15 H :    0.026029
  16 H :    0.027565
  17 H :    0.031536

  Mayer bond orders larger than 0.100000
B(  0-C ,  1-C ) :   1.6568 B(  0-C ,  4-C ) :   1.0257 B(  0-C , 12-H ) :   0.9943
B(  1-C ,  2-C ) :   1.0756 B(  1-C , 13-H ) :   1.0066 B(  2-C ,  3-C ) :   1.0169
B(  2-C ,  6-C ) :   1.5749 B(  3-C ,  4-C ) :   1.6558 B(  3-C ,  5-F ) :   1.1092
B(  4-C , 14-H ) :   1.0008 B(  6-C ,  7-C ) :   1.0757 B(  6-C , 10-C ) :   1.0169
B(  7-C ,  8-C ) :   1.6568 B(  7-C , 15-H ) :   1.0066 B(  8-C ,  9-C ) :   1.0257
B(  8-C , 16-H ) :   0.9943 B(  9-C , 10-C ) :   1.6558 B(  9-C , 17-H ) :   1.0008
B( 10-C , 11-F ) :   1.1092

Dispersion correction           -0.034548982
FINAL SINGLE POINT ENERGY      -583.866773439631

DIPOLE MOMENT
-------------
                                X             Y             Z
Electronic contribution:     -0.00002      -0.00003      -0.00083
Nuclear contribution   :      0.00002       0.00004       0.00094
                        -----------------------------------------
Total Dipole Moment    :      0.00000       0.00001       0.00012
                        -----------------------------------------
Magnitude (a.u.)       :      0.00012
Magnitude (Debye)      :      0.00030

Rotational constants in cm-1:     0.056050     0.025166     0.017368
Rotational constants in MHz :  1680.332352   754.454179   520.675540

                             ****ORCA TERMINATED NORMALLY****
TOTAL RUN TIME: 0 days 0 hours 7 minutes 14 seconds 813 msec
