                         Program Version 4.2.0 -  RELEASE  -
|  1> # ORCA input file
|  2> # SCF done        -49.591406978066          0.000837257905
|  3> ! B3LYP/G D3BJ Opt RIJCOSX def2-SVP def2/J
|  4> * xyz 0 1
|  5>    C       -1.30804         1.30454         0.01443
|  6>    S       -2.45849         0.05252         0.04942
|  7>    C       -1.25740        -1.19035         0.03711
|  8>    C        0.01860        -0.62780         0.03780
|  9>    C       -0.02084         0.81570         0.01330
| 10>    C        1.18243         1.55599         0.02507
| 11>    C        2.37697         0.89768         0.06305
| 12>    N        3.57918         1.68744         0.24936
| 13>    O        3.64111         2.73875        -0.34104
| 14>    O        4.38405         1.26513         1.04552
| 15>    C        2.42030        -0.52565         0.08757
| 16>    N        3.67720        -1.23179        -0.03432
| 17>    O        4.52474        -0.71536        -0.72455
| 18>    O        3.75438        -2.31444         0.49692
| 19>    C        1.27167        -1.26901         0.09316
| 20>    C       -1.69962        -2.56069         0.01708
| 21>    C       -1.02889        -3.60389        -0.46580
| 22>    H       -1.62075         2.32902        -0.00822
| 23>    H        1.15904         2.63496         0.03739
| 24>    H        1.34878        -2.34332         0.13925
| 25>    H       -2.70300        -2.70835         0.39664
| 26>    H       -0.05938        -3.51694        -0.92193
| 27>    H       -1.45826        -4.58988        -0.44347
| 28> *
| 29>
| 30>                          ****END OF INPUT****
 Total Charge           Charge          ....    0
 Multiplicity           Mult            ....    1
 Number of Electrons    NEL             ....  128
Dispersion correction           -0.056121346
FINAL SINGLE POINT ENERGY     -1192.383097173902
Dispersion correction            ... done
Dispersion correction           -0.055659618
FINAL SINGLE POINT ENERGY     -1192.386315684099
Dispersion correction            ... done
Dispersion correction           -0.055538719
FINAL SINGLE POINT ENERGY     -1192.385279843985
Dispersion correction            ... done
FINAL SINGLE POINT ENERGY     -1192.385975095228
FINAL SINGLE POINT ENERGY     -1192.385819065390
FINAL SINGLE POINT ENERGY     -1192.386160216671
FINAL SINGLE POINT ENERGY     -1192.385063469903
Dispersion correction            ... done
Dispersion correction           -0.055662074
FINAL SINGLE POINT ENERGY     -1192.386867990936
Dispersion correction            ... done
Dispersion correction           -0.055662912
FINAL SINGLE POINT ENERGY     -1192.386878920697
Dispersion correction            ... done
                    ***********************HURRAY********************

CARTESIAN COORDINATES (ANGSTROEM)
---------------------------------
  C     -1.331638    1.326134    0.016783
  S     -2.474343    0.056265    0.057661
  C     -1.273701   -1.194296    0.038198
  C      0.008624   -0.620231    0.029903
  C     -0.032166    0.832665    0.003412
  C      1.185855    1.575848    0.007806
  C      2.378664    0.909080    0.056584
  N      3.596630    1.710360    0.269845
  O      3.688981    2.763739   -0.333823
  O      4.390480    1.279343    1.086661
  C      2.422315   -0.523557    0.088313
  N      3.699975   -1.245352   -0.032729
  O      4.533404   -0.752504   -0.771614
  O      3.807528   -2.303126    0.562130
  C      1.274433   -1.270590    0.083481
  C     -1.716613   -2.580316    0.019235
  C     -1.049571   -3.632505   -0.483277
  H     -1.652891    2.365826    0.005987
  H      1.183030    2.666542    0.014620
  H      1.363029   -2.355062    0.114913
  H     -2.713575   -2.753985    0.439760
  H     -0.079965   -3.536552   -0.974549
  H     -1.484705   -4.633468   -0.435557

 Multiplicity           Mult            ....    1
 Number of Electrons    NEL             ....  128
 Basis Dimension        Dim             ....  272

ORBITAL ENERGIES
----------------

  NO   OCC          E(Eh)            E(eV)
   0   2.0000     -88.922952     -2419.7165
   1   2.0000     -19.174204      -521.7566
   2   2.0000     -19.173874      -521.7476
   3   2.0000     -19.173841      -521.7467
   4   2.0000     -19.173244      -521.7305
   5   2.0000     -14.572556      -396.5394
   6   2.0000     -14.572207      -396.5299
   7   2.0000     -10.277083      -279.6537
   8   2.0000     -10.276242      -279.6308
   9   2.0000     -10.260192      -279.1940
  10   2.0000     -10.253005      -278.9984
  11   2.0000     -10.248162      -278.8667
  12   2.0000     -10.247160      -278.8394
  13   2.0000     -10.244944      -278.7791
  14   2.0000     -10.243998      -278.7534
  15   2.0000     -10.234941      -278.5069
  16   2.0000     -10.220726      -278.1201
  17   2.0000      -8.017703      -218.1728
  18   2.0000      -5.985287      -162.8679
  19   2.0000      -5.981203      -162.7568
  20   2.0000      -5.980153      -162.7282
  21   2.0000      -1.238556       -33.7028
  22   2.0000      -1.232768       -33.5453
  23   2.0000      -1.064783       -28.9742
  24   2.0000      -1.060635       -28.8613
  25   2.0000      -0.938404       -25.5353
  26   2.0000      -0.898893       -24.4601
  27   2.0000      -0.833904       -22.6917
  28   2.0000      -0.814073       -22.1521
  29   2.0000      -0.806004       -21.9325
  30   2.0000      -0.757492       -20.6124
  31   2.0000      -0.710944       -19.3458
  32   2.0000      -0.706042       -19.2124
  33   2.0000      -0.644228       -17.5303
  34   2.0000      -0.632078       -17.1997
  35   2.0000      -0.600294       -16.3348
  36   2.0000      -0.578965       -15.7544
  37   2.0000      -0.567070       -15.4308
  38   2.0000      -0.560578       -15.2541
  39   2.0000      -0.545349       -14.8397
  40   2.0000      -0.542798       -14.7703
  41   2.0000      -0.530841       -14.4449
  42   2.0000      -0.515785       -14.0352
  43   2.0000      -0.512718       -13.9518
  44   2.0000      -0.497355       -13.5337
  45   2.0000      -0.486883       -13.2487
  46   2.0000      -0.480645       -13.0790
  47   2.0000      -0.464784       -12.6474
  48   2.0000      -0.450096       -12.2477
  49   2.0000      -0.429984       -11.7005
  50   2.0000      -0.418071       -11.3763
  51   2.0000      -0.393815       -10.7163
  52   2.0000      -0.389279       -10.5928
  53   2.0000      -0.383720       -10.4416
  54   2.0000      -0.348201        -9.4750
  55   2.0000      -0.331599        -9.0233
  56   2.0000      -0.322201        -8.7675
  57   2.0000      -0.319814        -8.7026
  58   2.0000      -0.317911        -8.6508
  59   2.0000      -0.315915        -8.5965
  60   2.0000      -0.310538        -8.4502
  61   2.0000      -0.301499        -8.2042
  62   2.0000      -0.286045        -7.7837
  63   2.0000      -0.239579        -6.5193
  64   0.0000      -0.114572        -3.1177
  65   0.0000      -0.097692        -2.6583
  66   0.0000      -0.069637        -1.8949
  67   0.0000      -0.041186        -1.1207
  68   0.0000      -0.011167        -0.3039

MULLIKEN ATOMIC CHARGES
-----------------------
   0 C :   -0.110673
   1 S :    0.181160
   2 C :   -0.165559
   3 C :    0.150264
   4 C :    0.090762
   5 C :   -0.034735
   6 C :    0.129423
   7 N :    0.238315
   8 O :   -0.230113
   9 O :   -0.224489
  10 C :    0.136370
  11 N :    0.238387
  12 O :   -0.225572
  13 O :   -0.230876
  14 C :   -0.065430
  15 C :    0.023826
  16 C :   -0.028181
  17 H :    0.036967
  18 H :    0.004087
  19 H :    0.001020
  20 H :    0.007078
  21 H :    0.037225
  22 H :    0.040743
Sum of atomic charges:   -0.0000000

LOEWDIN ATOMIC CHARGES
----------------------
   0 C :   -0.187943
   1 S :    0.518284
   2 C :   -0.172515
   3 C :   -0.044345
   4 C :   -0.046480
   5 C :    0.019196
   6 C :   -0.018678
   7 N :    0.276536
   8 O :   -0.193390
   9 O :   -0.189519
  10 C :   -0.020405
  11 N :    0.276363
  12 O :   -0.190584
  13 O :   -0.195234
  14 C :    0.019813
  15 C :   -0.045364
  16 C :   -0.027407
  17 H :    0.034370
  18 H :    0.047288
  19 H :    0.043881
  20 H :    0.034517
  21 H :    0.027125
  22 H :    0.034488

  Mayer bond orders larger than 0.100000
B(  0-C ,  1-S ) :   1.2043 B(  0-C ,  2-C ) :   0.1009 B(  0-C ,  4-C ) :   1.4048
B(  0-C , 17-H ) :   0.9667 B(  1-S ,  2-C ) :   1.1875 B(  2-C ,  3-C ) :   1.3618
B(  2-C , 15-C ) :   1.1045 B(  3-C ,  4-C ) :   1.1877 B(  3-C , 14-C ) :   1.1477
B(  4-C ,  5-C ) :   1.1298 B(  5-C ,  6-C ) :   1.5509 B(  5-C , 18-H ) :   0.9991
B(  6-C ,  7-N ) :   0.8474 B(  6-C , 10-C ) :   1.2032 B(  7-N ,  8-O ) :   1.5313
B(  7-N ,  9-O ) :   1.5401 B(  8-O ,  9-O ) :   0.2895 B( 10-C , 11-N ) :   0.8516
B( 10-C , 14-C ) :   1.5414 B( 11-N , 12-O ) :   1.5375 B( 11-N , 13-O ) :   1.5257
B( 12-O , 13-O ) :   0.2872 B( 14-C , 19-H ) :   0.9902 B( 15-C , 16-C ) :   1.9162
B( 15-C , 20-H ) :   0.9438 B( 16-C , 21-H ) :   0.9556 B( 16-C , 22-H ) :   0.9441

Dispersion correction           -0.055664915
FINAL SINGLE POINT ENERGY     -1192.386875488501

DIPOLE MOMENT
-------------
                                X             Y             Z
Electronic contribution:      6.50164       6.43598       0.93340
Nuclear contribution   :     -9.72326      -6.67016      -1.03263
                        -----------------------------------------
Total Dipole Moment    :     -3.22162      -0.23418      -0.09923
                        -----------------------------------------
Magnitude (a.u.)       :      3.23164
Magnitude (Debye)      :      8.21419

Rotational constants in cm-1:     0.024814     0.010072     0.007407
Rotational constants in MHz :   743.905739   301.955709   222.054035

                             ****ORCA TERMINATED NORMALLY****
TOTAL RUN TIME: 0 days 0 hours 24 minutes 17 seconds 748 msec
