                         Program Version 4.2.0 -  RELEASE  -
|  1> # ORCA input file
|  2> # SCF done        -22.408944675415          0.000951731275
|  3> ! B3LYP/G D3BJ Opt RIJCOSX def2-SVP def2/J
|  4> * xyz 0 1
|  5>    C       -1.23097        -0.12842         0.00102
|  6>    S       -0.44050         1.40086        -0.00109
|  7>    C        1.09800         0.66465        -0.00203
|  8>    C        1.01222        -0.70257        -0.00087
|  9>    C       -0.34734        -1.16361         0.00089
| 10>    O       -0.71995        -2.46205         0.00206
| 11>    C        2.09957        -1.58917        -0.00160
| 12>    N        2.93744        -2.37321        -0.00145
| 13>    H       -2.29926        -0.18822         0.00212
| 14>    H        1.98956         1.25933        -0.00361
| 15>    H        0.06059        -3.03154         0.00112
| 16> *
| 17>
| 18>                          ****END OF INPUT****
 Total Charge           Charge          ....    0
 Multiplicity           Mult            ....    1
 Number of Electrons    NEL             ....   64
Dispersion correction           -0.022281083
FINAL SINGLE POINT ENERGY      -720.140484472606
Dispersion correction            ... done
Dispersion correction           -0.022204094
FINAL SINGLE POINT ENERGY      -720.142334970519
Dispersion correction            ... done
Dispersion correction           -0.022199796
FINAL SINGLE POINT ENERGY      -720.142394660716
Dispersion correction            ... done
Dispersion correction           -0.022203206
FINAL SINGLE POINT ENERGY      -720.142404039011
Dispersion correction            ... done
Dispersion correction           -0.022206718
FINAL SINGLE POINT ENERGY      -720.142405825799
Dispersion correction            ... done
                    ***********************HURRAY********************

CARTESIAN COORDINATES (ANGSTROEM)
---------------------------------
  C     -1.251574   -0.125403    0.000749
  S     -0.449352    1.410010    0.000540
  C      1.102613    0.683183   -0.002438
  C      1.014010   -0.696603   -0.000751
  C     -0.353998   -1.165884    0.000834
  O     -0.712753   -2.463886    0.001806
  C      2.109063   -1.606189   -0.001458
  N      2.948089   -2.411076   -0.001420
  H     -2.336665   -0.193561    0.001475
  H      2.012436    1.279647   -0.004402
  H      0.077493   -3.024188    0.001624

 Multiplicity           Mult            ....    1
 Number of Electrons    NEL             ....   64
 Basis Dimension        Dim             ....  131

ORBITAL ENERGIES
----------------

  NO   OCC          E(Eh)            E(eV)
   0   2.0000     -88.903489     -2419.1869
   1   2.0000     -19.187237      -522.1112
   2   2.0000     -14.342821      -390.2880
   3   2.0000     -10.279762      -279.7265
   4   2.0000     -10.249525      -278.9038
   5   2.0000     -10.245759      -278.8013
   6   2.0000     -10.243793      -278.7478
   7   2.0000     -10.224398      -278.2200
   8   2.0000      -7.998347      -217.6461
   9   2.0000      -5.966446      -162.3553
  10   2.0000      -5.962263      -162.2414
  11   2.0000      -5.959788      -162.1741
  12   2.0000      -1.076310       -29.2879
  13   2.0000      -0.917229       -24.9591
  14   2.0000      -0.900288       -24.4981
  15   2.0000      -0.779280       -21.2053
  16   2.0000      -0.747100       -20.3296
  17   2.0000      -0.639579       -17.4038
  18   2.0000      -0.596809       -16.2400
  19   2.0000      -0.594464       -16.1762
  20   2.0000      -0.504169       -13.7191
  21   2.0000      -0.477383       -12.9903
  22   2.0000      -0.450145       -12.2491
  23   2.0000      -0.432443       -11.7674
  24   2.0000      -0.395020       -10.7490
  25   2.0000      -0.385228       -10.4826
  26   2.0000      -0.384751       -10.4696
  27   2.0000      -0.372194       -10.1279
  28   2.0000      -0.363665        -9.8958
  29   2.0000      -0.351432        -9.5630
  30   2.0000      -0.271007        -7.3745
  31   2.0000      -0.244689        -6.6583
  32   0.0000      -0.060084        -1.6350
  33   0.0000      -0.006975        -0.1898
  34   0.0000       0.009926         0.2701
  35   0.0000       0.041090         1.1181
  36   0.0000       0.052891         1.4392

MULLIKEN ATOMIC CHARGES
-----------------------
   0 C :   -0.182080
   1 S :    0.139817
   2 C :   -0.050447
   3 C :   -0.122810
   4 C :    0.226668
   5 O :   -0.171524
   6 C :   -0.185975
   7 N :    0.079798
   8 H :    0.035232
   9 H :    0.039693
  10 H :    0.191627
Sum of atomic charges:   -0.0000000

LOEWDIN ATOMIC CHARGES
----------------------
   0 C :   -0.234153
   1 S :    0.472498
   2 C :   -0.154734
   3 C :   -0.143508
   4 C :    0.030470
   5 O :   -0.037378
   6 C :   -0.040496
   7 N :   -0.064865
   8 H :    0.033929
   9 H :    0.037649
  10 H :    0.100589

  Mayer bond orders larger than 0.100000
B(  0-C ,  1-S ) :   1.1374 B(  0-C ,  4-C ) :   1.5101 B(  0-C ,  8-H ) :   0.9647
B(  1-S ,  2-C ) :   1.2158 B(  1-S ,  3-C ) :   0.1230 B(  2-C ,  3-C ) :   1.4843
B(  2-C ,  9-H ) :   0.9720 B(  3-C ,  4-C ) :   1.1813 B(  3-C ,  6-C ) :   1.1235
B(  4-C ,  5-O ) :   1.2671 B(  5-O , 10-H ) :   0.9490 B(  6-C ,  7-N ) :   2.9864

Dispersion correction           -0.022210007
FINAL SINGLE POINT ENERGY      -720.142405685900

DIPOLE MOMENT
-------------
                                X             Y             Z
Electronic contribution:      0.61101       1.28773       0.00110
Nuclear contribution   :     -1.25997      -0.45362      -0.00095
                        -----------------------------------------
Total Dipole Moment    :     -0.64896       0.83411       0.00015
                        -----------------------------------------
Magnitude (a.u.)       :      1.05683
Magnitude (Debye)      :      2.68625

Rotational constants in cm-1:     0.110350     0.047499     0.033206
Rotational constants in MHz :  3308.211128  1423.970258   995.480647

                             ****ORCA TERMINATED NORMALLY****
TOTAL RUN TIME: 0 days 0 hours 2 minutes 38 seconds 368 msec
