                         Program Version 4.2.0 -  RELEASE  -
|  1> # ORCA input file
|  2> # SCF done        -33.004644428575          0.000253161782
|  3> ! B3LYP/G D3BJ Opt RIJCOSX def2-SVP def2/J
|  4> * xyz 0 1
|  5>    C       -0.01412         1.11143         0.12503
|  6>    S       -1.11186        -0.19777        -0.08221
|  7>    C        0.14575        -1.32665        -0.11717
|  8>    C        1.37721        -0.72933         0.02489
|  9>    N        2.56463        -1.48487         0.02385
| 10>    O        2.47109        -2.69030        -0.10683
| 11>    O        3.63052        -0.89370         0.15465
| 12>    C        1.29706         0.70428         0.16830
| 13>    N        2.39806         1.48279         0.32082
| 14>    C        2.42584         2.85094         0.46512
| 15>    C        3.55259         3.53770         0.61055
| 16>    H       -0.40544         2.10373         0.20237
| 17>    H       -0.03789        -2.37570        -0.23781
| 18>    H        3.28701         0.98806         0.32752
| 19>    H        1.46239         3.33741         0.45236
| 20>    H        4.51220         3.05083         0.62258
| 21>    H        3.54210         4.60489         0.72065
| 22> *
| 23>
| 24>                          ****END OF INPUT****
 Total Charge           Charge          ....    0
 Multiplicity           Mult            ....    1
 Number of Electrons    NEL             ....   88
Dispersion correction           -0.033706265
FINAL SINGLE POINT ENERGY      -889.822501452854
Dispersion correction            ... done
Dispersion correction           -0.033498068
FINAL SINGLE POINT ENERGY      -889.825318607477
Dispersion correction            ... done
Dispersion correction           -0.033476988
FINAL SINGLE POINT ENERGY      -889.825050966727
Dispersion correction            ... done
FINAL SINGLE POINT ENERGY      -889.825511694272
FINAL SINGLE POINT ENERGY      -889.825603727766
FINAL SINGLE POINT ENERGY      -889.825628748143
FINAL SINGLE POINT ENERGY      -889.825621758709
Dispersion correction            ... done
Dispersion correction           -0.033492246
FINAL SINGLE POINT ENERGY      -889.825621142648
Dispersion correction            ... done
Dispersion correction           -0.033490867
FINAL SINGLE POINT ENERGY      -889.825625688155
Dispersion correction            ... done
                    ***********************HURRAY********************

CARTESIAN COORDINATES (ANGSTROEM)
---------------------------------
  C     -0.017196    1.127131    0.098077
  S     -1.124724   -0.189019   -0.112885
  C      0.124744   -1.343529   -0.129705
  C      1.356665   -0.741541    0.023525
  N      2.566607   -1.526987    0.042408
  O      2.472707   -2.734726   -0.098047
  O      3.637105   -0.934087    0.203555
  C      1.300320    0.702306    0.161323
  N      2.417672    1.477893    0.325834
  C      2.443764    2.849092    0.503328
  C      3.562921    3.584455    0.585311
  H     -0.396579    2.143041    0.164835
  H     -0.057752   -2.407593   -0.254289
  H      3.291242    0.955120    0.314652
  H      1.461999    3.321090    0.591408
  H      4.554813    3.131223    0.502754
  H      3.502833    4.659872    0.752587

 Multiplicity           Mult            ....    1
 Number of Electrons    NEL             ....   88
 Basis Dimension        Dim             ....  188

ORBITAL ENERGIES
----------------

  NO   OCC          E(Eh)            E(eV)
   0   2.0000     -88.907709     -2419.3018
   1   2.0000     -19.170825      -521.6647
   2   2.0000     -19.168145      -521.5917
   3   2.0000     -14.570122      -396.4732
   4   2.0000     -14.369825      -391.0228
   5   2.0000     -10.267506      -279.3930
   6   2.0000     -10.258722      -279.1540
   7   2.0000     -10.249051      -278.8909
   8   2.0000     -10.236819      -278.5580
   9   2.0000     -10.225189      -278.2415
  10   2.0000     -10.182454      -277.0787
  11   2.0000      -8.002353      -217.7551
  12   2.0000      -5.970319      -162.4607
  13   2.0000      -5.966196      -162.3484
  14   2.0000      -5.964105      -162.2916
  15   2.0000      -1.228989       -33.4425
  16   2.0000      -1.054006       -28.6810
  17   2.0000      -0.966949       -26.3120
  18   2.0000      -0.906715       -24.6730
  19   2.0000      -0.815317       -22.1859
  20   2.0000      -0.774308       -21.0700
  21   2.0000      -0.724836       -19.7238
  22   2.0000      -0.686312       -18.6755
  23   2.0000      -0.633441       -17.2368
  24   2.0000      -0.593170       -16.1410
  25   2.0000      -0.580198       -15.7880
  26   2.0000      -0.558983       -15.2107
  27   2.0000      -0.549707       -14.9583
  28   2.0000      -0.517422       -14.0798
  29   2.0000      -0.504159       -13.7189
  30   2.0000      -0.492447       -13.4002
  31   2.0000      -0.449252       -12.2248
  32   2.0000      -0.435871       -11.8607
  33   2.0000      -0.434418       -11.8211
  34   2.0000      -0.428128       -11.6500
  35   2.0000      -0.387330       -10.5398
  36   2.0000      -0.382292       -10.4027
  37   2.0000      -0.379509       -10.3270
  38   2.0000      -0.320713        -8.7270
  39   2.0000      -0.319816        -8.7026
  40   2.0000      -0.303916        -8.2700
  41   2.0000      -0.290428        -7.9029
  42   2.0000      -0.275911        -7.5079
  43   2.0000      -0.209738        -5.7073
  44   0.0000      -0.096689        -2.6311
  45   0.0000      -0.032692        -0.8896
  46   0.0000       0.021136         0.5751
  47   0.0000       0.023075         0.6279
  48   0.0000       0.055690         1.5154

MULLIKEN ATOMIC CHARGES
-----------------------
   0 C :   -0.232325
   1 S :    0.159855
   2 C :   -0.112610
   3 C :    0.129404
   4 N :    0.260120
   5 O :   -0.242723
   6 O :   -0.279158
   7 C :    0.127487
   8 N :   -0.043181
   9 C :    0.055680
  10 C :   -0.071402
  11 H :    0.024077
  12 H :    0.045171
  13 H :    0.130042
  14 H :    0.004559
  15 H :    0.018290
  16 H :    0.026714
Sum of atomic charges:    0.0000000

LOEWDIN ATOMIC CHARGES
----------------------
   0 C :   -0.255344
   1 S :    0.492815
   2 C :   -0.164201
   3 C :   -0.086514
   4 N :    0.283218
   5 O :   -0.202703
   6 O :   -0.225031
   7 C :    0.003176
   8 N :    0.027364
   9 C :    0.023892
  10 C :   -0.114548
  11 H :    0.024307
  12 H :    0.041626
  13 H :    0.072924
  14 H :    0.025716
  15 H :    0.023562
  16 H :    0.029741

  Mayer bond orders larger than 0.100000
B(  0-C ,  1-S ) :   1.1215 B(  0-C ,  7-C ) :   1.4431 B(  0-C , 11-H ) :   0.9677
B(  1-S ,  2-C ) :   1.2495 B(  2-C ,  3-C ) :   1.4579 B(  2-C , 12-H ) :   0.9551
B(  3-C ,  4-N ) :   0.9367 B(  3-C ,  7-C ) :   1.2022 B(  4-N ,  5-O ) :   1.5419
B(  4-N ,  6-O ) :   1.4408 B(  5-O ,  6-O ) :   0.2595 B(  7-C ,  8-N ) :   1.2394
B(  8-N ,  9-C ) :   1.1150 B(  8-N , 13-H ) :   0.8761 B(  9-C , 10-C ) :   1.8967
B(  9-C , 14-H ) :   0.9605 B( 10-C , 15-H ) :   0.9582 B( 10-C , 16-H ) :   0.9485

Dispersion correction           -0.033490720
FINAL SINGLE POINT ENERGY      -889.825619920851

DIPOLE MOMENT
-------------
                                X             Y             Z
Electronic contribution:     -4.61038      -9.53335      -1.27883
Nuclear contribution   :      3.47967      10.33941       1.28015
                        -----------------------------------------
Total Dipole Moment    :     -1.13072       0.80606       0.00133
                        -----------------------------------------
Magnitude (a.u.)       :      1.38861
Magnitude (Debye)      :      3.52957

Rotational constants in cm-1:     0.039971     0.027582     0.016323
Rotational constants in MHz :  1198.308529   826.895737   489.361486

                             ****ORCA TERMINATED NORMALLY****
TOTAL RUN TIME: 0 days 0 hours 9 minutes 52 seconds 402 msec
