                         Program Version 4.2.0 -  RELEASE  -
|  1> # ORCA input file
|  2> # SCF done        -33.557298822097          0.000459418728
|  3> ! B3LYP/G D3BJ Opt RIJCOSX def2-SVP def2/J
|  4> * xyz 0 1
|  5>    C       -0.45289         1.17043         0.29090
|  6>    S       -1.47678        -0.14695         0.68856
|  7>    C       -0.23042        -1.30033         0.31765
|  8>    C        0.92309        -0.66473        -0.09465
|  9>    C        0.78375         0.76204        -0.11201
| 10>    O        1.80839         1.57542        -0.50745
| 11>    C        1.55292         2.95783        -0.50761
| 12>    O        2.01576        -1.39664        -0.43611
| 13>    C        3.25713        -0.74636        -0.59798
| 14>    C       -0.52576        -2.70052         0.46882
| 15>    C        0.27602        -3.70943         0.13915
| 16>    H       -0.83515         2.16681         0.37212
| 17>    H        2.47073         3.42851        -0.85595
| 18>    H        1.31477         3.31981         0.49763
| 19>    H        0.73157         3.21069        -1.18559
| 20>    H        3.52227        -0.16064         0.28521
| 21>    H        3.25991        -0.09490        -1.47446
| 22>    H        3.98402        -1.54639        -0.73537
| 23>    H       -1.50426        -2.89979         0.88831
| 24>    H        1.24776        -3.54373        -0.28728
| 25>    H       -0.03007        -4.73008         0.29127
| 26> *
| 27>
| 28>                          ****END OF INPUT****
 Total Charge           Charge          ....    0
 Multiplicity           Mult            ....    1
 Number of Electrons    NEL             ....   90
Dispersion correction           -0.038864741
FINAL SINGLE POINT ENERGY      -859.032223139601
Dispersion correction            ... done
Dispersion correction           -0.038560900
FINAL SINGLE POINT ENERGY      -859.034658120978
Dispersion correction            ... done
Dispersion correction           -0.038557821
FINAL SINGLE POINT ENERGY      -859.034813479022
Dispersion correction            ... done
FINAL SINGLE POINT ENERGY      -859.034907006652
FINAL SINGLE POINT ENERGY      -859.034962098751
FINAL SINGLE POINT ENERGY      -859.035058760999
FINAL SINGLE POINT ENERGY      -859.035071285286
FINAL SINGLE POINT ENERGY      -859.035306679086
FINAL SINGLE POINT ENERGY      -859.035623963600
FINAL SINGLE POINT ENERGY      -859.035717200747
FINAL SINGLE POINT ENERGY      -859.035940165567
FINAL SINGLE POINT ENERGY      -859.035940043349
FINAL SINGLE POINT ENERGY      -859.035939842379
FINAL SINGLE POINT ENERGY      -859.035978184314
FINAL SINGLE POINT ENERGY      -859.035940321528
FINAL SINGLE POINT ENERGY      -859.036053551919
FINAL SINGLE POINT ENERGY      -859.036067308446
Dispersion correction            ... done
Dispersion correction           -0.038643992
FINAL SINGLE POINT ENERGY      -859.036075803559
Dispersion correction            ... done
Dispersion correction           -0.038643234
FINAL SINGLE POINT ENERGY      -859.036076431090
Dispersion correction            ... done
                    ***********************HURRAY********************

CARTESIAN COORDINATES (ANGSTROEM)
---------------------------------
  C     -0.434256    1.244136    0.403817
  S     -1.356782   -0.122091    0.940748
  C     -0.163562   -1.254404    0.352013
  C      0.887758   -0.583082   -0.249636
  C      0.731008    0.849038   -0.214686
  O      1.684259    1.632667   -0.770369
  C      1.469935    3.025714   -0.737187
  O      1.927745   -1.221550   -0.846445
  C      3.228392   -0.938161   -0.341540
  C     -0.392126   -2.679524    0.524187
  C      0.331833   -3.678735   -0.009213
  H     -0.811740    2.251128    0.559667
  H      2.335629    3.497520   -1.218977
  H      1.384878    3.396478    0.300223
  H      0.553354    3.303344   -1.287417
  H      3.287302   -1.159069    0.739262
  H      3.506412    0.112172   -0.516628
  H      3.924381   -1.594435   -0.879363
  H     -1.253722   -2.933988    1.152222
  H      1.188483   -3.478579   -0.654228
  H      0.063579   -4.717530    0.198709

 Multiplicity           Mult            ....    1
 Number of Electrons    NEL             ....   90
 Basis Dimension        Dim             ....  208

ORBITAL ENERGIES
----------------

  NO   OCC          E(Eh)            E(eV)
   0   2.0000     -88.867172     -2418.1987
   1   2.0000     -19.173428      -521.7355
   2   2.0000     -19.154599      -521.2231
   3   2.0000     -10.251841      -278.9668
   4   2.0000     -10.249778      -278.9106
   5   2.0000     -10.240050      -278.6459
   6   2.0000     -10.234653      -278.4991
   7   2.0000     -10.209816      -277.8232
   8   2.0000     -10.205522      -277.7064
   9   2.0000     -10.195496      -277.4335
  10   2.0000     -10.177506      -276.9440
  11   2.0000      -7.962102      -216.6598
  12   2.0000      -5.930330      -161.3725
  13   2.0000      -5.926654      -161.2724
  14   2.0000      -5.922803      -161.1677
  15   2.0000      -1.071227       -29.1496
  16   2.0000      -1.044147       -28.4127
  17   2.0000      -0.872878       -23.7522
  18   2.0000      -0.776309       -21.1244
  19   2.0000      -0.748653       -20.3719
  20   2.0000      -0.720105       -19.5951
  21   2.0000      -0.688026       -18.7221
  22   2.0000      -0.665417       -18.1069
  23   2.0000      -0.599141       -16.3035
  24   2.0000      -0.570339       -15.5197
  25   2.0000      -0.540001       -14.6942
  26   2.0000      -0.529099       -14.3975
  27   2.0000      -0.484329       -13.1793
  28   2.0000      -0.481547       -13.1036
  29   2.0000      -0.462409       -12.5828
  30   2.0000      -0.457770       -12.4566
  31   2.0000      -0.453304       -12.3350
  32   2.0000      -0.439398       -11.9566
  33   2.0000      -0.417612       -11.3638
  34   2.0000      -0.393707       -10.7133
  35   2.0000      -0.386956       -10.5296
  36   2.0000      -0.370724       -10.0879
  37   2.0000      -0.359476        -9.7818
  38   2.0000      -0.343375        -9.3437
  39   2.0000      -0.341998        -9.3063
  40   2.0000      -0.335335        -9.1249
  41   2.0000      -0.290322        -7.9001
  42   2.0000      -0.281418        -7.6578
  43   2.0000      -0.220071        -5.9884
  44   2.0000      -0.207972        -5.6592
  45   0.0000      -0.035119        -0.9556
  46   0.0000       0.034427         0.9368
  47   0.0000       0.041277         1.1232
  48   0.0000       0.058481         1.5914
  49   0.0000       0.067570         1.8387

MULLIKEN ATOMIC CHARGES
-----------------------
   0 C :   -0.210243
   1 S :    0.097156
   2 C :   -0.158250
   3 C :    0.166055
   4 C :    0.204003
   5 O :   -0.313780
   6 C :    0.188775
   7 O :   -0.336875
   8 C :    0.202331
   9 C :    0.018232
  10 C :   -0.029421
  11 H :    0.012993
  12 H :    0.033880
  13 H :    0.016585
  14 H :    0.019234
  15 H :    0.009765
  16 H :    0.027966
  17 H :    0.023522
  18 H :   -0.019128
  19 H :    0.031864
  20 H :    0.015338
Sum of atomic charges:   -0.0000000

LOEWDIN ATOMIC CHARGES
----------------------
   0 C :   -0.256138
   1 S :    0.416645
   2 C :   -0.197364
   3 C :   -0.008111
   4 C :   -0.007189
   5 O :   -0.096442
   6 C :    0.083374
   7 O :   -0.114005
   8 C :    0.086260
   9 C :   -0.045330
  10 C :   -0.051141
  11 H :    0.020955
  12 H :    0.026434
  13 H :    0.012422
  14 H :    0.014256
  15 H :    0.011330
  16 H :    0.010715
  17 H :    0.021266
  18 H :    0.025351
  19 H :    0.024196
  20 H :    0.022515

  Mayer bond orders larger than 0.100000
B(  0-C ,  1-S ) :   1.0982 B(  0-C ,  4-C ) :   1.4707 B(  0-C , 11-H ) :   0.9747
B(  1-S ,  2-C ) :   1.1221 B(  2-C ,  3-C ) :   1.4912 B(  2-C ,  9-C ) :   1.1208
B(  3-C ,  4-C ) :   1.2044 B(  3-C ,  7-O ) :   1.1395 B(  4-C ,  5-O ) :   1.1303
B(  5-O ,  6-C ) :   0.9647 B(  6-C , 12-H ) :   0.9788 B(  6-C , 13-H ) :   0.9642
B(  6-C , 14-H ) :   0.9651 B(  7-O ,  8-C ) :   0.9357 B(  8-C , 15-H ) :   0.9630
B(  8-C , 16-H ) :   0.9668 B(  8-C , 17-H ) :   0.9800 B(  9-C , 10-C ) :   1.9252
B(  9-C , 18-H ) :   0.9456 B( 10-C , 19-H ) :   0.9425 B( 10-C , 20-H ) :   0.9405

Dispersion correction           -0.038641495
FINAL SINGLE POINT ENERGY      -859.036075342309

DIPOLE MOMENT
-------------
                                X             Y             Z
Electronic contribution:     -7.64780      -0.45355       1.73539
Nuclear contribution   :      8.07300       1.35315      -1.52549
                        -----------------------------------------
Total Dipole Moment    :      0.42520       0.89960       0.20991
                        -----------------------------------------
Magnitude (a.u.)       :      1.01693
Magnitude (Debye)      :      2.58483

Rotational constants in cm-1:     0.044552     0.027999     0.017742
Rotational constants in MHz :  1335.625308   839.379553   531.883185

                             ****ORCA TERMINATED NORMALLY****
TOTAL RUN TIME: 0 days 1 hours 9 minutes 16 seconds 751 msec
