                         Program Version 4.2.0 -  RELEASE  -
|  1> # ORCA input file
|  2> # SCF done        -46.610503248050          0.000485751984
|  3> ! B3LYP/G D3BJ Opt RIJCOSX def2-SVP def2/J
|  4> * xyz 0 1
|  5>    C        1.40793        -1.21602         0.17204
|  6>    S        2.53974         0.05735         0.01101
|  7>    C        1.26299         1.23384        -0.14371
|  8>    C        0.03043         0.63117        -0.05189
|  9>    C        0.12114        -0.77335         0.12765
| 10>    C       -1.07029        -1.66958         0.29154
| 11>    C       -2.37180        -0.96824        -0.10824
| 12>    C       -2.54835        -1.00407        -1.62174
| 13>    F       -1.47587        -0.62360        -2.32467
| 14>    F       -2.83863        -2.25101        -2.03931
| 15>    F       -3.56593        -0.22843        -2.03486
| 16>    C       -2.41047         0.45744         0.44800
| 17>    C       -1.29120         1.32939        -0.11946
| 18>    C        1.65488         2.60907        -0.32354
| 19>    C        0.90844         3.60972        -0.78236
| 20>    H        1.75303        -2.22385         0.29090
| 21>    H       -1.14789        -1.96848         1.34115
| 22>    H       -0.93610        -2.58086        -0.29679
| 23>    H       -3.22542        -1.53245         0.28511
| 24>    H       -2.30548         0.38909         1.53253
| 25>    H       -3.37674         0.91513         0.22903
| 26>    H       -1.24328         2.26524         0.44187
| 27>    H       -1.51321         1.58153        -1.16061
| 28>    H        2.68938         2.80362        -0.06738
| 29>    H       -0.10909         3.48660        -1.10312
| 30>    H        1.31949         4.60031        -0.87344
| 31> *
| 32>
| 33>                          ****END OF INPUT****
 Total Charge           Charge          ....    0
 Multiplicity           Mult            ....    1
 Number of Electrons    NEL             ....  120
Dispersion correction           -0.056946743
FINAL SINGLE POINT ENERGY     -1122.918715968084
Dispersion correction            ... done
Dispersion correction           -0.056301235
FINAL SINGLE POINT ENERGY     -1122.922005863037
Dispersion correction            ... done
Dispersion correction           -0.056129989
FINAL SINGLE POINT ENERGY     -1122.922244950595
Dispersion correction            ... done
FINAL SINGLE POINT ENERGY     -1122.922249676845
FINAL SINGLE POINT ENERGY     -1122.922258154501
FINAL SINGLE POINT ENERGY     -1122.922200489600
FINAL SINGLE POINT ENERGY     -1122.922092883527
FINAL SINGLE POINT ENERGY     -1122.921568356599
FINAL SINGLE POINT ENERGY     -1122.921961145540
FINAL SINGLE POINT ENERGY     -1122.921945233442
FINAL SINGLE POINT ENERGY     -1122.922208076927
FINAL SINGLE POINT ENERGY     -1122.922227867216
FINAL SINGLE POINT ENERGY     -1122.922239137555
FINAL SINGLE POINT ENERGY     -1122.922238026553
FINAL SINGLE POINT ENERGY     -1122.922217741925
FINAL SINGLE POINT ENERGY     -1122.922164425369
FINAL SINGLE POINT ENERGY     -1122.922158148027
Dispersion correction            ... done
Dispersion correction           -0.055959673
FINAL SINGLE POINT ENERGY     -1122.922168788548
Dispersion correction            ... done
Dispersion correction           -0.055955343
FINAL SINGLE POINT ENERGY     -1122.922171080457
Dispersion correction            ... done
                    ***********************HURRAY********************

CARTESIAN COORDINATES (ANGSTROEM)
---------------------------------
  C      1.423266   -1.243973    0.095162
  S      2.568422    0.024151   -0.099624
  C      1.310003    1.236434   -0.182835
  C      0.055797    0.647079   -0.059073
  C      0.130566   -0.773483    0.113456
  C     -1.085095   -1.632527    0.346003
  C     -2.390395   -0.973662   -0.130329
  C     -2.620426   -1.170445   -1.618666
  F     -1.694669   -0.563596   -2.383756
  F     -2.608072   -2.477330   -1.949273
  F     -3.820201   -0.683196   -1.987248
  C     -2.459255    0.502568    0.296892
  C     -1.265547    1.361200   -0.154441
  C      1.735165    2.614968   -0.369719
  C      0.985815    3.715276   -0.564615
  H      1.753709   -2.276074    0.202378
  H     -1.190151   -1.825848    1.427579
  H     -0.960010   -2.617286   -0.126628
  H     -3.234350   -1.505951    0.335874
  H     -2.517049    0.512056    1.397585
  H     -3.394677    0.951212   -0.068797
  H     -1.245578    2.280889    0.450480
  H     -1.412579    1.689957   -1.197482
  H      2.822967    2.752898   -0.343543
  H     -0.102193    3.697605   -0.629168
  H      1.472236    4.686636   -0.680504

 Multiplicity           Mult            ....    1
 Number of Electrons    NEL             ....  120
 Basis Dimension        Dim             ....  269

ORBITAL ENERGIES
----------------

  NO   OCC          E(Eh)            E(eV)
   0   2.0000     -88.871026     -2418.3036
   1   2.0000     -24.717339      -672.5930
   2   2.0000     -24.716680      -672.5751
   3   2.0000     -24.716190      -672.5617
   4   2.0000     -10.426628      -283.7230
   5   2.0000     -10.221298      -278.1357
   6   2.0000     -10.214827      -277.9596
   7   2.0000     -10.209171      -277.8057
   8   2.0000     -10.208432      -277.7855
   9   2.0000     -10.205657      -277.7101
  10   2.0000     -10.204530      -277.6794
  11   2.0000     -10.199524      -277.5432
  12   2.0000     -10.198174      -277.5064
  13   2.0000     -10.197284      -277.4822
  14   2.0000     -10.188769      -277.2505
  15   2.0000      -7.966178      -216.7707
  16   2.0000      -5.934132      -161.4759
  17   2.0000      -5.930270      -161.3709
  18   2.0000      -5.927626      -161.2989
  19   2.0000      -1.295297       -35.2468
  20   2.0000      -1.203369       -32.7453
  21   2.0000      -1.202520       -32.7222
  22   2.0000      -0.887646       -24.1541
  23   2.0000      -0.840686       -22.8762
  24   2.0000      -0.787172       -21.4201
  25   2.0000      -0.765935       -20.8421
  26   2.0000      -0.745620       -20.2893
  27   2.0000      -0.703515       -19.1436
  28   2.0000      -0.684585       -18.6285
  29   2.0000      -0.642585       -17.4856
  30   2.0000      -0.623683       -16.9713
  31   2.0000      -0.596831       -16.2406
  32   2.0000      -0.591916       -16.1069
  33   2.0000      -0.588352       -16.0099
  34   2.0000      -0.560927       -15.2636
  35   2.0000      -0.537531       -14.6270
  36   2.0000      -0.498584       -13.5672
  37   2.0000      -0.489547       -13.3213
  38   2.0000      -0.471322       -12.8253
  39   2.0000      -0.466852       -12.7037
  40   2.0000      -0.465984       -12.6801
  41   2.0000      -0.457331       -12.4446
  42   2.0000      -0.453154       -12.3309
  43   2.0000      -0.437276       -11.8989
  44   2.0000      -0.423370       -11.5205
  45   2.0000      -0.422425       -11.4948
  46   2.0000      -0.414035       -11.2665
  47   2.0000      -0.412170       -11.2157
  48   2.0000      -0.406848       -11.0709
  49   2.0000      -0.401150       -10.9159
  50   2.0000      -0.392665       -10.6850
  51   2.0000      -0.373190       -10.1550
  52   2.0000      -0.365512        -9.9461
  53   2.0000      -0.349334        -9.5059
  54   2.0000      -0.346892        -9.4394
  55   2.0000      -0.339502        -9.2383
  56   2.0000      -0.330582        -8.9956
  57   2.0000      -0.300573        -8.1790
  58   2.0000      -0.244290        -6.6475
  59   2.0000      -0.215836        -5.8732
  60   0.0000      -0.044790        -1.2188
  61   0.0000       0.017831         0.4852
  62   0.0000       0.032611         0.8874
  63   0.0000       0.045682         1.2431
  64   0.0000       0.071413         1.9433

MULLIKEN ATOMIC CHARGES
-----------------------
   0 C :   -0.125829
   1 S :    0.104352
   2 C :   -0.164852
   3 C :   -0.023509
   4 C :   -0.061287
   5 C :    0.153335
   6 C :   -0.150282
   7 C :    0.511706
   8 F :   -0.171212
   9 F :   -0.177947
  10 F :   -0.176075
  11 C :    0.042479
  12 C :    0.098042
  13 C :    0.036955
  14 C :   -0.043707
  15 H :    0.011080
  16 H :    0.020070
  17 H :    0.010632
  18 H :    0.017705
  19 H :    0.012499
  20 H :    0.007282
  21 H :    0.017996
  22 H :    0.029779
  23 H :   -0.010052
  24 H :    0.012092
  25 H :    0.018746
Sum of atomic charges:    0.0000000

LOEWDIN ATOMIC CHARGES
----------------------
   0 C :   -0.199495
   1 S :    0.433961
   2 C :   -0.181940
   3 C :   -0.055743
   4 C :   -0.068837
   5 C :   -0.014551
   6 C :   -0.066567
   7 C :    0.171502
   8 F :   -0.061643
   9 F :   -0.068945
  10 F :   -0.068221
  11 C :   -0.018760
  12 C :   -0.027581
  13 C :   -0.041458
  14 C :   -0.060349
  15 H :    0.022494
  16 H :    0.037828
  17 H :    0.032152
  18 H :    0.041258
  19 H :    0.029434
  20 H :    0.027301
  21 H :    0.032588
  22 H :    0.032587
  23 H :    0.028205
  24 H :    0.018954
  25 H :    0.025826

  Mayer bond orders larger than 0.100000
B(  0-C ,  1-S ) :   1.1552 B(  0-C ,  4-C ) :   1.5343 B(  0-C , 15-H ) :   0.9663
B(  1-S ,  2-C ) :   1.1304 B(  2-C ,  3-C ) :   1.5044 B(  2-C , 13-C ) :   1.1233
B(  3-C ,  4-C ) :   1.2950 B(  3-C , 12-C ) :   1.0699 B(  4-C ,  5-C ) :   1.0306
B(  5-C ,  6-C ) :   1.0491 B(  5-C , 16-H ) :   0.9098 B(  5-C , 17-H ) :   0.9152
B(  6-C ,  7-C ) :   0.9833 B(  6-C , 11-C ) :   1.0488 B(  6-C , 18-H ) :   0.8923
B(  7-C ,  8-F ) :   1.1320 B(  7-C ,  9-F ) :   1.1224 B(  7-C , 10-F ) :   1.1267
B( 11-C , 12-C ) :   1.0792 B( 11-C , 19-H ) :   0.9351 B( 11-C , 20-H ) :   0.9282
B( 12-C , 21-H ) :   0.9013 B( 12-C , 22-H ) :   0.9078 B( 13-C , 14-C ) :   1.9063
B( 13-C , 23-H ) :   0.9420 B( 14-C , 24-H ) :   0.9532 B( 14-C , 25-H ) :   0.9391

Dispersion correction           -0.055958332
FINAL SINGLE POINT ENERGY     -1122.922172590456

DIPOLE MOMENT
-------------
                                X             Y             Z
Electronic contribution:     -4.31049     -11.59628     -10.58824
Nuclear contribution   :      4.15166      11.60706      11.40606
                        -----------------------------------------
Total Dipole Moment    :     -0.15883       0.01079       0.81782
                        -----------------------------------------
Magnitude (a.u.)       :      0.83317
Magnitude (Debye)      :      2.11774

Rotational constants in cm-1:     0.031807     0.012090     0.010201
Rotational constants in MHz :   953.537614   362.450700   305.830775

                             ****ORCA TERMINATED NORMALLY****
TOTAL RUN TIME: 0 days 1 hours 12 minutes 52 seconds 785 msec
