                         Program Version 4.2.0 -  RELEASE  -
|  1> # ORCA input file
|  2> # SCF done        -52.788336748108          0.000594187494
|  3> ! B3LYP/G D3BJ Opt RIJCOSX def2-SVP def2/J
|  4> * xyz 0 1
|  5>    C        1.37920        -1.43707         0.70002
|  6>    S        2.62194        -0.27457         0.90211
|  7>    C        1.47025         1.02985         0.81177
|  8>    C        0.19432         0.54804         0.63658
|  9>    C        0.14977        -0.86740         0.57520
| 10>    C       -1.13363        -1.62221         0.42269
| 11>    C       -2.17710        -0.73646        -0.27496
| 12>    C       -1.85808        -0.49029        -1.72210
| 13>    O       -1.84199         0.56496        -2.28486
| 14>    C       -1.57413        -1.78170        -2.55564
| 15>    F       -2.32014        -2.82481        -2.15106
| 16>    F       -1.83845        -1.59229        -3.84730
| 17>    F       -0.29113        -2.16080        -2.46131
| 18>    C       -2.31709         0.58036         0.49536
| 19>    C       -1.02545         1.40175         0.46721
| 20>    C        1.88420         2.40303         0.91957
| 21>    C        3.13538         2.80523         1.12111
| 22>    H        1.62568        -2.47988         0.68216
| 23>    H       -1.52166        -1.87907         1.41342
| 24>    H       -0.96388        -2.56004        -0.10600
| 25>    H       -3.13750        -1.27053        -0.27436
| 26>    H       -2.57956         0.33990         1.52711
| 27>    H       -3.12603         1.17404         0.06781
| 28>    H       -1.06716         2.15960         1.25296
| 29>    H       -0.95123         1.92746        -0.48901
| 30>    H        1.08858         3.13012         0.82422
| 31>    H        3.94353         2.09893         1.21743
| 32>    H        3.38951         3.84766         1.19524
| 33> *
| 34>
| 35>                          ****END OF INPUT****
 Total Charge           Charge          ....    0
 Multiplicity           Mult            ....    1
 Number of Electrons    NEL             ....  134
Dispersion correction           -0.063211705
FINAL SINGLE POINT ENERGY     -1236.150221385508
Dispersion correction            ... done
Dispersion correction           -0.062262336
FINAL SINGLE POINT ENERGY     -1236.154069842491
Dispersion correction            ... done
Dispersion correction           -0.062067502
FINAL SINGLE POINT ENERGY     -1236.154266978471
Dispersion correction            ... done
FINAL SINGLE POINT ENERGY     -1236.153926170531
FINAL SINGLE POINT ENERGY     -1236.154230287274
FINAL SINGLE POINT ENERGY     -1236.154213586033
FINAL SINGLE POINT ENERGY     -1236.154158374964
FINAL SINGLE POINT ENERGY     -1236.154060985701
Dispersion correction            ... done
Dispersion correction           -0.061738006
FINAL SINGLE POINT ENERGY     -1236.154037735513
Dispersion correction            ... done
Dispersion correction           -0.061746043
FINAL SINGLE POINT ENERGY     -1236.154066342816
Dispersion correction            ... done
                    ***********************HURRAY********************

CARTESIAN COORDINATES (ANGSTROEM)
---------------------------------
  C      1.426266   -1.455536    0.835193
  S      2.653162   -0.282687    1.139237
  C      1.519155    1.034185    0.953905
  C      0.244046    0.553651    0.685618
  C      0.197432   -0.878931    0.614987
  C     -1.083059   -1.635623    0.375435
  C     -2.160137   -0.751741   -0.290400
  C     -1.992594   -0.555551   -1.787887
  O     -2.105063    0.499435   -2.355863
  C     -1.718119   -1.822333   -2.653569
  F     -2.393805   -2.889396   -2.186818
  F     -2.076208   -1.626068   -3.916306
  F     -0.408899   -2.123185   -2.623352
  C     -2.278094    0.594276    0.439347
  C     -0.971729    1.405273    0.415783
  C      1.935648    2.423499    1.047164
  C      3.194464    2.883666    1.148109
  H      1.672927   -2.516475    0.845632
  H     -1.496880   -1.972709    1.341403
  H     -0.891806   -2.550338   -0.201077
  H     -3.118979   -1.297071   -0.206526
  H     -2.567870    0.379859    1.480994
  H     -3.084764    1.192144   -0.007951
  H     -1.043539    2.226154    1.147832
  H     -0.867593    1.887016   -0.570311
  H      1.114530    3.147579    1.016908
  H      4.057159    2.211092    1.162194
  H      3.402500    3.953627    1.215689

 Multiplicity           Mult            ....    1
 Number of Electrons    NEL             ....  134
 Basis Dimension        Dim             ....  297

ORBITAL ENERGIES
----------------

  NO   OCC          E(Eh)            E(eV)
   0   2.0000     -88.871755     -2418.3234
   1   2.0000     -24.736843      -673.1237
   2   2.0000     -24.734564      -673.0617
   3   2.0000     -24.732641      -673.0094
   4   2.0000     -19.167584      -521.5765
   5   2.0000     -10.443303      -284.1767
   6   2.0000     -10.309360      -280.5320
   7   2.0000     -10.225970      -278.2628
   8   2.0000     -10.214819      -277.9594
   9   2.0000     -10.213521      -277.9240
  10   2.0000     -10.212482      -277.8958
  11   2.0000     -10.203924      -277.6629
  12   2.0000     -10.203900      -277.6622
  13   2.0000     -10.200269      -277.5634
  14   2.0000     -10.199571      -277.5444
  15   2.0000     -10.199023      -277.5295
  16   2.0000     -10.189959      -277.2829
  17   2.0000      -7.966861      -216.7893
  18   2.0000      -5.934912      -161.4972
  19   2.0000      -5.930960      -161.3896
  20   2.0000      -5.928163      -161.3135
  21   2.0000      -1.314992       -35.7828
  22   2.0000      -1.223507       -33.2933
  23   2.0000      -1.221949       -33.2509
  24   2.0000      -1.075786       -29.2736
  25   2.0000      -0.889007       -24.1911
  26   2.0000      -0.839615       -22.8471
  27   2.0000      -0.788142       -21.4464
  28   2.0000      -0.771313       -20.9885
  29   2.0000      -0.744916       -20.2702
  30   2.0000      -0.735413       -20.0116
  31   2.0000      -0.695778       -18.9331
  32   2.0000      -0.658396       -17.9159
  33   2.0000      -0.641839       -17.4653
  34   2.0000      -0.612503       -16.6671
  35   2.0000      -0.608903       -16.5691
  36   2.0000      -0.607772       -16.5383
  37   2.0000      -0.597452       -16.2575
  38   2.0000      -0.549270       -14.9464
  39   2.0000      -0.534001       -14.5309
  40   2.0000      -0.505642       -13.7592
  41   2.0000      -0.500548       -13.6206
  42   2.0000      -0.488316       -13.2878
  43   2.0000      -0.485917       -13.2225
  44   2.0000      -0.481333       -13.0977
  45   2.0000      -0.464033       -12.6270
  46   2.0000      -0.458212       -12.4686
  47   2.0000      -0.448784       -12.2120
  48   2.0000      -0.444484       -12.0950
  49   2.0000      -0.441628       -12.0173
  50   2.0000      -0.430787       -11.7223
  51   2.0000      -0.425127       -11.5683
  52   2.0000      -0.423289       -11.5183
  53   2.0000      -0.422319       -11.4919
  54   2.0000      -0.409348       -11.1389
  55   2.0000      -0.407627       -11.0921
  56   2.0000      -0.396165       -10.7802
  57   2.0000      -0.382876       -10.4186
  58   2.0000      -0.368970       -10.0402
  59   2.0000      -0.358561        -9.7569
  60   2.0000      -0.346534        -9.4297
  61   2.0000      -0.344571        -9.3763
  62   2.0000      -0.331676        -9.0254
  63   2.0000      -0.302765        -8.2387
  64   2.0000      -0.286085        -7.7848
  65   2.0000      -0.246446        -6.7061
  66   2.0000      -0.216139        -5.8814
  67   0.0000      -0.065997        -1.7959
  68   0.0000      -0.048353        -1.3158
  69   0.0000       0.022250         0.6055
  70   0.0000       0.039812         1.0833
  71   0.0000       0.047721         1.2985

MULLIKEN ATOMIC CHARGES
-----------------------
   0 C :   -0.130542
   1 S :    0.104884
   2 C :   -0.138733
   3 C :   -0.042796
   4 C :   -0.051160
   5 C :    0.159302
   6 C :   -0.129676
   7 C :   -0.004866
   8 O :   -0.156243
   9 C :    0.545339
  10 F :   -0.176145
  11 F :   -0.138807
  12 F :   -0.169536
  13 C :    0.094524
  14 C :    0.101749
  15 C :   -0.002839
  16 C :   -0.036309
  17 H :    0.013874
  18 H :    0.014827
  19 H :    0.017892
  20 H :    0.031866
  21 H :    0.001009
  22 H :    0.006342
  23 H :    0.016029
  24 H :    0.033699
  25 H :   -0.006998
  26 H :    0.019565
  27 H :    0.023746
Sum of atomic charges:   -0.0000000

LOEWDIN ATOMIC CHARGES
----------------------
   0 C :   -0.191704
   1 S :    0.431587
   2 C :   -0.183759
   3 C :   -0.058921
   4 C :   -0.074578
   5 C :   -0.013922
   6 C :   -0.059701
   7 C :    0.051070
   8 O :   -0.092082
   9 C :    0.142251
  10 F :   -0.064615
  11 F :   -0.032463
  12 F :   -0.054479
  13 C :   -0.014096
  14 C :   -0.026396
  15 C :   -0.040631
  16 C :   -0.056122
  17 H :    0.023523
  18 H :    0.036861
  19 H :    0.026419
  20 H :    0.049715
  21 H :    0.025701
  22 H :    0.029885
  23 H :    0.032449
  24 H :    0.036117
  25 H :    0.032734
  26 H :    0.018497
  27 H :    0.026658

  Mayer bond orders larger than 0.100000
B(  0-C ,  1-S ) :   1.1576 B(  0-C ,  4-C ) :   1.5435 B(  0-C , 17-H ) :   0.9666
B(  1-S ,  2-C ) :   1.1192 B(  2-C ,  3-C ) :   1.4931 B(  2-C , 15-C ) :   1.1414
B(  3-C ,  4-C ) :   1.2888 B(  3-C , 14-C ) :   1.0647 B(  4-C ,  5-C ) :   1.0244
B(  5-C ,  6-C ) :   1.0510 B(  5-C , 18-H ) :   0.9003 B(  5-C , 19-H ) :   0.9156
B(  6-C ,  7-C ) :   0.9197 B(  6-C , 13-C ) :   1.0690 B(  6-C , 20-H ) :   0.8764
B(  7-C ,  8-O ) :   2.1770 B(  7-C ,  9-C ) :   0.8657 B(  9-C , 10-F ) :   1.1091
B(  9-C , 11-F ) :   1.1848 B(  9-C , 12-F ) :   1.1125 B( 13-C , 14-C ) :   1.0878
B( 13-C , 21-H ) :   0.9337 B( 13-C , 22-H ) :   0.9178 B( 14-C , 23-H ) :   0.9080
B( 14-C , 24-H ) :   0.9074 B( 15-C , 16-C ) :   1.9031 B( 15-C , 25-H ) :   0.9487
B( 16-C , 26-H ) :   0.9537 B( 16-C , 27-H ) :   0.9456

Dispersion correction           -0.061753363
FINAL SINGLE POINT ENERGY     -1236.154065582377

DIPOLE MOMENT
-------------
                                X             Y             Z
Electronic contribution:     -4.04897     -15.48298     -17.91407
Nuclear contribution   :      3.62547      15.27605      18.79329
                        -----------------------------------------
Total Dipole Moment    :     -0.42350      -0.20694       0.87921
                        -----------------------------------------
Magnitude (a.u.)       :      0.99759
Magnitude (Debye)      :      2.53568

Rotational constants in cm-1:     0.026768     0.008381     0.007740
Rotational constants in MHz :   802.482116   251.267445   232.026592

                             ****ORCA TERMINATED NORMALLY****
TOTAL RUN TIME: 0 days 0 hours 35 minutes 18 seconds 603 msec
