                         Program Version 4.2.0 -  RELEASE  -
|  1> # ORCA input file
|  2> # SCF done        -52.789262873911          0.000652782671
|  3> ! B3LYP/G D3BJ Opt RIJCOSX def2-SVP def2/J
|  4> * xyz 0 1
|  5>    C        1.25399        -1.32771        -0.16811
|  6>    S        2.53328        -0.19353        -0.18439
|  7>    C        1.42550         1.12182         0.09861
|  8>    C        0.13096         0.66847         0.18700
|  9>    C        0.03988        -0.73930         0.03469
| 10>    C       -1.27834        -1.48055         0.09238
| 11>    C       -1.58998        -1.83190        -1.33742
| 12>    O       -2.31612        -1.24384        -2.08599
| 13>    C       -0.83266        -3.07873        -1.90037
| 14>    F       -0.37637        -3.90960        -0.94923
| 15>    F       -1.63682        -3.79940        -2.68523
| 16>    F        0.22575        -2.71503        -2.63773
| 17>    C       -2.37230        -0.61003         0.71898
| 18>    C       -2.36067         0.80663         0.15272
| 19>    C       -1.05826         1.52118         0.50065
| 20>    C        1.89417         2.47669         0.22208
| 21>    C        3.16834         2.84819         0.14065
| 22>    H        1.48100        -2.36746        -0.29249
| 23>    H       -1.14942        -2.40330         0.66691
| 24>    H       -2.20719        -0.57348         1.79797
| 25>    H       -3.34280        -1.07420         0.53607
| 26>    H       -3.20159         1.36681         0.56438
| 27>    H       -2.48263         0.76594        -0.92900
| 28>    H       -1.04333         1.75467         1.57122
| 29>    H       -0.99933         2.46642        -0.04186
| 30>    H        1.12297         3.21589         0.39438
| 31>    H        3.95444         2.13045        -0.02686
| 32>    H        3.46341         3.87762         0.23827
| 33> *
| 34>
| 35>                          ****END OF INPUT****
 Total Charge           Charge          ....    0
 Multiplicity           Mult            ....    1
 Number of Electrons    NEL             ....  134
Dispersion correction           -0.063163704
FINAL SINGLE POINT ENERGY     -1236.148638017420
Dispersion correction            ... done
Dispersion correction           -0.062083841
FINAL SINGLE POINT ENERGY     -1236.152831929515
Dispersion correction            ... done
Dispersion correction           -0.062102925
FINAL SINGLE POINT ENERGY     -1236.153118379221
Dispersion correction            ... done
FINAL SINGLE POINT ENERGY     -1236.153667174828
FINAL SINGLE POINT ENERGY     -1236.153831120066
FINAL SINGLE POINT ENERGY     -1236.153644537989
FINAL SINGLE POINT ENERGY     -1236.153686936206
FINAL SINGLE POINT ENERGY     -1236.153794751317
FINAL SINGLE POINT ENERGY     -1236.153783079876
FINAL SINGLE POINT ENERGY     -1236.153838383057
FINAL SINGLE POINT ENERGY     -1236.153867543313
Dispersion correction            ... done
Dispersion correction           -0.062196866
FINAL SINGLE POINT ENERGY     -1236.153878175842
Dispersion correction            ... done
Dispersion correction           -0.062191850
FINAL SINGLE POINT ENERGY     -1236.153875203369
Dispersion correction            ... done
                    ***********************HURRAY********************

CARTESIAN COORDINATES (ANGSTROEM)
---------------------------------
  C      1.301423   -1.369893   -0.091620
  S      2.587678   -0.225057   -0.120784
  C      1.478904    1.111673    0.071787
  C      0.166803    0.662591    0.137006
  C      0.070287   -0.767893    0.037663
  C     -1.269944   -1.487794    0.084333
  C     -1.707671   -1.947741   -1.305837
  O     -2.662495   -1.524872   -1.902376
  C     -0.872579   -3.073164   -1.987814
  F     -0.342426   -3.906048   -1.068941
  F     -1.635767   -3.798524   -2.801949
  F      0.135277   -2.548560   -2.697200
  C     -2.353813   -0.607413    0.725400
  C     -2.361036    0.814202    0.156932
  C     -1.031763    1.537985    0.406563
  C      1.939770    2.485103    0.188232
  C      3.212764    2.912118    0.241068
  H      1.517447   -2.431530   -0.188279
  H     -1.141216   -2.411701    0.671876
  H     -2.167132   -0.574400    1.812029
  H     -3.335790   -1.080653    0.576806
  H     -3.180956    1.390504    0.612479
  H     -2.571738    0.764270   -0.921864
  H     -0.989186    1.868899    1.460749
  H     -0.985947    2.458082   -0.196598
  H      1.137078    3.227461    0.245058
  H      4.059418    2.220214    0.204811
  H      3.448488    3.974861    0.328748

 Multiplicity           Mult            ....    1
 Number of Electrons    NEL             ....  134
 Basis Dimension        Dim             ....  297

ORBITAL ENERGIES
----------------

  NO   OCC          E(Eh)            E(eV)
   0   2.0000     -88.877137     -2418.4699
   1   2.0000     -24.738724      -673.1749
   2   2.0000     -24.734061      -673.0480
   3   2.0000     -24.732224      -672.9980
   4   2.0000     -19.168489      -521.6011
   5   2.0000     -10.444001      -284.1957
   6   2.0000     -10.310330      -280.5583
   7   2.0000     -10.226815      -278.2858
   8   2.0000     -10.218720      -278.0655
   9   2.0000     -10.218497      -278.0594
  10   2.0000     -10.211006      -277.8556
  11   2.0000     -10.206941      -277.7450
  12   2.0000     -10.204171      -277.6696
  13   2.0000     -10.201132      -277.5869
  14   2.0000     -10.200513      -277.5701
  15   2.0000     -10.193292      -277.3736
  16   2.0000     -10.192002      -277.3385
  17   2.0000      -7.972146      -216.9331
  18   2.0000      -5.940179      -161.6405
  19   2.0000      -5.936193      -161.5320
  20   2.0000      -5.933555      -161.4603
  21   2.0000      -1.314784       -35.7771
  22   2.0000      -1.223285       -33.2873
  23   2.0000      -1.222296       -33.2604
  24   2.0000      -1.076815       -29.3016
  25   2.0000      -0.894243       -24.3336
  26   2.0000      -0.833631       -22.6842
  27   2.0000      -0.795121       -21.6363
  28   2.0000      -0.774195       -21.0669
  29   2.0000      -0.744429       -20.2569
  30   2.0000      -0.732304       -19.9270
  31   2.0000      -0.698056       -18.9951
  32   2.0000      -0.666258       -18.1298
  33   2.0000      -0.629280       -17.1236
  34   2.0000      -0.613557       -16.6957
  35   2.0000      -0.609108       -16.5747
  36   2.0000      -0.606104       -16.4929
  37   2.0000      -0.594012       -16.1639
  38   2.0000      -0.557463       -15.1693
  39   2.0000      -0.534965       -14.5571
  40   2.0000      -0.509544       -13.8654
  41   2.0000      -0.507537       -13.8108
  42   2.0000      -0.487527       -13.2663
  43   2.0000      -0.482852       -13.1391
  44   2.0000      -0.477623       -12.9968
  45   2.0000      -0.466901       -12.7050
  46   2.0000      -0.460345       -12.5266
  47   2.0000      -0.446004       -12.1364
  48   2.0000      -0.445667       -12.1272
  49   2.0000      -0.442909       -12.0522
  50   2.0000      -0.430430       -11.7126
  51   2.0000      -0.426626       -11.6091
  52   2.0000      -0.424135       -11.5413
  53   2.0000      -0.420777       -11.4499
  54   2.0000      -0.414014       -11.2659
  55   2.0000      -0.405121       -11.0239
  56   2.0000      -0.392523       -10.6811
  57   2.0000      -0.379308       -10.3215
  58   2.0000      -0.371973       -10.1219
  59   2.0000      -0.350002        -9.5240
  60   2.0000      -0.344840        -9.3836
  61   2.0000      -0.340267        -9.2591
  62   2.0000      -0.333015        -9.0618
  63   2.0000      -0.311282        -8.4704
  64   2.0000      -0.289023        -7.8647
  65   2.0000      -0.250555        -6.8180
  66   2.0000      -0.220472        -5.9993
  67   0.0000      -0.065603        -1.7852
  68   0.0000      -0.053341        -1.4515
  69   0.0000       0.022830         0.6212
  70   0.0000       0.035961         0.9786
  71   0.0000       0.047894         1.3033

MULLIKEN ATOMIC CHARGES
-----------------------
   0 C :   -0.120318
   1 S :    0.113271
   2 C :   -0.134856
   3 C :   -0.048777
   4 C :   -0.026045
   5 C :   -0.015363
   6 C :   -0.010053
   7 O :   -0.155413
   8 C :    0.553689
   9 F :   -0.178164
  10 F :   -0.144010
  11 F :   -0.160991
  12 C :    0.079459
  13 C :    0.021693
  14 C :    0.121736
  15 C :   -0.002666
  16 C :   -0.035182
  17 H :    0.024629
  18 H :    0.028917
  19 H :    0.005181
  20 H :    0.003614
  21 H :   -0.001495
  22 H :    0.020370
  23 H :    0.011424
  24 H :    0.011395
  25 H :   -0.006881
  26 H :    0.020557
  27 H :    0.024278
Sum of atomic charges:   -0.0000000

LOEWDIN ATOMIC CHARGES
----------------------
   0 C :   -0.190434
   1 S :    0.439731
   2 C :   -0.183519
   3 C :   -0.052726
   4 C :   -0.070397
   5 C :   -0.052628
   6 C :    0.056657
   7 O :   -0.090087
   8 C :    0.144693
   9 F :   -0.065231
  10 F :   -0.036986
  11 F :   -0.047791
  12 C :   -0.016384
  13 C :   -0.028196
  14 C :   -0.024862
  15 C :   -0.040556
  16 C :   -0.054664
  17 H :    0.021264
  18 H :    0.045370
  19 H :    0.025995
  20 H :    0.027876
  21 H :    0.026009
  22 H :    0.024351
  23 H :    0.032035
  24 H :    0.031217
  25 H :    0.033028
  26 H :    0.018974
  27 H :    0.027263

  Mayer bond orders larger than 0.100000
B(  0-C ,  1-S ) :   1.1641 B(  0-C ,  4-C ) :   1.5432 B(  0-C , 17-H ) :   0.9553
B(  1-S ,  2-C ) :   1.1142 B(  2-C ,  3-C ) :   1.4991 B(  2-C , 15-C ) :   1.1405
B(  3-C ,  4-C ) :   1.2994 B(  3-C , 14-C ) :   1.0701 B(  4-C ,  5-C ) :   0.9621
B(  5-C ,  6-C ) :   0.9186 B(  5-C , 12-C ) :   1.0754 B(  5-C , 18-H ) :   0.8819
B(  6-C ,  7-O ) :   2.1706 B(  6-C ,  8-C ) :   0.8707 B(  8-C ,  9-F ) :   1.0934
B(  8-C , 10-F ) :   1.1762 B(  8-C , 11-F ) :   1.1312 B( 12-C , 13-C ) :   1.0708
B( 12-C , 19-H ) :   0.9342 B( 12-C , 20-H ) :   0.9234 B( 13-C , 14-C ) :   1.0862
B( 13-C , 21-H ) :   0.9268 B( 13-C , 22-H ) :   0.9442 B( 14-C , 23-H ) :   0.9105
B( 14-C , 24-H ) :   0.9047 B( 15-C , 16-C ) :   1.9023 B( 15-C , 25-H ) :   0.9485
B( 16-C , 26-H ) :   0.9540 B( 16-C , 27-H ) :   0.9451

Dispersion correction           -0.062192639
FINAL SINGLE POINT ENERGY     -1236.153871203082

DIPOLE MOMENT
-------------
                                X             Y             Z
Electronic contribution:      1.92371     -24.13354     -14.41234
Nuclear contribution   :     -1.89254      24.48718      15.31215
                        -----------------------------------------
Total Dipole Moment    :      0.03117       0.35364       0.89980
                        -----------------------------------------
Magnitude (a.u.)       :      0.96730
Magnitude (Debye)      :      2.45869

Rotational constants in cm-1:     0.024079     0.009895     0.007845
Rotational constants in MHz :   721.870527   296.649722   235.176977

                             ****ORCA TERMINATED NORMALLY****
TOTAL RUN TIME: 0 days 0 hours 36 minutes 48 seconds 178 msec
