                         Program Version 4.2.0 -  RELEASE  -
|  1> # ORCA input file
|  2> # SCF done        -35.158421650217          0.000640291726
|  3> ! B3LYP/G D3BJ Opt RIJCOSX def2-SVP def2/J
|  4> * xyz 0 1
|  5>    C       -1.62873        -1.27029         0.05578
|  6>    S       -2.76029        -0.00533         0.20330
|  7>    C       -1.53318         1.18575         0.25454
|  8>    C       -0.27827         0.63436         0.16128
|  9>    C       -0.33393        -0.80043         0.04497
| 10>    C        0.86875        -1.53097        -0.06225
| 11>    C        2.06294        -0.86206        -0.05093
| 12>    C        3.27352        -1.58213        -0.15866
| 13>    N        4.23944        -2.19306        -0.24827
| 14>    C        2.12359         0.57353         0.06869
| 15>    O        3.38334         1.07512         0.06747
| 16>    C        3.55224         2.46631         0.18499
| 17>    C        0.97335         1.30048         0.17034
| 18>    H       -1.96239        -2.28600        -0.01467
| 19>    H       -1.79809         2.21937         0.34971
| 20>    H        0.84365        -2.60662        -0.15199
| 21>    H        4.62738         2.63332         0.17303
| 22>    H        3.13649         2.84121         1.12521
| 23>    H        3.09193         2.99714        -0.65425
| 24>    H        0.98139         2.37465         0.25865
| 25> *
| 26>
| 27>                          ****END OF INPUT****
 Total Charge           Charge          ....    0
 Multiplicity           Mult            ....    1
 Number of Electrons    NEL             ....   98
Dispersion correction           -0.044546467
FINAL SINGLE POINT ENERGY      -912.962161843152
Dispersion correction            ... done
Dispersion correction           -0.044378317
FINAL SINGLE POINT ENERGY      -912.965150385923
Dispersion correction            ... done
Dispersion correction           -0.044348133
FINAL SINGLE POINT ENERGY      -912.965234001312
Dispersion correction            ... done
FINAL SINGLE POINT ENERGY      -912.965236044034
Dispersion correction            ... done
Dispersion correction           -0.044342220
FINAL SINGLE POINT ENERGY      -912.965234777637
Dispersion correction            ... done
Dispersion correction           -0.044344795
FINAL SINGLE POINT ENERGY      -912.965238883320
Dispersion correction            ... done
                    ***********************HURRAY********************

CARTESIAN COORDINATES (ANGSTROEM)
---------------------------------
  C     -1.649878   -1.282163    0.076021
  S     -2.778541   -0.005489    0.215133
  C     -1.557848    1.205099    0.241094
  C     -0.289120    0.648487    0.148654
  C     -0.344283   -0.800321    0.047797
  C      0.869106   -1.537698   -0.060249
  C      2.076670   -0.874587   -0.062164
  C      3.304970   -1.604104   -0.168461
  N      4.285645   -2.219327   -0.256035
  C      2.130550    0.573422    0.048878
  O      3.380792    1.075288    0.045230
  C      3.555685    2.465381    0.199266
  C      0.977420    1.313557    0.147942
  H     -1.982181   -2.316477    0.013266
  H     -1.825307    2.255946    0.330930
  H      0.847631   -2.625630   -0.145157
  H      4.636983    2.649875    0.178660
  H      3.142488    2.817178    1.161743
  H      3.074444    3.027460   -0.620443
  H      1.007905    2.398450    0.234833

 Multiplicity           Mult            ....    1
 Number of Electrons    NEL             ....   98
 Basis Dimension        Dim             ....  221

ORBITAL ENERGIES
----------------

  NO   OCC          E(Eh)            E(eV)
   0   2.0000     -88.898536     -2419.0521
   1   2.0000     -19.183021      -521.9965
   2   2.0000     -14.319400      -389.6507
   3   2.0000     -10.272441      -279.5273
   4   2.0000     -10.257841      -279.1300
   5   2.0000     -10.236586      -278.5517
   6   2.0000     -10.229216      -278.3511
   7   2.0000     -10.226080      -278.2658
   8   2.0000     -10.221836      -278.1503
   9   2.0000     -10.221248      -278.1343
  10   2.0000     -10.217149      -278.0227
  11   2.0000     -10.215747      -277.9846
  12   2.0000     -10.203810      -277.6598
  13   2.0000      -7.993136      -217.5043
  14   2.0000      -5.960842      -162.2028
  15   2.0000      -5.956654      -162.0888
  16   2.0000      -5.955561      -162.0591
  17   2.0000      -1.081389       -29.4261
  18   2.0000      -0.907098       -24.6834
  19   2.0000      -0.889934       -24.2163
  20   2.0000      -0.848335       -23.0844
  21   2.0000      -0.782803       -21.3012
  22   2.0000      -0.768298       -20.9065
  23   2.0000      -0.727914       -19.8076
  24   2.0000      -0.704064       -19.1586
  25   2.0000      -0.648879       -17.6569
  26   2.0000      -0.604430       -16.4474
  27   2.0000      -0.590313       -16.0632
  28   2.0000      -0.551141       -14.9973
  29   2.0000      -0.531731       -14.4691
  30   2.0000      -0.523210       -14.2373
  31   2.0000      -0.488264       -13.2863
  32   2.0000      -0.479212       -13.0400
  33   2.0000      -0.464584       -12.6420
  34   2.0000      -0.440831       -11.9956
  35   2.0000      -0.427458       -11.6317
  36   2.0000      -0.424475       -11.5506
  37   2.0000      -0.416847       -11.3430
  38   2.0000      -0.389681       -10.6038
  39   2.0000      -0.381973       -10.3940
  40   2.0000      -0.367846       -10.0096
  41   2.0000      -0.354621        -9.6497
  42   2.0000      -0.352911        -9.6032
  43   2.0000      -0.347108        -9.4453
  44   2.0000      -0.328742        -8.9455
  45   2.0000      -0.318768        -8.6741
  46   2.0000      -0.297467        -8.0945
  47   2.0000      -0.249669        -6.7938
  48   2.0000      -0.217021        -5.9054
  49   0.0000      -0.079924        -2.1748
  50   0.0000      -0.015402        -0.4191
  51   0.0000       0.012073         0.3285
  52   0.0000       0.032872         0.8945
  53   0.0000       0.041221         1.1217

MULLIKEN ATOMIC CHARGES
-----------------------
   0 C :   -0.128666
   1 S :    0.147574
   2 C :   -0.149573
   3 C :    0.124594
   4 C :    0.096725
   5 C :   -0.004585
   6 C :   -0.129978
   7 C :   -0.111404
   8 N :    0.068660
   9 C :    0.260612
  10 O :   -0.293711
  11 C :    0.183553
  12 C :   -0.147809
  13 H :    0.025310
  14 H :    0.018554
  15 H :   -0.012469
  16 H :    0.044075
  17 H :    0.021037
  18 H :    0.024889
  19 H :   -0.037388
Sum of atomic charges:   -0.0000000

LOEWDIN ATOMIC CHARGES
----------------------
   0 C :   -0.196972
   1 S :    0.491756
   2 C :   -0.218937
   3 C :   -0.037652
   4 C :   -0.061985
   5 C :    0.029582
   6 C :   -0.083232
   7 C :   -0.023025
   8 N :   -0.068530
   9 C :    0.062548
  10 O :   -0.079806
  11 C :    0.083725
  12 C :   -0.085514
  13 H :    0.028554
  14 H :    0.025206
  15 H :    0.041059
  16 H :    0.031933
  17 H :    0.015615
  18 H :    0.015682
  19 H :    0.029994

  Mayer bond orders larger than 0.100000
B(  0-C ,  1-S ) :   1.2255 B(  0-C ,  2-C ) :   0.1116 B(  0-C ,  4-C ) :   1.3815
B(  0-C , 13-H ) :   0.9658 B(  1-S ,  2-C ) :   1.1835 B(  2-C ,  3-C ) :   1.4263
B(  2-C , 14-H ) :   0.9640 B(  3-C ,  4-C ) :   1.1946 B(  3-C , 12-C ) :   1.1392
B(  4-C ,  5-C ) :   1.1570 B(  5-C ,  6-C ) :   1.5548 B(  5-C , 15-H ) :   1.0011
B(  6-C ,  7-C ) :   1.0681 B(  6-C ,  9-C ) :   1.1645 B(  7-C ,  8-N ) :   3.0056
B(  9-C , 10-O ) :   1.1977 B(  9-C , 12-C ) :   1.4484 B( 10-O , 11-C ) :   0.9579
B( 11-C , 16-H ) :   0.9762 B( 11-C , 17-H ) :   0.9648 B( 11-C , 18-H ) :   0.9645
B( 12-C , 19-H ) :   1.0006

Dispersion correction           -0.044345826
FINAL SINGLE POINT ENERGY      -912.965238340072

DIPOLE MOMENT
-------------
                                X             Y             Z
Electronic contribution:     -5.02353      -6.49904      -0.44305
Nuclear contribution   :      3.54975       7.85924       0.63780
                        -----------------------------------------
Total Dipole Moment    :     -1.47378       1.36019       0.19475
                        -----------------------------------------
Magnitude (a.u.)       :      2.01496
Magnitude (Debye)      :      5.12163

Rotational constants in cm-1:     0.047464     0.015222     0.011552
Rotational constants in MHz :  1422.949344   456.358276   346.330753

                             ****ORCA TERMINATED NORMALLY****
TOTAL RUN TIME: 0 days 0 hours 9 minutes 15 seconds 182 msec
