                         Program Version 4.2.0 -  RELEASE  -
|  1> # ORCA input file
|  2> # SCF done        -27.242839109849          0.000877772770
|  3> ! B3LYP/G D3BJ Opt RIJCOSX def2-SVP def2/J
|  4> * xyz 0 1
|  5>    C       -1.02024         0.04256         0.14906
|  6>    O       -0.07039         0.99742         0.12851
|  7>    C        1.12976         0.40391        -0.06753
|  8>    C        0.94172        -0.96234        -0.14548
|  9>    C       -0.45694        -1.19086        -0.01299
| 10>    O       -1.09518        -2.37948        -0.03435
| 11>    S        2.11118        -2.26859        -0.33210
| 12>    C        2.28453         1.26124        -0.12574
| 13>    C        3.50515         0.92891        -0.53895
| 14>    H       -2.03714         0.34545         0.28431
| 15>    H       -0.43846        -3.08267        -0.12748
| 16>    H        3.06440        -1.70566         0.40735
| 17>    H        2.07340         2.27595         0.18594
| 18>    H        3.75096        -0.04951        -0.91047
| 19>    H        4.29984         1.65371        -0.54609
| 20> *
| 21>
| 22>                          ****END OF INPUT****
 Total Charge           Charge          ....    0
 Multiplicity           Mult            ....    1
 Number of Electrons    NEL             ....   74
Dispersion correction           -0.028346810
FINAL SINGLE POINT ENERGY      -780.470313424322
Dispersion correction            ... done
Dispersion correction           -0.028154728
FINAL SINGLE POINT ENERGY      -780.473432805528
Dispersion correction            ... done
Dispersion correction           -0.028074027
FINAL SINGLE POINT ENERGY      -780.474756565448
Dispersion correction            ... done
FINAL SINGLE POINT ENERGY      -780.475671345172
FINAL SINGLE POINT ENERGY      -780.476143359644
FINAL SINGLE POINT ENERGY      -780.476301784493
FINAL SINGLE POINT ENERGY      -780.476353458644
Dispersion correction            ... done
Dispersion correction           -0.028034804
FINAL SINGLE POINT ENERGY      -780.476379220096
Dispersion correction            ... done
Dispersion correction           -0.028035290
FINAL SINGLE POINT ENERGY      -780.476386112294
Dispersion correction            ... done
                    ***********************HURRAY********************

CARTESIAN COORDINATES (ANGSTROEM)
---------------------------------
  C     -1.003274    0.032550    0.238026
  O     -0.054926    1.011465    0.144045
  C      1.145895    0.445716   -0.132531
  C      0.980261   -0.928238   -0.207360
  C     -0.413314   -1.187251    0.031508
  O     -0.998747   -2.395331    0.048834
  S      2.128387   -2.199744   -0.635646
  C      2.259424    1.359678   -0.263753
  C      3.546245    1.037866   -0.476121
  H     -2.018009    0.344406    0.459829
  H     -0.311887   -3.046735   -0.177747
  H      2.638824   -2.437862    0.600331
  H      1.968222    2.410830   -0.166881
  H      3.873299    0.002177   -0.582583
  H      4.302188    1.820513   -0.565963

 Multiplicity           Mult            ....    1
 Number of Electrons    NEL             ....   74
 Basis Dimension        Dim             ....  160

ORBITAL ENERGIES
----------------

  NO   OCC          E(Eh)            E(eV)
   0   2.0000     -88.869917     -2418.2734
   1   2.0000     -19.206911      -522.6466
   2   2.0000     -19.168544      -521.6026
   3   2.0000     -10.255982      -279.0795
   4   2.0000     -10.251278      -278.9515
   5   2.0000     -10.233471      -278.4669
   6   2.0000     -10.216577      -278.0072
   7   2.0000     -10.206506      -277.7331
   8   2.0000     -10.194929      -277.4181
   9   2.0000      -7.963046      -216.6855
  10   2.0000      -5.932099      -161.4206
  11   2.0000      -5.928484      -161.3223
  12   2.0000      -5.922394      -161.1565
  13   2.0000      -1.111498       -30.2454
  14   2.0000      -1.056892       -28.7595
  15   2.0000      -0.825491       -22.4628
  16   2.0000      -0.795392       -21.6437
  17   2.0000      -0.749145       -20.3853
  18   2.0000      -0.718967       -19.5641
  19   2.0000      -0.626098       -17.0370
  20   2.0000      -0.597390       -16.2558
  21   2.0000      -0.554234       -15.0815
  22   2.0000      -0.543654       -14.7936
  23   2.0000      -0.494864       -13.4659
  24   2.0000      -0.475878       -12.9493
  25   2.0000      -0.471024       -12.8172
  26   2.0000      -0.442041       -12.0285
  27   2.0000      -0.428935       -11.6719
  28   2.0000      -0.407323       -11.0838
  29   2.0000      -0.394589       -10.7373
  30   2.0000      -0.380709       -10.3596
  31   2.0000      -0.369731       -10.0609
  32   2.0000      -0.359855        -9.7922
  33   2.0000      -0.312898        -8.5144
  34   2.0000      -0.269508        -7.3337
  35   2.0000      -0.256814        -6.9883
  36   2.0000      -0.212730        -5.7887
  37   0.0000      -0.048011        -1.3065
  38   0.0000       0.019836         0.5398
  39   0.0000       0.051427         1.3994
  40   0.0000       0.056431         1.5356
  41   0.0000       0.063693         1.7332

MULLIKEN ATOMIC CHARGES
-----------------------
   0 C :    0.036953
   1 O :   -0.211088
   2 C :    0.145137
   3 C :   -0.193734
   4 C :    0.164755
   5 O :   -0.190471
   6 S :    0.002242
   7 C :   -0.023200
   8 C :   -0.020660
   9 H :    0.001410
  10 H :    0.169044
  11 H :    0.072587
  12 H :    0.002515
  13 H :    0.014922
  14 H :    0.029588
Sum of atomic charges:    0.0000000

LOEWDIN ATOMIC CHARGES
----------------------
   0 C :   -0.011273
   1 O :    0.008923
   2 C :    0.026555
   3 C :   -0.267818
   4 C :   -0.007195
   5 O :   -0.051445
   6 S :    0.220926
   7 C :   -0.042988
   8 C :   -0.038437
   9 H :    0.023877
  10 H :    0.075547
  11 H :   -0.017261
  12 H :    0.037771
  13 H :    0.014439
  14 H :    0.028378

  Mayer bond orders larger than 0.100000
B(  0-C ,  1-O ) :   1.0786 B(  0-C ,  2-C ) :   0.1028 B(  0-C ,  4-C ) :   1.4819
B(  0-C ,  9-H ) :   1.0126 B(  1-O ,  2-C ) :   1.1664 B(  2-C ,  3-C ) :   1.4848
B(  2-C ,  7-C ) :   1.1400 B(  3-C ,  4-C ) :   1.2172 B(  3-C ,  6-S ) :   1.0454
B(  4-C ,  5-O ) :   1.2252 B(  5-O , 10-H ) :   0.9373 B(  6-S , 11-H ) :   0.9385
B(  7-C ,  8-C ) :   1.8992 B(  7-C , 12-H ) :   0.9458 B(  8-C , 13-H ) :   0.9424
B(  8-C , 14-H ) :   0.9431

Dispersion correction           -0.028034642
FINAL SINGLE POINT ENERGY      -780.476387369889

DIPOLE MOMENT
-------------
                                X             Y             Z
Electronic contribution:     -3.70221      -2.71911      -0.47819
Nuclear contribution   :      4.17884       2.53647       0.70241
                        -----------------------------------------
Total Dipole Moment    :      0.47663      -0.18264       0.22421
                        -----------------------------------------
Magnitude (a.u.)       :      0.55750
Magnitude (Debye)      :      1.41705

Rotational constants in cm-1:     0.063485     0.044481     0.026304
Rotational constants in MHz :  1903.224797  1333.515824   788.578646

                             ****ORCA TERMINATED NORMALLY****
TOTAL RUN TIME: 0 days 0 hours 8 minutes 19 seconds 802 msec
