                         Program Version 4.2.0 -  RELEASE  -
|  1> # ORCA input file
|  2> # SCF done        -34.062966545127          0.000550265830
|  3> ! B3LYP/G D3BJ Opt RIJCOSX def2-SVP def2/J
|  4> * xyz 0 1
|  5>    C       -1.77651        -1.27076         0.49762
|  6>    S       -2.87793         0.01468         0.77178
|  7>    C       -1.80199         1.16850         0.02904
|  8>    C       -0.66013         0.54472        -0.41087
|  9>    C       -0.64925        -0.85365        -0.14315
| 10>    S        0.58390        -2.01879        -0.61947
| 11>    C        2.17803        -1.15907        -0.28005
| 12>    C        2.07962        -0.05599         0.76319
| 13>    C        1.90861         1.31914         0.13011
| 14>    S        0.68434         1.34487        -1.23070
| 15>    C       -2.23705         2.54244        -0.00505
| 16>    C       -1.68797         3.54203        -0.68941
| 17>    H       -2.02336        -2.26986         0.79433
| 18>    H        2.55114        -0.77108        -1.22826
| 19>    H        2.82916        -1.96586         0.05499
| 20>    H        2.99283        -0.04014         1.36393
| 21>    H        1.24786        -0.25963         1.44266
| 22>    H        2.83344         1.64827        -0.34358
| 23>    H        1.60133         2.05837         0.87060
| 24>    H       -3.11825         2.72883         0.59728
| 25>    H       -0.82997         3.40878        -1.32291
| 26>    H       -2.09867         4.53512        -0.63056
| 27> *
| 28>
| 29>                          ****END OF INPUT****
 Total Charge           Charge          ....    0
 Multiplicity           Mult            ....    1
 Number of Electrons    NEL             ....  112
Dispersion correction           -0.059264129
FINAL SINGLE POINT ENERGY     -1542.986455077975
Dispersion correction            ... done
Dispersion correction           -0.058477492
FINAL SINGLE POINT ENERGY     -1542.990165157727
Dispersion correction            ... done
Dispersion correction           -0.058301335
FINAL SINGLE POINT ENERGY     -1542.990502090275
Dispersion correction            ... done
FINAL SINGLE POINT ENERGY     -1542.990800117331
FINAL SINGLE POINT ENERGY     -1542.990988226159
FINAL SINGLE POINT ENERGY     -1542.991113263326
FINAL SINGLE POINT ENERGY     -1542.991176628740
FINAL SINGLE POINT ENERGY     -1542.991231969306
FINAL SINGLE POINT ENERGY     -1542.991260451508
FINAL SINGLE POINT ENERGY     -1542.991270386031
FINAL SINGLE POINT ENERGY     -1542.991263221194
Dispersion correction            ... done
Dispersion correction           -0.058043769
FINAL SINGLE POINT ENERGY     -1542.991245015068
Dispersion correction            ... done
Dispersion correction           -0.058064539
FINAL SINGLE POINT ENERGY     -1542.991261021151
Dispersion correction            ... done
                    ***********************HURRAY********************

CARTESIAN COORDINATES (ANGSTROEM)
---------------------------------
  C     -1.745301   -1.315674    0.369055
  S     -2.878508   -0.059177    0.702265
  C     -1.835577    1.173210    0.020003
  C     -0.669911    0.595172   -0.467071
  C     -0.624384   -0.835730   -0.265930
  S      0.639304   -1.891365   -0.905472
  C      2.176758   -1.297478   -0.052196
  C      2.081943    0.024785    0.703193
  C      2.014841    1.304077   -0.128392
  S      0.623072    1.431002   -1.334538
  C     -2.335496    2.542976    0.067504
  C     -1.806191    3.644529   -0.490297
  H     -1.957022   -2.346535    0.645686
  H      2.944638   -1.246572   -0.840014
  H      2.469558   -2.089758    0.652371
  H      2.978949    0.105755    1.342833
  H      1.226531   -0.010587    1.397298
  H      2.913864    1.415301   -0.755385
  H      1.968612    2.170984    0.548296
  H     -3.268477    2.652373    0.632008
  H     -0.886578    3.614175   -1.074729
  H     -2.301445    4.609457   -0.354971

 Multiplicity           Mult            ....    1
 Number of Electrons    NEL             ....  112
 Basis Dimension        Dim             ....  230

ORBITAL ENERGIES
----------------

  NO   OCC          E(Eh)            E(eV)
   0   2.0000     -88.879475     -2418.5335
   1   2.0000     -88.842250     -2417.5205
   2   2.0000     -88.838227     -2417.4111
   3   2.0000     -10.228352      -278.3276
   4   2.0000     -10.222784      -278.1761
   5   2.0000     -10.220468      -278.1131
   6   2.0000     -10.219885      -278.0972
   7   2.0000     -10.218904      -278.0705
   8   2.0000     -10.218584      -278.0618
   9   2.0000     -10.209134      -277.8047
  10   2.0000     -10.204773      -277.6860
  11   2.0000     -10.187880      -277.2263
  12   2.0000      -7.974797      -217.0053
  13   2.0000      -7.936495      -215.9630
  14   2.0000      -7.932770      -215.8617
  15   2.0000      -5.942777      -161.7112
  16   2.0000      -5.938904      -161.6058
  17   2.0000      -5.936089      -161.5292
  18   2.0000      -5.905982      -160.7100
  19   2.0000      -5.902396      -160.6124
  20   2.0000      -5.902141      -160.6054
  21   2.0000      -5.898358      -160.5025
  22   2.0000      -5.894799      -160.4056
  23   2.0000      -5.890983      -160.3018
  24   2.0000      -0.894082       -24.3292
  25   2.0000      -0.828341       -22.5403
  26   2.0000      -0.795323       -21.6418
  27   2.0000      -0.770301       -20.9610
  28   2.0000      -0.761739       -20.7280
  29   2.0000      -0.708836       -19.2884
  30   2.0000      -0.679380       -18.4869
  31   2.0000      -0.647742       -17.6260
  32   2.0000      -0.597117       -16.2484
  33   2.0000      -0.586617       -15.9627
  34   2.0000      -0.551150       -14.9975
  35   2.0000      -0.507325       -13.8050
  36   2.0000      -0.479947       -13.0600
  37   2.0000      -0.467346       -12.7171
  38   2.0000      -0.463482       -12.6120
  39   2.0000      -0.457348       -12.4451
  40   2.0000      -0.443358       -12.0644
  41   2.0000      -0.416465       -11.3326
  42   2.0000      -0.400248       -10.8913
  43   2.0000      -0.397820       -10.8252
  44   2.0000      -0.389425       -10.5968
  45   2.0000      -0.377497       -10.2722
  46   2.0000      -0.368311       -10.0223
  47   2.0000      -0.364140        -9.9087
  48   2.0000      -0.343076        -9.3356
  49   2.0000      -0.332568        -9.0496
  50   2.0000      -0.318340        -8.6625
  51   2.0000      -0.303753        -8.2655
  52   2.0000      -0.268276        -7.3002
  53   2.0000      -0.234478        -6.3805
  54   2.0000      -0.226581        -6.1656
  55   2.0000      -0.211251        -5.7484
  56   0.0000      -0.052665        -1.4331
  57   0.0000      -0.003377        -0.0919
  58   0.0000       0.023153         0.6300
  59   0.0000       0.044268         1.2046
  60   0.0000       0.047940         1.3045

MULLIKEN ATOMIC CHARGES
-----------------------
   0 C :   -0.082187
   1 S :    0.107845
   2 C :   -0.125272
   3 C :   -0.048165
   4 C :   -0.055805
   5 S :   -0.015610
   6 C :   -0.047932
   7 C :    0.000809
   8 C :   -0.036194
   9 S :   -0.011271
  10 C :    0.028372
  11 C :   -0.022661
  12 H :    0.023699
  13 H :    0.044552
  14 H :    0.049422
  15 H :    0.019333
  16 H :    0.047111
  17 H :    0.039504
  18 H :    0.048839
  19 H :   -0.014742
  20 H :    0.029049
  21 H :    0.021303
Sum of atomic charges:    0.0000000

LOEWDIN ATOMIC CHARGES
----------------------
   0 C :   -0.201949
   1 S :    0.435927
   2 C :   -0.178806
   3 C :   -0.223031
   4 C :   -0.221082
   5 S :    0.258422
   6 C :   -0.127222
   7 C :   -0.057815
   8 C :   -0.124111
   9 S :    0.279195
  10 C :   -0.052870
  11 C :   -0.039865
  12 H :    0.026821
  13 H :    0.023088
  14 H :    0.023211
  15 H :    0.036012
  16 H :    0.032835
  17 H :    0.023070
  18 H :    0.023780
  19 H :    0.025844
  20 H :    0.013000
  21 H :    0.025545

  Mayer bond orders larger than 0.100000
B(  0-C ,  1-S ) :   1.1486 B(  0-C ,  4-C ) :   1.5643 B(  0-C , 12-H ) :   0.9650
B(  1-S ,  2-C ) :   1.1400 B(  2-C ,  3-C ) :   1.5236 B(  2-C , 10-C ) :   1.1138
B(  3-C ,  4-C ) :   1.2071 B(  3-C ,  9-S ) :   1.0659 B(  4-C ,  5-S ) :   1.0389
B(  5-S ,  6-C ) :   0.9652 B(  6-C ,  7-C ) :   1.0836 B(  6-C , 13-H ) :   0.9448
B(  6-C , 14-H ) :   0.9458 B(  7-C ,  8-C ) :   1.0799 B(  7-C , 15-H ) :   0.9249
B(  7-C , 16-H ) :   0.9291 B(  8-C ,  9-S ) :   0.9911 B(  8-C , 17-H ) :   0.9436
B(  8-C , 18-H ) :   0.9449 B( 10-C , 11-C ) :   1.9264 B( 10-C , 19-H ) :   0.9414
B( 11-C , 20-H ) :   0.9375 B( 11-C , 21-H ) :   0.9399

Dispersion correction           -0.058064309
FINAL SINGLE POINT ENERGY     -1542.991262545481

DIPOLE MOMENT
-------------
                                X             Y             Z
Electronic contribution:     -8.63628      -5.47372      -3.43046
Nuclear contribution   :      9.16832       5.63592       4.27131
                        -----------------------------------------
Total Dipole Moment    :      0.53205       0.16221       0.84085
                        -----------------------------------------
Magnitude (a.u.)       :      1.00817
Magnitude (Debye)      :      2.56257

Rotational constants in cm-1:     0.030607     0.019526     0.013525
Rotational constants in MHz :   917.570523   585.386390   405.473251

                             ****ORCA TERMINATED NORMALLY****
TOTAL RUN TIME: 0 days 0 hours 21 minutes 46 seconds 337 msec
