                         Program Version 4.2.0 -  RELEASE  -
|  1> # ORCA input file
|  2> # SCF done        -43.047053527229          0.000865651286
|  3> ! B3LYP/G D3BJ Opt RIJCOSX def2-SVP def2/J
|  4> * xyz 0 1
|  5>    C       -1.55842         1.20527        -0.06030
|  6>    S       -2.68580        -0.06385        -0.01554
|  7>    C       -1.45428        -1.28647         0.01274
|  8>    C       -0.19511        -0.69925        -0.04736
|  9>    C       -0.26061         0.73748        -0.07881
| 10>    C        0.92831         1.48917        -0.12972
| 11>    C        2.15366         0.87659        -0.18135
| 12>    C        3.34430         1.78383        -0.22341
| 13>    O        3.21978         2.98104        -0.19405
| 14>    O        4.55354         1.22488        -0.29180
| 15>    C        2.21052        -0.55540        -0.20610
| 16>    O        3.43788        -1.16498        -0.30536
| 17>    C        1.07441        -1.31111        -0.13963
| 18>    C       -1.87271        -2.65972         0.10622
| 19>    C       -1.17011        -3.67340         0.60658
| 20>    H       -1.88842         2.22450        -0.06833
| 21>    H        0.89153         2.56793        -0.13370
| 22>    H        4.50105         0.25390        -0.31286
| 23>    H        3.32492        -2.12311        -0.32911
| 24>    H        1.14645        -2.38789        -0.18841
| 25>    H       -2.88467        -2.84067        -0.23461
| 26>    H       -0.19000        -3.54792         1.02847
| 27>    H       -1.57911        -4.66777         0.63691
| 28> *
| 29>
| 30>                          ****END OF INPUT****
 Total Charge           Charge          ....    0
 Multiplicity           Mult            ....    1
 Number of Electrons    NEL             ....  114
Dispersion correction           -0.053189708
FINAL SINGLE POINT ENERGY     -1047.304494974670
Dispersion correction            ... done
Dispersion correction           -0.052972084
FINAL SINGLE POINT ENERGY     -1047.307436105242
Dispersion correction            ... done
Dispersion correction           -0.052862147
FINAL SINGLE POINT ENERGY     -1047.307550051768
Dispersion correction            ... done
FINAL SINGLE POINT ENERGY     -1047.307618836584
FINAL SINGLE POINT ENERGY     -1047.307633528390
FINAL SINGLE POINT ENERGY     -1047.307647661569
Dispersion correction            ... done
Dispersion correction           -0.052894330
FINAL SINGLE POINT ENERGY     -1047.307650560019
Dispersion correction            ... done
Dispersion correction           -0.052899460
FINAL SINGLE POINT ENERGY     -1047.307649182175
Dispersion correction            ... done
                    ***********************HURRAY********************

CARTESIAN COORDINATES (ANGSTROEM)
---------------------------------
  C     -1.575500    1.228228   -0.041305
  S     -2.701152   -0.050307    0.002422
  C     -1.477894   -1.287921    0.030511
  C     -0.204721   -0.699220   -0.016862
  C     -0.266180    0.750108   -0.054415
  C      0.935188    1.506114   -0.122025
  C      2.163904    0.888331   -0.182764
  C      3.370156    1.797906   -0.267635
  O      3.253975    2.998648   -0.260994
  O      4.575815    1.224613   -0.357293
  C      2.209137   -0.555032   -0.176161
  O      3.449353   -1.129177   -0.272732
  C      1.074625   -1.323569   -0.087358
  C     -1.897611   -2.676900    0.098281
  C     -1.190062   -3.718929    0.569744
  H     -1.903479    2.265617   -0.063456
  H      0.916170    2.597499   -0.139883
  H      4.496103    0.252974   -0.345459
  H      3.386277   -2.092907   -0.261518
  H      1.157953   -2.412053   -0.099061
  H     -2.912005   -2.873163   -0.268421
  H     -0.199439   -3.601869    1.012484
  H     -1.613503   -4.725942    0.554371

 Multiplicity           Mult            ....    1
 Number of Electrons    NEL             ....  114
 Basis Dimension        Dim             ....  254

ORBITAL ENERGIES
----------------

  NO   OCC          E(Eh)            E(eV)
   0   2.0000     -88.899066     -2419.0666
   1   2.0000     -19.207598      -522.6653
   2   2.0000     -19.159566      -521.3583
   3   2.0000     -19.104055      -519.8478
   4   2.0000     -10.310654      -280.5672
   5   2.0000     -10.280919      -279.7580
   6   2.0000     -10.231697      -278.4186
   7   2.0000     -10.230726      -278.3922
   8   2.0000     -10.219934      -278.0985
   9   2.0000     -10.217143      -278.0226
  10   2.0000     -10.216811      -278.0136
  11   2.0000     -10.216389      -278.0021
  12   2.0000     -10.216175      -277.9963
  13   2.0000     -10.210740      -277.8484
  14   2.0000     -10.200699      -277.5751
  15   2.0000      -7.993772      -217.5216
  16   2.0000      -5.961384      -162.2175
  17   2.0000      -5.957397      -162.1090
  18   2.0000      -5.956137      -162.0747
  19   2.0000      -1.094921       -29.7943
  20   2.0000      -1.073689       -29.2166
  21   2.0000      -0.994210       -27.0538
  22   2.0000      -0.909481       -24.7482
  23   2.0000      -0.848885       -23.0993
  24   2.0000      -0.801701       -21.8154
  25   2.0000      -0.771168       -20.9845
  26   2.0000      -0.753690       -20.5089
  27   2.0000      -0.710425       -19.3316
  28   2.0000      -0.664411       -18.0795
  29   2.0000      -0.638480       -17.3739
  30   2.0000      -0.616152       -16.7663
  31   2.0000      -0.600757       -16.3474
  32   2.0000      -0.577031       -15.7018
  33   2.0000      -0.551186       -14.9985
  34   2.0000      -0.542501       -14.7622
  35   2.0000      -0.512023       -13.9329
  36   2.0000      -0.475211       -12.9311
  37   2.0000      -0.471568       -12.8320
  38   2.0000      -0.459433       -12.5018
  39   2.0000      -0.457373       -12.4457
  40   2.0000      -0.447168       -12.1681
  41   2.0000      -0.432708       -11.7746
  42   2.0000      -0.428296       -11.6545
  43   2.0000      -0.424962       -11.5638
  44   2.0000      -0.416662       -11.3380
  45   2.0000      -0.405810       -11.0427
  46   2.0000      -0.392486       -10.6801
  47   2.0000      -0.366472        -9.9722
  48   2.0000      -0.365836        -9.9549
  49   2.0000      -0.351354        -9.5608
  50   2.0000      -0.342817        -9.3285
  51   2.0000      -0.319792        -8.7020
  52   2.0000      -0.305596        -8.3157
  53   2.0000      -0.281709        -7.6657
  54   2.0000      -0.269989        -7.3468
  55   2.0000      -0.258636        -7.0378
  56   2.0000      -0.210903        -5.7390
  57   0.0000      -0.085507        -2.3268
  58   0.0000      -0.043061        -1.1717
  59   0.0000       0.001454         0.0396
  60   0.0000       0.017011         0.4629
  61   0.0000       0.021330         0.5804

MULLIKEN ATOMIC CHARGES
-----------------------
   0 C :   -0.110023
   1 S :    0.156914
   2 C :   -0.181402
   3 C :    0.145918
   4 C :    0.103408
   5 C :   -0.058636
   6 C :   -0.081707
   7 C :    0.170814
   8 O :   -0.199462
   9 O :   -0.157709
  10 C :    0.174187
  11 O :   -0.228210
  12 C :   -0.104396
  13 C :    0.025805
  14 C :   -0.044891
  15 H :    0.029538
  16 H :    0.004016
  17 H :    0.171699
  18 H :    0.191603
  19 H :   -0.052930
  20 H :   -0.003122
  21 H :    0.020986
  22 H :    0.027599
Sum of atomic charges:   -0.0000000

LOEWDIN ATOMIC CHARGES
----------------------
   0 C :   -0.188049
   1 S :    0.495662
   2 C :   -0.200135
   3 C :   -0.030954
   4 C :   -0.058952
   5 C :    0.044128
   6 C :   -0.106107
   7 C :    0.079631
   8 O :   -0.175222
   9 O :   -0.030429
  10 C :    0.058932
  11 O :   -0.040798
  12 C :   -0.083067
  13 C :   -0.041334
  14 C :   -0.059298
  15 H :    0.031156
  16 H :    0.042753
  17 H :    0.056455
  18 H :    0.103124
  19 H :    0.024690
  20 H :    0.030386
  21 H :    0.019565
  22 H :    0.027864

  Mayer bond orders larger than 0.100000
B(  0-C ,  1-S ) :   1.2205 B(  0-C ,  2-C ) :   0.1085 B(  0-C ,  4-C ) :   1.3746
B(  0-C , 15-H ) :   0.9663 B(  1-S ,  2-C ) :   1.1502 B(  2-C ,  3-C ) :   1.3698
B(  2-C , 13-C ) :   1.1125 B(  3-C ,  4-C ) :   1.1923 B(  3-C , 12-C ) :   1.1902
B(  4-C ,  5-C ) :   1.1336 B(  5-C ,  6-C ) :   1.5496 B(  5-C , 16-H ) :   0.9985
B(  6-C ,  7-C ) :   0.8654 B(  6-C , 10-C ) :   1.1544 B(  7-C ,  8-O ) :   2.1316
B(  7-C ,  9-O ) :   1.2814 B(  9-O , 17-H ) :   0.9167 B( 10-C , 11-O ) :   1.0959
B( 10-C , 12-C ) :   1.4893 B( 11-O , 17-H ) :   0.1070 B( 11-O , 18-H ) :   0.9445
B( 12-C , 19-H ) :   0.9738 B( 13-C , 14-C ) :   1.9137 B( 13-C , 20-H ) :   0.9437
B( 14-C , 21-H ) :   0.9511 B( 14-C , 22-H ) :   0.9435

Dispersion correction           -0.052900310
FINAL SINGLE POINT ENERGY     -1047.307647124056

DIPOLE MOMENT
-------------
                                X             Y             Z
Electronic contribution:      0.18815       7.43359      -0.88633
Nuclear contribution   :     -1.24053      -9.48086       0.92504
                        -----------------------------------------
Total Dipole Moment    :     -1.05238      -2.04726       0.03871
                        -----------------------------------------
Magnitude (a.u.)       :      2.30224
Magnitude (Debye)      :      5.85182

Rotational constants in cm-1:     0.035786     0.011325     0.008634
Rotational constants in MHz :  1072.831323   339.520131   258.835581

                             ****ORCA TERMINATED NORMALLY****
TOTAL RUN TIME: 0 days 0 hours 16 minutes 13 seconds 720 msec
