                         Program Version 4.2.0 -  RELEASE  -
|  1> # ORCA input file
|  2> # SCF done        -26.539730527271          0.000597050480
|  3> ! B3LYP/G D3BJ Opt RIJCOSX def2-SVP def2/J
|  4> * xyz 0 1
|  5>    C        1.32280        -1.25115         0.28329
|  6>    S        2.52262        -0.01310         0.17915
|  7>    C        1.32865         1.21524        -0.10137
|  8>    C        0.08849         0.68566        -0.11164
|  9>    C        0.07834        -0.73166         0.10953
| 10>    C       -1.28621        -1.17775         0.07553
| 11>    C       -2.10584        -0.12386        -0.15500
| 12>    C       -1.31529         1.16124        -0.29406
| 13>    C       -3.53879        -0.18797        -0.26163
| 14>    C       -4.33599         0.84841        -0.51518
| 15>    H        1.62675        -2.26258         0.46274
| 16>    H        1.64908         2.22893        -0.23594
| 17>    H       -1.59471        -2.19906         0.21205
| 18>    H       -1.60386         1.88966         0.46671
| 19>    H       -1.46838         1.62006        -1.27302
| 20>    H       -3.96780        -1.17249        -0.12154
| 21>    H       -3.95269         1.84390        -0.66240
| 22>    H       -5.40378         0.73440        -0.58493
| 23> *
| 24>
| 25>                          ****END OF INPUT****
 Total Charge           Charge          ....    0
 Multiplicity           Mult            ....    1
 Number of Electrons    NEL             ....   78
Dispersion correction           -0.036571409
FINAL SINGLE POINT ENERGY      -745.595218234347
Dispersion correction            ... done
Dispersion correction           -0.036444817
FINAL SINGLE POINT ENERGY      -745.598153674213
Dispersion correction            ... done
Dispersion correction           -0.036429475
FINAL SINGLE POINT ENERGY      -745.598236930730
Dispersion correction            ... done
FINAL SINGLE POINT ENERGY      -745.598246094842
Dispersion correction            ... done
Dispersion correction           -0.036426014
FINAL SINGLE POINT ENERGY      -745.598239789125
Dispersion correction            ... done
Dispersion correction           -0.036427387
FINAL SINGLE POINT ENERGY      -745.598243056747
Dispersion correction            ... done
                    ***********************HURRAY********************

CARTESIAN COORDINATES (ANGSTROEM)
---------------------------------
  C      1.352276   -1.264827    0.296891
  S      2.557311   -0.014864    0.207920
  C      1.364599    1.222961   -0.088908
  C      0.110086    0.688389   -0.119029
  C      0.097880   -0.735926    0.107285
  C     -1.285120   -1.183480    0.062648
  C     -2.111380   -0.123042   -0.174930
  C     -1.306766    1.164721   -0.322476
  C     -3.554616   -0.190343   -0.276112
  C     -4.375863    0.853550   -0.485923
  H      1.647126   -2.293265    0.497428
  H      1.685225    2.254060   -0.228477
  H     -1.621533   -2.211139    0.207101
  H     -1.612205    1.920439    0.421093
  H     -1.460841    1.620612   -1.316264
  H     -3.989312   -1.189858   -0.160636
  H     -3.995258    1.871634   -0.606612
  H     -5.458216    0.718258   -0.548709

 Multiplicity           Mult            ....    1
 Number of Electrons    NEL             ....   78
 Basis Dimension        Dim             ....  184

ORBITAL ENERGIES
----------------

  NO   OCC          E(Eh)            E(eV)
   0   2.0000     -88.869428     -2418.2601
   1   2.0000     -10.209337      -277.8102
   2   2.0000     -10.208637      -277.7911
   3   2.0000     -10.202420      -277.6220
   4   2.0000     -10.198940      -277.5273
   5   2.0000     -10.196977      -277.4739
   6   2.0000     -10.196346      -277.4567
   7   2.0000     -10.191799      -277.3329
   8   2.0000     -10.191300      -277.3194
   9   2.0000     -10.189746      -277.2771
  10   2.0000      -7.964201      -216.7169
  11   2.0000      -5.932487      -161.4312
  12   2.0000      -5.928183      -161.3141
  13   2.0000      -5.925502      -161.2411
  14   2.0000      -0.887584       -24.1524
  15   2.0000      -0.831746       -22.6329
  16   2.0000      -0.767443       -20.8832
  17   2.0000      -0.735916       -20.0253
  18   2.0000      -0.694353       -18.8943
  19   2.0000      -0.675152       -18.3718
  20   2.0000      -0.607461       -16.5298
  21   2.0000      -0.564636       -15.3645
  22   2.0000      -0.526365       -14.3231
  23   2.0000      -0.522534       -14.2189
  24   2.0000      -0.501843       -13.6559
  25   2.0000      -0.461436       -12.5563
  26   2.0000      -0.448200       -12.1962
  27   2.0000      -0.424486       -11.5508
  28   2.0000      -0.409175       -11.1342
  29   2.0000      -0.392538       -10.6815
  30   2.0000      -0.383528       -10.4363
  31   2.0000      -0.372312       -10.1311
  32   2.0000      -0.370065       -10.0700
  33   2.0000      -0.350817        -9.5462
  34   2.0000      -0.329574        -8.9682
  35   2.0000      -0.324230        -8.8227
  36   2.0000      -0.277746        -7.5578
  37   2.0000      -0.238628        -6.4934
  38   2.0000      -0.207086        -5.6351
  39   0.0000      -0.052315        -1.4236
  40   0.0000      -0.003498        -0.0952
  41   0.0000       0.044268         1.2046
  42   0.0000       0.051592         1.4039
  43   0.0000       0.071125         1.9354

MULLIKEN ATOMIC CHARGES
-----------------------
   0 C :   -0.151395
   1 S :    0.082854
   2 C :   -0.152839
   3 C :   -0.067106
   4 C :    0.110148
   5 C :   -0.019547
   6 C :   -0.108446
   7 C :    0.261660
   8 C :    0.015762
   9 C :   -0.038754
  10 H :    0.012930
  11 H :    0.010559
  12 H :   -0.029356
  13 H :    0.028992
  14 H :    0.025561
  15 H :   -0.021980
  16 H :    0.015654
  17 H :    0.025302
Sum of atomic charges:   -0.0000000

LOEWDIN ATOMIC CHARGES
----------------------
   0 C :   -0.202799
   1 S :    0.415693
   2 C :   -0.196134
   3 C :   -0.051574
   4 C :   -0.065846
   5 C :   -0.014679
   6 C :   -0.024246
   7 C :   -0.011538
   8 C :   -0.027585
   9 C :   -0.055022
  10 H :    0.023244
  11 H :    0.022801
  12 H :    0.024703
  13 H :    0.043949
  14 H :    0.044045
  15 H :    0.028820
  16 H :    0.020263
  17 H :    0.025904

  Mayer bond orders larger than 0.100000
B(  0-C ,  1-S ) :   1.1504 B(  0-C ,  4-C ) :   1.4783 B(  0-C , 10-H ) :   0.9637
B(  1-S ,  2-C ) :   1.1334 B(  2-C ,  3-C ) :   1.5824 B(  2-C , 11-H ) :   0.9708
B(  3-C ,  4-C ) :   1.2708 B(  3-C ,  7-C ) :   1.0139 B(  4-C ,  5-C ) :   1.0329
B(  5-C ,  6-C ) :   1.6382 B(  5-C ,  9-C ) :   0.1081 B(  5-C , 12-H ) :   1.0072
B(  6-C ,  7-C ) :   1.0362 B(  6-C ,  8-C ) :   1.1338 B(  7-C , 13-H ) :   0.8819
B(  7-C , 14-H ) :   0.8812 B(  8-C ,  9-C ) :   1.8763 B(  8-C , 15-H ) :   0.9607
B(  9-C , 16-H ) :   0.9456 B(  9-C , 17-H ) :   0.9454

Dispersion correction           -0.036427752
FINAL SINGLE POINT ENERGY      -745.598245392510

DIPOLE MOMENT
-------------
                                X             Y             Z
Electronic contribution:     11.20440      -2.04995       1.23955
Nuclear contribution   :    -11.46443       2.15032      -1.27566
                        -----------------------------------------
Total Dipole Moment    :     -0.26002       0.10037      -0.03611
                        -----------------------------------------
Magnitude (a.u.)       :      0.28105
Magnitude (Debye)      :      0.71438

Rotational constants in cm-1:     0.140077     0.021089     0.018393
Rotational constants in MHz :  4199.403909   632.238130   551.419519

                             ****ORCA TERMINATED NORMALLY****
TOTAL RUN TIME: 0 days 0 hours 6 minutes 27 seconds 119 msec
