                         Program Version 4.2.0 -  RELEASE  -
|  1> # ORCA input file
|  2> # SCF done        -27.015303368007          0.000968161377
|  3> ! B3LYP/G D3BJ Opt RIJCOSX def2-SVP def2/J
|  4> * xyz 0 1
|  5>    C       -2.17176         0.31339        -0.38022
|  6>    N       -1.50738        -0.83102        -0.59783
|  7>    C       -0.23475        -0.66567        -0.46242
|  8>    C        0.85360        -1.34004         0.02117
|  9>    C       -1.46454         1.41103         0.02429
| 10>    S        0.23577         1.17137        -0.40183
| 11>    N        1.46977         0.84114         0.64597
| 12>    C        1.77985        -0.45069         0.60782
| 13>    C        3.03698        -0.82907         1.22711
| 14>    C        3.52139        -2.06392         1.28585
| 15>    H       -3.24802         0.29984        -0.45357
| 16>    H        0.92804        -2.40830         0.05683
| 17>    H       -1.84045         2.41075         0.10874
| 18>    H        3.57915         0.00100         1.65860
| 19>    H        3.00179        -2.91010         0.86999
| 20>    H        4.46085        -2.27212         1.76812
| 21> *
| 22>
| 23>                          ****END OF INPUT****
 Total Charge           Charge          ....    0
 Multiplicity           Mult            ....    1
 Number of Electrons    NEL             ....   78
Dispersion correction           -0.034073732
FINAL SINGLE POINT ENERGY      -777.544275873154
Dispersion correction            ... done
Dispersion correction           -0.034002629
FINAL SINGLE POINT ENERGY      -777.549716171560
Dispersion correction            ... done
Dispersion correction           -0.033960572
FINAL SINGLE POINT ENERGY      -777.550567925049
Dispersion correction            ... done
FINAL SINGLE POINT ENERGY      -777.550912224000
FINAL SINGLE POINT ENERGY      -777.551063569083
FINAL SINGLE POINT ENERGY      -777.551102545735
FINAL SINGLE POINT ENERGY      -777.551119040860
Dispersion correction            ... done
Dispersion correction           -0.033975884
FINAL SINGLE POINT ENERGY      -777.551121474543
Dispersion correction            ... done
Dispersion correction           -0.033979580
FINAL SINGLE POINT ENERGY      -777.551123080441
Dispersion correction            ... done
                    ***********************HURRAY********************

CARTESIAN COORDINATES (ANGSTROEM)
---------------------------------
  C     -2.183660    0.296261   -0.374864
  N     -1.546123   -0.871670   -0.601878
  C     -0.258584   -0.709014   -0.427350
  C      0.834278   -1.351451    0.097530
  C     -1.461822    1.441228   -0.035687
  S      0.217774    1.149093   -0.423852
  N      1.502034    0.879782    0.701124
  C      1.774134   -0.423522    0.671522
  C      3.041947   -0.835345    1.288317
  C      3.570025   -2.063464    1.194950
  H     -3.270573    0.341858   -0.504079
  H      0.864710   -2.423926    0.276663
  H     -1.847995    2.458434   -0.019236
  H      3.560180   -0.041231    1.832805
  H      3.082663   -2.861729    0.629013
  H      4.521302   -2.307715    1.673643

 Multiplicity           Mult            ....    1
 Number of Electrons    NEL             ....   78
 Basis Dimension        Dim             ....  174

ORBITAL ENERGIES
----------------

  NO   OCC          E(Eh)            E(eV)
   0   2.0000     -88.940224     -2420.1865
   1   2.0000     -14.339155      -390.1882
   2   2.0000     -14.325472      -389.8159
   3   2.0000     -10.268531      -279.4209
   4   2.0000     -10.257183      -279.1122
   5   2.0000     -10.251983      -278.9706
   6   2.0000     -10.217563      -278.0340
   7   2.0000     -10.212580      -277.8984
   8   2.0000     -10.211833      -277.8781
   9   2.0000     -10.200985      -277.5829
  10   2.0000      -8.030632      -218.5246
  11   2.0000      -5.997804      -163.2086
  12   2.0000      -5.996149      -163.1635
  13   2.0000      -5.992241      -163.0572
  14   2.0000      -0.980796       -26.6888
  15   2.0000      -0.935778       -25.4638
  16   2.0000      -0.821650       -22.3582
  17   2.0000      -0.781943       -21.2778
  18   2.0000      -0.768001       -20.8984
  19   2.0000      -0.714359       -19.4387
  20   2.0000      -0.633783       -17.2461
  21   2.0000      -0.598587       -16.2884
  22   2.0000      -0.560411       -15.2496
  23   2.0000      -0.547800       -14.9064
  24   2.0000      -0.497112       -13.5271
  25   2.0000      -0.490874       -13.3574
  26   2.0000      -0.482812       -13.1380
  27   2.0000      -0.451544       -12.2871
  28   2.0000      -0.434724       -11.8294
  29   2.0000      -0.424670       -11.5559
  30   2.0000      -0.397745       -10.8232
  31   2.0000      -0.376470       -10.2443
  32   2.0000      -0.374391       -10.1877
  33   2.0000      -0.353634        -9.6229
  34   2.0000      -0.318737        -8.6733
  35   2.0000      -0.292743        -7.9659
  36   2.0000      -0.276838        -7.5331
  37   2.0000      -0.258587        -7.0365
  38   2.0000      -0.212325        -5.7777
  39   0.0000      -0.086172        -2.3449
  40   0.0000      -0.041119        -1.1189
  41   0.0000      -0.029413        -0.8004
  42   0.0000       0.029111         0.7921
  43   0.0000       0.063661         1.7323

MULLIKEN ATOMIC CHARGES
-----------------------
   0 C :    0.080692
   1 N :   -0.105587
   2 C :   -0.007701
   3 C :   -0.035762
   4 C :   -0.132845
   5 S :    0.304775
   6 N :   -0.327567
   7 C :    0.032159
   8 C :    0.036512
   9 C :   -0.001787
  10 H :    0.028453
  11 H :    0.010805
  12 H :    0.043096
  13 H :    0.007275
  14 H :    0.031734
  15 H :    0.035749
Sum of atomic charges:    0.0000000

LOEWDIN ATOMIC CHARGES
----------------------
   0 C :    0.033626
   1 N :   -0.154024
   2 C :   -0.031498
   3 C :   -0.139562
   4 C :   -0.292141
   5 S :    0.743948
   6 N :   -0.332663
   7 C :    0.006414
   8 C :   -0.023361
   9 C :   -0.010040
  10 H :    0.033195
  11 H :    0.040727
  12 H :    0.026351
  13 H :    0.039020
  14 H :    0.027378
  15 H :    0.032630

  Mayer bond orders larger than 0.100000
B(  0-C ,  1-N ) :   1.4031 B(  0-C ,  4-C ) :   1.4747 B(  0-C , 10-H ) :   0.9734
B(  1-N ,  2-C ) :   1.5420 B(  2-C ,  3-C ) :   1.4528 B(  2-C ,  5-S ) :   0.8002
B(  3-C ,  7-C ) :   1.1685 B(  3-C , 11-H ) :   0.9867 B(  4-C ,  5-S ) :   1.0480
B(  4-C , 12-H ) :   0.9649 B(  5-S ,  6-N ) :   0.9746 B(  6-N ,  7-C ) :   1.5602
B(  7-C ,  8-C ) :   1.0875 B(  8-C ,  9-C ) :   1.9185 B(  8-C , 13-H ) :   0.9592
B(  9-C , 14-H ) :   0.9443 B(  9-C , 15-H ) :   0.9466

Dispersion correction           -0.033981794
FINAL SINGLE POINT ENERGY      -777.551123550584

DIPOLE MOMENT
-------------
                                X             Y             Z
Electronic contribution:     -3.41391       4.10395      -2.89233
Nuclear contribution   :      3.59308      -4.13145       2.88711
                        -----------------------------------------
Total Dipole Moment    :      0.17917      -0.02749      -0.00522
                        -----------------------------------------
Magnitude (a.u.)       :      0.18134
Magnitude (Debye)      :      0.46094

Rotational constants in cm-1:     0.107889     0.027628     0.022877
Rotational constants in MHz :  3234.435637   828.260049   685.843667

                             ****ORCA TERMINATED NORMALLY****
TOTAL RUN TIME: 0 days 0 hours 8 minutes 24 seconds 925 msec
