                         Program Version 4.2.0 -  RELEASE  -
|  1> # ORCA input file
|  2> # SCF done        -30.396286104651          0.000868413373
|  3> ! B3LYP/G D3BJ Opt RIJCOSX def2-SVP def2/J
|  4> * xyz 0 1
|  5>    C       -1.90100         0.68001        -0.16588
|  6>    S       -0.68168         1.88859        -0.07977
|  7>    C        0.59727         0.71027        -0.08802
|  8>    C        0.06655        -0.55380        -0.18390
|  9>    C       -1.36051        -0.56660        -0.21968
| 10>    O       -2.06154        -1.72141        -0.29871
| 11>    O        0.74023        -1.75540        -0.25699
| 12>    C        1.47337        -1.95153        -1.45281
| 13>    C        1.96237         1.15687         0.04018
| 14>    C        2.98120         0.39173         0.42313
| 15>    H       -2.93521         0.95289        -0.17811
| 16>    H       -1.41669        -2.44468        -0.26594
| 17>    H        1.98808        -2.90389        -1.33671
| 18>    H        2.20471        -1.15496        -1.60995
| 19>    H        0.80406        -1.99863        -2.31816
| 20>    H        2.11525         2.20869        -0.16325
| 21>    H        2.84969        -0.64416         0.68386
| 22>    H        3.97619         0.79127         0.51295
| 23> *
| 24>
| 25>                          ****END OF INPUT****
 Total Charge           Charge          ....    0
 Multiplicity           Mult            ....    1
 Number of Electrons    NEL             ....   82
Dispersion correction           -0.034883250
FINAL SINGLE POINT ENERGY      -819.757517879351
Dispersion correction            ... done
Dispersion correction           -0.034631826
FINAL SINGLE POINT ENERGY      -819.759651514877
Dispersion correction            ... done
Dispersion correction           -0.034682709
FINAL SINGLE POINT ENERGY      -819.759764898609
Dispersion correction            ... done
FINAL SINGLE POINT ENERGY      -819.759839768129
FINAL SINGLE POINT ENERGY      -819.759829098384
FINAL SINGLE POINT ENERGY      -819.759858156227
FINAL SINGLE POINT ENERGY      -819.759900932479
Dispersion correction            ... done
Dispersion correction           -0.034619697
FINAL SINGLE POINT ENERGY      -819.759913307169
Dispersion correction            ... done
Dispersion correction           -0.034617091
FINAL SINGLE POINT ENERGY      -819.759924930335
Dispersion correction            ... done
                    ***********************HURRAY********************

CARTESIAN COORDINATES (ANGSTROEM)
---------------------------------
  C     -1.905566    0.672483   -0.221098
  S     -0.701714    1.905345   -0.035619
  C      0.607202    0.747982   -0.012376
  C      0.096120   -0.531560   -0.148077
  C     -1.330049   -0.573307   -0.279418
  O     -1.993719   -1.738009   -0.449138
  O      0.802178   -1.707091   -0.173362
  C      1.382811   -2.026290   -1.438882
  C      1.975218    1.212783    0.149178
  C      3.051029    0.448327    0.403768
  H     -2.961935    0.921414   -0.287796
  H     -1.351431   -2.447195   -0.281676
  H      1.879898   -3.000008   -1.324977
  H      2.126715   -1.269971   -1.734466
  H      0.607542   -2.097549   -2.220942
  H      2.112235    2.295412    0.048082
  H      2.966146   -0.630477    0.549403
  H      4.039661    0.902971    0.499636

 Multiplicity           Mult            ....    1
 Number of Electrons    NEL             ....   82
 Basis Dimension        Dim             ....  184

ORBITAL ENERGIES
----------------

  NO   OCC          E(Eh)            E(eV)
   0   2.0000     -88.872769     -2418.3510
   1   2.0000     -19.170947      -521.6680
   2   2.0000     -19.165146      -521.5101
   3   2.0000     -10.250523      -278.9309
   4   2.0000     -10.248082      -278.8645
   5   2.0000     -10.243572      -278.7418
   6   2.0000     -10.218837      -278.0687
   7   2.0000     -10.206794      -277.7410
   8   2.0000     -10.203911      -277.6625
   9   2.0000     -10.189507      -277.2706
  10   2.0000      -7.967431      -216.8048
  11   2.0000      -5.935571      -161.5151
  12   2.0000      -5.931920      -161.4158
  13   2.0000      -5.928358      -161.3188
  14   2.0000      -1.068570       -29.0773
  15   2.0000      -1.043499       -28.3951
  16   2.0000      -0.876837       -23.8599
  17   2.0000      -0.783053       -21.3080
  18   2.0000      -0.742189       -20.1960
  19   2.0000      -0.710236       -19.3265
  20   2.0000      -0.679447       -18.4887
  21   2.0000      -0.613350       -16.6901
  22   2.0000      -0.574707       -15.6386
  23   2.0000      -0.558062       -15.1856
  24   2.0000      -0.544429       -14.8147
  25   2.0000      -0.480774       -13.0825
  26   2.0000      -0.473750       -12.8914
  27   2.0000      -0.468291       -12.7429
  28   2.0000      -0.460625       -12.5342
  29   2.0000      -0.446829       -12.1588
  30   2.0000      -0.415760       -11.3134
  31   2.0000      -0.394092       -10.7238
  32   2.0000      -0.380813       -10.3624
  33   2.0000      -0.374263       -10.1842
  34   2.0000      -0.364373        -9.9151
  35   2.0000      -0.355946        -9.6858
  36   2.0000      -0.350468        -9.5367
  37   2.0000      -0.299253        -8.1431
  38   2.0000      -0.291846        -7.9415
  39   2.0000      -0.231035        -6.2868
  40   2.0000      -0.211789        -5.7631
  41   0.0000      -0.044970        -1.2237
  42   0.0000       0.031851         0.8667
  43   0.0000       0.038136         1.0377
  44   0.0000       0.044242         1.2039
  45   0.0000       0.078261         2.1296

MULLIKEN ATOMIC CHARGES
-----------------------
   0 C :   -0.174882
   1 S :    0.105137
   2 C :   -0.155321
   3 C :    0.106396
   4 C :    0.172457
   5 O :   -0.186436
   6 O :   -0.366226
   7 C :    0.197107
   8 C :    0.018844
   9 C :   -0.034066
  10 H :    0.018878
  11 H :    0.178085
  12 H :    0.030913
  13 H :    0.028328
  14 H :    0.018346
  15 H :   -0.009584
  16 H :    0.032028
  17 H :    0.019994
Sum of atomic charges:   -0.0000000

LOEWDIN ATOMIC CHARGES
----------------------
   0 C :   -0.234234
   1 S :    0.428355
   2 C :   -0.200075
   3 C :   -0.032143
   4 C :   -0.006396
   5 O :   -0.053922
   6 O :   -0.137088
   7 C :    0.084819
   8 C :   -0.043044
   9 C :   -0.053476
  10 H :    0.027410
  11 H :    0.088895
  12 H :    0.023310
  13 H :    0.016120
  14 H :    0.012818
  15 H :    0.028927
  16 H :    0.024518
  17 H :    0.025205

  Mayer bond orders larger than 0.100000
B(  0-C ,  1-S ) :   1.1153 B(  0-C ,  2-C ) :   0.1019 B(  0-C ,  4-C ) :   1.5078
B(  0-C , 10-H ) :   0.9666 B(  1-S ,  2-C ) :   1.1323 B(  2-C ,  3-C ) :   1.4685
B(  2-C ,  8-C ) :   1.1155 B(  3-C ,  4-C ) :   1.2147 B(  3-C ,  6-O ) :   1.0967
B(  4-C ,  5-O ) :   1.2353 B(  5-O , 11-H ) :   0.9462 B(  6-O ,  7-C ) :   0.9227
B(  7-C , 12-H ) :   0.9800 B(  7-C , 13-H ) :   0.9677 B(  7-C , 14-H ) :   0.9678
B(  8-C ,  9-C ) :   1.9138 B(  8-C , 15-H ) :   0.9470 B(  9-C , 16-H ) :   0.9465
B(  9-C , 17-H ) :   0.9415

Dispersion correction           -0.034618107
FINAL SINGLE POINT ENERGY      -819.759923686052

DIPOLE MOMENT
-------------
                                X             Y             Z
Electronic contribution:     -7.61292       4.76721       2.37729
Nuclear contribution   :      8.14255      -5.10245      -2.81055
                        -----------------------------------------
Total Dipole Moment    :      0.52963      -0.33525      -0.43327
                        -----------------------------------------
Magnitude (a.u.)       :      0.76198
Magnitude (Debye)      :      1.93680

Rotational constants in cm-1:     0.046387     0.041175     0.023013
Rotational constants in MHz :  1390.655724  1234.403339   689.925355

                             ****ORCA TERMINATED NORMALLY****
TOTAL RUN TIME: 0 days 0 hours 9 minutes 8 seconds 45 msec
