                         Program Version 4.2.0 -  RELEASE  -
|  1> # ORCA input file
|  2> # SCF done        -33.809335749006          0.000503371171
|  3> ! B3LYP/G D3BJ Opt RIJCOSX def2-SVP def2/J
|  4> * xyz 0 1
|  5>    C       -1.66328        -1.22823         0.10281
|  6>    S       -2.77845         0.05593         0.26852
|  7>    C       -1.53077         1.22642         0.29837
|  8>    C       -0.28788         0.65258         0.18460
|  9>    C       -0.36553        -0.77853         0.07094
| 10>    C        0.83265        -1.52590        -0.05304
| 11>    C        2.03782        -0.89909        -0.06403
| 12>    C        3.32445        -1.65077        -0.19229
| 13>    C        2.10610         0.53424         0.04932
| 14>    O        3.37783         1.02903         0.02370
| 15>    C        3.55577         2.41704         0.13712
| 16>    C        0.97780         1.29070         0.17036
| 17>    H       -2.01809        -2.23723         0.03879
| 18>    H       -1.77838         2.26413         0.39669
| 19>    H        0.77143        -2.60089        -0.13739
| 20>    H        3.14285        -2.72089        -0.24598
| 21>    H        3.96857        -1.43747         0.65928
| 22>    H        3.85597        -1.33188        -1.08783
| 23>    H        4.63177         2.58215         0.09956
| 24>    H        3.16383         2.79628         1.08697
| 25>    H        3.07819         2.95317        -0.68994
| 26>    H        1.00883         2.36512         0.25604
| 27> *
| 28>
| 29>                          ****END OF INPUT****
 Total Charge           Charge          ....    0
 Multiplicity           Mult            ....    1
 Number of Electrons    NEL             ....   94
Dispersion correction           -0.045410611
FINAL SINGLE POINT ENERGY      -860.081973433481
Dispersion correction            ... done
Dispersion correction           -0.045240350
FINAL SINGLE POINT ENERGY      -860.084785750683
Dispersion correction            ... done
Dispersion correction           -0.045209786
FINAL SINGLE POINT ENERGY      -860.084884894318
Dispersion correction            ... done
FINAL SINGLE POINT ENERGY      -860.084892760194
FINAL SINGLE POINT ENERGY      -860.084887230172
FINAL SINGLE POINT ENERGY      -860.084894489960
FINAL SINGLE POINT ENERGY      -860.084891034988
FINAL SINGLE POINT ENERGY      -860.084879086004
Dispersion correction            ... done
Dispersion correction           -0.045207798
FINAL SINGLE POINT ENERGY      -860.084866722862
Dispersion correction            ... done
Dispersion correction           -0.045207287
FINAL SINGLE POINT ENERGY      -860.084859986118
Dispersion correction            ... done
                    ***********************HURRAY********************

CARTESIAN COORDINATES (ANGSTROEM)
---------------------------------
  C     -1.690827   -1.237207    0.132872
  S     -2.802806    0.060257    0.286853
  C     -1.560653    1.248347    0.286429
  C     -0.303538    0.667720    0.173623
  C     -0.379930   -0.779354    0.079834
  C      0.830793   -1.533600   -0.047019
  C      2.050827   -0.910779   -0.072677
  C      3.346061   -1.663966   -0.198596
  C      2.107891    0.535425    0.031508
  O      3.372492    1.029949    0.001902
  C      3.558208    2.416781    0.143840
  C      0.976192    1.306654    0.146115
  H     -2.042783   -2.265713    0.081675
  H     -1.806486    2.304757    0.374939
  H      0.776598   -2.622692   -0.127720
  H      3.166112   -2.740628   -0.331165
  H      3.977068   -1.518100    0.694212
  H      3.936523   -1.293914   -1.052355
  H      4.640652    2.598152    0.111157
  H      3.157088    2.782488    1.106890
  H      3.072425    2.979745   -0.673375
  H      1.029573    2.391591    0.223626

 Multiplicity           Mult            ....    1
 Number of Electrons    NEL             ....   94
 Basis Dimension        Dim             ....  222

ORBITAL ENERGIES
----------------

  NO   OCC          E(Eh)            E(eV)
   0   2.0000     -88.875505     -2418.4254
   1   2.0000     -19.167045      -521.5618
   2   2.0000     -10.247341      -278.8443
   3   2.0000     -10.245287      -278.7884
   4   2.0000     -10.204696      -277.6839
   5   2.0000     -10.201592      -277.5994
   6   2.0000     -10.194214      -277.3987
   7   2.0000     -10.193707      -277.3849
   8   2.0000     -10.191298      -277.3193
   9   2.0000     -10.188554      -277.2447
  10   2.0000     -10.182883      -277.0903
  11   2.0000     -10.182792      -277.0879
  12   2.0000      -7.970128      -216.8782
  13   2.0000      -5.937937      -161.5795
  14   2.0000      -5.933792      -161.4667
  15   2.0000      -5.932345      -161.4273
  16   2.0000      -1.062683       -28.9171
  17   2.0000      -0.881970       -23.9996
  18   2.0000      -0.826263       -22.4838
  19   2.0000      -0.762428       -20.7467
  20   2.0000      -0.748260       -20.3612
  21   2.0000      -0.714610       -19.4455
  22   2.0000      -0.684728       -18.6324
  23   2.0000      -0.665121       -18.0989
  24   2.0000      -0.596965       -16.2443
  25   2.0000      -0.570201       -15.5160
  26   2.0000      -0.558045       -15.1852
  27   2.0000      -0.519842       -14.1456
  28   2.0000      -0.509688       -13.8693
  29   2.0000      -0.474969       -12.9246
  30   2.0000      -0.469448       -12.7743
  31   2.0000      -0.452332       -12.3086
  32   2.0000      -0.425774       -11.5859
  33   2.0000      -0.417859       -11.3705
  34   2.0000      -0.416189       -11.3251
  35   2.0000      -0.401898       -10.9362
  36   2.0000      -0.390348       -10.6219
  37   2.0000      -0.383622       -10.4389
  38   2.0000      -0.378625       -10.3029
  39   2.0000      -0.353038        -9.6067
  40   2.0000      -0.352390        -9.5890
  41   2.0000      -0.340842        -9.2748
  42   2.0000      -0.329072        -8.9545
  43   2.0000      -0.301950        -8.2165
  44   2.0000      -0.276004        -7.5105
  45   2.0000      -0.226127        -6.1532
  46   2.0000      -0.194918        -5.3040
  47   0.0000      -0.047067        -1.2808
  48   0.0000       0.028515         0.7759
  49   0.0000       0.035003         0.9525
  50   0.0000       0.056920         1.5489
  51   0.0000       0.062587         1.7031

MULLIKEN ATOMIC CHARGES
-----------------------
   0 C :   -0.145805
   1 S :    0.121374
   2 C :   -0.155541
   3 C :    0.109892
   4 C :    0.114812
   5 C :   -0.072896
   6 C :   -0.075664
   7 C :    0.111487
   8 C :    0.210501
   9 O :   -0.317285
  10 C :    0.186937
  11 C :   -0.133770
  12 H :    0.011572
  13 H :    0.008672
  14 H :   -0.042805
  15 H :    0.001564
  16 H :    0.024821
  17 H :    0.021860
  18 H :    0.031240
  19 H :    0.016386
  20 H :    0.020390
  21 H :   -0.047741
Sum of atomic charges:   -0.0000000

LOEWDIN ATOMIC CHARGES
----------------------
   0 C :   -0.212907
   1 S :    0.464261
   2 C :   -0.225380
   3 C :   -0.044419
   4 C :   -0.057353
   5 C :   -0.024943
   6 C :   -0.039021
   7 C :   -0.043148
   8 C :    0.050808
   9 O :   -0.095543
  10 C :    0.078662
  11 C :   -0.090762
  12 H :    0.022313
  13 H :    0.020769
  14 H :    0.025245
  15 H :    0.025508
  16 H :    0.035125
  17 H :    0.034029
  18 H :    0.025787
  19 H :    0.013039
  20 H :    0.013235
  21 H :    0.024693

  Mayer bond orders larger than 0.100000
B(  0-C ,  1-S ) :   1.2001 B(  0-C ,  2-C ) :   0.1157 B(  0-C ,  4-C ) :   1.4097
B(  0-C , 12-H ) :   0.9640 B(  1-S ,  2-C ) :   1.1821 B(  2-C ,  3-C ) :   1.4210
B(  2-C , 13-H ) :   0.9635 B(  3-C ,  4-C ) :   1.2039 B(  3-C , 11-C ) :   1.1341
B(  4-C ,  5-C ) :   1.1410 B(  5-C ,  6-C ) :   1.5834 B(  5-C , 14-H ) :   0.9949
B(  6-C ,  7-C ) :   1.0835 B(  6-C ,  8-C ) :   1.1786 B(  7-C , 15-H ) :   0.9506
B(  7-C , 16-H ) :   0.9459 B(  7-C , 17-H ) :   0.9432 B(  8-C ,  9-O ) :   1.1539
B(  8-C , 11-C ) :   1.4604 B(  9-O , 10-C ) :   0.9712 B( 10-C , 18-H ) :   0.9760
B( 10-C , 19-H ) :   0.9637 B( 10-C , 20-H ) :   0.9639 B( 11-C , 21-H ) :   0.9991

Dispersion correction           -0.045206995
FINAL SINGLE POINT ENERGY      -860.084859128885

DIPOLE MOMENT
-------------
                                X             Y             Z
Electronic contribution:    -13.64861      -0.92156       0.59447
Nuclear contribution   :     13.99932       1.32982      -0.55878
                        -----------------------------------------
Total Dipole Moment    :      0.35071       0.40825       0.03569
                        -----------------------------------------
Magnitude (a.u.)       :      0.53939
Magnitude (Debye)      :      1.37103

Rotational constants in cm-1:     0.059413     0.017371     0.013511
Rotational constants in MHz :  1781.166871   520.773042   405.039942

                             ****ORCA TERMINATED NORMALLY****
TOTAL RUN TIME: 0 days 0 hours 14 minutes 40 seconds 720 msec
