                         Program Version 4.2.0 -  RELEASE  -
|  1> # ORCA input file
|  2> # SCF done        -33.927058418149          0.000847656580
|  3> ! B3LYP/G D3BJ Opt RIJCOSX def2-SVP def2/J
|  4> * xyz 0 1
|  5>    C        1.60476         1.23485         0.06784
|  6>    S        2.80410         0.01024        -0.03791
|  7>    C        1.59601        -1.20837        -0.10844
|  8>    C        0.33895        -0.69330        -0.05278
|  9>    C        0.34435         0.72564         0.05093
| 10>    C       -0.91549         1.52222         0.16818
| 11>    C       -2.11899         0.72049        -0.32039
| 12>    F       -3.26515         1.40009         0.03180
| 13>    C       -2.13285        -0.67140         0.31699
| 14>    F       -3.27535        -1.34204        -0.06526
| 15>    C       -0.92526        -1.48808        -0.13759
| 16>    H        1.90127         2.26184         0.14081
| 17>    H        1.88536        -2.23662        -0.19162
| 18>    H       -0.84036         2.45530        -0.39302
| 19>    H       -1.09104         1.78414         1.21717
| 20>    H       -2.13989         0.63010        -1.41382
| 21>    H       -2.18443        -0.57864         1.40925
| 22>    H       -1.09996        -1.79034        -1.17588
| 23>    H       -0.85137        -2.39978         0.45827
| 24> *
| 25>
| 26>                          ****END OF INPUT****
 Total Charge           Charge          ....    0
 Multiplicity           Mult            ....    1
 Number of Electrons    NEL             ....   90
Dispersion correction           -0.038217103
FINAL SINGLE POINT ENERGY      -907.083982002537
Dispersion correction            ... done
Dispersion correction           -0.038095209
FINAL SINGLE POINT ENERGY      -907.086262964705
Dispersion correction            ... done
Dispersion correction           -0.038091475
FINAL SINGLE POINT ENERGY      -907.086413632078
Dispersion correction            ... done
FINAL SINGLE POINT ENERGY      -907.086433777206
Dispersion correction            ... done
Dispersion correction           -0.038109905
FINAL SINGLE POINT ENERGY      -907.086439275365
Dispersion correction            ... done
Dispersion correction           -0.038109846
FINAL SINGLE POINT ENERGY      -907.086444002067
Dispersion correction            ... done
                    ***********************HURRAY********************

CARTESIAN COORDINATES (ANGSTROEM)
---------------------------------
  C      1.628106    1.250512    0.038085
  S      2.828397    0.010152   -0.036009
  C      1.621007   -1.225077   -0.074697
  C      0.350168   -0.703039   -0.039619
  C      0.354861    0.733744    0.039864
  C     -0.922963    1.520762    0.172308
  C     -2.129919    0.720264   -0.307116
  F     -3.284308    1.392153    0.051866
  C     -2.142071   -0.671837    0.306721
  F     -3.294237   -1.333997   -0.077180
  C     -0.933192   -1.486314   -0.146818
  H      1.924527    2.296448    0.101305
  H      1.911793   -2.272016   -0.147244
  H     -0.871200    2.473313   -0.374784
  H     -1.105873    1.777766    1.231125
  H     -2.131130    0.621044   -1.407640
  H     -2.167999   -0.571077    1.406897
  H     -1.117006   -1.772018   -1.197854
  H     -0.884302   -2.424444    0.425319

 Multiplicity           Mult            ....    1
 Number of Electrons    NEL             ....   90
 Basis Dimension        Dim             ....  198

ORBITAL ENERGIES
----------------

  NO   OCC          E(Eh)            E(eV)
   0   2.0000     -88.880126     -2418.5512
   1   2.0000     -24.670731      -671.3247
   2   2.0000     -24.670656      -671.3227
   3   2.0000     -10.270104      -279.4637
   4   2.0000     -10.269913      -279.4585
   5   2.0000     -10.216158      -277.9958
   6   2.0000     -10.216109      -277.9945
   7   2.0000     -10.208040      -277.7749
   8   2.0000     -10.207898      -277.7710
   9   2.0000     -10.206621      -277.7363
  10   2.0000     -10.206387      -277.7299
  11   2.0000      -7.975125      -217.0142
  12   2.0000      -5.943197      -161.7226
  13   2.0000      -5.939017      -161.6089
  14   2.0000      -5.936735      -161.5468
  15   2.0000      -1.182295       -32.1719
  16   2.0000      -1.167780       -31.7769
  17   2.0000      -0.892189       -24.2777
  18   2.0000      -0.826360       -22.4864
  19   2.0000      -0.772720       -21.0268
  20   2.0000      -0.734395       -19.9839
  21   2.0000      -0.702643       -19.1199
  22   2.0000      -0.648378       -17.6433
  23   2.0000      -0.606574       -16.5057
  24   2.0000      -0.578624       -15.7452
  25   2.0000      -0.547574       -14.9002
  26   2.0000      -0.524688       -14.2775
  27   2.0000      -0.507673       -13.8145
  28   2.0000      -0.494659       -13.4604
  29   2.0000      -0.485913       -13.2224
  30   2.0000      -0.464742       -12.6463
  31   2.0000      -0.445477       -12.1220
  32   2.0000      -0.430543       -11.7157
  33   2.0000      -0.419154       -11.4058
  34   2.0000      -0.412440       -11.2231
  35   2.0000      -0.406785       -11.0692
  36   2.0000      -0.386107       -10.5065
  37   2.0000      -0.383023       -10.4226
  38   2.0000      -0.370251       -10.0750
  39   2.0000      -0.357422        -9.7260
  40   2.0000      -0.345019        -9.3884
  41   2.0000      -0.334214        -9.0944
  42   2.0000      -0.317015        -8.6264
  43   2.0000      -0.252453        -6.8696
  44   2.0000      -0.243708        -6.6316
  45   0.0000      -0.029081        -0.7913
  46   0.0000       0.036566         0.9950
  47   0.0000       0.041505         1.1294
  48   0.0000       0.057045         1.5523
  49   0.0000       0.069769         1.8985

MULLIKEN ATOMIC CHARGES
-----------------------
   0 C :   -0.135589
   1 S :    0.106383
   2 C :   -0.135532
   3 C :   -0.065538
   4 C :   -0.067471
   5 C :    0.161477
   6 C :    0.189280
   7 F :   -0.252192
   8 C :    0.192728
   9 F :   -0.252719
  10 C :    0.158083
  11 H :    0.015167
  12 H :    0.015166
  13 H :    0.010248
  14 H :    0.023878
  15 H :    0.000325
  16 H :    0.000267
  17 H :    0.024147
  18 H :    0.011891
Sum of atomic charges:   -0.0000000

LOEWDIN ATOMIC CHARGES
----------------------
   0 C :   -0.198340
   1 S :    0.436918
   2 C :   -0.198255
   3 C :   -0.071898
   4 C :   -0.071924
   5 C :   -0.030835
   6 C :    0.094278
   7 F :   -0.126884
   8 C :    0.094704
   9 F :   -0.127076
  10 C :   -0.031149
  11 H :    0.024083
  12 H :    0.024019
  13 H :    0.036104
  14 H :    0.037745
  15 H :    0.017039
  16 H :    0.016977
  17 H :    0.038184
  18 H :    0.036308

  Mayer bond orders larger than 0.100000
B(  0-C ,  1-S ) :   1.1700 B(  0-C ,  4-C ) :   1.5572 B(  0-C , 11-H ) :   0.9661
B(  1-S ,  2-C ) :   1.1704 B(  2-C ,  3-C ) :   1.5572 B(  2-C , 12-H ) :   0.9663
B(  3-C ,  4-C ) :   1.2924 B(  3-C , 10-C ) :   1.0068 B(  4-C ,  5-C ) :   1.0067
B(  5-C ,  6-C ) :   1.0385 B(  5-C , 13-H ) :   0.9096 B(  5-C , 14-H ) :   0.9068
B(  6-C ,  7-F ) :   1.0149 B(  6-C ,  8-C ) :   1.0140 B(  6-C , 15-H ) :   0.9303
B(  8-C ,  9-F ) :   1.0135 B(  8-C , 10-C ) :   1.0385 B(  8-C , 16-H ) :   0.9289
B( 10-C , 17-H ) :   0.9071 B( 10-C , 18-H ) :   0.9101

Dispersion correction           -0.038110707
FINAL SINGLE POINT ENERGY      -907.086444131207

DIPOLE MOMENT
-------------
                                X             Y             Z
Electronic contribution:     -2.99551       0.03107      -0.10316
Nuclear contribution   :      3.94136      -0.03741       0.11528
                        -----------------------------------------
Total Dipole Moment    :      0.94585      -0.00634       0.01211
                        -----------------------------------------
Magnitude (a.u.)       :      0.94595
Magnitude (Debye)      :      2.40441

Rotational constants in cm-1:     0.074618     0.019352     0.015659
Rotational constants in MHz :  2237.002150   580.171641   469.434635

                             ****ORCA TERMINATED NORMALLY****
TOTAL RUN TIME: 0 days 0 hours 6 minutes 58 seconds 544 msec
