                         Program Version 4.2.0 -  RELEASE  -
|  1> # ORCA input file
|  2> # SCF done        -32.640048353635          0.000916303543
|  3> ! B3LYP/G D3BJ Opt RIJCOSX def2-SVP def2/J
|  4> * xyz 0 1
|  5>    C       -1.15974        -0.19280        -0.43129
|  6>    O       -0.85378        -1.36129        -1.04879
|  7>    C        0.16918        -1.87066        -0.37283
|  8>    C        0.54163        -1.05174         0.68335
|  9>    C       -0.33866         0.05082         0.63682
| 10>    C        1.68403        -1.66524         1.40824
| 11>    O        2.28433        -1.25896         2.36991
| 12>    C        1.91868        -2.93100         0.64382
| 13>    C        1.01277        -3.03187        -0.40535
| 14>    S        1.22930        -4.45893        -1.31477
| 15>    C        2.54006        -4.92558        -0.28661
| 16>    C        2.79606        -4.02612         0.70613
| 17>    H       -1.97453         0.36940        -0.84134
| 18>    H       -0.36897         0.89827         1.28950
| 19>    H        3.04275        -5.85069        -0.48662
| 20>    H        3.57043        -4.14546         1.44098
| 21> *
| 22>
| 23>                          ****END OF INPUT****
 Total Charge           Charge          ....    0
 Multiplicity           Mult            ....    1
 Number of Electrons    NEL             ....   90
Dispersion correction           -0.035846425
FINAL SINGLE POINT ENERGY      -893.500131467445
Dispersion correction            ... done
Dispersion correction           -0.035909800
FINAL SINGLE POINT ENERGY      -893.503330166136
Dispersion correction            ... done
Dispersion correction           -0.035910812
FINAL SINGLE POINT ENERGY      -893.503563854241
Dispersion correction            ... done
FINAL SINGLE POINT ENERGY      -893.503508502533
FINAL SINGLE POINT ENERGY      -893.503659541511
Dispersion correction            ... done
Dispersion correction           -0.035899099
FINAL SINGLE POINT ENERGY      -893.503677795735
Dispersion correction            ... done
Dispersion correction           -0.035898609
FINAL SINGLE POINT ENERGY      -893.503680201519
Dispersion correction            ... done
                    ***********************HURRAY********************

CARTESIAN COORDINATES (ANGSTROEM)
---------------------------------
  C     -1.180947   -0.161391   -0.437662
  O     -0.865447   -1.370914   -1.027740
  C      0.161499   -1.860484   -0.329814
  C      0.531777   -1.025999    0.700103
  C     -0.351620    0.096353    0.625973
  C      1.678581   -1.667262    1.432124
  O      2.274034   -1.284017    2.409931
  C      1.921243   -2.955205    0.655812
  C      1.000014   -3.050339   -0.382946
  S      1.220630   -4.471813   -1.312457
  C      2.565079   -4.953853   -0.309787
  C      2.820779   -4.048814    0.699737
  H     -2.004492    0.378377   -0.894802
  H     -0.379671    0.979189    1.260296
  H      3.083867   -5.884936   -0.531039
  H      3.618215   -4.170743    1.433420

 Multiplicity           Mult            ....    1
 Number of Electrons    NEL             ....   90
 Basis Dimension        Dim             ....  192

ORBITAL ENERGIES
----------------

  NO   OCC          E(Eh)            E(eV)
   0   2.0000     -88.901770     -2419.1402
   1   2.0000     -19.229168      -523.2523
   2   2.0000     -19.138572      -520.7870
   3   2.0000     -10.292522      -280.0738
   4   2.0000     -10.269383      -279.4441
   5   2.0000     -10.255124      -279.0561
   6   2.0000     -10.240565      -278.6599
   7   2.0000     -10.227984      -278.3176
   8   2.0000     -10.214445      -277.9492
   9   2.0000     -10.212706      -277.9019
  10   2.0000     -10.203736      -277.6578
  11   2.0000     -10.195733      -277.4400
  12   2.0000      -7.995592      -217.5711
  13   2.0000      -5.963666      -162.2796
  14   2.0000      -5.959455      -162.1650
  15   2.0000      -5.957310      -162.1067
  16   2.0000      -1.129842       -30.7446
  17   2.0000      -1.042247       -28.3610
  18   2.0000      -0.909909       -24.7599
  19   2.0000      -0.842065       -22.9138
  20   2.0000      -0.792878       -21.5753
  21   2.0000      -0.756713       -20.5912
  22   2.0000      -0.715643       -19.4736
  23   2.0000      -0.662705       -18.0331
  24   2.0000      -0.617799       -16.8112
  25   2.0000      -0.581947       -15.8356
  26   2.0000      -0.561882       -15.2896
  27   2.0000      -0.551569       -15.0089
  28   2.0000      -0.506655       -13.7868
  29   2.0000      -0.487325       -13.2608
  30   2.0000      -0.486318       -13.2334
  31   2.0000      -0.448514       -12.2047
  32   2.0000      -0.446823       -12.1587
  33   2.0000      -0.432638       -11.7727
  34   2.0000      -0.426561       -11.6073
  35   2.0000      -0.419488       -11.4148
  36   2.0000      -0.401003       -10.9118
  37   2.0000      -0.389804       -10.6071
  38   2.0000      -0.381901       -10.3921
  39   2.0000      -0.371726       -10.1152
  40   2.0000      -0.307151        -8.3580
  41   2.0000      -0.292455        -7.9581
  42   2.0000      -0.276012        -7.5107
  43   2.0000      -0.265830        -7.2336
  44   2.0000      -0.214706        -5.8424
  45   0.0000      -0.094916        -2.5828
  46   0.0000      -0.020298        -0.5523
  47   0.0000       0.013343         0.3631
  48   0.0000       0.027989         0.7616
  49   0.0000       0.071402         1.9429

MULLIKEN ATOMIC CHARGES
-----------------------
   0 C :    0.135014
   1 O :   -0.195279
   2 C :    0.080691
   3 C :   -0.075076
   4 C :   -0.041822
   5 C :    0.196014
   6 O :   -0.126836
   7 C :   -0.089437
   8 C :   -0.062468
   9 S :    0.178400
  10 C :   -0.095946
  11 C :    0.039568
  12 H :    0.013877
  13 H :    0.005082
  14 H :    0.033790
  15 H :    0.004425
Sum of atomic charges:   -0.0000000

LOEWDIN ATOMIC CHARGES
----------------------
   0 C :    0.038843
   1 O :    0.016047
   2 C :    0.030117
   3 C :   -0.112306
   4 C :   -0.042606
   5 C :    0.094367
   6 O :   -0.116130
   7 C :   -0.095053
   8 C :   -0.194615
   9 S :    0.468544
  10 C :   -0.186816
  11 C :   -0.034489
  12 H :    0.025605
  13 H :    0.040146
  14 H :    0.027132
  15 H :    0.041212

  Mayer bond orders larger than 0.100000
B(  0-C ,  1-O ) :   1.0697 B(  0-C ,  4-C ) :   1.5353 B(  0-C , 12-H ) :   1.0038
B(  1-O ,  2-C ) :   1.2165 B(  2-C ,  3-C ) :   1.4772 B(  2-C ,  8-C ) :   1.1128
B(  3-C ,  4-C ) :   1.2390 B(  3-C ,  5-C ) :   0.9205 B(  4-C , 13-H ) :   1.0031
B(  5-C ,  6-O ) :   2.2587 B(  5-C ,  7-C ) :   0.9130 B(  7-C ,  8-C ) :   1.4483
B(  7-C , 11-C ) :   1.3134 B(  8-C ,  9-S ) :   1.1240 B(  9-S , 10-C ) :   1.1466
B( 10-C , 11-C ) :   1.5132 B( 10-C , 14-H ) :   0.9643 B( 11-C , 15-H ) :   0.9973

Dispersion correction           -0.035899554
FINAL SINGLE POINT ENERGY      -893.503677673702

DIPOLE MOMENT
-------------
                                X             Y             Z
Electronic contribution:     -0.67437      -1.43509      -1.70313
Nuclear contribution   :      0.28973       1.09753       0.96703
                        -----------------------------------------
Total Dipole Moment    :     -0.38464      -0.33756      -0.73611
                        -----------------------------------------
Magnitude (a.u.)       :      0.89652
Magnitude (Debye)      :      2.27878

Rotational constants in cm-1:     0.050461     0.025369     0.016883
Rotational constants in MHz :  1512.774513   760.533149   506.147411

                             ****ORCA TERMINATED NORMALLY****
TOTAL RUN TIME: 0 days 0 hours 7 minutes 32 seconds 134 msec
